 Entering Gaussian System, Link 0=g09
 Input=opt_freq-conf-628.com
 Output=opt_freq-conf-628.log
 Initial command:
 /aerosol/software/g09/l1.exe "/scratch/nicole/10531/Gau-96468.inp" -scrdir="/scratch/nicole/10531/"
 Entering Link 1 = /aerosol/software/g09/l1.exe PID=     96472.
  
 Copyright (c) 1988,1990,1992,1993,1995,1998,2003,2009,2013,
            Gaussian, Inc.  All Rights Reserved.
  
 This is part of the Gaussian(R) 09 program.  It is based on
 the Gaussian(R) 03 system (copyright 2003, Gaussian, Inc.),
 the Gaussian(R) 98 system (copyright 1998, Gaussian, Inc.),
 the Gaussian(R) 94 system (copyright 1995, Gaussian, Inc.),
 the Gaussian 92(TM) system (copyright 1992, Gaussian, Inc.),
 the Gaussian 90(TM) system (copyright 1990, Gaussian, Inc.),
 the Gaussian 88(TM) system (copyright 1988, Gaussian, Inc.),
 the Gaussian 86(TM) system (copyright 1986, Carnegie Mellon
 University), and the Gaussian 82(TM) system (copyright 1983,
 Carnegie Mellon University). Gaussian is a federally registered
 trademark of Gaussian, Inc.
  
 This software contains proprietary and confidential information,
 including trade secrets, belonging to Gaussian, Inc.
  
 This software is provided under written license and may be
 used, copied, transmitted, or stored only in accord with that
 written license.
  
 The following legend is applicable only to US Government
 contracts under FAR:
  
                    RESTRICTED RIGHTS LEGEND
  
 Use, reproduction and disclosure by the US Government is
 subject to restrictions as set forth in subparagraphs (a)
 and (c) of the Commercial Computer Software - Restricted
 Rights clause in FAR 52.227-19.
  
 Gaussian, Inc.
 340 Quinnipiac St., Bldg. 40, Wallingford CT 06492
  
  
 ---------------------------------------------------------------
 Warning -- This program may not be used in any manner that
 competes with the business of Gaussian, Inc. or will provide
 assistance to any competitor of Gaussian, Inc.  The licensee
 of this program is prohibited from giving any competitor of
 Gaussian, Inc. access to this program.  By using this program,
 the user acknowledges that Gaussian, Inc. is engaged in the
 business of creating and licensing software in the field of
 computational chemistry and represents and warrants to the
 licensee that it is not a competitor of Gaussian, Inc. and that
 it will not use this program in any manner prohibited above.
 ---------------------------------------------------------------
  

 Cite this work as:
 Gaussian 09, Revision D.01,
 M. J. Frisch, G. W. Trucks, H. B. Schlegel, G. E. Scuseria, 
 M. A. Robb, J. R. Cheeseman, G. Scalmani, V. Barone, B. Mennucci, 
 G. A. Petersson, H. Nakatsuji, M. Caricato, X. Li, H. P. Hratchian, 
 A. F. Izmaylov, J. Bloino, G. Zheng, J. L. Sonnenberg, M. Hada, 
 M. Ehara, K. Toyota, R. Fukuda, J. Hasegawa, M. Ishida, T. Nakajima, 
 Y. Honda, O. Kitao, H. Nakai, T. Vreven, J. A. Montgomery, Jr., 
 J. E. Peralta, F. Ogliaro, M. Bearpark, J. J. Heyd, E. Brothers, 
 K. N. Kudin, V. N. Staroverov, T. Keith, R. Kobayashi, J. Normand, 
 K. Raghavachari, A. Rendell, J. C. Burant, S. S. Iyengar, J. Tomasi, 
 M. Cossi, N. Rega, J. M. Millam, M. Klene, J. E. Knox, J. B. Cross, 
 V. Bakken, C. Adamo, J. Jaramillo, R. Gomperts, R. E. Stratmann, 
 O. Yazyev, A. J. Austin, R. Cammi, C. Pomelli, J. W. Ochterski, 
 R. L. Martin, K. Morokuma, V. G. Zakrzewski, G. A. Voth, 
 P. Salvador, J. J. Dannenberg, S. Dapprich, A. D. Daniels, 
 O. Farkas, J. B. Foresman, J. V. Ortiz, J. Cioslowski, 
 and D. J. Fox, Gaussian, Inc., Wallingford CT, 2013.
 
 ******************************************
 Gaussian 09:  ES64L-G09RevD.01 24-Apr-2013
                27-Jul-2021 
 ******************************************
 %mem=2gb
 %nproc=4
 Will use up to    4 processors via shared memory.
 %chk=conf-628.chk
 ----------------------------------------------------------------------
 # B3LYP/6-31G(d) EmpiricalDispersion=GD3BJ opt=calcfc freq=noraman nos
 ymm integral(ultrafinegrid)
 ----------------------------------------------------------------------
 1/10=4,14=-1,18=20,19=15,26=4,38=1/1,3;
 2/9=110,12=2,15=1,17=6,18=5,40=1/2;
 3/5=1,6=6,7=1,11=2,16=1,25=1,30=1,71=2,74=-5,75=-5,124=41,140=1/1,2,3;
 4//1;
 5/5=2,38=5/2;
 8/6=4,10=90,11=11/1;
 11/6=1,8=1,9=11,15=111,16=1,31=1/1,2,10;
 10/6=1,13=1,31=1/2;
 6/7=2,8=2,9=2,10=2,28=1/1;
 7/10=1,18=20,25=1,30=1/1,2,3,16;
 1/10=4,14=-1,18=20,19=15,26=4/3(2);
 2/9=110,15=1/2;
 99//99;
 2/9=110,15=1/2;
 3/5=1,6=6,7=1,11=2,16=1,25=1,30=1,71=1,74=-5,75=-5,124=41/1,2,3;
 4/5=5,16=3,69=1/1;
 5/5=2,38=5/2;
 7/30=1/1,2,3,16;
 1/14=-1,18=20,19=15,26=4/3(-5);
 2/9=110,15=1/2;
 6/7=2,8=2,9=2,10=2,19=2,28=1/1;
 99/9=1/99;
 ------------------------------------------------------------
 Candidate Structure: Conf:628 OPT and FREQ calc in gas phase
 ------------------------------------------------------------
 Symbolic Z-matrix:
 Charge =  1 Multiplicity = 1
 O                    -1.23346   0.12207  -0.84287 
 C                    -1.46356  -0.06705   0.34931 
 N                    -0.46101  -0.24379   1.22995 
 C                     0.90694  -0.33709   0.75078 
 C                     1.71594  -0.95986   1.86883 
 O                     3.00756  -1.162     1.5238 
 O                     1.28005  -1.2415    2.95329 
 C                     1.44827   1.05177   0.32468 
 C                     2.3268    0.99156  -0.87917 
 C                     2.2344    1.60899  -2.09359 
 N                     3.28424   1.23058  -2.91301 
 C                     3.98976   0.38949  -2.19678 
 N                     3.44646   0.20531  -0.96361 
 C                    -2.87106  -0.07869   0.92827 
 C                    -3.8502   -0.83512   0.0418 
 N                    -3.94724  -0.19776  -1.29196 
 H                    -0.63042  -0.51316   2.1862 
 H                     0.91497  -1.01819  -0.10778 
 H                     3.43321  -1.56793   2.29421 
 H                     0.60119   1.68663   0.07355 
 H                     1.95518   1.52679   1.16546 
 H                     1.47839   2.30342  -2.43091 
 H                     4.89002  -0.11398  -2.50001 
 H                     3.77118  -0.40044  -0.22689 
 H                    -2.85146  -0.51082   1.9302 
 H                    -3.19337   0.96164   1.02586 
 H                    -3.51778  -1.86885  -0.07297 
 H                    -4.83409  -0.86052   0.51303 
 H                    -4.44019   0.69304  -1.23969 
 H                    -2.9845    0.00017  -1.59919 
 H                    -4.40624  -0.79443  -1.97939 
 

 GradGradGradGradGradGradGradGradGradGradGradGradGradGradGradGradGradGrad
 Berny optimization.
 Initialization pass.
                           ----------------------------
                           !    Initial Parameters    !
                           ! (Angstroms and Degrees)  !
 --------------------------                            --------------------------
 ! Name  Definition              Value          Derivative Info.                !
 --------------------------------------------------------------------------------
 ! R1    R(1,2)                  1.2288         calculate D2E/DX2 analytically  !
 ! R2    R(2,3)                  1.3461         calculate D2E/DX2 analytically  !
 ! R3    R(2,14)                 1.522          calculate D2E/DX2 analytically  !
 ! R4    R(3,4)                  1.4524         calculate D2E/DX2 analytically  !
 ! R5    R(3,17)                 1.0078         calculate D2E/DX2 analytically  !
 ! R6    R(4,5)                  1.514          calculate D2E/DX2 analytically  !
 ! R7    R(4,8)                  1.5503         calculate D2E/DX2 analytically  !
 ! R8    R(4,18)                 1.0959         calculate D2E/DX2 analytically  !
 ! R9    R(5,6)                  1.3521         calculate D2E/DX2 analytically  !
 ! R10   R(5,7)                  1.2022         calculate D2E/DX2 analytically  !
 ! R11   R(6,19)                 0.9693         calculate D2E/DX2 analytically  !
 ! R12   R(8,9)                  1.4915         calculate D2E/DX2 analytically  !
 ! R13   R(8,20)                 1.088          calculate D2E/DX2 analytically  !
 ! R14   R(8,21)                 1.0906         calculate D2E/DX2 analytically  !
 ! R15   R(9,10)                 1.3655         calculate D2E/DX2 analytically  !
 ! R16   R(9,13)                 1.3708         calculate D2E/DX2 analytically  !
 ! R17   R(10,11)                1.3845         calculate D2E/DX2 analytically  !
 ! R18   R(10,22)                1.0805         calculate D2E/DX2 analytically  !
 ! R19   R(11,12)                1.3108         calculate D2E/DX2 analytically  !
 ! R20   R(12,13)                1.3601         calculate D2E/DX2 analytically  !
 ! R21   R(12,23)                1.0751         calculate D2E/DX2 analytically  !
 ! R22   R(13,24)                1.0075         calculate D2E/DX2 analytically  !
 ! R23   R(14,15)                1.5221         calculate D2E/DX2 analytically  !
 ! R24   R(14,25)                1.0913         calculate D2E/DX2 analytically  !
 ! R25   R(14,26)                1.0935         calculate D2E/DX2 analytically  !
 ! R26   R(15,16)                1.4814         calculate D2E/DX2 analytically  !
 ! R27   R(15,27)                1.0919         calculate D2E/DX2 analytically  !
 ! R28   R(15,28)                1.0912         calculate D2E/DX2 analytically  !
 ! R29   R(16,29)                1.0194         calculate D2E/DX2 analytically  !
 ! R30   R(16,30)                1.0298         calculate D2E/DX2 analytically  !
 ! R31   R(16,31)                1.0194         calculate D2E/DX2 analytically  !
 ! A1    A(1,2,3)              121.0287         calculate D2E/DX2 analytically  !
 ! A2    A(1,2,14)             122.9159         calculate D2E/DX2 analytically  !
 ! A3    A(3,2,14)             116.0343         calculate D2E/DX2 analytically  !
 ! A4    A(2,3,4)              119.6091         calculate D2E/DX2 analytically  !
 ! A5    A(2,3,17)             122.0502         calculate D2E/DX2 analytically  !
 ! A6    A(4,3,17)             117.0118         calculate D2E/DX2 analytically  !
 ! A7    A(3,4,5)              106.6215         calculate D2E/DX2 analytically  !
 ! A8    A(3,4,8)              111.2221         calculate D2E/DX2 analytically  !
 ! A9    A(3,4,18)             107.7743         calculate D2E/DX2 analytically  !
 ! A10   A(5,4,8)              112.6361         calculate D2E/DX2 analytically  !
 ! A11   A(5,4,18)             108.6            calculate D2E/DX2 analytically  !
 ! A12   A(8,4,18)             109.8079         calculate D2E/DX2 analytically  !
 ! A13   A(4,5,6)              112.5496         calculate D2E/DX2 analytically  !
 ! A14   A(4,5,7)              124.6622         calculate D2E/DX2 analytically  !
 ! A15   A(6,5,7)              122.786          calculate D2E/DX2 analytically  !
 ! A16   A(5,6,19)             106.2178         calculate D2E/DX2 analytically  !
 ! A17   A(4,8,9)              113.0376         calculate D2E/DX2 analytically  !
 ! A18   A(4,8,20)             108.3203         calculate D2E/DX2 analytically  !
 ! A19   A(4,8,21)             109.9119         calculate D2E/DX2 analytically  !
 ! A20   A(9,8,20)             107.2092         calculate D2E/DX2 analytically  !
 ! A21   A(9,8,21)             111.4708         calculate D2E/DX2 analytically  !
 ! A22   A(20,8,21)            106.5992         calculate D2E/DX2 analytically  !
 ! A23   A(8,9,10)             131.2776         calculate D2E/DX2 analytically  !
 ! A24   A(8,9,13)             123.6415         calculate D2E/DX2 analytically  !
 ! A25   A(10,9,13)            105.0607         calculate D2E/DX2 analytically  !
 ! A26   A(9,10,11)            110.5777         calculate D2E/DX2 analytically  !
 ! A27   A(9,10,22)            127.9938         calculate D2E/DX2 analytically  !
 ! A28   A(11,10,22)           121.4286         calculate D2E/DX2 analytically  !
 ! A29   A(10,11,12)           105.0775         calculate D2E/DX2 analytically  !
 ! A30   A(11,12,13)           111.5502         calculate D2E/DX2 analytically  !
 ! A31   A(11,12,23)           126.6602         calculate D2E/DX2 analytically  !
 ! A32   A(13,12,23)           121.7894         calculate D2E/DX2 analytically  !
 ! A33   A(9,13,12)            107.7261         calculate D2E/DX2 analytically  !
 ! A34   A(9,13,24)            124.2674         calculate D2E/DX2 analytically  !
 ! A35   A(12,13,24)           128.0001         calculate D2E/DX2 analytically  !
 ! A36   A(2,14,15)            112.158          calculate D2E/DX2 analytically  !
 ! A37   A(2,14,25)            109.6131         calculate D2E/DX2 analytically  !
 ! A38   A(2,14,26)            107.4131         calculate D2E/DX2 analytically  !
 ! A39   A(15,14,25)           110.4549         calculate D2E/DX2 analytically  !
 ! A40   A(15,14,26)           109.5831         calculate D2E/DX2 analytically  !
 ! A41   A(25,14,26)           107.4625         calculate D2E/DX2 analytically  !
 ! A42   A(14,15,16)           110.6517         calculate D2E/DX2 analytically  !
 ! A43   A(14,15,27)           109.625          calculate D2E/DX2 analytically  !
 ! A44   A(14,15,28)           109.8824         calculate D2E/DX2 analytically  !
 ! A45   A(16,15,27)           109.4274         calculate D2E/DX2 analytically  !
 ! A46   A(16,15,28)           109.862          calculate D2E/DX2 analytically  !
 ! A47   A(27,15,28)           107.3284         calculate D2E/DX2 analytically  !
 ! A48   A(15,16,29)           111.1897         calculate D2E/DX2 analytically  !
 ! A49   A(15,16,30)           106.8621         calculate D2E/DX2 analytically  !
 ! A50   A(15,16,31)           112.6314         calculate D2E/DX2 analytically  !
 ! A51   A(29,16,30)           107.4223         calculate D2E/DX2 analytically  !
 ! A52   A(29,16,31)           109.1651         calculate D2E/DX2 analytically  !
 ! A53   A(30,16,31)           109.4057         calculate D2E/DX2 analytically  !
 ! D1    D(1,2,3,4)             -5.7833         calculate D2E/DX2 analytically  !
 ! D2    D(1,2,3,17)          -172.2233         calculate D2E/DX2 analytically  !
 ! D3    D(14,2,3,4)           175.8395         calculate D2E/DX2 analytically  !
 ! D4    D(14,2,3,17)            9.3995         calculate D2E/DX2 analytically  !
 ! D5    D(1,2,14,15)           42.5179         calculate D2E/DX2 analytically  !
 ! D6    D(1,2,14,25)          165.59           calculate D2E/DX2 analytically  !
 ! D7    D(1,2,14,26)          -77.9467         calculate D2E/DX2 analytically  !
 ! D8    D(3,2,14,15)         -139.1387         calculate D2E/DX2 analytically  !
 ! D9    D(3,2,14,25)          -16.0665         calculate D2E/DX2 analytically  !
 ! D10   D(3,2,14,26)          100.3967         calculate D2E/DX2 analytically  !
 ! D11   D(2,3,4,5)           -162.3258         calculate D2E/DX2 analytically  !
 ! D12   D(2,3,4,8)             74.5263         calculate D2E/DX2 analytically  !
 ! D13   D(2,3,4,18)           -45.8863         calculate D2E/DX2 analytically  !
 ! D14   D(17,3,4,5)             4.7854         calculate D2E/DX2 analytically  !
 ! D15   D(17,3,4,8)          -118.3625         calculate D2E/DX2 analytically  !
 ! D16   D(17,3,4,18)          121.2248         calculate D2E/DX2 analytically  !
 ! D17   D(3,4,5,6)            177.0537         calculate D2E/DX2 analytically  !
 ! D18   D(3,4,5,7)             -3.4817         calculate D2E/DX2 analytically  !
 ! D19   D(8,4,5,6)            -60.685          calculate D2E/DX2 analytically  !
 ! D20   D(8,4,5,7)            118.7796         calculate D2E/DX2 analytically  !
 ! D21   D(18,4,5,6)            61.1665         calculate D2E/DX2 analytically  !
 ! D22   D(18,4,5,7)          -119.3689         calculate D2E/DX2 analytically  !
 ! D23   D(3,4,8,9)           -142.6518         calculate D2E/DX2 analytically  !
 ! D24   D(3,4,8,20)           -24.0009         calculate D2E/DX2 analytically  !
 ! D25   D(3,4,8,21)            92.103          calculate D2E/DX2 analytically  !
 ! D26   D(5,4,8,9)             97.7181         calculate D2E/DX2 analytically  !
 ! D27   D(5,4,8,20)          -143.631          calculate D2E/DX2 analytically  !
 ! D28   D(5,4,8,21)           -27.5271         calculate D2E/DX2 analytically  !
 ! D29   D(18,4,8,9)           -23.4471         calculate D2E/DX2 analytically  !
 ! D30   D(18,4,8,20)           95.2039         calculate D2E/DX2 analytically  !
 ! D31   D(18,4,8,21)         -148.6922         calculate D2E/DX2 analytically  !
 ! D32   D(4,5,6,19)          -179.4098         calculate D2E/DX2 analytically  !
 ! D33   D(7,5,6,19)             1.114          calculate D2E/DX2 analytically  !
 ! D34   D(4,8,9,10)           122.1202         calculate D2E/DX2 analytically  !
 ! D35   D(4,8,9,13)           -55.9913         calculate D2E/DX2 analytically  !
 ! D36   D(20,8,9,10)            2.8264         calculate D2E/DX2 analytically  !
 ! D37   D(20,8,9,13)         -175.2851         calculate D2E/DX2 analytically  !
 ! D38   D(21,8,9,10)         -113.4811         calculate D2E/DX2 analytically  !
 ! D39   D(21,8,9,13)           68.4074         calculate D2E/DX2 analytically  !
 ! D40   D(8,9,10,11)         -179.1727         calculate D2E/DX2 analytically  !
 ! D41   D(8,9,10,22)            0.8717         calculate D2E/DX2 analytically  !
 ! D42   D(13,9,10,11)          -0.8008         calculate D2E/DX2 analytically  !
 ! D43   D(13,9,10,22)         179.2437         calculate D2E/DX2 analytically  !
 ! D44   D(8,9,13,12)          179.4127         calculate D2E/DX2 analytically  !
 ! D45   D(8,9,13,24)            0.2674         calculate D2E/DX2 analytically  !
 ! D46   D(10,9,13,12)           0.8823         calculate D2E/DX2 analytically  !
 ! D47   D(10,9,13,24)        -178.263          calculate D2E/DX2 analytically  !
 ! D48   D(9,10,11,12)           0.4004         calculate D2E/DX2 analytically  !
 ! D49   D(22,10,11,12)       -179.6406         calculate D2E/DX2 analytically  !
 ! D50   D(10,11,12,13)          0.1804         calculate D2E/DX2 analytically  !
 ! D51   D(10,11,12,23)       -179.6957         calculate D2E/DX2 analytically  !
 ! D52   D(11,12,13,9)          -0.6868         calculate D2E/DX2 analytically  !
 ! D53   D(11,12,13,24)        178.4169         calculate D2E/DX2 analytically  !
 ! D54   D(23,12,13,9)         179.1963         calculate D2E/DX2 analytically  !
 ! D55   D(23,12,13,24)         -1.7            calculate D2E/DX2 analytically  !
 ! D56   D(2,14,15,16)         -61.1453         calculate D2E/DX2 analytically  !
 ! D57   D(2,14,15,27)          59.6366         calculate D2E/DX2 analytically  !
 ! D58   D(2,14,15,28)         177.3607         calculate D2E/DX2 analytically  !
 ! D59   D(25,14,15,16)        176.2583         calculate D2E/DX2 analytically  !
 ! D60   D(25,14,15,27)        -62.9598         calculate D2E/DX2 analytically  !
 ! D61   D(25,14,15,28)         54.7643         calculate D2E/DX2 analytically  !
 ! D62   D(26,14,15,16)         58.0532         calculate D2E/DX2 analytically  !
 ! D63   D(26,14,15,27)        178.835          calculate D2E/DX2 analytically  !
 ! D64   D(26,14,15,28)        -63.4408         calculate D2E/DX2 analytically  !
 ! D65   D(14,15,16,29)        -71.244          calculate D2E/DX2 analytically  !
 ! D66   D(14,15,16,30)         45.6958         calculate D2E/DX2 analytically  !
 ! D67   D(14,15,16,31)        165.8619         calculate D2E/DX2 analytically  !
 ! D68   D(27,15,16,29)        167.8569         calculate D2E/DX2 analytically  !
 ! D69   D(27,15,16,30)        -75.2034         calculate D2E/DX2 analytically  !
 ! D70   D(27,15,16,31)         44.9627         calculate D2E/DX2 analytically  !
 ! D71   D(28,15,16,29)         50.2621         calculate D2E/DX2 analytically  !
 ! D72   D(28,15,16,30)        167.2018         calculate D2E/DX2 analytically  !
 ! D73   D(28,15,16,31)        -72.632          calculate D2E/DX2 analytically  !
 --------------------------------------------------------------------------------
 Trust Radius=3.00D-01 FncErr=1.00D-07 GrdErr=1.00D-06
 Number of steps in this run=    167 maximum allowed number of steps=    186.
 GradGradGradGradGradGradGradGradGradGradGradGradGradGradGradGradGradGrad

                          Input orientation:                          
 ---------------------------------------------------------------------
 Center     Atomic      Atomic             Coordinates (Angstroms)
 Number     Number       Type             X           Y           Z
 ---------------------------------------------------------------------
      1          8           0       -1.233463    0.122074   -0.842866
      2          6           0       -1.463560   -0.067049    0.349309
      3          7           0       -0.461006   -0.243787    1.229948
      4          6           0        0.906943   -0.337087    0.750784
      5          6           0        1.715938   -0.959856    1.868830
      6          8           0        3.007560   -1.161999    1.523802
      7          8           0        1.280047   -1.241497    2.953289
      8          6           0        1.448272    1.051775    0.324677
      9          6           0        2.326805    0.991563   -0.879167
     10          6           0        2.234402    1.608991   -2.093590
     11          7           0        3.284242    1.230580   -2.913009
     12          6           0        3.989758    0.389487   -2.196781
     13          7           0        3.446464    0.205306   -0.963613
     14          6           0       -2.871056   -0.078694    0.928273
     15          6           0       -3.850202   -0.835119    0.041802
     16          7           0       -3.947238   -0.197765   -1.291964
     17          1           0       -0.630415   -0.513162    2.186204
     18          1           0        0.914972   -1.018186   -0.107783
     19          1           0        3.433214   -1.567928    2.294215
     20          1           0        0.601188    1.686628    0.073553
     21          1           0        1.955185    1.526786    1.165459
     22          1           0        1.478392    2.303420   -2.430909
     23          1           0        4.890020   -0.113984   -2.500014
     24          1           0        3.771180   -0.400440   -0.226888
     25          1           0       -2.851456   -0.510823    1.930199
     26          1           0       -3.193370    0.961642    1.025863
     27          1           0       -3.517783   -1.868848   -0.072974
     28          1           0       -4.834088   -0.860524    0.513026
     29          1           0       -4.440189    0.693039   -1.239695
     30          1           0       -2.984500    0.000168   -1.599192
     31          1           0       -4.406235   -0.794427   -1.979392
 ---------------------------------------------------------------------
                    Distance matrix (angstroms):
                    1          2          3          4          5
     1  O    0.000000
     2  C    1.228818   0.000000
     3  N    2.242121   1.346060   0.000000
     4  C    2.707746   2.419378   1.452442   0.000000
     5  C    4.150040   3.635280   2.379077   1.514048   0.000000
     6  O    5.023568   4.750712   3.600057   2.385504   1.352107
     7  O    4.752668   3.960736   2.645108   2.410020   1.202238
     8  C    3.069071   3.119477   2.478576   1.550336   2.550041
     9  C    3.665083   4.122703   3.707606   2.537333   3.425300
    10  C    3.975087   4.738332   4.663038   3.693214   4.750637
    11  N    5.091555   5.904929   5.776221   4.640313   5.488494
    12  C    5.402465   6.035700   5.652681   4.326638   4.849760
    13  N    4.682224   5.089821   4.503523   3.111674   3.517819
    14  C    2.420527   1.521965   2.434462   3.790982   4.764620
    15  C    2.923385   2.525975   3.639782   4.835403   5.859651
    16  N    2.769217   2.979852   4.303019   5.268330   6.530158
    17  H    3.153167   2.065752   1.007813   2.110665   2.409489
    18  H    2.540927   2.602117   2.069428   1.095946   2.133529
    19  H    5.871563   5.478476   4.248642   3.206118   1.870759
    20  H    2.579457   2.722978   2.488375   2.155818   3.386674
    21  H    4.021699   3.859304   2.996175   2.178253   2.595256
    22  H    3.825481   4.690822   4.863271   4.173967   5.403068
    23  H    6.348141   6.963392   6.524028   5.146102   5.465994
    24  H    5.069408   5.276898   4.478650   3.027161   2.988143
    25  H    3.272362   2.149978   2.505177   3.942939   4.589824
    26  H    2.835183   2.123245   2.993413   4.309864   5.338918
    27  H    3.126439   2.764893   3.698961   4.754268   5.655855
    28  H    3.970950   3.466535   4.474169   5.769745   6.689612
    29  H    3.281245   3.458754   4.776053   5.797843   7.091748
    30  H    1.911288   2.472737   3.798891   4.558449   5.919708
    31  H    3.492585   3.822468   5.115457   5.991067   7.233062
                    6          7          8          9         10
     6  O    0.000000
     7  O    2.243669   0.000000
     8  C    2.961431   3.492421   0.000000
     9  C    3.297805   4.557410   1.491538   0.000000
    10  C    4.621871   5.874272   2.603172   1.365496   0.000000
    11  N    5.048394   6.673936   3.726307   2.260603   1.384487
    12  C    4.149044   6.043663   3.640814   2.205451   2.139886
    13  N    2.872176   4.704118   2.523682   1.370754   2.171699
    14  C    6.007190   4.762821   4.505428   5.606250   6.168115
    15  C    7.023680   5.912813   5.631537   6.506947   6.896085
    16  N    7.564886   6.814401   5.769437   6.399102   6.489965
    17  H    3.754281   2.183749   3.199258   4.517283   5.570220
    18  H    2.657382   3.090843   2.180863   2.574372   3.547730
    19  H    0.969276   2.275316   3.831699   4.224392   5.548225
    20  H    4.001065   4.162649   1.087958   2.090106   2.714761
    21  H    2.909548   3.363858   1.090647   2.145941   3.272021
    22  H    5.476059   6.449447   3.026677   2.201971   1.080540
    23  H    4.564328   6.636392   4.602554   3.227917   3.191572
    24  H    2.056211   4.126336   2.794468   2.109350   3.143895
    25  H    5.909082   4.318555   4.848409   6.079809   6.822789
    26  H    6.573380   5.346051   4.695170   5.839723   6.293708
    27  H    6.754955   5.707102   5.774934   6.556760   7.018966
    28  H    7.912269   6.594140   6.569658   7.526407   7.928209
    29  H    8.157637   7.351507   6.103271   6.783163   6.791044
    30  H    6.856275   6.360282   4.945362   5.450803   5.483582
    31  H    8.208035   7.540890   6.556862   7.052239   7.063110
                   11         12         13         14         15
    11  N    0.000000
    12  C    1.310791   0.000000
    13  N    2.208539   1.360071   0.000000
    14  C    7.372743   7.553537   6.600829   0.000000
    15  C    7.993642   8.244749   7.438728   1.522083   0.000000
    16  N    7.547334   8.009960   7.411957   2.470182   1.481407
    17  H    6.660867   6.432055   5.201778   2.606074   3.881899
    18  H    4.305773   3.974891   2.939018   4.036095   4.771035
    19  H    5.913461   4.930543   3.709175   6.620229   7.658885
    20  H    4.040583   4.280117   3.371294   3.987905   5.116160
    21  H    4.299771   4.091160   2.916020   5.091800   6.367395
    22  H    2.155110   3.166214   3.229295   5.989680   6.660228
    23  H    2.134699   1.075130   2.132212   8.484615   9.130846
    24  H    3.180028   2.133598   1.007538   6.749608   7.638495
    25  H    8.008491   8.040194   6.967839   1.091319   2.160719
    26  H    7.585940   7.893676   6.972622   1.093485   2.151315
    27  H    7.996236   8.122425   7.320934   2.150675   1.091912
    28  H    9.056363   9.314818   8.478443   2.153412   1.091205
    29  H    7.921853   8.489532   7.906541   2.785289   2.079804
    30  H    6.522051   7.010631   6.465550   2.531239   2.034701
    31  H    8.007230   8.481840   7.980987   3.365050   2.096677
                   16         17         18         19         20
    16  N    0.000000
    17  H    4.816476   0.000000
    18  H    5.071140   2.811699   0.000000
    19  H    8.319200   4.199676   3.523259   0.000000
    20  H    5.109184   3.289258   2.728985   4.852200   0.000000
    21  H    6.622054   3.447990   3.029863   3.610528   1.746744
    22  H    6.081988   5.804992   4.092361   6.413693   2.724381
    23  H    8.919839   7.252254   4.726664   5.217362   5.315969
    24  H    7.794192   5.020932   2.924674   2.798787   3.807225
    25  H    3.417760   2.235747   4.312397   6.383341   4.494071
    26  H    2.699049   3.176503   4.699292   7.205488   3.978840
    27  H    2.112555   3.908793   4.513774   7.349183   5.443235
    28  H    2.117485   4.537736   5.784631   8.486539   6.018584
    29  H    1.019443   5.263656   5.734742   8.921377   5.303520
    30  H    1.029773   4.487142   4.297351   7.668415   4.301091
    31  H    1.019432   5.629220   5.645196   8.962086   5.953529
                   21         22         23         24         25
    21  H    0.000000
    22  H    3.710034   0.000000
    23  H    4.974040   4.181844   0.000000
    24  H    2.991767   4.174379   2.549698   0.000000
    25  H    5.276407   6.759202   8.928309   6.965953   0.000000
    26  H    5.181360   5.964478   8.884254   7.206220   1.761501
    27  H    6.558767   6.923109   8.925313   7.436994   2.510164
    28  H    7.226282   7.650144  10.207546   8.649265   2.462012
    29  H    6.883364   6.248353   9.449470   8.345540   3.744541
    30  H    5.862964   5.090592   7.926700   6.905281   3.568672
    31  H    7.466310   6.665535   9.335652   8.372372   4.216951
                   26         27         28         29         30
    26  H    0.000000
    27  H    3.053582   0.000000
    28  H    2.505045   1.758628   0.000000
    29  H    2.599896   2.962319   2.375024   0.000000
    30  H    2.803386   2.471225   2.936534   1.651768   0.000000
    31  H    3.685971   2.361813   2.529738   1.661583   1.672503
                   31
    31  H    0.000000
 Symmetry turned off by external request.
 Stoichiometry    C9H15N4O3(1+)
 Framework group  C1[X(C9H15N4O3)]
 Deg. of freedom    87
 Full point group                 C1      NOp   1
 Rotational constants (GHZ):      0.7088180      0.3127596      0.2291588
 Standard basis: 6-31G(d) (6D, 7F)
   270 basis functions,   508 primitive gaussians,   270 cartesian basis functions
    60 alpha electrons       60 beta electrons
       nuclear repulsion energy      1138.6918025008 Hartrees.
 NAtoms=   31 NActive=   31 NUniq=   31 SFac= 1.00D+00 NAtFMM=   60 NAOKFM=F Big=F
 Integral buffers will be    131072 words long.
 Raffenetti 2 integral format.
 Two-electron integral symmetry is turned off.
 Nuclear repulsion after empirical dispersion term =     1138.6360523558 Hartrees.
 One-electron integrals computed using PRISM.
 NBasis=   270 RedAO= T EigKep=  1.22D-03  NBF=   270
 NBsUse=   270 1.00D-06 EigRej= -1.00D+00 NBFU=   270
 ExpMin= 1.61D-01 ExpMax= 5.48D+03 ExpMxC= 8.25D+02 IAcc=3 IRadAn=         5 AccDes= 0.00D+00
 Harris functional with IExCor=  402 and IRadAn=       5 diagonalized for initial guess.
 HarFok:  IExCor=  402 AccDes= 0.00D+00 IRadAn=         5 IDoV= 1 UseB2=F ITyADJ=14
 ICtDFT=  3500011 ScaDFX=  1.000000  1.000000  1.000000  1.000000
 FoFCou: FMM=F IPFlag=           0 FMFlag=      100000 FMFlg1=           0
         NFxFlg=           0 DoJE=T BraDBF=F KetDBF=T FulRan=T
         wScrn=  0.000000 ICntrl=     500 IOpCl=  0 I1Cent=   200000004 NGrid=           0
         NMat0=    1 NMatS0=      1 NMatT0=    0 NMatD0=    1 NMtDS0=    0 NMtDT0=    0
 Symmetry not used in FoFCou.
 Requested convergence on RMS density matrix=1.00D-08 within 128 cycles.
 Requested convergence on MAX density matrix=1.00D-06.
 Requested convergence on             energy=1.00D-06.
 No special actions if energy rises.
 Integral accuracy reduced to 1.0D-05 until final iterations.
 Initial convergence to 1.0D-05 achieved.  Increase integral accuracy.
 SCF Done:  E(RB3LYP) =  -796.516430959     A.U. after   14 cycles
            NFock= 14  Conv=0.64D-08     -V/T= 2.0089
 DoSCS=F DFT=T ScalE2(SS,OS)=  1.000000  1.000000
 Range of M.O.s used for correlation:     1   270
 NBasis=   270 NAE=    60 NBE=    60 NFC=     0 NFV=     0
 NROrb=    270 NOA=    60 NOB=    60 NVA=   210 NVB=   210
 Symmetrizing basis deriv contribution to polar:
 IMax=3 JMax=2 DiffMx= 0.00D+00
 G2DrvN: will do    32 centers at a time, making    1 passes.
 Calling FoFCou, ICntrl=  3107 FMM=F I1Cent=   0 AccDes= 0.00D+00.
 End of G2Drv F.D. properties file   721 does not exist.
 End of G2Drv F.D. properties file   722 does not exist.
 End of G2Drv F.D. properties file   788 does not exist.
          IDoAtm=1111111111111111111111111111111
          Differentiating once with respect to nuclear coordinates.
          There are    96 degrees of freedom in the 1st order CPHF.  IDoFFX=6 NUNeed=     0.
     90 vectors produced by pass  0 Test12= 1.31D-14 1.04D-09 XBig12= 1.48D-01 9.24D-02.
 AX will form    90 AO Fock derivatives at one time.
     90 vectors produced by pass  1 Test12= 1.31D-14 1.04D-09 XBig12= 1.91D-02 4.75D-02.
     90 vectors produced by pass  2 Test12= 1.31D-14 1.04D-09 XBig12= 1.51D-04 2.30D-03.
     90 vectors produced by pass  3 Test12= 1.31D-14 1.04D-09 XBig12= 5.56D-07 1.33D-04.
     90 vectors produced by pass  4 Test12= 1.31D-14 1.04D-09 XBig12= 7.13D-10 4.56D-06.
     70 vectors produced by pass  5 Test12= 1.31D-14 1.04D-09 XBig12= 6.31D-13 1.20D-07.
     10 vectors produced by pass  6 Test12= 1.31D-14 1.04D-09 XBig12= 5.46D-16 2.36D-09.
 InvSVY:  IOpt=1 It=  1 EMax= 7.22D-16
 Solved reduced A of dimension   530 with    96 vectors.
 End of Minotr F.D. properties file   721 does not exist.
 End of Minotr F.D. properties file   722 does not exist.
 End of Minotr F.D. properties file   788 does not exist.

 **********************************************************************

            Population analysis using the SCF density.

 **********************************************************************

 Alpha  occ. eigenvalues --  -19.32974 -19.28060 -19.27562 -14.64083 -14.50856
 Alpha  occ. eigenvalues --  -14.45755 -14.37722 -10.45442 -10.44829 -10.43358
 Alpha  occ. eigenvalues --  -10.37733 -10.36965 -10.30953 -10.30522 -10.29321
 Alpha  occ. eigenvalues --  -10.26658  -1.24318  -1.20858  -1.19041  -1.15544
 Alpha  occ. eigenvalues --   -1.08689  -1.07664  -0.97165  -0.94113  -0.91425
 Alpha  occ. eigenvalues --   -0.85583  -0.83447  -0.78200  -0.77851  -0.77454
 Alpha  occ. eigenvalues --   -0.75081  -0.72573  -0.69487  -0.68790  -0.66987
 Alpha  occ. eigenvalues --   -0.66256  -0.63972  -0.62112  -0.61464  -0.61229
 Alpha  occ. eigenvalues --   -0.59987  -0.58799  -0.57895  -0.56689  -0.55653
 Alpha  occ. eigenvalues --   -0.54857  -0.54039  -0.51782  -0.50716  -0.49509
 Alpha  occ. eigenvalues --   -0.48692  -0.48483  -0.47573  -0.45311  -0.42335
 Alpha  occ. eigenvalues --   -0.41027  -0.40828  -0.34760  -0.33128  -0.29817
 Alpha virt. eigenvalues --   -0.14674  -0.13195  -0.11914  -0.08974  -0.06348
 Alpha virt. eigenvalues --   -0.05140  -0.04448  -0.03841  -0.03020  -0.02380
 Alpha virt. eigenvalues --   -0.01640  -0.00139   0.00471   0.00895   0.01747
 Alpha virt. eigenvalues --    0.03167   0.04481   0.04915   0.05750   0.07809
 Alpha virt. eigenvalues --    0.08647   0.09575   0.10477   0.11482   0.13990
 Alpha virt. eigenvalues --    0.15384   0.16620   0.17898   0.20469   0.22004
 Alpha virt. eigenvalues --    0.23791   0.26211   0.26711   0.31507   0.32236
 Alpha virt. eigenvalues --    0.33007   0.35838   0.36555   0.39015   0.40674
 Alpha virt. eigenvalues --    0.41355   0.42209   0.43478   0.43974   0.45453
 Alpha virt. eigenvalues --    0.46489   0.48491   0.49050   0.49618   0.51030
 Alpha virt. eigenvalues --    0.52245   0.52743   0.53524   0.55560   0.56214
 Alpha virt. eigenvalues --    0.57029   0.57511   0.59985   0.60670   0.61857
 Alpha virt. eigenvalues --    0.62086   0.62887   0.63667   0.64211   0.65310
 Alpha virt. eigenvalues --    0.66478   0.67985   0.68769   0.69422   0.70118
 Alpha virt. eigenvalues --    0.71315   0.72498   0.73319   0.73856   0.74843
 Alpha virt. eigenvalues --    0.75820   0.76253   0.76292   0.77568   0.77971
 Alpha virt. eigenvalues --    0.79164   0.80196   0.80686   0.82685   0.83035
 Alpha virt. eigenvalues --    0.83579   0.85200   0.86598   0.87551   0.89557
 Alpha virt. eigenvalues --    0.92542   0.93717   0.94963   0.96088   1.00900
 Alpha virt. eigenvalues --    1.04751   1.05407   1.07218   1.10049   1.11210
 Alpha virt. eigenvalues --    1.13893   1.17133   1.18156   1.21348   1.23486
 Alpha virt. eigenvalues --    1.24720   1.25343   1.26769   1.28383   1.28901
 Alpha virt. eigenvalues --    1.29453   1.35837   1.38038   1.39145   1.40274
 Alpha virt. eigenvalues --    1.41459   1.44430   1.45822   1.47118   1.48331
 Alpha virt. eigenvalues --    1.49373   1.52533   1.55931   1.56238   1.58255
 Alpha virt. eigenvalues --    1.62355   1.62833   1.64327   1.65199   1.66884
 Alpha virt. eigenvalues --    1.68046   1.68643   1.69608   1.70860   1.72771
 Alpha virt. eigenvalues --    1.75846   1.76998   1.78738   1.80165   1.80492
 Alpha virt. eigenvalues --    1.81235   1.81891   1.84966   1.85928   1.86844
 Alpha virt. eigenvalues --    1.89839   1.92120   1.94751   1.95926   1.99856
 Alpha virt. eigenvalues --    2.02776   2.04350   2.05187   2.07751   2.09644
 Alpha virt. eigenvalues --    2.13690   2.13930   2.14907   2.16930   2.17289
 Alpha virt. eigenvalues --    2.18688   2.22775   2.23976   2.25476   2.27734
 Alpha virt. eigenvalues --    2.28768   2.30313   2.31651   2.33741   2.34452
 Alpha virt. eigenvalues --    2.37301   2.39262   2.42911   2.44792   2.48314
 Alpha virt. eigenvalues --    2.49554   2.51769   2.53022   2.53373   2.56591
 Alpha virt. eigenvalues --    2.61004   2.62561   2.66296   2.68380   2.71524
 Alpha virt. eigenvalues --    2.76632   2.80018   2.86210   2.87987   2.93362
 Alpha virt. eigenvalues --    2.97062   2.98008   3.06197   3.07131   3.59174
 Alpha virt. eigenvalues --    3.76507   3.85546   3.90394   3.94377   3.98570
 Alpha virt. eigenvalues --    4.02657   4.04356   4.09188   4.16529   4.19510
 Alpha virt. eigenvalues --    4.23678   4.31273   4.39396   4.51239   4.51935
          Condensed to atoms (all electrons):
               1          2          3          4          5          6
     1  O    8.138690   0.502077  -0.096889   0.004653   0.000550   0.000000
     2  C    0.502077   4.335116   0.327003  -0.027127   0.005685  -0.000044
     3  N   -0.096889   0.327003   7.125003   0.196354  -0.024111   0.001965
     4  C    0.004653  -0.027127   0.196354   5.214842   0.294081  -0.094973
     5  C    0.000550   0.005685  -0.024111   0.294081   4.340681   0.277748
     6  O    0.000000  -0.000044   0.001965  -0.094973   0.277748   8.227926
     7  O   -0.000006   0.000758  -0.013158  -0.081759   0.576973  -0.083506
     8  C   -0.002699  -0.003427  -0.042698   0.294219  -0.021772   0.005942
     9  C   -0.000543  -0.000063   0.003437  -0.035866  -0.001769  -0.001324
    10  C    0.000114   0.000019  -0.000113  -0.000593   0.000071   0.000029
    11  N    0.000000   0.000001   0.000000  -0.000090  -0.000002  -0.000006
    12  C    0.000000   0.000000   0.000000   0.000275  -0.000031   0.000165
    13  N    0.000002   0.000004   0.000141  -0.000589  -0.001017  -0.011508
    14  C   -0.083119   0.317760  -0.101088   0.006880  -0.000158   0.000000
    15  C    0.003189  -0.027861  -0.000038  -0.000154   0.000003   0.000000
    16  N   -0.035135  -0.002312  -0.000171   0.000013   0.000000   0.000000
    17  H    0.002440  -0.016470   0.282653  -0.035350  -0.005875   0.000751
    18  H    0.007250  -0.001897  -0.047879   0.374374  -0.029721   0.001493
    19  H    0.000000   0.000003  -0.000158   0.009519  -0.005588   0.226371
    20  H    0.004419   0.004169  -0.011145  -0.032757   0.002376   0.000087
    21  H    0.000135   0.000242   0.002450  -0.056132  -0.002014   0.000512
    22  H    0.000061  -0.000003   0.000002   0.000006  -0.000001   0.000000
    23  H    0.000000   0.000000   0.000000  -0.000001   0.000001  -0.000008
    24  H    0.000000  -0.000001  -0.000024  -0.000600   0.001083   0.025230
    25  H    0.002481  -0.025284   0.004581   0.000126  -0.000056   0.000000
    26  H    0.000693  -0.029297  -0.001102  -0.000079  -0.000002   0.000000
    27  H    0.000730  -0.003204   0.000567  -0.000020  -0.000001   0.000000
    28  H    0.000006   0.003315  -0.000094   0.000002   0.000000   0.000000
    29  H    0.000930  -0.000207   0.000010  -0.000001   0.000000   0.000000
    30  H    0.084342   0.001900   0.001672  -0.000048  -0.000001   0.000000
    31  H    0.000703   0.000074   0.000009   0.000000   0.000000   0.000000
               7          8          9         10         11         12
     1  O   -0.000006  -0.002699  -0.000543   0.000114   0.000000   0.000000
     2  C    0.000758  -0.003427  -0.000063   0.000019   0.000001   0.000000
     3  N   -0.013158  -0.042698   0.003437  -0.000113   0.000000   0.000000
     4  C   -0.081759   0.294219  -0.035866  -0.000593  -0.000090   0.000275
     5  C    0.576973  -0.021772  -0.001769   0.000071  -0.000002  -0.000031
     6  O   -0.083506   0.005942  -0.001324   0.000029  -0.000006   0.000165
     7  O    8.000584  -0.000863   0.000134   0.000001   0.000000   0.000000
     8  C   -0.000863   5.243837   0.330330  -0.054586   0.007087   0.006052
     9  C    0.000134   0.330330   4.718718   0.567383  -0.043039  -0.092739
    10  C    0.000001  -0.054586   0.567383   4.933369   0.425260  -0.117363
    11  N    0.000000   0.007087  -0.043039   0.425260   6.653118   0.536843
    12  C    0.000000   0.006052  -0.092739  -0.117363   0.536843   4.728341
    13  N   -0.000025  -0.073837   0.360756  -0.073117  -0.084332   0.354967
    14  C   -0.000054  -0.000386  -0.000007   0.000000   0.000000   0.000000
    15  C    0.000000  -0.000008   0.000000   0.000000   0.000000   0.000000
    16  N    0.000000  -0.000001   0.000000   0.000000   0.000000   0.000000
    17  H    0.034773   0.003198  -0.000102   0.000001   0.000000   0.000000
    18  H    0.001062  -0.047425   0.008121   0.001672  -0.000145  -0.000212
    19  H    0.008999  -0.000252  -0.000058  -0.000002   0.000000  -0.000001
    20  H   -0.000094   0.373062  -0.028704  -0.002835   0.000037  -0.000048
    21  H    0.000319   0.358046  -0.024236   0.000390  -0.000132   0.000190
    22  H    0.000000  -0.001926  -0.061548   0.381690  -0.042582   0.007711
    23  H    0.000000  -0.000192   0.002912   0.007605  -0.037558   0.383307
    24  H    0.000158  -0.003055  -0.025761   0.008591   0.004495  -0.020071
    25  H   -0.000033   0.000005   0.000000   0.000000   0.000000   0.000000
    26  H    0.000000   0.000063  -0.000001   0.000000   0.000000   0.000000
    27  H    0.000000   0.000001   0.000000   0.000000   0.000000   0.000000
    28  H    0.000000   0.000000   0.000000   0.000000   0.000000   0.000000
    29  H    0.000000   0.000000   0.000000   0.000000   0.000000   0.000000
    30  H    0.000000   0.000009   0.000001   0.000000   0.000000   0.000000
    31  H    0.000000   0.000000   0.000000   0.000000   0.000000   0.000000
              13         14         15         16         17         18
     1  O    0.000002  -0.083119   0.003189  -0.035135   0.002440   0.007250
     2  C    0.000004   0.317760  -0.027861  -0.002312  -0.016470  -0.001897
     3  N    0.000141  -0.101088  -0.000038  -0.000171   0.282653  -0.047879
     4  C   -0.000589   0.006880  -0.000154   0.000013  -0.035350   0.374374
     5  C   -0.001017  -0.000158   0.000003   0.000000  -0.005875  -0.029721
     6  O   -0.011508   0.000000   0.000000   0.000000   0.000751   0.001493
     7  O   -0.000025  -0.000054   0.000000   0.000000   0.034773   0.001062
     8  C   -0.073837  -0.000386  -0.000008  -0.000001   0.003198  -0.047425
     9  C    0.360756  -0.000007   0.000000   0.000000  -0.000102   0.008121
    10  C   -0.073117   0.000000   0.000000   0.000000   0.000001   0.001672
    11  N   -0.084332   0.000000   0.000000   0.000000   0.000000  -0.000145
    12  C    0.354967   0.000000   0.000000   0.000000   0.000000  -0.000212
    13  N    6.911433   0.000000   0.000000   0.000000   0.000000   0.000875
    14  C    0.000000   5.330339   0.324695  -0.041824  -0.001063   0.000359
    15  C    0.000000   0.324695   5.065051   0.210168   0.000003   0.000077
    16  N    0.000000  -0.041824   0.210168   6.839876   0.000015  -0.000002
    17  H    0.000000  -0.001063   0.000003   0.000015   0.361998   0.003556
    18  H    0.000875   0.000359   0.000077  -0.000002   0.003556   0.505660
    19  H    0.000374   0.000000   0.000000   0.000000  -0.000081  -0.000306
    20  H    0.003668  -0.000118   0.000002   0.000001  -0.000016  -0.000963
    21  H   -0.001795   0.000025   0.000000   0.000000   0.000028   0.004941
    22  H    0.004936   0.000000   0.000000   0.000000   0.000000   0.000014
    23  H   -0.057934   0.000000   0.000000   0.000000   0.000000   0.000003
    24  H    0.283072   0.000000   0.000000   0.000000  -0.000004   0.000329
    25  H    0.000000   0.361842  -0.028000   0.003226   0.003014  -0.000027
    26  H    0.000000   0.367350  -0.041111  -0.003464   0.000035  -0.000026
    27  H    0.000000  -0.033458   0.382711  -0.032978   0.000000  -0.000015
    28  H    0.000000  -0.032912   0.390271  -0.033885  -0.000004   0.000000
    29  H    0.000000  -0.000431  -0.021470   0.301831   0.000000   0.000000
    30  H    0.000000  -0.016461  -0.020527   0.216579  -0.000052  -0.000009
    31  H    0.000000   0.003642  -0.020066   0.303427   0.000000   0.000000
              19         20         21         22         23         24
     1  O    0.000000   0.004419   0.000135   0.000061   0.000000   0.000000
     2  C    0.000003   0.004169   0.000242  -0.000003   0.000000  -0.000001
     3  N   -0.000158  -0.011145   0.002450   0.000002   0.000000  -0.000024
     4  C    0.009519  -0.032757  -0.056132   0.000006  -0.000001  -0.000600
     5  C   -0.005588   0.002376  -0.002014  -0.000001   0.000001   0.001083
     6  O    0.226371   0.000087   0.000512   0.000000  -0.000008   0.025230
     7  O    0.008999  -0.000094   0.000319   0.000000   0.000000   0.000158
     8  C   -0.000252   0.373062   0.358046  -0.001926  -0.000192  -0.003055
     9  C   -0.000058  -0.028704  -0.024236  -0.061548   0.002912  -0.025761
    10  C   -0.000002  -0.002835   0.000390   0.381690   0.007605   0.008591
    11  N    0.000000   0.000037  -0.000132  -0.042582  -0.037558   0.004495
    12  C   -0.000001  -0.000048   0.000190   0.007711   0.383307  -0.020071
    13  N    0.000374   0.003668  -0.001795   0.004936  -0.057934   0.283072
    14  C    0.000000  -0.000118   0.000025   0.000000   0.000000   0.000000
    15  C    0.000000   0.000002   0.000000   0.000000   0.000000   0.000000
    16  N    0.000000   0.000001   0.000000   0.000000   0.000000   0.000000
    17  H   -0.000081  -0.000016   0.000028   0.000000   0.000000  -0.000004
    18  H   -0.000306  -0.000963   0.004941   0.000014   0.000003   0.000329
    19  H    0.319601   0.000009  -0.000157   0.000000   0.000001  -0.000407
    20  H    0.000009   0.526133  -0.028972   0.003266   0.000004  -0.000057
    21  H   -0.000157  -0.028972   0.562356  -0.000025  -0.000001   0.000584
    22  H    0.000000   0.003266  -0.000025   0.577930  -0.000147  -0.000107
    23  H    0.000001   0.000004  -0.000001  -0.000147   0.533197   0.000489
    24  H   -0.000407  -0.000057   0.000584  -0.000107   0.000489   0.370234
    25  H    0.000000  -0.000001  -0.000001   0.000000   0.000000   0.000000
    26  H    0.000000   0.000050  -0.000005   0.000000   0.000000   0.000000
    27  H    0.000000   0.000000   0.000000   0.000000   0.000000   0.000000
    28  H    0.000000   0.000000   0.000000   0.000000   0.000000   0.000000
    29  H    0.000000   0.000000   0.000000   0.000000   0.000000   0.000000
    30  H    0.000000  -0.000003   0.000000   0.000001   0.000000   0.000000
    31  H    0.000000   0.000000   0.000000   0.000000   0.000000   0.000000
              25         26         27         28         29         30
     1  O    0.002481   0.000693   0.000730   0.000006   0.000930   0.084342
     2  C   -0.025284  -0.029297  -0.003204   0.003315  -0.000207   0.001900
     3  N    0.004581  -0.001102   0.000567  -0.000094   0.000010   0.001672
     4  C    0.000126  -0.000079  -0.000020   0.000002  -0.000001  -0.000048
     5  C   -0.000056  -0.000002  -0.000001   0.000000   0.000000  -0.000001
     6  O    0.000000   0.000000   0.000000   0.000000   0.000000   0.000000
     7  O   -0.000033   0.000000   0.000000   0.000000   0.000000   0.000000
     8  C    0.000005   0.000063   0.000001   0.000000   0.000000   0.000009
     9  C    0.000000  -0.000001   0.000000   0.000000   0.000000   0.000001
    10  C    0.000000   0.000000   0.000000   0.000000   0.000000   0.000000
    11  N    0.000000   0.000000   0.000000   0.000000   0.000000   0.000000
    12  C    0.000000   0.000000   0.000000   0.000000   0.000000   0.000000
    13  N    0.000000   0.000000   0.000000   0.000000   0.000000   0.000000
    14  C    0.361842   0.367350  -0.033458  -0.032912  -0.000431  -0.016461
    15  C   -0.028000  -0.041111   0.382711   0.390271  -0.021470  -0.020527
    16  N    0.003226  -0.003464  -0.032978  -0.033885   0.301831   0.216579
    17  H    0.003014   0.000035   0.000000  -0.000004   0.000000  -0.000052
    18  H   -0.000027  -0.000026  -0.000015   0.000000   0.000000  -0.000009
    19  H    0.000000   0.000000   0.000000   0.000000   0.000000   0.000000
    20  H   -0.000001   0.000050   0.000000   0.000000   0.000000  -0.000003
    21  H   -0.000001  -0.000005   0.000000   0.000000   0.000000   0.000000
    22  H    0.000000   0.000000   0.000000   0.000000   0.000000   0.000001
    23  H    0.000000   0.000000   0.000000   0.000000   0.000000   0.000000
    24  H    0.000000   0.000000   0.000000   0.000000   0.000000   0.000000
    25  H    0.483910  -0.017386  -0.000998  -0.002920  -0.000034   0.000274
    26  H   -0.017386   0.505433   0.004313  -0.003229   0.003664   0.000728
    27  H   -0.000998   0.004313   0.468824  -0.025441   0.003604  -0.000372
    28  H   -0.002920  -0.003229  -0.025441   0.471049  -0.003995   0.002783
    29  H   -0.000034   0.003664   0.003604  -0.003995   0.314661  -0.007528
    30  H    0.000274   0.000728  -0.000372   0.002783  -0.007528   0.301629
    31  H   -0.000072   0.000008  -0.002783  -0.001176  -0.012695  -0.005378
              31
     1  O    0.000703
     2  C    0.000074
     3  N    0.000009
     4  C    0.000000
     5  C    0.000000
     6  O    0.000000
     7  O    0.000000
     8  C    0.000000
     9  C    0.000000
    10  C    0.000000
    11  N    0.000000
    12  C    0.000000
    13  N    0.000000
    14  C    0.003642
    15  C   -0.020066
    16  N    0.303427
    17  H    0.000000
    18  H    0.000000
    19  H    0.000000
    20  H    0.000000
    21  H    0.000000
    22  H    0.000000
    23  H    0.000000
    24  H    0.000000
    25  H   -0.000072
    26  H    0.000008
    27  H   -0.002783
    28  H   -0.001176
    29  H   -0.012695
    30  H   -0.005378
    31  H    0.304468
 Mulliken charges:
               1
     1  O   -0.535074
     2  C    0.639073
     3  N   -0.607179
     4  C   -0.029207
     5  C    0.592866
     6  O   -0.576851
     7  O   -0.444261
     8  C   -0.368724
     9  C    0.323969
    10  C   -0.077585
    11  N   -0.418956
    12  C    0.212614
    13  N   -0.616074
    14  C   -0.401814
    15  C   -0.216935
    16  N   -0.725362
    17  H    0.366550
    18  H    0.218839
    19  H    0.442135
    20  H    0.188429
    21  H    0.183253
    22  H    0.130723
    23  H    0.168320
    24  H    0.355826
    25  H    0.215352
    26  H    0.213365
    27  H    0.238519
    28  H    0.236231
    29  H    0.421660
    30  H    0.440462
    31  H    0.429839
 Sum of Mulliken charges =   1.00000
 Mulliken charges with hydrogens summed into heavy atoms:
               1
     1  O   -0.535074
     2  C    0.639073
     3  N   -0.240629
     4  C    0.189632
     5  C    0.592866
     6  O   -0.134717
     7  O   -0.444261
     8  C    0.002958
     9  C    0.323969
    10  C    0.053138
    11  N   -0.418956
    12  C    0.380934
    13  N   -0.260249
    14  C    0.026904
    15  C    0.257814
    16  N    0.566599
 APT charges:
               1
     1  O   -0.569169
     2  C    0.416854
     3  N   -0.792927
     4  C   -0.298602
     5  C   -0.337162
     6  O   -0.832222
     7  O    0.248525
     8  C   -0.933244
     9  C   -0.429987
    10  C   -0.304483
    11  N    0.084935
    12  C   -0.466243
    13  N   -0.689457
    14  C   -0.818013
    15  C   -1.067537
    16  N   -1.314482
    17  H    0.681304
    18  H    0.323330
    19  H    1.071061
    20  H    0.291788
    21  H    0.550140
    22  H    0.384905
    23  H    1.007173
    24  H    0.531778
    25  H    0.483309
    26  H    0.481138
    27  H    0.344169
    28  H    0.920833
    29  H    0.850928
    30  H    0.126020
    31  H    1.055339
 Sum of APT charges =   1.00000
 APT charges with hydrogens summed into heavy atoms:
               1
     1  O   -0.569169
     2  C    0.416854
     3  N   -0.111623
     4  C    0.024728
     5  C   -0.337162
     6  O    0.238838
     7  O    0.248525
     8  C   -0.091315
     9  C   -0.429987
    10  C    0.080423
    11  N    0.084935
    12  C    0.540930
    13  N   -0.157679
    14  C    0.146434
    15  C    0.197465
    16  N    0.717805
 Electronic spatial extent (au):  <R**2>=           4692.6971
 Charge=              1.0000 electrons
 Dipole moment (field-independent basis, Debye):
    X=            -14.2642    Y=             -3.6575    Z=              1.8976  Tot=             14.8474
 Quadrupole moment (field-independent basis, Debye-Ang):
   XX=             -4.8744   YY=            -86.2684   ZZ=            -92.9709
   XY=             -6.9973   XZ=             28.0208   YZ=              4.7466
 Traceless Quadrupole moment (field-independent basis, Debye-Ang):
   XX=             56.4968   YY=            -24.8972   ZZ=            -31.5997
   XY=             -6.9973   XZ=             28.0208   YZ=              4.7466
 Octapole moment (field-independent basis, Debye-Ang**2):
  XXX=           -366.5701  YYY=            -17.0675  ZZZ=             45.4041  XYY=            -64.8895
  XXY=            -71.1887  XXZ=            -15.0560  XZZ=           -110.7600  YZZ=            -23.0195
  YYZ=             13.3980  XYZ=              7.8142
 Hexadecapole moment (field-independent basis, Debye-Ang**3):
 XXXX=          -2281.5441 YYYY=           -494.6866 ZZZZ=          -1637.3529 XXXY=           -322.5534
 XXXZ=            665.5655 YYYX=           -213.7210 YYYZ=            270.2998 ZZZX=            440.0961
 ZZZY=            354.2006 XXYY=           -688.4736 XXZZ=           -747.0545 YYZZ=           -339.4022
 XXYZ=            135.1466 YYXZ=            141.4400 ZZXY=           -138.0018
 N-N= 1.138636052356D+03 E-N=-4.118741356727D+03  KE= 7.895202682878D+02
  Exact polarizability:   0.000   0.000   0.000   0.000   0.000   0.000
 Approx polarizability: 183.332 -21.250 135.015 -11.459 -26.240 207.175
 Calling FoFJK, ICntrl=    100147 FMM=F ISym2X=0 I1Cent= 0 IOpClX= 0 NMat=1 NMatS=1 NMatT=0.
 -------------------------------------------------------------------
 Center     Atomic                   Forces (Hartrees/Bohr)
 Number     Number              X              Y              Z
 -------------------------------------------------------------------
      1        8          -0.013680207    0.000790948   -0.024229988
      2        6           0.010351058   -0.002994543    0.022854312
      3        7          -0.007557173   -0.002554847   -0.005861945
      4        6          -0.002097584    0.000165403    0.001236581
      5        6           0.008032028    0.001093732   -0.008605161
      6        8          -0.007172654    0.002188355   -0.004041590
      7        8          -0.007379870   -0.002910837    0.011555287
      8        6           0.006369981    0.000695487   -0.007477748
      9        6          -0.009001546    0.001544902    0.006666165
     10        6           0.003968364    0.002242272   -0.010915356
     11        7          -0.005780173    0.005560611   -0.002128689
     12        6           0.000363185   -0.000775805   -0.001161208
     13        7           0.006887737   -0.005053192    0.006035782
     14        6           0.005311626    0.005754612   -0.001355982
     15        6           0.000052696   -0.012415337    0.023795298
     16        7          -0.003342165    0.000784949   -0.004598241
     17        1           0.000437288   -0.000969537    0.006520655
     18        1           0.002248524    0.002162526   -0.001546101
     19        1           0.005584974   -0.002661769    0.005613053
     20        1          -0.002212187    0.000349360   -0.000196240
     21        1           0.001499807    0.001020379    0.004909544
     22        1          -0.000395422    0.000829755   -0.000254572
     23        1           0.003724543   -0.001890934   -0.002817139
     24        1           0.002996911   -0.001080175    0.001070575
     25        1          -0.005310505   -0.001319045    0.000415563
     26        1          -0.001372091    0.003208883    0.002947970
     27        1          -0.000154146    0.000045917   -0.006357402
     28        1          -0.002471685    0.000879457   -0.003687361
     29        1          -0.004117980    0.004473590   -0.001751566
     30        1           0.018166968    0.002484002   -0.002726741
     31        1          -0.003950301   -0.001649117   -0.003907755
 -------------------------------------------------------------------
 Cartesian Forces:  Max     0.024229988 RMS     0.006568397
 FormGI is forming the generalized inverse of G from B-inverse, IUseBI=4.

 GradGradGradGradGradGradGradGradGradGradGradGradGradGradGradGradGradGrad
 Berny optimization.
 Internal  Forces:  Max     0.025174683 RMS     0.005646390
 Search for a local minimum.
 Step number   1 out of a maximum of  167
 All quantities printed in internal units (Hartrees-Bohrs-Radians)
 Mixed Optimization -- RFO/linear search
 Second derivative matrix not updated -- analytic derivatives used.
 ITU=  0
     Eigenvalues ---    0.00138   0.00211   0.00310   0.00329   0.00373
     Eigenvalues ---    0.00679   0.00757   0.00799   0.00973   0.01136
     Eigenvalues ---    0.02003   0.02034   0.02136   0.02563   0.03485
     Eigenvalues ---    0.03954   0.04061   0.04133   0.04293   0.04471
     Eigenvalues ---    0.04606   0.04934   0.05076   0.05199   0.05332
     Eigenvalues ---    0.05752   0.06206   0.06264   0.06409   0.07884
     Eigenvalues ---    0.08192   0.08453   0.10714   0.11137   0.11219
     Eigenvalues ---    0.11812   0.11976   0.12492   0.13438   0.13647
     Eigenvalues ---    0.15658   0.15790   0.16530   0.16829   0.18643
     Eigenvalues ---    0.18990   0.20587   0.21713   0.22396   0.23322
     Eigenvalues ---    0.23477   0.24368   0.25140   0.25539   0.26775
     Eigenvalues ---    0.27312   0.31233   0.32217   0.33074   0.33442
     Eigenvalues ---    0.34440   0.34514   0.34696   0.35105   0.35148
     Eigenvalues ---    0.35677   0.35759   0.36307   0.37788   0.38086
     Eigenvalues ---    0.38867   0.40599   0.41932   0.42798   0.44761
     Eigenvalues ---    0.45030   0.46067   0.47548   0.47695   0.48025
     Eigenvalues ---    0.49605   0.51712   0.55336   0.58369   0.61241
     Eigenvalues ---    0.83835   0.94373
 RFO step:  Lambda=-1.60658029D-02 EMin= 1.38230034D-03
 Linear search not attempted -- first point.
 Iteration  1 RMS(Cart)=  0.09116250 RMS(Int)=  0.00345824
 Iteration  2 RMS(Cart)=  0.00746801 RMS(Int)=  0.00033750
 Iteration  3 RMS(Cart)=  0.00004765 RMS(Int)=  0.00033614
 Iteration  4 RMS(Cart)=  0.00000004 RMS(Int)=  0.00033614
 Variable       Old X    -DE/DX   Delta X   Delta X   Delta X     New X
                                 (Linear)    (Quad)   (Total)
    R1        2.32213   0.02107   0.00000   0.04170   0.04170   2.36383
    R2        2.54369  -0.00052   0.00000  -0.03175  -0.03175   2.51193
    R3        2.87610  -0.00157   0.00000   0.00746   0.00746   2.88356
    R4        2.74472   0.00765   0.00000   0.01763   0.01763   2.76234
    R5        1.90449   0.00637   0.00000   0.01604   0.01604   1.92054
    R6        2.86114   0.00378   0.00000   0.01309   0.01309   2.87422
    R7        2.92971   0.00774   0.00000   0.02140   0.02140   2.95111
    R8        2.07104  -0.00012   0.00000  -0.00122  -0.00122   2.06982
    R9        2.55511  -0.00185   0.00000  -0.01523  -0.01523   2.53989
   R10        2.27190   0.01378   0.00000   0.01599   0.01599   2.28789
   R11        1.83167   0.00803   0.00000   0.01502   0.01502   1.84668
   R12        2.81860   0.00440   0.00000  -0.00089  -0.00089   2.81771
   R13        2.05594   0.00197   0.00000   0.00692   0.00692   2.06286
   R14        2.06102   0.00493   0.00000   0.01283   0.01283   2.07385
   R15        2.58041   0.01063   0.00000   0.01862   0.01862   2.59903
   R16        2.59035   0.01225   0.00000   0.02548   0.02550   2.61585
   R17        2.61630  -0.00393   0.00000  -0.01691  -0.01693   2.59937
   R18        2.04192   0.00089   0.00000   0.00293   0.00293   2.04486
   R19        2.47704   0.00587   0.00000   0.00941   0.00939   2.48643
   R20        2.57016   0.00781   0.00000   0.01345   0.01346   2.58362
   R21        2.03170   0.00480   0.00000   0.01136   0.01136   2.04306
   R22        1.90397   0.00240   0.00000   0.00482   0.00482   1.90879
   R23        2.87632  -0.00045   0.00000   0.01755   0.01755   2.89387
   R24        2.06229   0.00081   0.00000   0.00332   0.00332   2.06561
   R25        2.06639   0.00372   0.00000   0.00851   0.00851   2.07490
   R26        2.79945   0.01387   0.00000   0.05086   0.05086   2.85032
   R27        2.06342   0.00058   0.00000   0.00066   0.00066   2.06408
   R28        2.06208   0.00062   0.00000  -0.00037  -0.00037   2.06171
   R29        1.92647   0.00581   0.00000   0.00980   0.00980   1.93627
   R30        1.94599   0.01828   0.00000   0.07226   0.07226   2.01825
   R31        1.92645   0.00538   0.00000   0.00870   0.00870   1.93515
    A1        2.11235   0.01606   0.00000   0.02767   0.02766   2.14001
    A2        2.14529  -0.02517   0.00000  -0.06912  -0.06914   2.07615
    A3        2.02518   0.00914   0.00000   0.04171   0.04170   2.06688
    A4        2.08757   0.00799   0.00000   0.04421   0.04377   2.13134
    A5        2.13018  -0.00266   0.00000  -0.00649  -0.00689   2.12328
    A6        2.04224  -0.00501   0.00000  -0.02700  -0.02747   2.01477
    A7        1.86090  -0.00729   0.00000  -0.02554  -0.02551   1.83539
    A8        1.94119   0.00472   0.00000   0.02220   0.02222   1.96342
    A9        1.88102   0.00161   0.00000   0.01465   0.01480   1.89581
   A10        1.96587   0.00296   0.00000   0.00372   0.00382   1.96969
   A11        1.89543   0.00178   0.00000   0.00974   0.00978   1.90521
   A12        1.91651  -0.00388   0.00000  -0.02405  -0.02414   1.89237
   A13        1.96436   0.00152   0.00000  -0.00146  -0.00147   1.96289
   A14        2.17577  -0.00360   0.00000  -0.01476  -0.01477   2.16100
   A15        2.14302   0.00208   0.00000   0.01619   0.01618   2.15920
   A16        1.85385   0.00392   0.00000   0.02186   0.02186   1.87571
   A17        1.97288   0.00856   0.00000   0.01403   0.01402   1.98690
   A18        1.89055  -0.00386   0.00000  -0.02045  -0.02048   1.87007
   A19        1.91832  -0.00303   0.00000  -0.00877  -0.00895   1.90937
   A20        1.87115  -0.00269   0.00000  -0.00200  -0.00191   1.86924
   A21        1.94553  -0.00097   0.00000   0.01252   0.01251   1.95804
   A22        1.86051   0.00149   0.00000   0.00318   0.00302   1.86353
   A23        2.29123  -0.00402   0.00000  -0.00960  -0.00964   2.28159
   A24        2.15795   0.00638   0.00000   0.01660   0.01657   2.17452
   A25        1.83366  -0.00235   0.00000  -0.00668  -0.00669   1.82697
   A26        1.92994   0.00266   0.00000   0.00837   0.00836   1.93830
   A27        2.23391  -0.00122   0.00000  -0.00840  -0.00839   2.22552
   A28        2.11933  -0.00143   0.00000   0.00002   0.00003   2.11936
   A29        1.83395   0.00150   0.00000   0.00305   0.00299   1.83694
   A30        1.94692   0.00139   0.00000   0.00326   0.00324   1.95016
   A31        2.21064  -0.00220   0.00000  -0.01171  -0.01170   2.19894
   A32        2.12563   0.00081   0.00000   0.00845   0.00846   2.13408
   A33        1.88018  -0.00319   0.00000  -0.00780  -0.00778   1.87240
   A34        2.16888   0.00348   0.00000   0.01589   0.01588   2.18475
   A35        2.23402  -0.00030   0.00000  -0.00808  -0.00809   2.22594
   A36        1.95753  -0.02491   0.00000  -0.05779  -0.05765   1.89988
   A37        1.91311   0.01406   0.00000   0.05475   0.05445   1.96756
   A38        1.87471   0.00526   0.00000   0.00976   0.00921   1.88392
   A39        1.92780   0.00380   0.00000  -0.00576  -0.00499   1.92281
   A40        1.91259   0.00656   0.00000   0.00756   0.00744   1.92002
   A41        1.87557  -0.00392   0.00000  -0.00610  -0.00661   1.86897
   A42        1.93124  -0.01608   0.00000  -0.04569  -0.04583   1.88541
   A43        1.91332   0.00772   0.00000   0.02369   0.02115   1.93446
   A44        1.91781   0.00716   0.00000   0.04637   0.04586   1.96367
   A45        1.90987  -0.00167   0.00000  -0.04734  -0.04738   1.86249
   A46        1.91745   0.00491   0.00000   0.00182   0.00273   1.92018
   A47        1.87323  -0.00155   0.00000   0.02302   0.02180   1.89503
   A48        1.94063   0.00259   0.00000   0.01553   0.01554   1.95617
   A49        1.86510  -0.00455   0.00000  -0.06305  -0.06300   1.80210
   A50        1.96579   0.00154   0.00000   0.00774   0.00770   1.97349
   A51        1.87487   0.00117   0.00000   0.01996   0.02007   1.89495
   A52        1.90529  -0.00244   0.00000  -0.01415  -0.01420   1.89109
   A53        1.90949   0.00170   0.00000   0.03482   0.03481   1.94430
    D1       -0.10094   0.00156   0.00000   0.03680   0.03718  -0.06376
    D2       -3.00586   0.00053   0.00000  -0.01364  -0.01363  -3.01949
    D3        3.06898   0.00117   0.00000   0.02799   0.02798   3.09696
    D4        0.16405   0.00014   0.00000  -0.02245  -0.02283   0.14122
    D5        0.74208  -0.00227   0.00000  -0.05361  -0.05306   0.68902
    D6        2.89009  -0.00450   0.00000  -0.06157  -0.06208   2.82801
    D7       -1.36043   0.00119   0.00000  -0.03450  -0.03415  -1.39458
    D8       -2.42843  -0.00111   0.00000  -0.04284  -0.04255  -2.47098
    D9       -0.28041  -0.00335   0.00000  -0.05080  -0.05158  -0.33199
   D10        1.75225   0.00234   0.00000  -0.02373  -0.02365   1.72860
   D11       -2.83312   0.00069   0.00000  -0.02186  -0.02178  -2.85490
   D12        1.30073  -0.00104   0.00000  -0.02317  -0.02291   1.27782
   D13       -0.80087  -0.00013   0.00000  -0.01628  -0.01632  -0.81718
   D14        0.08352   0.00188   0.00000   0.02822   0.02809   0.11161
   D15       -2.06582   0.00014   0.00000   0.02691   0.02697  -2.03885
   D16        2.11577   0.00105   0.00000   0.03380   0.03356   2.14933
   D17        3.09017  -0.00125   0.00000   0.00601   0.00600   3.09617
   D18       -0.06077  -0.00115   0.00000   0.00113   0.00114  -0.05963
   D19       -1.05915   0.00149   0.00000   0.01857   0.01858  -1.04057
   D20        2.07309   0.00159   0.00000   0.01368   0.01372   2.08682
   D21        1.06756  -0.00023   0.00000  -0.00263  -0.00267   1.06489
   D22       -2.08338  -0.00013   0.00000  -0.00751  -0.00753  -2.09091
   D23       -2.48974  -0.00049   0.00000  -0.01050  -0.01041  -2.50015
   D24       -0.41889  -0.00119   0.00000  -0.01805  -0.01804  -0.43693
   D25        1.60750  -0.00323   0.00000  -0.03061  -0.03045   1.57705
   D26        1.70550   0.00352   0.00000   0.00412   0.00412   1.70963
   D27       -2.50683   0.00282   0.00000  -0.00343  -0.00350  -2.51034
   D28       -0.48044   0.00077   0.00000  -0.01599  -0.01592  -0.49636
   D29       -0.40923   0.00198   0.00000   0.00616   0.00607  -0.40315
   D30        1.66162   0.00128   0.00000  -0.00139  -0.00155   1.66007
   D31       -2.59517  -0.00076   0.00000  -0.01395  -0.01397  -2.60914
   D32       -3.13129  -0.00072   0.00000  -0.02019  -0.02023   3.13166
   D33        0.01944  -0.00078   0.00000  -0.01523  -0.01519   0.00426
   D34        2.13140  -0.00161   0.00000  -0.04086  -0.04091   2.09049
   D35       -0.97723  -0.00236   0.00000  -0.05581  -0.05588  -1.03311
   D36        0.04933  -0.00014   0.00000  -0.02254  -0.02254   0.02679
   D37       -3.05930  -0.00089   0.00000  -0.03749  -0.03751  -3.09681
   D38       -1.98062   0.00018   0.00000  -0.03194  -0.03186  -2.01248
   D39        1.19393  -0.00058   0.00000  -0.04688  -0.04683   1.14710
   D40       -3.12715  -0.00002   0.00000  -0.00398  -0.00381  -3.13096
   D41        0.01521  -0.00019   0.00000  -0.00303  -0.00293   0.01228
   D42       -0.01398   0.00076   0.00000   0.00927   0.00930  -0.00468
   D43        3.12839   0.00060   0.00000   0.01022   0.01017   3.13856
   D44        3.13134  -0.00047   0.00000   0.00001   0.00015   3.13150
   D45        0.00467  -0.00025   0.00000  -0.00068  -0.00059   0.00408
   D46        0.01540  -0.00099   0.00000  -0.01146  -0.01140   0.00400
   D47       -3.11128  -0.00076   0.00000  -0.01214  -0.01215  -3.12342
   D48        0.00699  -0.00028   0.00000  -0.00348  -0.00350   0.00349
   D49       -3.13532  -0.00013   0.00000  -0.00436  -0.00431  -3.13963
   D50        0.00315  -0.00032   0.00000  -0.00391  -0.00397  -0.00082
   D51       -3.13628   0.00005   0.00000  -0.00305  -0.00306  -3.13934
   D52       -0.01199   0.00082   0.00000   0.00990   0.00992  -0.00206
   D53        3.11396   0.00063   0.00000   0.01089   0.01096   3.12492
   D54        3.12757   0.00048   0.00000   0.00905   0.00902   3.13659
   D55       -0.02967   0.00028   0.00000   0.01004   0.01006  -0.01961
   D56       -1.06719   0.00710   0.00000   0.07249   0.07257  -0.99462
   D57        1.04085  -0.00023   0.00000  -0.00027  -0.00079   1.04007
   D58        3.09553   0.00672   0.00000   0.06937   0.07007  -3.11759
   D59        3.07629   0.00376   0.00000   0.04672   0.04654   3.12283
   D60       -1.09886  -0.00358   0.00000  -0.02604  -0.02681  -1.12567
   D61        0.95582   0.00338   0.00000   0.04361   0.04405   0.99986
   D62        1.01322   0.00224   0.00000   0.05304   0.05311   1.06633
   D63        3.12126  -0.00510   0.00000  -0.01972  -0.02024   3.10102
   D64       -1.10725   0.00186   0.00000   0.04992   0.05062  -1.05663
   D65       -1.24344  -0.00124   0.00000  -0.02952  -0.02892  -1.27236
   D66        0.79754  -0.00113   0.00000  -0.03437  -0.03385   0.76369
   D67        2.89484  -0.00111   0.00000  -0.02829  -0.02775   2.86709
   D68        2.92966   0.00047   0.00000   0.00088   0.00027   2.92992
   D69       -1.31255   0.00058   0.00000  -0.00396  -0.00466  -1.31721
   D70        0.78475   0.00060   0.00000   0.00211   0.00144   0.78619
   D71        0.87724   0.00046   0.00000  -0.00012   0.00004   0.87728
   D72        2.91822   0.00057   0.00000  -0.00496  -0.00489   2.91333
   D73       -1.26767   0.00059   0.00000   0.00111   0.00121  -1.26646
         Item               Value     Threshold  Converged?
 Maximum Force            0.025175     0.000450     NO 
 RMS     Force            0.005646     0.000300     NO 
 Maximum Displacement     0.427901     0.001800     NO 
 RMS     Displacement     0.095776     0.001200     NO 
 Predicted change in Energy=-8.894504D-03
 GradGradGradGradGradGradGradGradGradGradGradGradGradGradGradGradGradGrad

                          Input orientation:                          
 ---------------------------------------------------------------------
 Center     Atomic      Atomic             Coordinates (Angstroms)
 Number     Number       Type             X           Y           Z
 ---------------------------------------------------------------------
      1          8           0       -1.389188    0.067991   -0.813008
      2          6           0       -1.522476   -0.111890    0.417681
      3          7           0       -0.486861   -0.286536    1.232499
      4          6           0        0.886983   -0.359481    0.738535
      5          6           0        1.688619   -0.965079    1.880459
      6          8           0        2.980260   -1.151507    1.558932
      7          8           0        1.220087   -1.234884    2.963729
      8          6           0        1.433380    1.031281    0.284649
      9          6           0        2.318906    0.969141   -0.913379
     10          6           0        2.194260    1.552582   -2.152591
     11          7           0        3.248711    1.211914   -2.967546
     12          6           0        4.009666    0.424592   -2.237957
     13          7           0        3.494173    0.241295   -0.985005
     14          6           0       -2.925669   -0.107384    1.017209
     15          6           0       -3.876213   -0.828850    0.057496
     16          7           0       -3.805137   -0.134521   -1.279625
     17          1           0       -0.613134   -0.535071    2.209822
     18          1           0        0.914367   -1.039133   -0.119958
     19          1           0        3.425403   -1.531854    2.341330
     20          1           0        0.570811    1.643484    0.014812
     21          1           0        1.919969    1.526738    1.134423
     22          1           0        1.400256    2.201208   -2.498662
     23          1           0        4.935238   -0.035861   -2.554447
     24          1           0        3.874315   -0.324921   -0.239911
     25          1           0       -2.964079   -0.571980    2.005890
     26          1           0       -3.237733    0.938163    1.139787
     27          1           0       -3.554325   -1.859666   -0.106344
     28          1           0       -4.905683   -0.839412    0.418579
     29          1           0       -4.274384    0.776240   -1.266115
     30          1           0       -2.758065    0.024311   -1.417671
     31          1           0       -4.202438   -0.690630   -2.042217
 ---------------------------------------------------------------------
                    Distance matrix (angstroms):
                    1          2          3          4          5
     1  O    0.000000
     2  C    1.250887   0.000000
     3  N    2.263622   1.329258   0.000000
     4  C    2.787647   2.443305   1.461769   0.000000
     5  C    4.218400   3.630259   2.369174   1.520973   0.000000
     6  O    5.119116   4.760030   3.588267   2.383728   1.344050
     7  O    4.771744   3.907061   2.609634   2.414285   1.210699
     8  C    3.177998   3.172006   2.514436   1.561661   2.568504
     9  C    3.817343   4.206728   3.748845   2.558214   3.456009
    10  C    4.103607   4.815691   4.693569   3.704533   4.781190
    11  N    5.240296   5.998037   5.817236   4.667128   5.538623
    12  C    5.595111   6.159936   5.724380   4.384681   4.927453
    13  N    4.889461   5.221018   4.587435   3.182603   3.595309
    14  C    2.396085   1.525912   2.454839   3.831127   4.772054
    15  C    2.783414   2.486734   3.628009   4.834476   5.857398
    16  N    2.468917   2.844627   4.164713   5.112687   6.391973
    17  H    3.178591   2.053717   1.016304   2.108522   2.364626
    18  H    2.648095   2.662149   2.087817   1.095302   2.146304
    19  H    5.974081   5.495291   4.252779   3.222884   1.884158
    20  H    2.647463   2.761429   2.515235   2.153047   3.396283
    21  H    4.107427   3.879336   3.015031   2.186689   2.611368
    22  H    3.895259   4.732635   4.865351   4.159330   5.411583
    23  H    6.560622   7.109247   6.618381   5.228464   5.574260
    24  H    5.309170   5.440878   4.603186   3.143677   3.111758
    25  H    3.291813   2.193698   2.610790   4.059806   4.670960
    26  H    2.826257   2.136856   3.012603   4.342599   5.332905
    27  H    2.983798   2.730885   3.698185   4.763359   5.677688
    28  H    3.834830   3.460546   4.527044   5.821313   6.755569
    29  H    3.005209   3.346184   4.660247   5.652274   6.963515
    30  H    1.497113   2.216697   3.504054   4.252399   5.624016
    31  H    3.162410   3.683509   4.969163   5.808998   7.082886
                    6          7          8          9         10
     6  O    0.000000
     7  O    2.253578   0.000000
     8  C    2.963309   3.515462   0.000000
     9  C    3.323681   4.593157   1.491069   0.000000
    10  C    4.658894   5.907258   2.605921   1.375349   0.000000
    11  N    5.113397   6.729202   3.728918   2.267836   1.375527
    12  C    4.237940   6.131325   3.656345   2.215787   2.139006
    13  N    2.945440   4.789892   2.546167   1.384248   2.184606
    14  C    6.021931   4.716725   4.564484   5.691366   6.246342
    15  C    7.026353   5.880759   5.630583   6.523409   6.885226
    16  N    7.425178   6.668563   5.590000   6.233466   6.292944
    17  H    3.703529   2.102097   3.216826   4.540252   5.591994
    18  H    2.664435   3.104981   2.172486   2.575929   3.533653
    19  H    0.977222   2.310625   3.842884   4.251170   5.587914
    20  H    4.000216   4.171651   1.091618   2.090959   2.709517
    21  H    2.911601   3.385668   1.097435   2.159527   3.298539
    22  H    5.495560   6.455765   3.019378   2.207947   1.082092
    23  H    4.688976   6.759458   4.632739   3.247820   3.193369
    24  H    2.172191   4.258670   2.841234   2.132476   3.163217
    25  H    5.989223   4.343287   4.987060   6.229536   6.958102
    26  H    6.573115   5.284038   4.749656   5.923908   6.381521
    27  H    6.780518   5.710578   5.778204   6.568736   6.991193
    28  H    7.974076   6.645242   6.610684   7.565689   7.920968
    29  H    8.020409   7.219793   5.920176   6.605536   6.575097
    30  H    6.570470   6.050448   4.634661   5.188703   5.234619
    31  H    8.048095   7.399965   6.335750   6.823272   6.779523
                   11         12         13         14         15
    11  N    0.000000
    12  C    1.315762   0.000000
    13  N    2.220996   1.367194   0.000000
    14  C    7.466043   7.679712   6.733855   0.000000
    15  C    8.005007   8.308268   7.520279   1.531370   0.000000
    16  N    7.376905   7.893171   7.314913   2.459603   1.508323
    17  H    6.691109   6.486445   5.261143   2.636866   3.920012
    18  H    4.315685   4.026076   3.007192   4.111834   4.798475
    19  H    5.978600   5.013873   3.770052   6.642178   7.682689
    20  H    4.031360   4.287935   3.392906   4.036795   5.088249
    21  H    4.323288   4.117585   2.936401   5.115106   6.348567
    22  H    2.148335   3.167547   3.242978   6.033620   6.599721
    23  H    2.138216   1.081142   2.148636   8.634565   9.224573
    24  H    3.192685   2.138289   1.010086   6.918631   7.772585
    25  H    8.155741   8.224142   7.163511   1.093076   2.166612
    26  H    7.682388   8.012347   7.093583   1.097988   2.168259
    27  H    7.993896   8.183860   7.407253   2.174412   1.092262
    28  H    9.064653   9.388202   8.584611   2.194237   1.091009
    29  H    7.725390   8.348271   7.792026   2.795244   2.118207
    30  H    6.316159   6.829002   6.270945   2.444192   2.038199
    31  H    7.745679   8.289795   7.824577   3.366066   2.129395
                   16         17         18         19         20
    16  N    0.000000
    17  H    4.746110   0.000000
    18  H    4.943366   2.831114   0.000000
    19  H    8.206373   4.161809   3.550495   0.000000
    20  H    4.897528   3.311479   2.707882   4.862526   0.000000
    21  H    6.431505   3.438626   3.027937   3.616344   1.757097
[...]
 14851,0.00009351,0.00005403,-0.00003242,-0.00005911,0.00000645,-0.0000
 1913,0.00000743,-0.00003345,-0.00002105,0.00001519,0.00002281,0.000001
 72,-0.00000528,0.00002127,0.00003028,-0.00001690,0.00000870,0.00403037
 ,0.12197878,-0.24431755,0.00070068,0.01073434,-0.01655799,-0.00283585,
 -0.00242566,-0.00174425,0.00023654,0.00038643,0.00108552,0.00000722,0.
 00005662,0.00002460,0.00000672,0.00000603,0.00000666,-0.00000251,-0.00
 002256,-0.00001212,-0.00000357,-0.00002096,0.00000792,0.00000015,-0.00
 001235,0.00000451,0.00000071,0.00000023,0.00000120,0.00000909,0.000005
 79,-0.00000445,-0.00283578,-0.13155899,0.26374277,-0.00023436,-0.00366
 946,0.00039286,-0.00755121,0.03254637,0.00559842,-0.00193051,-0.002072
 00,0.00041628,-0.00015314,-0.00170384,-0.00033190,0.00025684,-0.000231
 04,0.00028336,-0.00021694,0.00008237,-0.00007265,-0.00015167,0.0000352
 1,-0.00017539,-0.00037947,0.00036764,-0.00014195,-0.00003333,-0.000151
 74,0.00003576,-0.00002111,0.00000149,-0.00007901,-0.00006819,0.0000291
 4,0.00004827,0.00000085,-0.00000603,0.00005579,0.00004710,-0.00004459,
 0.00000373,-0.06222251,0.06038964,0.01479330,0.00541623,-0.02667999,-0
 .00609904,0.00117949,0.00063931,0.00133559,-0.00011092,0.00095362,0.00
 050100,0.00013058,0.00001086,-0.00002671,0.00001548,0.00001038,0.00001
 972,-0.00001913,0.00010505,0.00006944,-0.00009809,-0.00009805,0.000006
 45,0.00000585,0.00001056,-0.00000412,0.00000030,0.00000387,0.00000115,
 0.00002843,0.00001505,-0.00000601,0.00007985,-0.00061371,-0.00024025,0
 .06861266,-0.00016563,-0.00010624,0.00065010,0.00223402,0.00160241,0.0
 0027714,-0.00022596,0.00045300,-0.00063473,0.00017961,0.00003396,0.000
 04023,0.00005369,-0.00004222,-0.00001502,-0.00002491,0.00000942,0.0000
 0532,-0.00002681,0.00003994,0.00000334,-0.00000550,-0.00000794,-0.0000
 2823,0.00001534,-0.00000873,0.00000303,0.00000212,-0.00000023,0.000001
 53,-0.00000311,-0.00000229,0.00000569,-0.00000222,0.00000166,-0.000002
 37,0.00000222,0.00000780,-0.00000007,0.05447436,-0.28090084,-0.0555174
 1,0.00140213,-0.01190666,-0.00213817,0.00021954,0.00150708,0.00035098,
 -0.00004064,-0.00033037,-0.00013213,-0.00005793,-0.00002104,0.00001154
 ,0.00000522,-0.00000663,-0.00000042,0.00002647,-0.00000685,0.00001480,
 0.00001193,0.00000191,0.00000136,0.00000156,0.00000533,-0.00000335,-0.
 00000111,-0.00000115,-0.00000056,0.00000273,-0.00000042,-0.00000136,0.
 00371312,-0.01565970,-0.00408103,-0.05941436,0.30413548,0.00063691,0.0
 0271220,-0.00049901,0.00426054,-0.01387060,-0.00397563,-0.00077231,0.0
 0013895,-0.00029723,0.00023734,0.00012316,0.00004208,0.00007975,0.0000
 3326,0.00007376,-0.00004351,0.00000692,-0.00002024,-0.00004924,-0.0000
 2797,-0.00005622,0.00002574,0.00003422,0.00004064,-0.00000805,-0.00001
 643,-0.00000453,0.00000805,-0.00000498,-0.00000510,-0.00001715,0.00000
 935,0.00000609,-0.00000425,-0.00000046,0.00000691,-0.00000360,0.000000
 72,0.00000060,0.01389947,-0.05690764,-0.06143720,0.00326609,-0.0219692
 0,-0.00697704,0.00083703,-0.00038247,0.00159619,0.00000617,0.00032524,
 0.00021500,-0.00008910,0.00002441,-0.00001139,0.00000704,-0.00000170,0
 .00000730,0.00002133,-0.00002042,-0.00000630,-0.00000628,-0.00000498,-
 0.00000433,0.00000005,-0.00000415,-0.00000160,-0.00000120,0.00000018,0
 .00000038,0.00000665,0.00000217,0.00000287,-0.00665715,0.02705899,0.00
 817636,-0.01323561,0.06326745,0.06501740,-0.00018971,0.00062335,0.0007
 1759,0.00153443,-0.00135833,-0.00083468,0.00007552,0.00037223,0.000019
 46,-0.00006358,-0.00003903,0.00001334,-0.00010650,0.00003460,-0.000075
 49,0.00007967,-0.00001323,0.00002230,0.00005726,-0.00000248,0.00005030
 ,-0.00000305,-0.00003846,0.00002804,0.00000226,0.00002380,-0.00000357,
 0.00000376,0.00000537,0.00001975,0.00002104,0.00000061,-0.00001464,-0.
 00000153,-0.00000211,-0.00000503,-0.00000480,0.00001439,-0.00000520,0.
 00430651,-0.02381427,-0.00550675,-0.06606771,0.05517711,0.01435470,0.0
 0002073,-0.00154025,-0.00064303,0.00003030,-0.00010213,-0.00008940,-0.
 00002521,-0.00001561,0.00001709,-0.00001452,-0.00000173,-0.00000961,0.
 00000097,-0.00002476,-0.00001230,0.00002063,0.00001270,-0.00000065,-0.
 00000163,-0.00000979,0.00000384,-0.00000002,-0.00000196,0.00000003,-0.
 00001390,-0.00000915,0.00000082,0.00088916,0.00059786,0.00058852,-0.00
 323765,-0.00185496,-0.00305298,0.06502669,-0.00025961,0.00057182,0.000
 70701,0.00040221,0.00019051,-0.00097730,-0.00008334,-0.00000026,0.0001
 0454,-0.00003742,-0.00005208,0.00000360,-0.00004354,0.00002662,-0.0000
 3520,0.00003068,-0.00000935,0.00000998,0.00002410,-0.00001158,0.000024
 08,-0.00001212,-0.00000828,0.00001296,-0.00000180,0.00000838,-0.000001
 07,0.00000342,0.00000217,0.00000782,0.00000727,0.00000153,-0.00000451,
 0.00000005,-0.00000094,-0.00000263,-0.00000185,0.00000378,-0.00000154,
 0.00050511,-0.00867631,-0.00385805,0.05284554,-0.30080615,-0.05614920,
 0.00368570,-0.01715164,0.00082505,0.00001948,-0.00003394,-0.00003464,-
 0.00000272,0.00000141,0.00000678,-0.00000396,0.00000221,-0.00000245,-0
 .00000402,-0.00001502,-0.00000481,0.00000773,0.00000195,-0.00000013,-0
 .00000025,-0.00000580,0.00000123,0.00000013,-0.00000047,-0.00000016,-0
 .00000481,-0.00000227,0.00000004,-0.00005602,0.00044508,-0.00014947,-0
 .00120109,0.00087006,-0.00110230,-0.05665881,0.32376213,0.00031814,-0.
 00025618,0.00104188,0.00168465,0.00032368,-0.00071657,-0.00040781,0.00
 030906,0.00007589,0.00007114,-0.00005265,-0.00006142,0.00003532,-0.000
 05744,0.00006829,-0.00004095,0.00002142,-0.00002113,-0.00002311,0.0000
 5808,-0.00003129,-0.00001468,0.00000833,0.00000282,0.00000120,-0.00000
 638,-0.00000688,-0.00000857,0.00000415,-0.00001574,-0.00001429,0.00000
 187,0.00001227,-0.00000302,0.,0.00000889,0.00000718,-0.00000357,0.0000
 1009,0.00324783,-0.02079806,-0.00472425,0.01677246,-0.06814897,-0.0652
 6128,-0.00801688,0.03909134,-0.00107596,0.00006019,-0.00016409,0.00004
 023,-0.00002502,-0.00000436,0.00002313,0.00000063,-0.00001132,0.000001
 37,-0.00000229,0.00001237,-0.00002157,0.00000336,-0.00000453,0.0000044
 2,-0.00000093,0.00000285,-0.00000303,-0.00000056,-0.00000032,0.0000010
 4,0.00000575,-0.00000267,-0.00000057,0.00041846,0.00010008,0.00047153,
 -0.00388642,-0.00105976,-0.00194001,-0.01077882,0.05902148,0.07694630,
 0.00083966,0.00008999,0.00067193,-0.00006999,-0.00155146,-0.00464083,-
 0.00134990,-0.00003087,0.00078508,0.00012376,0.00020877,-0.00028161,0.
 00006326,-0.00007680,0.00020789,-0.00013628,0.00004483,-0.00006803,-0.
 00006919,0.00004596,-0.00007635,0.00002472,0.00006129,-0.00002280,-0.0
 0000304,-0.00002481,-0.00000553,-0.00000666,0.00000098,-0.00002758,-0.
 00002739,0.00000657,0.00002649,-0.00000361,0.00000080,0.00001015,0.000
 01464,-0.00001405,0.00001406,-0.01821357,0.00183974,0.00718576,-0.2926
 5905,0.02098004,0.09949140,0.00608948,0.00002046,-0.00224343,0.0000690
 6,-0.00009543,0.00015336,-0.00006557,0.00000280,-0.00000118,0.00000283
 ,-0.00000822,0.00000889,0.00001324,0.00001695,-0.00000371,-0.00001048,
 -0.00001324,0.00000537,0.00000133,0.00000386,-0.00000410,-0.00000092,0
 .00000031,0.00000090,0.00001658,0.00000630,-0.00000492,0.00030347,0.00
 027720,-0.00012813,0.00106554,-0.00014680,0.00047263,-0.00356450,0.000
 48301,0.00129640,0.30737930,0.00023099,0.00032599,-0.00010126,-0.00144
 634,-0.00013391,-0.00308486,-0.00097827,0.00011361,0.00035987,0.000028
 33,0.00006668,-0.00019115,-0.00002080,-0.00002285,0.00007447,-0.000036
 95,0.00001706,-0.00002713,-0.00001369,0.00001207,-0.00002045,0.0000021
 9,0.00000958,0.00001140,-0.00000155,-0.00000826,-0.00000280,0.00000148
 ,-0.00000200,-0.00000282,-0.00000508,0.00000260,0.00000424,-0.00000175
 ,-0.00000013,0.00000300,0.00000234,-0.00000027,0.00000083,-0.01318230,
 0.00076198,0.00473401,0.02674337,-0.05616657,-0.01259590,-0.02025459,-
 0.00193820,0.01359372,0.00001964,-0.00003916,0.00003079,-0.00002871,-0
 .00000701,0.00001120,-0.00000596,-0.00000083,0.00000053,-0.00000419,-0
 .00000065,0.00000092,-0.00000379,0.00000120,-0.00000199,0.00000161,0.0
 0000129,0.00000016,-0.00000048,-0.00000015,0.00000020,0.00000219,0.000
 00108,-0.00000167,0.00058670,0.00042968,0.00013068,0.00016646,0.000460
 37,0.00091607,0.02903413,0.00071071,-0.01217725,-0.02189762,0.05584016
 ,0.00091157,-0.00030446,0.00217154,-0.00097003,-0.00197558,-0.00557364
 ,-0.00165822,0.00005701,0.00117661,0.00006472,0.00027182,-0.00035699,0
 .00007228,-0.00008690,0.00023828,-0.00017134,0.00005426,-0.00007958,-0
 .00008516,0.00004655,-0.00007813,0.00003469,0.00007794,-0.00003465,-0.
 00000886,-0.00002593,-0.00001307,-0.00001996,0.00000997,-0.00003845,-0
 .00002741,0.00000764,0.00003777,-0.00000431,0.00000035,0.00001115,0.00
 002698,-0.00002208,0.00002574,-0.02115642,0.00147072,0.01105093,0.0908
 8301,-0.00830687,-0.08850237,0.03058206,0.00211940,-0.01884087,0.00008
 634,-0.00012339,0.00018737,-0.00007912,0.00000596,-0.00000285,0.000001
 00,-0.00000782,0.00000856,0.00000884,0.00001696,-0.00000881,-0.0000120
 7,-0.00001713,0.00000883,0.00000037,-0.00000096,-0.00000403,-0.0000004
 8,-0.00000017,0.00000174,0.00002033,0.00000869,-0.00000904,0.00047072,
 0.00044135,0.00058059,0.00074430,0.00016643,0.00077411,0.00574416,-0.0
 0084669,-0.00128925,-0.10260310,0.00547664,0.10210175,-0.00233474,-0.0
 0254409,-0.00144887,-0.00099769,0.00015169,0.00006881,0.00027796,0.000
 16582,-0.00002526,-0.00007483,0.00002622,0.00007523,-0.00013689,0.0000
 5913,-0.00010636,0.00010601,-0.00003565,0.00003072,0.00006698,-0.00003
 827,0.00006342,-0.00002515,-0.00000685,-0.00002139,-0.00001517,0.00001
 300,-0.00000107,-0.00006119,0.00003081,-0.00000034,0.00006145,-0.00001
 907,-0.00001493,0.00001220,-0.00000448,-0.00000810,0.00003173,-0.00000
 892,0.00000326,-0.00057978,0.00075495,0.00003928,0.00199586,-0.0060931
 0,-0.00123567,-0.11646599,0.13398684,0.00852535,-0.00005624,0.00010842
 ,-0.00007682,0.00000552,-0.00000164,-0.00001956,-0.00002138,0.00001189
 ,-0.00001012,-0.00001613,-0.00001031,-0.00000356,0.00000941,0.00000331
 ,0.00000275,-0.00000705,-0.00001097,0.00002173,0.00000497,-0.00000219,
 0.00000189,-0.00001688,0.00000208,-0.00000552,0.00005544,-0.00024765,-
 0.00007981,0.00025273,-0.00018374,-0.00051035,0.00040046,-0.00090620,0
 .00159710,0.00038009,-0.00096074,0.00029463,0.11104446,-0.00192940,-0.
 00044696,-0.00165102,0.00041795,-0.00024313,0.00115129,-0.00058422,0.0
 0009357,-0.00056675,0.00023128,0.00003278,-0.00006644,0.00015963,-0.00
 005661,0.00004626,-0.00014293,0.00001914,-0.00001965,-0.00011789,0.000
 02291,-0.00002590,0.,0.00008094,-0.00003541,-0.00000977,-0.00003944,-0
 .00000011,-0.00004032,0.00000257,-0.00004509,-0.00002024,-0.00001415,0
 .00002998,0.00000169,0.00000299,0.00001032,0.00002883,-0.00003073,0.00
 002076,0.00014885,0.00163671,0.00003621,0.00493813,-0.01407585,0.00052
 593,0.12369375,-0.35268294,-0.03196885,-0.00001130,0.00003144,0.000112
 14,-0.00001506,-0.00000421,0.00000682,0.00001710,0.00000264,0.00000900
 ,0.00001016,0.00004862,0.00000346,-0.00002056,-0.00001209,0.00000028,0
 .00000459,0.00002383,0.00000243,0.00000197,0.00000295,0.00000191,0.000
 02054,0.00001837,-0.00000781,-0.00017454,-0.00014286,-0.00026689,0.000
 34072,-0.00006597,0.00018081,-0.00049657,0.00048014,0.00310714,-0.0006
 2727,0.00100676,-0.00086803,-0.13741445,0.37133066,0.00053888,0.000389
 43,0.00005093,-0.00068478,0.00012103,0.00013148,0.00037837,-0.00007783
 ,0.00007769,-0.00013591,0.00005848,0.00006957,-0.00013787,0.00004820,-
 0.00001005,0.00012377,-0.00002579,0.00000480,0.00009153,-0.00003100,-0
 .00000688,-0.00001324,-0.00003704,0.00002569,0.00000662,0.00001111,0.0
 0002304,0.00004076,-0.00002228,0.00004799,0.00001618,0.00000081,-0.000
 05008,0.00000929,-0.00000383,-0.00000261,-0.00003875,0.00002755,-0.000
 04863,0.00027544,0.00077507,0.00117646,-0.01346781,0.03051030,0.006347
 91,0.00558060,-0.02793993,-0.06463069,-0.00003817,0.00002820,-0.000073
 31,0.00001421,-0.00000115,-0.00000642,-0.00001449,0.00000817,-0.000002
 30,-0.00000429,-0.00002606,0.00002571,0.00000628,0.00000990,-0.0000139
 7,0.00000182,-0.00000105,0.00001124,-0.00000054,0.00000093,-0.00000212
 ,-0.00001727,-0.00000559,0.00001302,0.00030081,-0.00045393,-0.00004127
 ,-0.00029719,-0.00098627,-0.00068036,0.00014848,0.00257779,-0.00602737
 ,0.00047271,-0.00020014,0.00134884,-0.00941404,0.02923234,0.06358809,0
 .00327987,-0.00563859,0.03855087,0.01071146,0.00496647,-0.04556454,0.0
 0566156,-0.00214776,0.01765407,-0.00380316,0.00040775,0.00064582,-0.00
 252435,0.00124556,-0.00121216,0.00183745,-0.00049486,0.00036648,0.0016
 4225,-0.00082288,0.00105612,-0.00026442,-0.00059490,0.00025640,-0.0001
 1106,0.00042351,0.00006985,0.00001517,0.00005833,0.00046084,0.00053354
 ,-0.00007445,-0.00044178,0.00012877,-0.00006268,-0.00015901,-0.0001360
 1,0.00019036,-0.00024643,-0.00047856,0.00181626,0.00215249,0.00331504,
 -0.00890622,0.01826660,-0.21706677,-0.01271295,0.03861283,0.00175147,0
 .00011825,-0.00106546,-0.00005821,0.00021249,-0.00025327,-0.00025937,0
 .00012463,-0.00012060,-0.00014436,-0.00081137,-0.00004645,0.00031579,0
 .00008366,-0.00000645,-0.00004143,-0.00020818,0.00016670,0.00002442,-0
 .00001340,-0.00000744,-0.00026263,-0.00006731,0.00004565,-0.00302504,-
 0.00071881,0.00003952,-0.00072489,-0.00020617,0.00084949,0.00029121,0.
 00086671,-0.00171085,-0.00024126,0.00177643,-0.00417797,-0.00364489,0.
 00283083,0.00080306,0.20698254,-0.00175168,-0.01282583,-0.00165782,0.0
 0119653,-0.00122641,0.00261718,-0.00006947,0.00121040,-0.00015365,0.00
 003616,-0.00009398,0.00011939,0.00008878,-0.00000164,-0.00001408,-0.00
 008595,-0.00000164,0.00000415,-0.00010881,-0.00004855,-0.00000788,0.00
 003130,0.00000741,-0.00008538,-0.00002184,-0.00003039,-0.00000316,-0.0
 0012473,0.00004406,-0.00007827,0.00002587,-0.00003881,0.00002845,0.000
 01972,-0.00000298,0.00000939,0.00006715,-0.00004855,0.00003395,0.00031
 478,0.00029905,-0.00076271,-0.01675784,-0.00069441,0.00757789,-0.01921
 220,-0.07019207,-0.00251150,0.00003958,0.00107552,0.00026308,-0.000092
 40,0.00000875,-0.00010992,0.00001279,0.00001104,0.00000906,-0.00000835
 ,0.00009363,-0.00001889,-0.00001865,-0.00000485,0.00001255,-0.00001120
 ,0.00001173,0.00002766,0.00000765,0.00000169,0.00000479,0.00001709,0.0
 0002476,-0.00001173,-0.00022304,-0.00035707,-0.00019529,0.00027777,-0.
 00017540,-0.00049793,-0.00059445,-0.00056336,0.00005881,0.00060145,-0.
 00142511,0.00238427,0.03355730,0.00704358,-0.00778643,0.01972411,0.079
 23642,0.01361957,-0.00182085,-0.00176212,-0.00970509,0.00248012,-0.018
 70277,0.00288148,-0.00015077,0.00278909,-0.00102448,0.00005712,0.00027
 583,-0.00081394,0.00040683,-0.00031785,0.00065494,-0.00016043,0.000092
 09,0.00049032,-0.00022360,0.00021930,-0.00012371,-0.00022004,0.0001590
 2,-0.00000045,0.00009478,0.00011164,0.00012998,-0.00010434,0.00022369,
 0.00011767,-0.00003385,-0.00022951,0.00005263,-0.00001507,-0.00004372,
 -0.00016696,0.00012260,-0.00019037,0.00009992,-0.00040528,-0.00083771,
 0.03087900,0.00490277,-0.01165765,0.05105742,-0.00290506,-0.07064180,-
 0.00002787,0.00016789,-0.00031447,-0.00002933,0.00009255,-0.00003209,-
 0.00007529,0.00003541,-0.00002681,-0.00003846,-0.00027417,0.00003768,0
 .00010397,0.00004189,-0.00004076,0.00000649,0.00002227,0.00005148,0.00
 000203,0.00000475,-0.00000995,-0.00008945,-0.00002524,0.00005190,-0.00
 021417,-0.00002957,0.00060562,-0.00010075,-0.00026516,-0.00026163,-0.0
 0025637,-0.00011213,0.00055072,-0.00107773,0.00362746,-0.00485226,0.00
 246223,0.00090983,-0.00143219,-0.06240427,-0.00608901,0.09728486,-0.00
 440280,0.00180915,-0.00067530,-0.00034344,-0.00018622,0.00157724,0.000
 04759,-0.00003839,-0.00010111,-0.00000618,-0.00000326,0.00001143,-0.00
 003519,0.00001282,-0.00006371,0.00002842,-0.00000654,0.00002078,0.0000
 1413,-0.00000204,0.00003559,0.00000897,-0.00000008,-0.00000969,-0.0000
 0676,0.00001635,-0.00002535,-0.00002898,0.00003378,-0.00000817,0.00002
 930,0.00000749,0.00001885,-0.00000954,-0.00000013,-0.00000613,0.000034
 35,-0.00001020,0.00002923,0.00053020,-0.00041078,0.00082235,0.00171116
 ,0.00411927,0.00277669,-0.13914177,-0.08475494,-0.12736509,0.00002891,
 -0.00002520,-0.00011524,-0.00000197,-0.00001753,-0.00001047,-0.0000122
 0,0.00000080,-0.00000876,-0.00000056,0.00000234,-0.00000785,-0.0000004
 3,0.00000324,0.00000728,-0.00000340,-0.00002757,-0.00000233,0.00000112
 ,-0.00000425,0.00000181,-0.00000852,-0.00000466,-0.00001072,0.00015047
 ,-0.00006356,0.00027071,0.00006121,0.00001581,-0.00016351,0.00053373,0
 .00039641,-0.00058561,0.00003447,0.00024698,0.00102846,0.00974871,0.00
 875849,0.01545555,-0.00370415,-0.01693741,-0.02640935,0.13474314,0.000
 74752,-0.00001097,-0.00011008,-0.00086334,0.00007625,0.00025764,0.0002
 5856,-0.00008543,-0.00001934,-0.00009597,0.00000395,0.00005402,-0.0000
 9133,0.00004422,-0.00002486,0.00008545,-0.00003296,0.00000653,0.000065
 51,-0.00003153,0.00000642,-0.00000472,-0.00001381,-0.00000211,-0.00000
 382,0.00001005,0.00000023,-0.00002942,0.00000875,0.00000410,0.00002768
 ,-0.00002022,-0.00001362,0.00000781,-0.00000033,-0.00000606,0.00000618
 ,-0.00000827,-0.00000018,-0.00068844,-0.00280616,0.00371704,0.01177482
 ,0.01281802,0.01283472,-0.07771451,-0.15028044,-0.12763646,-0.00009336
 ,0.00004583,-0.00006219,0.00003711,0.00001244,-0.00000367,-0.00000825,
 0.00001486,0.00000043,0.00000050,-0.00001439,0.00000197,0.00000251,0.0
 0000056,-0.00000200,-0.00000181,0.00000057,0.00000465,0.00000389,0.000
 00202,0.00000105,-0.00000645,0.00000687,0.00000335,0.00088447,0.000671
 38,0.00088189,-0.00009958,0.00011424,-0.00002289,0.00068194,0.00025897
 ,0.00062687,-0.00020476,-0.00001573,-0.00002993,-0.02038317,-0.0140656
 4,-0.02620101,-0.00136484,-0.00133701,-0.00013171,0.08706985,0.1546339
 2,0.00314816,-0.00100595,0.00190397,-0.00006605,0.00041985,-0.00201988
 ,0.00048384,-0.00007156,0.00070226,-0.00022331,-0.00000410,0.00007757,
 -0.00019644,0.00007347,-0.00004821,0.00016112,-0.00003656,0.00001463,0
 .00012536,-0.00004166,0.00002986,-0.00004482,-0.00004278,0.00003832,-0
 .00000080,0.00001638,0.00002350,0.00001194,-0.00001481,0.00004745,0.00
 003288,-0.00001364,-0.00006401,0.00002010,-0.00000835,0.00000142,-0.00
 003324,0.00002672,-0.00005327,0.00170335,0.00441405,-0.00425030,-0.013
 99457,-0.01434313,-0.01829124,-0.12092173,-0.13096334,-0.24625322,0.00
 008703,0.00002944,-0.00006599,0.00000074,0.00000354,-0.00000409,-0.000
 02084,0.00000926,-0.00000494,-0.00001027,-0.00004452,0.00000829,0.0000
 1868,0.00000914,-0.00001234,-0.00000272,0.00000320,0.00002327,0.000001
 86,0.00000144,-0.00000054,-0.00002172,-0.00000492,0.00001402,-0.001323
 90,-0.00072266,-0.00046946,0.00039158,0.00006707,0.00021816,-0.0004398
 8,-0.00002008,0.00193744,0.00038599,-0.00056879,-0.00003978,-0.0002046
 2,0.00013503,0.00008580,-0.00258010,0.00683305,0.00890075,0.13351241,0
 .13586521,0.25755056\\0.00000016,-0.00000417,-0.00000382,0.00001540,0.
 00000162,0.00000439,-0.00001330,0.00000650,-0.00000319,-0.00000511,-0.
 00000165,-0.00000115,0.00000302,-0.00000046,-0.00000163,-0.00000585,0.
 00000010,-0.00000128,-0.00000408,-0.00000069,0.00000446,0.00000392,-0.
 00000054,-0.00000103,-0.00000445,-0.00000015,0.00000153,0.00000351,0.0
 0000261,-0.00000473,-0.00000337,0.00000106,-0.00000109,-0.00000182,-0.
 00000086,0.00000073,0.00000214,-0.00000670,0.00000301,0.00000145,-0.00
 000047,0.00000215,-0.00000325,0.00000053,0.00000210,-0.00001515,-0.000
 00624,0.00000199,0.00000358,-0.00000078,0.00000155,0.00000055,-0.00000
 043,-0.00000042,0.00000279,-0.00000069,0.00000181,-0.00000061,-0.00000
 116,-0.00000080,0.00000074,0.00000214,0.00000125,0.00000008,-0.0000002
 2,-0.00000042,0.00000150,-0.00000121,-0.00000075,0.00000406,0.00000340
 ,0.00000033,0.00000060,-0.00000154,-0.00000070,0.,0.00000109,-0.000000
 96,0.00000035,0.00000086,-0.00000155,-0.00000104,0.00000095,-0.0000015
 2,0.00000028,0.00000195,-0.00000097,0.00001683,0.00000517,0.00000157,-
 0.00000293,-0.00000003,-0.00000085\\\@


 Money is a good servant but a bad master.
                        -- French Proverb
 Job cpu time:       0 days  1 hours  4 minutes  4.0 seconds.
 File lengths (MBytes):  RWF=    277 Int=      0 D2E=      0 Chk=      8 Scr=      1
 Normal termination of Gaussian 09 at Tue Jul 27 02:07:17 2021.
