 Entering Gaussian System, Link 0=g09
 Input=opt_freq-conf-580.com
 Output=opt_freq-conf-580.log
 Initial command:
 /aerosol/software/g09/l1.exe "/scratch/nicole/10529/Gau-551759.inp" -scrdir="/scratch/nicole/10529/"
 Entering Link 1 = /aerosol/software/g09/l1.exe PID=    551767.
  
 Copyright (c) 1988,1990,1992,1993,1995,1998,2003,2009,2013,
            Gaussian, Inc.  All Rights Reserved.
  
 This is part of the Gaussian(R) 09 program.  It is based on
 the Gaussian(R) 03 system (copyright 2003, Gaussian, Inc.),
 the Gaussian(R) 98 system (copyright 1998, Gaussian, Inc.),
 the Gaussian(R) 94 system (copyright 1995, Gaussian, Inc.),
 the Gaussian 92(TM) system (copyright 1992, Gaussian, Inc.),
 the Gaussian 90(TM) system (copyright 1990, Gaussian, Inc.),
 the Gaussian 88(TM) system (copyright 1988, Gaussian, Inc.),
 the Gaussian 86(TM) system (copyright 1986, Carnegie Mellon
 University), and the Gaussian 82(TM) system (copyright 1983,
 Carnegie Mellon University). Gaussian is a federally registered
 trademark of Gaussian, Inc.
  
 This software contains proprietary and confidential information,
 including trade secrets, belonging to Gaussian, Inc.
  
 This software is provided under written license and may be
 used, copied, transmitted, or stored only in accord with that
 written license.
  
 The following legend is applicable only to US Government
 contracts under FAR:
  
                    RESTRICTED RIGHTS LEGEND
  
 Use, reproduction and disclosure by the US Government is
 subject to restrictions as set forth in subparagraphs (a)
 and (c) of the Commercial Computer Software - Restricted
 Rights clause in FAR 52.227-19.
  
 Gaussian, Inc.
 340 Quinnipiac St., Bldg. 40, Wallingford CT 06492
  
  
 ---------------------------------------------------------------
 Warning -- This program may not be used in any manner that
 competes with the business of Gaussian, Inc. or will provide
 assistance to any competitor of Gaussian, Inc.  The licensee
 of this program is prohibited from giving any competitor of
 Gaussian, Inc. access to this program.  By using this program,
 the user acknowledges that Gaussian, Inc. is engaged in the
 business of creating and licensing software in the field of
 computational chemistry and represents and warrants to the
 licensee that it is not a competitor of Gaussian, Inc. and that
 it will not use this program in any manner prohibited above.
 ---------------------------------------------------------------
  

 Cite this work as:
 Gaussian 09, Revision D.01,
 M. J. Frisch, G. W. Trucks, H. B. Schlegel, G. E. Scuseria, 
 M. A. Robb, J. R. Cheeseman, G. Scalmani, V. Barone, B. Mennucci, 
 G. A. Petersson, H. Nakatsuji, M. Caricato, X. Li, H. P. Hratchian, 
 A. F. Izmaylov, J. Bloino, G. Zheng, J. L. Sonnenberg, M. Hada, 
 M. Ehara, K. Toyota, R. Fukuda, J. Hasegawa, M. Ishida, T. Nakajima, 
 Y. Honda, O. Kitao, H. Nakai, T. Vreven, J. A. Montgomery, Jr., 
 J. E. Peralta, F. Ogliaro, M. Bearpark, J. J. Heyd, E. Brothers, 
 K. N. Kudin, V. N. Staroverov, T. Keith, R. Kobayashi, J. Normand, 
 K. Raghavachari, A. Rendell, J. C. Burant, S. S. Iyengar, J. Tomasi, 
 M. Cossi, N. Rega, J. M. Millam, M. Klene, J. E. Knox, J. B. Cross, 
 V. Bakken, C. Adamo, J. Jaramillo, R. Gomperts, R. E. Stratmann, 
 O. Yazyev, A. J. Austin, R. Cammi, C. Pomelli, J. W. Ochterski, 
 R. L. Martin, K. Morokuma, V. G. Zakrzewski, G. A. Voth, 
 P. Salvador, J. J. Dannenberg, S. Dapprich, A. D. Daniels, 
 O. Farkas, J. B. Foresman, J. V. Ortiz, J. Cioslowski, 
 and D. J. Fox, Gaussian, Inc., Wallingford CT, 2013.
 
 ******************************************
 Gaussian 09:  ES64L-G09RevD.01 24-Apr-2013
                27-Jul-2021 
 ******************************************
 %mem=2gb
 %nproc=4
 Will use up to    4 processors via shared memory.
 %chk=conf-580.chk
 ----------------------------------------------------------------------
 # B3LYP/6-31G(d) EmpiricalDispersion=GD3BJ opt=calcfc freq=noraman nos
 ymm integral(ultrafinegrid)
 ----------------------------------------------------------------------
 1/10=4,14=-1,18=20,19=15,26=4,38=1/1,3;
 2/9=110,12=2,15=1,17=6,18=5,40=1/2;
 3/5=1,6=6,7=1,11=2,16=1,25=1,30=1,71=2,74=-5,75=-5,124=41,140=1/1,2,3;
 4//1;
 5/5=2,38=5/2;
 8/6=4,10=90,11=11/1;
 11/6=1,8=1,9=11,15=111,16=1,31=1/1,2,10;
 10/6=1,13=1,31=1/2;
 6/7=2,8=2,9=2,10=2,28=1/1;
 7/10=1,18=20,25=1,30=1/1,2,3,16;
 1/10=4,14=-1,18=20,19=15,26=4/3(2);
 2/9=110,15=1/2;
 99//99;
 2/9=110,15=1/2;
 3/5=1,6=6,7=1,11=2,16=1,25=1,30=1,71=1,74=-5,75=-5,124=41/1,2,3;
 4/5=5,16=3,69=1/1;
 5/5=2,38=5/2;
 7/30=1/1,2,3,16;
 1/14=-1,18=20,19=15,26=4/3(-5);
 2/9=110,15=1/2;
 6/7=2,8=2,9=2,10=2,19=2,28=1/1;
 99/9=1/99;
 ------------------------------------------------------------
 Candidate Structure: Conf:580 OPT and FREQ calc in gas phase
 ------------------------------------------------------------
 Symbolic Z-matrix:
 Charge =  1 Multiplicity = 1
 O                     1.1626    0.47867  -1.24083 
 C                     1.43062   0.39643  -0.04924 
 N                     0.44893   0.32097   0.88846 
 C                    -0.95542   0.32737   0.51041 
 C                    -1.72354   0.76875   1.73533 
 O                    -2.59503   1.76808   1.49955 
 O                    -1.57563   0.26701   2.82237 
 C                    -1.39558  -1.08541   0.07214 
 C                    -2.827    -1.1616   -0.34837 
 C                    -3.94651  -1.63385   0.27999 
 N                    -5.07043  -1.45394  -0.50815 
 C                    -4.63104  -0.88057  -1.60483 
 N                    -3.28184  -0.68161  -1.55821 
 C                     2.85113   0.35726   0.49446 
 C                     3.88925   0.67519  -0.5716 
 N                     5.27509   0.60883  -0.03633 
 H                     0.66614   0.21415   1.86708 
 H                    -1.09215   1.03096  -0.31002 
 H                    -3.03128   1.94422   2.34426 
 H                    -1.24299  -1.76764   0.90622 
 H                    -0.73868  -1.39207  -0.73967 
 H                    -4.00148  -2.07935   1.265 
 H                    -5.22149  -0.59048  -2.45542 
 H                    -2.71356  -0.26592  -2.27903 
 H                     3.04083  -0.64193   0.90267 
 H                     2.93715   1.06208   1.32718 
 H                     3.77607  -0.02889  -1.39457 
 H                     3.69767   1.66864  -0.97572 
 H                     5.96943   0.81982  -0.75442 
 H                     5.41211   1.27593   0.72291 
 H                     5.48682  -0.32092   0.32558 
 

 GradGradGradGradGradGradGradGradGradGradGradGradGradGradGradGradGradGrad
 Berny optimization.
 Initialization pass.
                           ----------------------------
                           !    Initial Parameters    !
                           ! (Angstroms and Degrees)  !
 --------------------------                            --------------------------
 ! Name  Definition              Value          Derivative Info.                !
 --------------------------------------------------------------------------------
 ! R1    R(1,2)                  1.2241         calculate D2E/DX2 analytically  !
 ! R2    R(2,3)                  1.3597         calculate D2E/DX2 analytically  !
 ! R3    R(2,14)                 1.5215         calculate D2E/DX2 analytically  !
 ! R4    R(3,4)                  1.4544         calculate D2E/DX2 analytically  !
 ! R5    R(3,17)                 1.0081         calculate D2E/DX2 analytically  !
 ! R6    R(4,5)                  1.5117         calculate D2E/DX2 analytically  !
 ! R7    R(4,8)                  1.5433         calculate D2E/DX2 analytically  !
 ! R8    R(4,18)                 1.0894         calculate D2E/DX2 analytically  !
 ! R9    R(5,6)                  1.3468         calculate D2E/DX2 analytically  !
 ! R10   R(5,7)                  1.2064         calculate D2E/DX2 analytically  !
 ! R11   R(6,19)                 0.9669         calculate D2E/DX2 analytically  !
 ! R12   R(8,9)                  1.4938         calculate D2E/DX2 analytically  !
 ! R13   R(8,20)                 1.0883         calculate D2E/DX2 analytically  !
 ! R14   R(8,21)                 1.0884         calculate D2E/DX2 analytically  !
 ! R15   R(9,10)                 1.3679         calculate D2E/DX2 analytically  !
 ! R16   R(9,13)                 1.3788         calculate D2E/DX2 analytically  !
 ! R17   R(10,11)                1.3845         calculate D2E/DX2 analytically  !
 ! R18   R(10,22)                1.0825         calculate D2E/DX2 analytically  !
 ! R19   R(11,12)                1.3132         calculate D2E/DX2 analytically  !
 ! R20   R(12,13)                1.3646         calculate D2E/DX2 analytically  !
 ! R21   R(12,23)                1.0753         calculate D2E/DX2 analytically  !
 ! R22   R(13,24)                1.0076         calculate D2E/DX2 analytically  !
 ! R23   R(14,15)                1.5216         calculate D2E/DX2 analytically  !
 ! R24   R(14,25)                1.0959         calculate D2E/DX2 analytically  !
 ! R25   R(14,26)                1.0943         calculate D2E/DX2 analytically  !
 ! R26   R(15,16)                1.4871         calculate D2E/DX2 analytically  !
 ! R27   R(15,27)                1.089          calculate D2E/DX2 analytically  !
 ! R28   R(15,28)                1.0895         calculate D2E/DX2 analytically  !
 ! R29   R(16,29)                1.0209         calculate D2E/DX2 analytically  !
 ! R30   R(16,30)                1.0199         calculate D2E/DX2 analytically  !
 ! R31   R(16,31)                1.0199         calculate D2E/DX2 analytically  !
 ! A1    A(1,2,3)              121.1297         calculate D2E/DX2 analytically  !
 ! A2    A(1,2,14)             123.6408         calculate D2E/DX2 analytically  !
 ! A3    A(3,2,14)             115.227          calculate D2E/DX2 analytically  !
 ! A4    A(2,3,4)              121.176          calculate D2E/DX2 analytically  !
 ! A5    A(2,3,17)             121.3189         calculate D2E/DX2 analytically  !
 ! A6    A(4,3,17)             117.442          calculate D2E/DX2 analytically  !
 ! A7    A(3,4,5)              106.3383         calculate D2E/DX2 analytically  !
 ! A8    A(3,4,8)              110.1931         calculate D2E/DX2 analytically  !
 ! A9    A(3,4,18)             108.6502         calculate D2E/DX2 analytically  !
 ! A10   A(5,4,8)              110.6385         calculate D2E/DX2 analytically  !
 ! A11   A(5,4,18)             110.9702         calculate D2E/DX2 analytically  !
 ! A12   A(8,4,18)             109.9717         calculate D2E/DX2 analytically  !
 ! A13   A(4,5,6)              113.8036         calculate D2E/DX2 analytically  !
 ! A14   A(4,5,7)              123.1211         calculate D2E/DX2 analytically  !
 ! A15   A(6,5,7)              123.0739         calculate D2E/DX2 analytically  !
 ! A16   A(5,6,19)             105.914          calculate D2E/DX2 analytically  !
 ! A17   A(4,8,9)              113.5732         calculate D2E/DX2 analytically  !
 ! A18   A(4,8,20)             108.435          calculate D2E/DX2 analytically  !
 ! A19   A(4,8,21)             107.3141         calculate D2E/DX2 analytically  !
 ! A20   A(9,8,20)             108.5493         calculate D2E/DX2 analytically  !
 ! A21   A(9,8,21)             110.7317         calculate D2E/DX2 analytically  !
 ! A22   A(20,8,21)            108.0823         calculate D2E/DX2 analytically  !
 ! A23   A(8,9,10)             132.2612         calculate D2E/DX2 analytically  !
 ! A24   A(8,9,13)             123.049          calculate D2E/DX2 analytically  !
 ! A25   A(10,9,13)            104.6715         calculate D2E/DX2 analytically  !
 ! A26   A(9,10,11)            110.9795         calculate D2E/DX2 analytically  !
 ! A27   A(9,10,22)            126.988          calculate D2E/DX2 analytically  !
 ! A28   A(11,10,22)           122.0242         calculate D2E/DX2 analytically  !
 ! A29   A(10,11,12)           105.1009         calculate D2E/DX2 analytically  !
 ! A30   A(11,12,13)           111.4658         calculate D2E/DX2 analytically  !
 ! A31   A(11,12,23)           126.488          calculate D2E/DX2 analytically  !
 ! A32   A(13,12,23)           122.046          calculate D2E/DX2 analytically  !
 ! A33   A(9,13,12)            107.782          calculate D2E/DX2 analytically  !
 ! A34   A(9,13,24)            125.8228         calculate D2E/DX2 analytically  !
 ! A35   A(12,13,24)           126.3934         calculate D2E/DX2 analytically  !
 ! A36   A(2,14,15)            112.4095         calculate D2E/DX2 analytically  !
 ! A37   A(2,14,25)            108.5535         calculate D2E/DX2 analytically  !
 ! A38   A(2,14,26)            109.1908         calculate D2E/DX2 analytically  !
 ! A39   A(15,14,25)           109.474          calculate D2E/DX2 analytically  !
 ! A40   A(15,14,26)           110.1769         calculate D2E/DX2 analytically  !
 ! A41   A(25,14,26)           106.8689         calculate D2E/DX2 analytically  !
 ! A42   A(14,15,16)           111.9807         calculate D2E/DX2 analytically  !
 ! A43   A(14,15,27)           108.8738         calculate D2E/DX2 analytically  !
 ! A44   A(14,15,28)           109.2953         calculate D2E/DX2 analytically  !
 ! A45   A(16,15,27)           109.8784         calculate D2E/DX2 analytically  !
 ! A46   A(16,15,28)           109.7596         calculate D2E/DX2 analytically  !
 ! A47   A(27,15,28)           106.9165         calculate D2E/DX2 analytically  !
 ! A48   A(15,16,29)           111.8023         calculate D2E/DX2 analytically  !
 ! A49   A(15,16,30)           111.3432         calculate D2E/DX2 analytically  !
 ! A50   A(15,16,31)           111.2144         calculate D2E/DX2 analytically  !
 ! A51   A(29,16,30)           107.2805         calculate D2E/DX2 analytically  !
 ! A52   A(29,16,31)           107.266          calculate D2E/DX2 analytically  !
 ! A53   A(30,16,31)           107.7099         calculate D2E/DX2 analytically  !
 ! D1    D(1,2,3,4)              0.3576         calculate D2E/DX2 analytically  !
 ! D2    D(1,2,3,17)           177.3943         calculate D2E/DX2 analytically  !
 ! D3    D(14,2,3,4)          -179.0877         calculate D2E/DX2 analytically  !
 ! D4    D(14,2,3,17)           -2.0511         calculate D2E/DX2 analytically  !
 ! D5    D(1,2,14,15)           10.0468         calculate D2E/DX2 analytically  !
 ! D6    D(1,2,14,25)         -111.2039         calculate D2E/DX2 analytically  !
 ! D7    D(1,2,14,26)          132.6334         calculate D2E/DX2 analytically  !
 ! D8    D(3,2,14,15)         -170.5235         calculate D2E/DX2 analytically  !
 ! D9    D(3,2,14,25)           68.2258         calculate D2E/DX2 analytically  !
 ! D10   D(3,2,14,26)          -47.9369         calculate D2E/DX2 analytically  !
 ! D11   D(2,3,4,5)           -158.491          calculate D2E/DX2 analytically  !
 ! D12   D(2,3,4,8)             81.5636         calculate D2E/DX2 analytically  !
 ! D13   D(2,3,4,18)           -38.9825         calculate D2E/DX2 analytically  !
 ! D14   D(17,3,4,5)            24.3615         calculate D2E/DX2 analytically  !
 ! D15   D(17,3,4,8)           -95.584          calculate D2E/DX2 analytically  !
 ! D16   D(17,3,4,18)          143.87           calculate D2E/DX2 analytically  !
 ! D17   D(3,4,5,6)            129.6372         calculate D2E/DX2 analytically  !
 ! D18   D(3,4,5,7)            -50.781          calculate D2E/DX2 analytically  !
 ! D19   D(8,4,5,6)           -110.7067         calculate D2E/DX2 analytically  !
 ! D20   D(8,4,5,7)             68.875          calculate D2E/DX2 analytically  !
 ! D21   D(18,4,5,6)            11.6523         calculate D2E/DX2 analytically  !
 ! D22   D(18,4,5,7)          -168.7659         calculate D2E/DX2 analytically  !
 ! D23   D(3,4,8,9)           -179.3492         calculate D2E/DX2 analytically  !
 ! D24   D(3,4,8,20)            59.9            calculate D2E/DX2 analytically  !
 ! D25   D(3,4,8,21)           -56.6265         calculate D2E/DX2 analytically  !
 ! D26   D(5,4,8,9)             63.3402         calculate D2E/DX2 analytically  !
 ! D27   D(5,4,8,20)           -57.4105         calculate D2E/DX2 analytically  !
 ! D28   D(5,4,8,21)          -173.9371         calculate D2E/DX2 analytically  !
 ! D29   D(18,4,8,9)           -59.6006         calculate D2E/DX2 analytically  !
 ! D30   D(18,4,8,20)          179.6487         calculate D2E/DX2 analytically  !
 ! D31   D(18,4,8,21)           63.1221         calculate D2E/DX2 analytically  !
 ! D32   D(4,5,6,19)           178.8089         calculate D2E/DX2 analytically  !
 ! D33   D(7,5,6,19)            -0.7731         calculate D2E/DX2 analytically  !
 ! D34   D(4,8,9,10)          -102.7806         calculate D2E/DX2 analytically  !
 ! D35   D(4,8,9,13)            75.411          calculate D2E/DX2 analytically  !
 ! D36   D(20,8,9,10)           17.9057         calculate D2E/DX2 analytically  !
 ! D37   D(20,8,9,13)         -163.9026         calculate D2E/DX2 analytically  !
 ! D38   D(21,8,9,10)          136.3996         calculate D2E/DX2 analytically  !
 ! D39   D(21,8,9,13)          -45.4088         calculate D2E/DX2 analytically  !
 ! D40   D(8,9,10,11)          178.3004         calculate D2E/DX2 analytically  !
 ! D41   D(8,9,10,22)           -0.6592         calculate D2E/DX2 analytically  !
 ! D42   D(13,9,10,11)          -0.1328         calculate D2E/DX2 analytically  !
 ! D43   D(13,9,10,22)        -179.0924         calculate D2E/DX2 analytically  !
 ! D44   D(8,9,13,12)         -178.5556         calculate D2E/DX2 analytically  !
 ! D45   D(8,9,13,24)            1.9074         calculate D2E/DX2 analytically  !
 ! D46   D(10,9,13,12)           0.0611         calculate D2E/DX2 analytically  !
 ! D47   D(10,9,13,24)        -179.4759         calculate D2E/DX2 analytically  !
 ! D48   D(9,10,11,12)           0.1538         calculate D2E/DX2 analytically  !
 ! D49   D(22,10,11,12)        179.1736         calculate D2E/DX2 analytically  !
 ! D50   D(10,11,12,13)         -0.1125         calculate D2E/DX2 analytically  !
 ! D51   D(10,11,12,23)        179.7345         calculate D2E/DX2 analytically  !
 ! D52   D(11,12,13,9)           0.034          calculate D2E/DX2 analytically  !
 ! D53   D(11,12,13,24)        179.5676         calculate D2E/DX2 analytically  !
 ! D54   D(23,12,13,9)        -179.821          calculate D2E/DX2 analytically  !
 ! D55   D(23,12,13,24)         -0.2873         calculate D2E/DX2 analytically  !
 ! D56   D(2,14,15,16)        -178.9104         calculate D2E/DX2 analytically  !
 ! D57   D(2,14,15,27)         -57.2083         calculate D2E/DX2 analytically  !
 ! D58   D(2,14,15,28)          59.2471         calculate D2E/DX2 analytically  !
 ! D59   D(25,14,15,16)        -58.188          calculate D2E/DX2 analytically  !
 ! D60   D(25,14,15,27)         63.5141         calculate D2E/DX2 analytically  !
 ! D61   D(25,14,15,28)        179.9695         calculate D2E/DX2 analytically  !
 ! D62   D(26,14,15,16)         59.0607         calculate D2E/DX2 analytically  !
 ! D63   D(26,14,15,27)       -179.2371         calculate D2E/DX2 analytically  !
 ! D64   D(26,14,15,28)        -62.7818         calculate D2E/DX2 analytically  !
 ! D65   D(14,15,16,29)        179.8294         calculate D2E/DX2 analytically  !
 ! D66   D(14,15,16,30)        -60.1839         calculate D2E/DX2 analytically  !
 ! D67   D(14,15,16,31)         59.9494         calculate D2E/DX2 analytically  !
 ! D68   D(27,15,16,29)         58.7058         calculate D2E/DX2 analytically  !
 ! D69   D(27,15,16,30)        178.6925         calculate D2E/DX2 analytically  !
 ! D70   D(27,15,16,31)        -61.1741         calculate D2E/DX2 analytically  !
 ! D71   D(28,15,16,29)        -58.5946         calculate D2E/DX2 analytically  !
 ! D72   D(28,15,16,30)         61.3921         calculate D2E/DX2 analytically  !
 ! D73   D(28,15,16,31)       -178.4746         calculate D2E/DX2 analytically  !
 --------------------------------------------------------------------------------
 Trust Radius=3.00D-01 FncErr=1.00D-07 GrdErr=1.00D-06
 Number of steps in this run=    167 maximum allowed number of steps=    186.
 GradGradGradGradGradGradGradGradGradGradGradGradGradGradGradGradGradGrad

                          Input orientation:                          
 ---------------------------------------------------------------------
 Center     Atomic      Atomic             Coordinates (Angstroms)
 Number     Number       Type             X           Y           Z
 ---------------------------------------------------------------------
      1          8           0        1.162603    0.478671   -1.240831
      2          6           0        1.430616    0.396434   -0.049241
      3          7           0        0.448932    0.320965    0.888456
      4          6           0       -0.955423    0.327373    0.510414
      5          6           0       -1.723545    0.768751    1.735326
      6          8           0       -2.595029    1.768084    1.499553
      7          8           0       -1.575633    0.267005    2.822369
      8          6           0       -1.395584   -1.085407    0.072144
      9          6           0       -2.826998   -1.161603   -0.348369
     10          6           0       -3.946509   -1.633854    0.279987
     11          7           0       -5.070431   -1.453941   -0.508152
     12          6           0       -4.631038   -0.880572   -1.604833
     13          7           0       -3.281841   -0.681612   -1.558207
     14          6           0        2.851131    0.357259    0.494464
     15          6           0        3.889249    0.675187   -0.571600
     16          7           0        5.275090    0.608825   -0.036333
     17          1           0        0.666139    0.214146    1.867082
     18          1           0       -1.092150    1.030957   -0.310017
     19          1           0       -3.031278    1.944219    2.344257
     20          1           0       -1.242985   -1.767641    0.906216
     21          1           0       -0.738682   -1.392072   -0.739669
     22          1           0       -4.001481   -2.079351    1.264996
     23          1           0       -5.221486   -0.590477   -2.455421
     24          1           0       -2.713556   -0.265923   -2.279028
     25          1           0        3.040831   -0.641932    0.902672
     26          1           0        2.937152    1.062081    1.327175
     27          1           0        3.776071   -0.028894   -1.394566
     28          1           0        3.697671    1.668637   -0.975717
     29          1           0        5.969430    0.819825   -0.754425
     30          1           0        5.412113    1.275928    0.722911
     31          1           0        5.486815   -0.320917    0.325582
 ---------------------------------------------------------------------
                    Distance matrix (angstroms):
                    1          2          3          4          5
     1  O    0.000000
     2  C    1.224125   0.000000
     3  N    2.251236   1.359660   0.000000
     4  C    2.752414   2.451768   1.454363   0.000000
     5  C    4.155900   3.643080   2.374312   1.511700   0.000000
     6  O    4.826188   4.526147   3.425389   2.396321   1.346752
     7  O    4.904318   4.159378   2.800320   2.394461   1.206354
     8  C    3.273311   3.193430   2.458961   1.543298   2.512297
     9  C    4.404986   4.543592   3.802560   2.541131   3.047238
    10  C    5.733993   5.757076   4.848861   3.584145   3.582191
    11  N    6.566774   6.774813   5.963571   4.598244   4.601652
    12  C    5.962073   6.387038   5.785004   4.409483   4.725510
    13  N    4.604353   5.064228   4.572744   3.272531   3.921632
    14  C    2.424277   1.521517   2.434566   3.806705   4.757807
    15  C    2.814443   2.528921   3.754067   4.976201   6.069112
    16  N    4.287226   3.850358   4.922388   6.260786   7.221166
    17  H    3.158413   2.071219   1.008116   2.117270   2.456732
    18  H    2.501068   2.614377   2.077344   1.089418   2.156580
    19  H    5.708706   5.294617   4.106844   3.207233   1.860830
    20  H    3.929705   3.569910   2.687969   2.151380   2.711392
    21  H    2.713987   2.895047   2.644942   2.136860   3.429972
    22  H    6.284140   6.112643   5.070452   3.954767   3.677213
    23  H    6.585962   7.142419   6.645742   5.276165   5.625429
    24  H    4.081284   4.752350   4.514280   3.350226   4.262125
    25  H    3.062369   2.139424   2.765016   4.130795   5.038116
    26  H    3.175539   2.146453   2.633052   4.044631   4.687720
    27  H    2.666734   2.737145   4.050240   5.113014   6.377949
    28  H    2.812983   2.759782   3.980662   5.065458   6.127734
    29  H    4.843404   4.612741   5.781334   7.056622   8.085996
    30  H    4.748710   4.149946   5.056929   6.441307   7.224945
    31  H    4.668169   4.136163   5.109708   6.477413   7.427251
                    6          7          8          9         10
     6  O    0.000000
     7  O    2.245495   0.000000
     8  C    3.408604   3.070045   0.000000
     9  C    3.471554   3.695999   1.493848   0.000000
    10  C    3.858370   3.962073   2.617481   1.367902   0.000000
    11  N    4.532101   5.125196   3.738591   2.268035   1.384461
    12  C    4.560474   5.500231   3.649982   2.216357   2.142092
    13  N    3.977766   4.795880   2.525680   1.378761   2.174283
    14  C    5.715006   5.002353   4.504912   5.937883   7.086497
    15  C    6.894198   6.445974   5.607456   6.966463   8.213158
    16  N    8.101951   7.431112   6.883320   8.299133   9.495660
    17  H    3.631118   2.437398   3.026771   4.359233   5.216368
    18  H    2.465065   3.260248   2.171892   2.796156   3.949264
    19  H    0.966882   2.271682   4.125121   4.115591   4.231012
    20  H    3.831635   2.814620   1.088304   2.109588   2.778327
    21  H    4.294965   4.017603   1.088395   2.137123   3.374657
    22  H    4.103156   3.716926   3.033400   2.196501   1.082466
    23  H    5.301218   6.471676   4.612057   3.240282   3.193221
    24  H    4.292891   5.253869   2.817200   2.131328   3.152771
    25  H    6.158520   5.081648   4.535221   6.022174   7.084812
    26  H    5.579712   4.820060   4.995939   6.401378   7.466555
    27  H    7.224678   6.819885   5.478456   6.780713   8.063390
    28  H    6.762760   6.648140   5.884218   7.139687   8.421207
    29  H    8.906715   8.368216   7.652226   9.025967  10.267248
    30  H    8.059760   7.365749   7.234926   8.658646   9.810546
    31  H    8.429611   7.513839   6.929365   8.383344   9.524363
                   11         12         13         14         15
    11  N    0.000000
    12  C    1.313212   0.000000
    13  N    2.213179   1.364585   0.000000
    14  C    8.187603   7.869061   6.550272   0.000000
    15  C    9.209402   8.722571   7.364701   1.521597   0.000000
    16  N   10.559708  10.139520   8.786489   2.494115   1.487101
    17  H    6.429035   6.427494   5.302974   2.584329   4.067944
    18  H    4.694752   4.225425   3.047231   4.080505   5.000933
    19  H    4.882814   5.112141   4.710307   6.367332   7.616190
    20  H    4.092455   4.309426   3.377835   4.631040   5.872919
    21  H    4.338373   4.020021   2.764492   4.179713   5.071445
    22  H    2.162833   3.173221   3.231413   7.313623   8.557113
    23  H    2.135473   1.075307   2.139047   8.646802   9.389152
    24  H    3.178403   2.123457   1.007635   6.248709   6.884623
    25  H    8.272990   8.074782   6.784813   1.095903   2.151300
    26  H    8.591867   8.345542   7.074021   1.094341   2.159056
    27  H    9.004281   8.452753   7.089918   2.138472   1.088950
    28  H    9.319266   8.732791   7.387594   2.144242   1.089475
    29  H   11.274271  10.769608   9.406721   3.390793   2.093203
    30  H   10.901901  10.532510   9.198930   2.730342   2.087047
    31  H   10.650555  10.315555   8.975973   2.726770   2.085516
                   16         17         18         19         20
    16  N    0.000000
    17  H    5.002119   0.000000
    18  H    6.387084   2.915222   0.000000
    19  H    8.743354   4.109956   3.411662   0.000000
    20  H    7.001521   2.914704   3.055180   4.363927   0.000000
    21  H    6.376812   3.368770   2.486083   5.088952   1.761905
    22  H    9.745487   5.235391   4.540803   4.277291   2.799140
    23  H   10.838285   7.348168   4.927801   5.853085   5.339924
    24  H    8.343460   5.370571   2.861444   5.134242   3.816217
    25  H    2.727277   2.702243   4.620682   6.755505   4.429257
    26  H    2.744185   2.483544   4.349326   6.118396   5.065380
    27  H    2.120976   4.513213   5.098931   8.013237   5.788589
    28  H    2.119881   4.403094   4.877722   7.508457   6.305534
    29  H    1.020923   5.946768   7.078699   9.585345   7.840385
    30  H    1.019928   4.996077   6.590325   8.623586   7.320331
    31  H    1.019917   5.089346   6.746431   9.042334   6.907993
                   21         22         23         24         25
    21  H    0.000000
    22  H    3.890616   0.000000
    23  H    4.866404   4.188873   0.000000
    24  H    2.745535   4.184182   2.534988   0.000000
    25  H    4.188641   7.196639   8.918819   6.586165   0.000000
    26  H    4.879187   7.616895   9.143432   6.833652   1.759151
    27  H    4.761317   8.471597   9.077269   6.553908   2.488714
    28  H    5.394895   8.851280   9.319039   6.822388   3.049347
    29  H    7.063390  10.578391  11.406969   8.882427   3.668705
    30  H    6.862190  10.008372  11.254275   8.798605   3.055074
    31  H    6.406165   9.695482  11.066814   8.604250   2.533559
                   26         27         28         29         30
    26  H    0.000000
    27  H    3.049900   0.000000
    28  H    2.499923   1.750198   0.000000
    29  H    3.685981   2.437402   2.435230   0.000000
    30  H    2.556619   2.977063   2.445173   1.643519   0.000000
    31  H    3.068657   2.443529   2.975356   1.643357   1.647229
                   31
    31  H    0.000000
 Symmetry turned off by external request.
 Stoichiometry    C9H15N4O3(1+)
 Framework group  C1[X(C9H15N4O3)]
 Deg. of freedom    87
 Full point group                 C1      NOp   1
 Rotational constants (GHZ):      1.0449480      0.2251058      0.2000292
 Standard basis: 6-31G(d) (6D, 7F)
   270 basis functions,   508 primitive gaussians,   270 cartesian basis functions
    60 alpha electrons       60 beta electrons
       nuclear repulsion energy      1111.5256414978 Hartrees.
 NAtoms=   31 NActive=   31 NUniq=   31 SFac= 1.00D+00 NAtFMM=   60 NAOKFM=F Big=F
 Integral buffers will be    131072 words long.
 Raffenetti 2 integral format.
 Two-electron integral symmetry is turned off.
 Nuclear repulsion after empirical dispersion term =     1111.4717372650 Hartrees.
 One-electron integrals computed using PRISM.
 NBasis=   270 RedAO= T EigKep=  1.19D-03  NBF=   270
 NBsUse=   270 1.00D-06 EigRej= -1.00D+00 NBFU=   270
 ExpMin= 1.61D-01 ExpMax= 5.48D+03 ExpMxC= 8.25D+02 IAcc=3 IRadAn=         5 AccDes= 0.00D+00
 Harris functional with IExCor=  402 and IRadAn=       5 diagonalized for initial guess.
 HarFok:  IExCor=  402 AccDes= 0.00D+00 IRadAn=         5 IDoV= 1 UseB2=F ITyADJ=14
 ICtDFT=  3500011 ScaDFX=  1.000000  1.000000  1.000000  1.000000
 FoFCou: FMM=F IPFlag=           0 FMFlag=      100000 FMFlg1=           0
         NFxFlg=           0 DoJE=T BraDBF=F KetDBF=T FulRan=T
         wScrn=  0.000000 ICntrl=     500 IOpCl=  0 I1Cent=   200000004 NGrid=           0
         NMat0=    1 NMatS0=      1 NMatT0=    0 NMatD0=    1 NMtDS0=    0 NMtDT0=    0
 Symmetry not used in FoFCou.
 Requested convergence on RMS density matrix=1.00D-08 within 128 cycles.
 Requested convergence on MAX density matrix=1.00D-06.
 Requested convergence on             energy=1.00D-06.
 No special actions if energy rises.
 Integral accuracy reduced to 1.0D-05 until final iterations.
 EnCoef did     2 forward-backward iterations
 Initial convergence to 1.0D-05 achieved.  Increase integral accuracy.
 SCF Done:  E(RB3LYP) =  -796.491719473     A.U. after   17 cycles
            NFock= 17  Conv=0.81D-08     -V/T= 2.0090
 DoSCS=F DFT=T ScalE2(SS,OS)=  1.000000  1.000000
 Range of M.O.s used for correlation:     1   270
 NBasis=   270 NAE=    60 NBE=    60 NFC=     0 NFV=     0
 NROrb=    270 NOA=    60 NOB=    60 NVA=   210 NVB=   210
 Symmetrizing basis deriv contribution to polar:
 IMax=3 JMax=2 DiffMx= 0.00D+00
 G2DrvN: will do    32 centers at a time, making    1 passes.
 Calling FoFCou, ICntrl=  3107 FMM=F I1Cent=   0 AccDes= 0.00D+00.
 End of G2Drv F.D. properties file   721 does not exist.
 End of G2Drv F.D. properties file   722 does not exist.
 End of G2Drv F.D. properties file   788 does not exist.
          IDoAtm=1111111111111111111111111111111
          Differentiating once with respect to nuclear coordinates.
          There are    96 degrees of freedom in the 1st order CPHF.  IDoFFX=6 NUNeed=     0.
     90 vectors produced by pass  0 Test12= 1.31D-14 1.04D-09 XBig12= 1.44D-01 1.24D-01.
 AX will form    90 AO Fock derivatives at one time.
     90 vectors produced by pass  1 Test12= 1.31D-14 1.04D-09 XBig12= 1.20D-02 3.40D-02.
     90 vectors produced by pass  2 Test12= 1.31D-14 1.04D-09 XBig12= 1.18D-04 1.71D-03.
     90 vectors produced by pass  3 Test12= 1.31D-14 1.04D-09 XBig12= 4.51D-07 1.17D-04.
     90 vectors produced by pass  4 Test12= 1.31D-14 1.04D-09 XBig12= 6.77D-10 3.70D-06.
     68 vectors produced by pass  5 Test12= 1.31D-14 1.04D-09 XBig12= 5.00D-13 8.57D-08.
     11 vectors produced by pass  6 Test12= 1.31D-14 1.04D-09 XBig12= 3.67D-16 2.69D-09.
 InvSVY:  IOpt=1 It=  1 EMax= 5.55D-16
 Solved reduced A of dimension   529 with    96 vectors.
 End of Minotr F.D. properties file   721 does not exist.
 End of Minotr F.D. properties file   722 does not exist.
 End of Minotr F.D. properties file   788 does not exist.

 **********************************************************************

            Population analysis using the SCF density.

 **********************************************************************

 Alpha  occ. eigenvalues --  -19.29406 -19.25195 -19.24249 -14.67797 -14.48947
 Alpha  occ. eigenvalues --  -14.45789 -14.37308 -10.43774 -10.43225 -10.42298
 Alpha  occ. eigenvalues --  -10.37880 -10.34713 -10.30232 -10.29467 -10.28837
 Alpha  occ. eigenvalues --  -10.26160  -1.22570  -1.20933  -1.17435  -1.12053
 Alpha  occ. eigenvalues --   -1.08009  -1.05438  -0.97540  -0.93500  -0.90207
 Alpha  occ. eigenvalues --   -0.85825  -0.82355  -0.80787  -0.79845  -0.76646
 Alpha  occ. eigenvalues --   -0.72689  -0.70666  -0.70496  -0.67971  -0.65822
 Alpha  occ. eigenvalues --   -0.65237  -0.64606  -0.61192  -0.59974  -0.59299
 Alpha  occ. eigenvalues --   -0.57602  -0.57238  -0.56749  -0.54992  -0.53611
 Alpha  occ. eigenvalues --   -0.52808  -0.51604  -0.50202  -0.49533  -0.48550
 Alpha  occ. eigenvalues --   -0.47526  -0.47077  -0.46371  -0.41762  -0.39683
 Alpha  occ. eigenvalues --   -0.38652  -0.37616  -0.34278  -0.32620  -0.29286
 Alpha virt. eigenvalues --   -0.17439  -0.12332  -0.10963  -0.10441  -0.09259
 Alpha virt. eigenvalues --   -0.07228  -0.04190  -0.03579  -0.02712  -0.02218
 Alpha virt. eigenvalues --   -0.00681  -0.00390   0.00349   0.01041   0.02251
 Alpha virt. eigenvalues --    0.03325   0.04354   0.05612   0.07252   0.08019
 Alpha virt. eigenvalues --    0.09139   0.11005   0.11161   0.13171   0.14579
 Alpha virt. eigenvalues --    0.15707   0.17340   0.19263   0.20856   0.21451
 Alpha virt. eigenvalues --    0.25319   0.26591   0.27761   0.31923   0.33752
 Alpha virt. eigenvalues --    0.34300   0.34682   0.36151   0.39073   0.40006
 Alpha virt. eigenvalues --    0.40417   0.42471   0.44629   0.45365   0.47770
 Alpha virt. eigenvalues --    0.48794   0.49185   0.49614   0.50384   0.51627
 Alpha virt. eigenvalues --    0.52532   0.54159   0.54638   0.56737   0.57273
 Alpha virt. eigenvalues --    0.57999   0.58902   0.60531   0.60569   0.61033
 Alpha virt. eigenvalues --    0.61310   0.61887   0.63473   0.65200   0.66906
 Alpha virt. eigenvalues --    0.67777   0.68809   0.68969   0.69727   0.71361
 Alpha virt. eigenvalues --    0.72463   0.73272   0.74677   0.74829   0.75438
 Alpha virt. eigenvalues --    0.75576   0.76844   0.77163   0.77720   0.79273
 Alpha virt. eigenvalues --    0.79412   0.80422   0.81517   0.81772   0.82587
 Alpha virt. eigenvalues --    0.83312   0.85420   0.86354   0.87558   0.89296
 Alpha virt. eigenvalues --    0.91379   0.93582   0.94778   0.97375   1.00240
 Alpha virt. eigenvalues --    1.00643   1.02570   1.07927   1.10922   1.13951
 Alpha virt. eigenvalues --    1.14052   1.16511   1.18798   1.21265   1.21938
 Alpha virt. eigenvalues --    1.25389   1.28284   1.28702   1.29922   1.30511
 Alpha virt. eigenvalues --    1.30558   1.34724   1.36036   1.37329   1.39123
 Alpha virt. eigenvalues --    1.39922   1.44904   1.46225   1.47790   1.50003
 Alpha virt. eigenvalues --    1.52489   1.54178   1.56117   1.60274   1.62287
 Alpha virt. eigenvalues --    1.63069   1.65967   1.66634   1.67743   1.68699
 Alpha virt. eigenvalues --    1.69299   1.70781   1.72156   1.72900   1.75418
 Alpha virt. eigenvalues --    1.76360   1.78156   1.78245   1.79801   1.80964
 Alpha virt. eigenvalues --    1.81867   1.83949   1.84988   1.86404   1.87497
 Alpha virt. eigenvalues --    1.90124   1.93295   1.94967   2.00379   2.02125
 Alpha virt. eigenvalues --    2.03226   2.05099   2.06458   2.07939   2.08477
 Alpha virt. eigenvalues --    2.10214   2.14384   2.14705   2.15685   2.17127
 Alpha virt. eigenvalues --    2.18080   2.20626   2.24739   2.24927   2.28046
 Alpha virt. eigenvalues --    2.29134   2.30289   2.31969   2.34693   2.35178
 Alpha virt. eigenvalues --    2.40304   2.40550   2.42670   2.44951   2.51221
 Alpha virt. eigenvalues --    2.52190   2.52650   2.53775   2.56392   2.59128
 Alpha virt. eigenvalues --    2.63453   2.64383   2.67758   2.70245   2.73717
 Alpha virt. eigenvalues --    2.77852   2.82920   2.87584   2.89033   2.93524
 Alpha virt. eigenvalues --    2.96160   2.99346   3.05638   3.07620   3.53188
 Alpha virt. eigenvalues --    3.74409   3.85658   3.91653   3.92221   3.97493
 Alpha virt. eigenvalues --    4.02350   4.07508   4.12147   4.19009   4.23568
 Alpha virt. eigenvalues --    4.28144   4.32971   4.36810   4.50388   4.59217
          Condensed to atoms (all electrons):
               1          2          3          4          5          6
     1  O    8.090343   0.570947  -0.097589   0.005194   0.000549   0.000000
     2  C    0.570947   4.273764   0.321173  -0.029214   0.006243  -0.000094
     3  N   -0.097589   0.321173   7.162255   0.198806  -0.022417   0.000539
     4  C    0.005194  -0.029214   0.198806   5.170948   0.280620  -0.079251
     5  C    0.000549   0.006243  -0.022417   0.280620   4.389063   0.296547
     6  O    0.000000  -0.000094   0.000539  -0.079251   0.296547   8.185768
     7  O   -0.000004   0.000472  -0.006713  -0.085604   0.543013  -0.086101
     8  C   -0.004042  -0.003117  -0.047974   0.323811  -0.032467  -0.000878
     9  C   -0.000142   0.000080   0.003829  -0.051552   0.004201   0.001269
    10  C   -0.000001  -0.000002  -0.000045  -0.004256   0.005251  -0.000558
    11  N    0.000000   0.000000   0.000000  -0.000074  -0.000045  -0.000029
    12  C    0.000000   0.000000   0.000000   0.000227  -0.000075   0.000109
    13  N    0.000002  -0.000008   0.000018   0.000397  -0.001157  -0.000168
    14  C   -0.096100   0.280235  -0.132388   0.006865  -0.000162   0.000000
    15  C    0.009412  -0.019122   0.004111  -0.000136   0.000000   0.000000
    16  N    0.000337   0.002127  -0.000013   0.000000   0.000000   0.000000
    17  H    0.002906  -0.021108   0.291427  -0.033714  -0.001896   0.000602
    18  H    0.009120  -0.002099  -0.045141   0.367151  -0.031769   0.004681
    19  H    0.000000   0.000003  -0.000240   0.010283  -0.007991   0.224596
    20  H    0.000027   0.000300  -0.001055  -0.038207  -0.007978   0.000240
    21  H    0.005890   0.005246  -0.008186  -0.043899   0.005469  -0.000098
    22  H    0.000000   0.000000  -0.000001   0.000064   0.000163  -0.000030
    23  H    0.000000   0.000000   0.000000   0.000000  -0.000001   0.000001
    24  H    0.000062   0.000005  -0.000033   0.000215   0.000104  -0.000019
    25  H    0.000392  -0.015185  -0.000373  -0.000048  -0.000003   0.000000
    26  H    0.001348  -0.015965   0.002680  -0.000019  -0.000019   0.000000
    27  H    0.008178   0.001549   0.000384  -0.000004   0.000000   0.000000
    28  H    0.003491   0.000540   0.000249  -0.000004   0.000000   0.000000
    29  H    0.000014   0.000037   0.000001   0.000000   0.000000   0.000000
    30  H    0.000006  -0.000023   0.000000   0.000000   0.000000   0.000000
    31  H    0.000011  -0.000001   0.000001   0.000000   0.000000   0.000000
               7          8          9         10         11         12
     1  O   -0.000004  -0.004042  -0.000142  -0.000001   0.000000   0.000000
     2  C    0.000472  -0.003117   0.000080  -0.000002   0.000000   0.000000
     3  N   -0.006713  -0.047974   0.003829  -0.000045   0.000000   0.000000
     4  C   -0.085604   0.323811  -0.051552  -0.004256  -0.000074   0.000227
     5  C    0.543013  -0.032467   0.004201   0.005251  -0.000045  -0.000075
     6  O   -0.086101  -0.000878   0.001269  -0.000558  -0.000029   0.000109
     7  O    8.059770  -0.000618  -0.002195   0.000140   0.000003   0.000000
     8  C   -0.000618   5.214868   0.349390  -0.055174   0.007035   0.005990
     9  C   -0.002195   0.349390   4.740948   0.563639  -0.043485  -0.089182
    10  C    0.000140  -0.055174   0.563639   4.939128   0.419927  -0.116388
    11  N    0.000003   0.007035  -0.043485   0.419927   6.651850   0.535612
    12  C    0.000000   0.005990  -0.089182  -0.116388   0.535612   4.729691
    13  N    0.000004  -0.071824   0.340682  -0.072610  -0.081528   0.348798
    14  C   -0.000035  -0.000586  -0.000004   0.000000   0.000000   0.000000
    15  C    0.000000   0.000005   0.000000   0.000000   0.000000   0.000000
    16  N    0.000000   0.000000   0.000000   0.000000   0.000000   0.000000
    17  H    0.019045   0.001488  -0.000022  -0.000002   0.000000   0.000000
    18  H    0.002983  -0.037189  -0.002373  -0.000066   0.000010  -0.000008
    19  H    0.008673  -0.000362   0.000124   0.000124  -0.000004  -0.000008
    20  H    0.006015   0.362411  -0.024695  -0.003281   0.000069  -0.000044
    21  H    0.000037   0.355600  -0.019966   0.002696  -0.000159   0.000036
    22  H    0.000146  -0.001341  -0.059937   0.382759  -0.040791   0.007410
    23  H    0.000000  -0.000163   0.002986   0.007365  -0.037319   0.383015
    24  H    0.000000  -0.002353  -0.029382   0.008777   0.005123  -0.022267
    25  H    0.000000   0.000077   0.000000   0.000000   0.000000   0.000000
    26  H   -0.000001   0.000004   0.000000   0.000000   0.000000   0.000000
    27  H    0.000000   0.000000   0.000000   0.000000   0.000000   0.000000
    28  H    0.000000   0.000001   0.000000   0.000000   0.000000   0.000000
    29  H    0.000000   0.000000   0.000000   0.000000   0.000000   0.000000
    30  H    0.000000   0.000000   0.000000   0.000000   0.000000   0.000000
    31  H    0.000000   0.000000   0.000000   0.000000   0.000000   0.000000
              13         14         15         16         17         18
     1  O    0.000002  -0.096100   0.009412   0.000337   0.002906   0.009120
     2  C   -0.000008   0.280235  -0.019122   0.002127  -0.021108  -0.002099
     3  N    0.000018  -0.132388   0.004111  -0.000013   0.291427  -0.045141
     4  C    0.000397   0.006865  -0.000136   0.000000  -0.033714   0.367151
     5  C   -0.001157  -0.000162   0.000000   0.000000  -0.001896  -0.031769
     6  O   -0.000168   0.000000   0.000000   0.000000   0.000602   0.004681
     7  O    0.000004  -0.000035   0.000000   0.000000   0.019045   0.002983
     8  C   -0.071824  -0.000586   0.000005   0.000000   0.001488  -0.037189
     9  C    0.340682  -0.000004   0.000000   0.000000  -0.000022  -0.002373
    10  C   -0.072610   0.000000   0.000000   0.000000  -0.000002  -0.000066
    11  N   -0.081528   0.000000   0.000000   0.000000   0.000000   0.000010
    12  C    0.348798   0.000000   0.000000   0.000000   0.000000  -0.000008
    13  N    6.892152   0.000000   0.000000   0.000000   0.000000   0.003047
    14  C    0.000000   5.424721   0.322092  -0.042683   0.001383   0.000716
    15  C    0.000000   0.322092   5.119025   0.155875  -0.000036   0.000008
    16  N    0.000000  -0.042683   0.155875   6.756153  -0.000009   0.000000
    17  H    0.000000   0.001383  -0.000036  -0.000009   0.383159   0.004226
    18  H    0.003047   0.000716   0.000008   0.000000   0.004226   0.529063
    19  H    0.000007   0.000000   0.000000   0.000000  -0.000085  -0.000396
    20  H    0.003651   0.000042   0.000000   0.000000   0.001786   0.005149
    21  H   -0.003895   0.000137  -0.000002   0.000000  -0.000383  -0.004686
    22  H    0.004814   0.000000   0.000000   0.000000   0.000000   0.000008
    23  H   -0.057877   0.000000   0.000000   0.000000   0.000000   0.000004
    24  H    0.301934   0.000000   0.000000   0.000000   0.000000   0.000529
    25  H    0.000000   0.358574  -0.037755  -0.002016   0.000497  -0.000014
    26  H    0.000000   0.353774  -0.038036  -0.001954   0.001061  -0.000027
    27  H    0.000000  -0.038704   0.381421  -0.030461  -0.000013  -0.000002
    28  H    0.000000  -0.036384   0.385111  -0.031275  -0.000009  -0.000004
    29  H    0.000000   0.003530  -0.022163   0.309122   0.000000   0.000000
    30  H    0.000000  -0.001041  -0.018038   0.301874   0.000000   0.000000
    31  H    0.000000  -0.000569  -0.019533   0.301959   0.000000   0.000000
              19         20         21         22         23         24
     1  O    0.000000   0.000027   0.005890   0.000000   0.000000   0.000062
     2  C    0.000003   0.000300   0.005246   0.000000   0.000000   0.000005
     3  N   -0.000240  -0.001055  -0.008186  -0.000001   0.000000  -0.000033
     4  C    0.010283  -0.038207  -0.043899   0.000064   0.000000   0.000215
     5  C   -0.007991  -0.007978   0.005469   0.000163  -0.000001   0.000104
     6  O    0.224596   0.000240  -0.000098  -0.000030   0.000001  -0.000019
     7  O    0.008673   0.006015   0.000037   0.000146   0.000000   0.000000
     8  C   -0.000362   0.362411   0.355600  -0.001341  -0.000163  -0.002353
     9  C    0.000124  -0.024695  -0.019966  -0.059937   0.002986  -0.029382
    10  C    0.000124  -0.003281   0.002696   0.382759   0.007365   0.008777
    11  N   -0.000004   0.000069  -0.000159  -0.040791  -0.037319   0.005123
    12  C   -0.000008  -0.000044   0.000036   0.007410   0.383015  -0.022267
    13  N    0.000007   0.003651  -0.003895   0.004814  -0.057877   0.301934
    14  C    0.000000   0.000042   0.000137   0.000000   0.000000   0.000000
    15  C    0.000000   0.000000  -0.000002   0.000000   0.000000   0.000000
    16  N    0.000000   0.000000   0.000000   0.000000   0.000000   0.000000
    17  H   -0.000085   0.001786  -0.000383   0.000000   0.000000   0.000000
    18  H   -0.000396   0.005149  -0.004686   0.000008   0.000004   0.000529
    19  H    0.336227  -0.000023   0.000009   0.000006   0.000000   0.000000
    20  H   -0.000023   0.539419  -0.028530   0.002601   0.000004  -0.000063
    21  H    0.000009  -0.028530   0.557530  -0.000021  -0.000005   0.001834
    22  H    0.000006   0.002601  -0.000021   0.557973  -0.000140  -0.000094
    23  H    0.000000   0.000004  -0.000005  -0.000140   0.530820   0.000551
    24  H    0.000000  -0.000063   0.001834  -0.000094   0.000551   0.400620
    25  H    0.000000  -0.000013  -0.000020   0.000000   0.000000   0.000000
    26  H    0.000000   0.000001   0.000000   0.000000   0.000000   0.000000
    27  H    0.000000   0.000000  -0.000001   0.000000   0.000000   0.000000
    28  H    0.000000   0.000000   0.000000   0.000000   0.000000   0.000000
    29  H    0.000000   0.000000   0.000000   0.000000   0.000000   0.000000
    30  H    0.000000   0.000000   0.000000   0.000000   0.000000   0.000000
    31  H    0.000000   0.000000   0.000000   0.000000   0.000000   0.000000
              25         26         27         28         29         30
     1  O    0.000392   0.001348   0.008178   0.003491   0.000014   0.000006
     2  C   -0.015185  -0.015965   0.001549   0.000540   0.000037  -0.000023
     3  N   -0.000373   0.002680   0.000384   0.000249   0.000001   0.000000
     4  C   -0.000048  -0.000019  -0.000004  -0.000004   0.000000   0.000000
     5  C   -0.000003  -0.000019   0.000000   0.000000   0.000000   0.000000
     6  O    0.000000   0.000000   0.000000   0.000000   0.000000   0.000000
     7  O    0.000000  -0.000001   0.000000   0.000000   0.000000   0.000000
     8  C    0.000077   0.000004   0.000000   0.000001   0.000000   0.000000
     9  C    0.000000   0.000000   0.000000   0.000000   0.000000   0.000000
    10  C    0.000000   0.000000   0.000000   0.000000   0.000000   0.000000
    11  N    0.000000   0.000000   0.000000   0.000000   0.000000   0.000000
    12  C    0.000000   0.000000   0.000000   0.000000   0.000000   0.000000
    13  N    0.000000   0.000000   0.000000   0.000000   0.000000   0.000000
    14  C    0.358574   0.353774  -0.038704  -0.036384   0.003530  -0.001041
    15  C   -0.037755  -0.038036   0.381421   0.385111  -0.022163  -0.018038
    16  N   -0.002016  -0.001954  -0.030461  -0.031275   0.309122   0.301874
    17  H    0.000497   0.001061  -0.000013  -0.000009   0.000000   0.000000
    18  H   -0.000014  -0.000027  -0.000002  -0.000004   0.000000   0.000000
    19  H    0.000000   0.000000   0.000000   0.000000   0.000000   0.000000
    20  H   -0.000013   0.000001   0.000000   0.000000   0.000000   0.000000
    21  H   -0.000020   0.000000  -0.000001   0.000000   0.000000   0.000000
    22  H    0.000000   0.000000   0.000000   0.000000   0.000000   0.000000
    23  H    0.000000   0.000000   0.000000   0.000000   0.000000   0.000000
    24  H    0.000000   0.000000   0.000000   0.000000   0.000000   0.000000
    25  H    0.520423  -0.030239  -0.004253   0.004316  -0.000026  -0.000366
    26  H   -0.030239   0.530676   0.004450  -0.004260  -0.000023   0.004367
    27  H   -0.004253   0.004450   0.443072  -0.022244  -0.001494   0.003412
    28  H    0.004316  -0.004260  -0.022244   0.450157  -0.001711  -0.002861
    29  H   -0.000026  -0.000023  -0.001494  -0.001711   0.297295  -0.013515
    30  H   -0.000366   0.004367   0.003412  -0.002861  -0.013515   0.308499
    31  H    0.004784  -0.000289  -0.002735   0.003544  -0.013193  -0.014969
              31
     1  O    0.000011
     2  C   -0.000001
     3  N    0.000001
     4  C    0.000000
     5  C    0.000000
     6  O    0.000000
     7  O    0.000000
     8  C    0.000000
     9  C    0.000000
    10  C    0.000000
    11  N    0.000000
    12  C    0.000000
    13  N    0.000000
    14  C   -0.000569
    15  C   -0.019533
    16  N    0.301959
    17  H    0.000000
    18  H    0.000000
    19  H    0.000000
    20  H    0.000000
    21  H    0.000000
    22  H    0.000000
    23  H    0.000000
    24  H    0.000000
    25  H    0.004784
    26  H   -0.000289
    27  H   -0.002735
    28  H    0.003544
    29  H   -0.013193
    30  H   -0.014969
    31  H    0.308367
 Mulliken charges:
               1
     1  O   -0.510349
     2  C    0.643218
     3  N   -0.623305
     4  C    0.001401
     5  C    0.574756
     6  O   -0.547125
     7  O   -0.459029
     8  C   -0.362594
     9  C    0.315787
    10  C   -0.077422
    11  N   -0.416194
    12  C    0.217083
    13  N   -0.606440
    14  C   -0.403415
    15  C   -0.222241
    16  N   -0.719036
    17  H    0.349696
    18  H    0.197078
    19  H    0.429056
    20  H    0.182175
    21  H    0.175367
    22  H    0.146414
    23  H    0.170760
    24  H    0.334455
    25  H    0.201247
    26  H    0.192472
    27  H    0.257445
    28  H    0.251342
    29  H    0.442125
    30  H    0.432655
    31  H    0.432623
 Sum of Mulliken charges =   1.00000
 Mulliken charges with hydrogens summed into heavy atoms:
               1
     1  O   -0.510349
     2  C    0.643218
     3  N   -0.273610
     4  C    0.198479
     5  C    0.574756
     6  O   -0.118070
     7  O   -0.459029
     8  C   -0.005052
     9  C    0.315787
    10  C    0.068991
    11  N   -0.416194
    12  C    0.387843
    13  N   -0.271985
    14  C   -0.009696
    15  C    0.286546
    16  N    0.588366
 APT charges:
               1
     1  O   -0.414309
     2  C    0.206971
     3  N   -0.747689
     4  C   -0.319865
     5  C   -0.345951
     6  O   -0.705621
     7  O    0.152263
     8  C   -0.852594
     9  C   -0.715022
    10  C   -0.169853
    11  N    0.451415
    12  C   -0.613426
    13  N   -0.658947
    14  C   -0.703417
    15  C   -0.258757
    16  N   -2.000132
    17  H    0.620117
    18  H    0.356426
    19  H    1.014756
    20  H    0.432335
    21  H    0.288711
    22  H    0.563533
    23  H    0.991026
    24  H    0.316253
    25  H    0.396086
    26  H    0.446748
    27  H    0.287890
    28  H    0.363185
    29  H    1.225578
    30  H    0.744292
    31  H    0.647997
 Sum of APT charges =   1.00000
 APT charges with hydrogens summed into heavy atoms:
               1
     1  O   -0.414309
     2  C    0.206971
     3  N   -0.127572
     4  C    0.036561
     5  C   -0.345951
     6  O    0.309135
     7  O    0.152263
     8  C   -0.131548
     9  C   -0.715022
    10  C    0.393680
    11  N    0.451415
    12  C    0.377600
    13  N   -0.342693
    14  C    0.139417
    15  C    0.392318
    16  N    0.617736
 Electronic spatial extent (au):  <R**2>=           5468.5145
 Charge=              1.0000 electrons
 Dipole moment (field-independent basis, Debye):
    X=             23.6611    Y=              4.3202    Z=              0.3971  Tot=             24.0556
 Quadrupole moment (field-independent basis, Debye-Ang):
   XX=             20.4468   YY=            -87.1506   ZZ=            -83.3245
   XY=              2.9579   XZ=              5.9531   YZ=              3.6232
 Traceless Quadrupole moment (field-independent basis, Debye-Ang):
   XX=             70.4563   YY=            -37.1412   ZZ=            -33.3151
   XY=              2.9579   XZ=              5.9531   YZ=              3.6232
 Octapole moment (field-independent basis, Debye-Ang**2):
  XXX=            968.9925  YYY=             32.0559  ZZZ=            -63.7006  XYY=             98.5949
  XXY=            138.2366  XXZ=            -24.5550  XZZ=             41.1538  YZZ=             17.4078
  YYZ=              3.8217  XYZ=             -6.9137
 Hexadecapole moment (field-independent basis, Debye-Ang**3):
 XXXX=          -2414.8209 YYYY=           -595.7044 ZZZZ=           -874.2161 XXXY=           -364.5848
 XXXZ=            -37.4821 YYYX=           -477.6281 YYYZ=           -115.0691 ZZZX=             41.3332
 ZZZY=            -79.6418 XXYY=           -948.0118 XXZZ=           -792.0264 YYZZ=           -209.2438
 XXYZ=            -24.5117 YYXZ=            -64.3734 ZZXY=           -173.3164
 N-N= 1.111471737265D+03 E-N=-4.065656801778D+03  KE= 7.893981244193D+02
  Exact polarizability:   0.000   0.000   0.000   0.000   0.000   0.000
 Approx polarizability: 199.328   4.019 131.233   0.738 -25.237 198.960
 Calling FoFJK, ICntrl=    100147 FMM=F ISym2X=0 I1Cent= 0 IOpClX= 0 NMat=1 NMatS=1 NMatT=0.
 -------------------------------------------------------------------
 Center     Atomic                   Forces (Hartrees/Bohr)
 Number     Number              X              Y              Z
 -------------------------------------------------------------------
      1        8           0.013614490    0.001559073   -0.008111677
      2        6          -0.023927193   -0.001085238    0.002342433
      3        7           0.016183471    0.004295761   -0.002661559
      4        6           0.000713959   -0.001228882   -0.002871482
      5        6          -0.013015478    0.009452269   -0.003140829
      6        8           0.009978376   -0.006315981   -0.010750260
      7        8           0.006809945   -0.005449803    0.009138926
      8        6          -0.009789205   -0.000811904   -0.001576476
      9        6           0.007717064    0.000542544    0.001604681
     10        6          -0.008410531   -0.000351263    0.002644642
     11        7           0.002262034   -0.001999136    0.004778749
     12        6           0.000867609   -0.001090522    0.002953106
     13        7           0.002062855    0.003720276   -0.005213940
     14        6           0.011630778   -0.002241332    0.010392343
     15        6          -0.031251370    0.001413589   -0.011787604
     16        7           0.003565141    0.000345358   -0.000473722
     17        1          -0.001287535   -0.001769789    0.004920959
     18        1           0.000043085    0.001476735    0.000113244
     19        1          -0.006878196    0.002254115    0.007733192
     20        1           0.001474406   -0.001779181    0.003315828
     21        1           0.003862793   -0.001231032   -0.003030429
     22        1          -0.001336210   -0.000720525   -0.000728194
     23        1          -0.003246930    0.000803209   -0.003210597
     24        1           0.001060753    0.000725273   -0.002351087
     25        1          -0.001074584   -0.002253557    0.001769825
     26        1          -0.000482179    0.001320858    0.002578341
     27        1           0.005435924   -0.001471332   -0.002106985
     28        1           0.005969844    0.002761910   -0.000738170
     29        1           0.004065746    0.001367928   -0.004793546
     30        1           0.001444263    0.003761369    0.005804128
     31        1           0.001936876   -0.006000791    0.003456162
 -------------------------------------------------------------------
 Cartesian Forces:  Max     0.031251370 RMS     0.006539882
 FormGI is forming the generalized inverse of G from B-inverse, IUseBI=4.

 GradGradGradGradGradGradGradGradGradGradGradGradGradGradGradGradGradGrad
 Berny optimization.
 Internal  Forces:  Max     0.018414534 RMS     0.003877086
 Search for a local minimum.
 Step number   1 out of a maximum of  167
 All quantities printed in internal units (Hartrees-Bohrs-Radians)
 Mixed Optimization -- RFO/linear search
 Second derivative matrix not updated -- analytic derivatives used.
 ITU=  0
     Eigenvalues ---   -0.00087   0.00042   0.00163   0.00176   0.00207
     Eigenvalues ---    0.00264   0.00365   0.00444   0.00488   0.00866
     Eigenvalues ---    0.01802   0.02011   0.02320   0.02523   0.03256
     Eigenvalues ---    0.03821   0.03882   0.03957   0.04218   0.04352
     Eigenvalues ---    0.04397   0.04445   0.04612   0.05148   0.05195
     Eigenvalues ---    0.05238   0.05264   0.05691   0.06156   0.07536
     Eigenvalues ---    0.08125   0.08472   0.10279   0.10808   0.10950
     Eigenvalues ---    0.11149   0.11835   0.12086   0.13524   0.13559
     Eigenvalues ---    0.14018   0.14521   0.15100   0.15860   0.16023
     Eigenvalues ---    0.16191   0.16397   0.18257   0.19339   0.19956
     Eigenvalues ---    0.21286   0.23111   0.23268   0.24494   0.25022
     Eigenvalues ---    0.25431   0.27252   0.30222   0.31975   0.32786
     Eigenvalues ---    0.33489   0.33823   0.34319   0.34386   0.35000
     Eigenvalues ---    0.35121   0.35276   0.35401   0.35833   0.36126
     Eigenvalues ---    0.37441   0.37691   0.38819   0.41900   0.42940
     Eigenvalues ---    0.44328   0.44512   0.45053   0.45814   0.47336
     Eigenvalues ---    0.47946   0.48146   0.49006   0.52786   0.59835
     Eigenvalues ---    0.84277   0.92322
 RFO step:  Lambda=-1.12721785D-02 EMin=-8.70953392D-04
 Linear search not attempted -- first point.
 Iteration  1 RMS(Cart)=  0.15428689 RMS(Int)=  0.01943675
 Iteration  2 RMS(Cart)=  0.04077286 RMS(Int)=  0.00083171
 Iteration  3 RMS(Cart)=  0.00141736 RMS(Int)=  0.00037671
 Iteration  4 RMS(Cart)=  0.00000235 RMS(Int)=  0.00037671
 Iteration  5 RMS(Cart)=  0.00000000 RMS(Int)=  0.00037671
 Variable       Old X    -DE/DX   Delta X   Delta X   Delta X     New X
                                 (Linear)    (Quad)   (Total)
    R1        2.31326   0.00502   0.00000   0.00820   0.00820   2.32146
    R2        2.56938  -0.00543   0.00000  -0.03053  -0.03053   2.53886
    R3        2.87525   0.00265   0.00000   0.02926   0.02926   2.90451
    R4        2.74835   0.00577   0.00000   0.01119   0.01119   2.75954
    R5        1.90506   0.00469   0.00000   0.01092   0.01092   1.91598
    R6        2.85670   0.00398   0.00000   0.01640   0.01640   2.87310
    R7        2.91641   0.00323   0.00000   0.01702   0.01702   2.93343
    R8        2.05870   0.00086   0.00000   0.00216   0.00216   2.06086
    R9        2.54499  -0.00449   0.00000  -0.02141  -0.02141   2.52358
   R10        2.27968   0.01134   0.00000   0.01255   0.01255   2.29223
   R11        1.82714   0.01027   0.00000   0.01941   0.01941   1.84656
   R12        2.82296  -0.00115   0.00000  -0.00728  -0.00728   2.81568
   R13        2.05660   0.00386   0.00000   0.01089   0.01089   2.06749
   R14        2.05677   0.00494   0.00000   0.01466   0.01466   2.07143
   R15        2.58496   0.00762   0.00000   0.01479   0.01480   2.59976
   R16        2.60548   0.00629   0.00000   0.01381   0.01383   2.61932
   R17        2.61625  -0.00470   0.00000  -0.01521  -0.01522   2.60103
   R18        2.04556  -0.00030   0.00000  -0.00043  -0.00043   2.04514
   R19        2.48161   0.00280   0.00000   0.00331   0.00329   2.48490
   R20        2.57869   0.00402   0.00000   0.00769   0.00769   2.58638
   R21        2.03204   0.00454   0.00000   0.01116   0.01116   2.04320
   R22        1.90415   0.00258   0.00000   0.00478   0.00478   1.90894
   R23        2.87540   0.00188   0.00000  -0.00018  -0.00018   2.87523
   R24        2.07096   0.00253   0.00000   0.00693   0.00693   2.07789
   R25        2.06800   0.00277   0.00000   0.00228   0.00228   2.07028
   R26        2.81021   0.01172   0.00000   0.05900   0.05900   2.86922
   R27        2.05782   0.00198   0.00000   0.00254   0.00254   2.06036
   R28        2.05881   0.00174   0.00000   0.00261   0.00261   2.06142
   R29        1.92927   0.00642   0.00000   0.01246   0.01246   1.94172
   R30        1.92739   0.00697   0.00000   0.01347   0.01347   1.94086
   R31        1.92736   0.00710   0.00000   0.01408   0.01408   1.94145
    A1        2.11411   0.01841   0.00000   0.06057   0.06056   2.17468
    A2        2.15794  -0.01648   0.00000  -0.07472  -0.07472   2.08322
    A3        2.01109  -0.00193   0.00000   0.01412   0.01411   2.02520
    A4        2.11492   0.00229   0.00000   0.01637   0.01602   2.13094
    A5        2.11741   0.00111   0.00000   0.01068   0.01029   2.12770
    A6        2.04975  -0.00344   0.00000  -0.02924  -0.02957   2.02018
    A7        1.85595   0.00029   0.00000   0.00155   0.00170   1.85765
    A8        1.92323   0.00322   0.00000   0.01802   0.01800   1.94123
    A9        1.89630  -0.00074   0.00000   0.00641   0.00634   1.90264
   A10        1.93101  -0.00323   0.00000  -0.02218  -0.02222   1.90879
   A11        1.93680   0.00036   0.00000  -0.00368  -0.00377   1.93302
   A12        1.91937   0.00020   0.00000   0.00071   0.00047   1.91984
   A13        1.98625  -0.00529   0.00000  -0.01800  -0.01801   1.96824
   A14        2.14887  -0.00259   0.00000  -0.01569  -0.01569   2.13317
   A15        2.14804   0.00788   0.00000   0.03365   0.03364   2.18168
   A16        1.84855   0.00371   0.00000   0.02989   0.02989   1.87844
   A17        1.98223  -0.00357   0.00000  -0.01762  -0.01763   1.96460
   A18        1.89255  -0.00007   0.00000  -0.00896  -0.00901   1.88354
   A19        1.87298   0.00073   0.00000   0.00234   0.00245   1.87543
   A20        1.89454   0.00154   0.00000   0.00510   0.00488   1.89943
   A21        1.93263   0.00198   0.00000   0.02252   0.02252   1.95515
   A22        1.88639  -0.00056   0.00000  -0.00356  -0.00366   1.88273
   A23        2.30839  -0.00119   0.00000  -0.01082  -0.01091   2.29748
   A24        2.14761   0.00139   0.00000   0.01204   0.01193   2.15954
   A25        1.82686  -0.00021   0.00000  -0.00175  -0.00177   1.82509
   A26        1.93696   0.00025   0.00000   0.00205   0.00204   1.93900
   A27        2.21636   0.00140   0.00000   0.00716   0.00712   2.22348
   A28        2.12972  -0.00164   0.00000  -0.00898  -0.00902   2.12070
   A29        1.83436   0.00167   0.00000   0.00403   0.00401   1.83837
   A30        1.94545   0.00153   0.00000   0.00341   0.00342   1.94887
   A31        2.20763  -0.00172   0.00000  -0.00805  -0.00806   2.19958
   A32        2.13010   0.00019   0.00000   0.00463   0.00462   2.13473
   A33        1.88115  -0.00324   0.00000  -0.00773  -0.00770   1.87345
   A34        2.19602   0.00215   0.00000   0.00888   0.00884   2.20486
   A35        2.20598   0.00108   0.00000  -0.00124  -0.00128   2.20470
   A36        1.96192  -0.01802   0.00000  -0.10631  -0.10654   1.85538
   A37        1.89462   0.00428   0.00000  -0.00415  -0.00542   1.88920
   A38        1.90574   0.00552   0.00000   0.04986   0.05065   1.95639
   A39        1.91068   0.00610   0.00000   0.02034   0.01809   1.92877
   A40        1.92295   0.00565   0.00000   0.03305   0.03383   1.95678
   A41        1.86521  -0.00281   0.00000   0.01259   0.01166   1.87687
   A42        1.95443  -0.00342   0.00000  -0.01058  -0.01021   1.94422
   A43        1.90021   0.00417   0.00000   0.02244   0.02171   1.92192
   A44        1.90756   0.00458   0.00000   0.05029   0.04968   1.95724
   A45        1.91774  -0.00244   0.00000  -0.03140  -0.03142   1.88632
   A46        1.91567  -0.00279   0.00000  -0.04912  -0.04894   1.86672
   A47        1.86604   0.00015   0.00000   0.02078   0.01855   1.88460
   A48        1.95132  -0.00075   0.00000  -0.00585  -0.00585   1.94547
   A49        1.94330   0.00089   0.00000   0.00647   0.00648   1.94978
   A50        1.94106   0.00092   0.00000   0.00058   0.00058   1.94164
   A51        1.87240   0.00005   0.00000   0.00332   0.00333   1.87572
   A52        1.87215   0.00003   0.00000   0.00286   0.00286   1.87501
   A53        1.87989  -0.00121   0.00000  -0.00751  -0.00751   1.87238
    D1        0.00624   0.00092   0.00000   0.05237   0.05258   0.05882
    D2        3.09611   0.00011   0.00000   0.00018  -0.00022   3.09589
    D3       -3.12567   0.00077   0.00000   0.05673   0.05713  -3.06854
    D4       -0.03580  -0.00004   0.00000   0.00454   0.00433  -0.03147
    D5        0.17535  -0.00024   0.00000   0.23162   0.23265   0.40800
    D6       -1.94087   0.00073   0.00000   0.27721   0.27651  -1.66436
    D7        2.31489  -0.00129   0.00000   0.23734   0.23680   2.55169
    D8       -2.97620   0.00013   0.00000   0.22799   0.22916  -2.74704
    D9        1.19077   0.00111   0.00000   0.27358   0.27302   1.46379
   D10       -0.83666  -0.00092   0.00000   0.23372   0.23331  -0.60334
   D11       -2.76619  -0.00067   0.00000  -0.00789  -0.00765  -2.77384
   D12        1.42355   0.00125   0.00000   0.00787   0.00812   1.43168
   D13       -0.68037  -0.00049   0.00000  -0.00799  -0.00780  -0.68817
   D14        0.42519  -0.00001   0.00000   0.04126   0.04105   0.46624
   D15       -1.66826   0.00191   0.00000   0.05703   0.05683  -1.61143
   D16        2.51100   0.00018   0.00000   0.04117   0.04090   2.55191
   D17        2.26260   0.00031   0.00000   0.10936   0.10931   2.37191
   D18       -0.88630   0.00056   0.00000   0.10281   0.10282  -0.78347
   D19       -1.93220   0.00258   0.00000   0.11973   0.11967  -1.81253
   D20        1.20210   0.00283   0.00000   0.11318   0.11318   1.31528
   D21        0.20337   0.00084   0.00000   0.10274   0.10275   0.30612
   D22       -2.94552   0.00109   0.00000   0.09619   0.09626  -2.84926
   D23       -3.13023  -0.00083   0.00000  -0.03823  -0.03824   3.11471
   D24        1.04545  -0.00042   0.00000  -0.02696  -0.02707   1.01839
   D25       -0.98832  -0.00012   0.00000  -0.01940  -0.01945  -1.00777
   D26        1.10549  -0.00120   0.00000  -0.03770  -0.03759   1.06791
   D27       -1.00200  -0.00079   0.00000  -0.02643  -0.02642  -1.02842
   D28       -3.03578  -0.00048   0.00000  -0.01887  -0.01880  -3.05458
   D29       -1.04023   0.00040   0.00000  -0.01851  -0.01847  -1.05869
   D30        3.13546   0.00081   0.00000  -0.00724  -0.00730   3.12817
   D31        1.10169   0.00111   0.00000   0.00032   0.00032   1.10201
   D32        3.12080  -0.00131   0.00000  -0.05193  -0.05202   3.06879
   D33       -0.01349  -0.00152   0.00000  -0.04515  -0.04507  -0.05856
   D34       -1.79386   0.00072   0.00000   0.03261   0.03258  -1.76128
   D35        1.31617   0.00035   0.00000   0.00634   0.00633   1.32250
   D36        0.31251  -0.00061   0.00000   0.01340   0.01333   0.32585
   D37       -2.86064  -0.00097   0.00000  -0.01287  -0.01292  -2.87356
   D38        2.38062   0.00082   0.00000   0.02540   0.02547   2.40610
   D39       -0.79253   0.00045   0.00000  -0.00087  -0.00078  -0.79332
   D40        3.11193  -0.00008   0.00000  -0.01840  -0.01819   3.09374
   D41       -0.01151  -0.00059   0.00000  -0.03258  -0.03249  -0.04399
   D42       -0.00232   0.00021   0.00000   0.00413   0.00414   0.00182
   D43       -3.12575  -0.00030   0.00000  -0.01005  -0.01016  -3.13591
   D44       -3.11638   0.00014   0.00000   0.01639   0.01657  -3.09982
   D45        0.03329   0.00039   0.00000   0.02708   0.02726   0.06055
   D46        0.00107  -0.00017   0.00000  -0.00392  -0.00393  -0.00286
   D47       -3.13245   0.00008   0.00000   0.00677   0.00677  -3.12568
   D48        0.00268  -0.00018   0.00000  -0.00272  -0.00271  -0.00002
   D49        3.12717   0.00034   0.00000   0.01083   0.01081   3.13798
   D50       -0.00196   0.00007   0.00000   0.00011   0.00008  -0.00189
   D51        3.13696  -0.00006   0.00000  -0.00326  -0.00321   3.13375
   D52        0.00059   0.00006   0.00000   0.00245   0.00249   0.00308
   D53        3.13405  -0.00019   0.00000  -0.00826  -0.00815   3.12590
   D54       -3.13847   0.00018   0.00000   0.00567   0.00566  -3.13281
   D55       -0.00501  -0.00006   0.00000  -0.00504  -0.00498  -0.00999
   D56       -3.12258   0.00038   0.00000   0.17079   0.17050  -2.95208
   D57       -0.99847  -0.00206   0.00000   0.13972   0.13901  -0.85947
   D58        1.03406   0.00301   0.00000   0.20514   0.20545   1.23950
   D59       -1.01557  -0.00182   0.00000   0.10979   0.10966  -0.90591
   D60        1.10853  -0.00426   0.00000   0.07872   0.07817   1.18670
   D61        3.14106   0.00081   0.00000   0.14414   0.14461  -2.99751
   D62        1.03080   0.00171   0.00000   0.15661   0.15685   1.18765
   D63       -3.12828  -0.00073   0.00000   0.12554   0.12536  -3.00292
   D64       -1.09575   0.00434   0.00000   0.19096   0.19180  -0.90395
   D65        3.13861  -0.00009   0.00000  -0.00620  -0.00621   3.13240
   D66       -1.05041   0.00007   0.00000  -0.00152  -0.00153  -1.05194
   D67        1.04631  -0.00025   0.00000  -0.00628  -0.00629   1.04002
   D68        1.02461  -0.00142   0.00000  -0.00593  -0.00575   1.01886
   D69        3.11877  -0.00126   0.00000  -0.00125  -0.00107   3.11771
   D70       -1.06769  -0.00157   0.00000  -0.00601  -0.00583  -1.07352
   D71       -1.02267   0.00149   0.00000   0.01644   0.01627  -1.00640
   D72        1.07149   0.00165   0.00000   0.02112   0.02095   1.09244
   D73       -3.11497   0.00133   0.00000   0.01636   0.01619  -3.09878
         Item               Value     Threshold  Converged?
 Maximum Force            0.018415     0.000450     NO 
 RMS     Force            0.003877     0.000300     NO 
 Maximum Displacement     0.832855     0.001800     NO 
 RMS     Displacement     0.179417     0.001200     NO 
 Predicted change in Energy=-6.876647D-03
 GradGradGradGradGradGradGradGradGradGradGradGradGradGradGradGradGradGrad

                          Input orientation:                          
 ---------------------------------------------------------------------
 Center     Atomic      Atomic             Coordinates (Angstroms)
 Number     Number       Type             X           Y           Z
 ---------------------------------------------------------------------
      1          8           0        1.344563    0.413443   -1.228946
      2          6           0        1.481700    0.347562   -0.009939
      3          7           0        0.468305    0.330546    0.871963
      4          6           0       -0.929023    0.317783    0.448005
      5          6           0       -1.741429    0.825365    1.628644
      6          8           0       -2.679895    1.705234    1.270231
      7          8           0       -1.544376    0.441305    2.762236
      8          6           0       -1.392599   -1.118140    0.083491
      9          6           0       -2.826303   -1.171235   -0.318695
     10          6           0       -3.954757   -1.554824    0.368393
     11          7           0       -5.084872   -1.378491   -0.397268
     12          6           0       -4.657088   -0.892251   -1.541680
     13          7           0       -3.296597   -0.743228   -1.550302
     14          6           0        2.895846    0.258582    0.585586
     15          6           0        3.835343    0.850872   -0.454372
     16          7           0        5.288386    0.583772   -0.104183
     17          1           0        0.626987    0.236001    1.868890
     18          1           0       -1.045124    0.977019   -0.412952
     19          1           0       -3.196272    1.928972    2.069061
     20          1           0       -1.249092   -1.751814    0.963743
     21          1           0       -0.729777   -1.486645   -0.707977
     22          1           0       -4.009635   -1.945554    1.376144
     23          1           0       -5.271950   -0.635959   -2.393315
     24          1           0       -2.737007   -0.401340   -2.318680
     25          1           0        3.130805   -0.801725    0.757624
     26          1           0        2.970156    0.773791    1.549566
     27          1           0        3.636819    0.411834   -1.432421
     28          1           0        3.722766    1.932390   -0.541638
     29          1           0        5.923565    0.975785   -0.810341
     30          1           0        5.542762    0.995341    0.801770
     31          1           0        5.477984   -0.424240   -0.045443
 ---------------------------------------------------------------------
                    Distance matrix (angstroms):
                    1          2          3          4          5
     1  O    0.000000
     2  C    1.228465   0.000000
     3  N    2.277832   1.343506   0.000000
     4  C    2.826749   2.454014   1.460284   0.000000
     5  C    4.225973   3.647165   2.387538   1.520378   0.000000
     6  O    4.910282   4.560809   3.458258   2.380468   1.335421
     7  O    4.927097   4.104982   2.763383   2.397828   1.212997
     8  C    3.400043   3.227787   2.486633   1.552305   2.507268
     9  C    4.553667   4.578315   3.811490   2.530746   2.992573
    10  C    5.874381   5.772112   4.834427   3.559222   3.486023
    11  N    6.726094   6.800673   5.947229   4.567594   4.487752
    12  C    6.149996   6.447332   5.795737   4.395623   4.637049
    13  N    4.793905   5.137574   4.603787   3.274811   3.871012
    14  C    2.392277   1.537002   2.445433   3.827800   4.786808
    15  C    2.644863   2.447545   3.656070   4.878284   5.953150
    16  N    4.104613   3.815172   4.924446   6.247547   7.244264
    17  H    3.184806   2.067118   1.013894   2.108736   2.452440
    18  H    2.587290   2.635047   2.087918   1.090559   2.162395
    19  H    5.813162   5.357846   4.173384   3.219342   1.878425
    20  H    4.027812   3.579477   2.700759   2.156772   2.706722
    21  H    2.860879   2.956722   2.689571   2.152198   3.439277
    22  H    6.404591   6.110185   5.048443   3.933739   3.589777
    23  H    6.799649   7.229079   6.674332   5.276717   5.547630
    24  H    4.302395   4.867096   4.581472   3.382380   4.251747
    25  H    2.934920   2.151641   2.895517   4.222721   5.210064
    26  H    3.239219   2.197550   2.629614   4.077374   4.712531
    27  H    2.301270   2.583046   3.918708   4.938802   6.202151
    28  H    2.904384   2.795847   3.893031   5.022499   5.982730
    29  H    4.632356   4.556915   5.745114   6.998169   8.045086
    30  H    4.699712   4.191744   5.118300   6.516766   7.332943
    31  H    4.380361   4.070285   5.148613   6.468681   7.515584
                    6          7          8          9         10
     6  O    0.000000
     7  O    2.261194   0.000000
     8  C    3.322187   3.103318   0.000000
     9  C    3.289407   3.706179   1.489993   0.000000
    10  C    3.614770   3.940172   2.614673   1.375732   0.000000
    11  N    4.251333   5.082247   3.732532   2.269419   1.376405
    12  C    4.308487   5.476408   3.653641   2.219301   2.140245
    13  N    3.785591   4.803268   2.536740   1.386082   2.184778
    14  C    5.800899   4.948410   4.531911   5.967000   7.089878
    15  C    6.793564   6.281377   5.612280   6.963107   8.194509
    16  N    8.163345   7.411025   6.896904   8.305073   9.499085
    17  H    3.667766   2.356912   3.016633   4.323315   5.143046
    18  H    2.456802   3.258536   2.181029   2.792218   3.935314
    19  H    0.977156   2.328605   4.059632   3.930590   3.950241
    20  H    3.753974   2.851586   1.094066   2.114075   2.777386
    21  H    4.231354   4.052523   1.096153   2.155562   3.400547
    22  H    3.886860   3.700790   3.033882   2.207334   1.082240
    23  H    5.061768   6.452520   4.627789   3.251424   3.194736
    24  H    4.161874   5.286599   2.844584   2.144913   3.167618
    25  H    6.349161   5.236499   4.584295   6.064828   7.136095
    26  H    5.733122   4.686376   4.976185   6.393158   7.400814
    27  H    6.991286   6.666393   5.471184   6.746736   8.046285
    28  H    6.657968   6.393880   5.988613   7.250690   8.481343
    29  H    8.881464   8.295729   7.662226   9.022838  10.265215
    30  H    8.266529   7.374138   7.285737   8.717267   9.843477
    31  H    8.533267   7.612212   6.906738   8.342293   9.509263
                   11         12         13         14         15
    11  N    0.000000
    12  C    1.314955   0.000000
    13  N    2.220579   1.368655   0.000000
    14  C    8.205965   7.930731   6.626613   0.000000
    15  C    9.194757   8.737397   7.389641   1.521504   0.000000
    16  N   10.561291  10.156648   8.806482   2.511131   1.518324
    17  H    6.353534   6.389553   5.295685   2.606741   4.008636
    18  H    4.676349   4.220721   3.053187   4.128495   4.882273
    19  H    4.537500   4.809442   4.500056   6.488821   7.548087
    20  H    4.087167   4.316298   3.395578   4.622251   5.885279
    21  H    4.367504   4.058588   2.801919   4.226613   5.135039
    22  H    2.150043   3.168964   3.243161   7.291698   8.527278
    23  H    2.137886   1.081214   2.150394   8.739962   9.429366
    24  H    3.187337   2.128717   1.010165   6.371757   6.945464
    25  H    8.316477   8.120731   6.829454   1.099570   2.167115
    26  H    8.561890   8.396806   7.154211   1.095546   2.184092
    27  H    8.963521   8.396516   7.029959   2.155198   1.090296
    28  H    9.410487   8.899474   7.579433   2.180841   1.090858
    29  H   11.264943  10.769152   9.408185   3.410290   2.122024
    30  H   10.955336  10.634459   9.310701   2.756033   2.124628
    31  H   10.611706  10.255606   8.908402   2.744427   2.119293
                   16         17         18         19         20
    16  N    0.000000
    17  H    5.073717   0.000000
    18  H    6.353214   2.924357   0.000000
    19  H    8.861262   4.186111   3.419654   0.000000
[...]
 0.00003628,0.00003363,0.00000121,0.00000973,0.00000287,-0.00001068,-0.
 00000962,0.00001110,0.00001862,-0.00000256,0.00001086,0.00001326,0.000
 00186,-0.00000070,0.00000080,0.00000719,-0.00001723,-0.00737553,0.0471
 3371,-0.05911133,-0.00526871,0.02394825,-0.00486826,-0.00097179,-0.000
 60691,0.00119562,-0.00002478,-0.00034495,0.00013107,0.00009689,-0.0000
 1389,-0.00002955,-0.00000328,-0.00000250,0.00000386,-0.00000960,0.0000
 0182,0.00001858,0.00000087,0.00005532,-0.00002328,-0.00000061,-0.00000
 015,0.00000068,0.00000066,0.00000033,0.00000006,0.00000020,0.00000510,
 -0.00000524,0.00811327,-0.05317026,0.06071010,-0.00686355,0.00236005,-
 0.00392423,0.00722305,-0.01739999,-0.02619209,-0.00004596,0.00132891,0
 .00170493,0.00003791,0.00002199,0.00002442,-0.00010272,0.00001700,-0.0
 0034601,0.00008600,-0.00003820,0.00009484,0.00013301,0.00007159,0.0002
 2677,0.00012702,0.00002615,0.00001885,-0.00001381,0.00003396,0.0000081
 0,0.00000929,0.00001298,-0.00000643,-0.00002182,-0.00000225,-0.0000040
 4,0.00000454,-0.00000261,0.00000141,-0.00000716,-0.00000447,0.00000873
 ,-0.05102779,-0.00814446,-0.00765143,-0.00000239,0.01279234,0.02246014
 ,0.00132864,0.00043247,0.00023333,-0.00172355,-0.00060555,0.00010812,0
 .00014623,-0.00004128,0.00003963,-0.00003581,-0.00000769,0.00000081,-0
 .00000446,-0.00000233,0.00000796,0.00003035,0.00008689,0.00001676,-0.0
 0000009,-0.00000409,0.00000080,-0.00000028,-0.00000003,-0.00000003,0.0
 0002351,-0.00000325,0.00000028,0.00010585,0.00356537,0.00664948,0.0540
 4886,0.00054010,0.00074876,0.00092136,0.00183168,0.00050560,0.00222694
 ,-0.00034896,-0.00006147,0.00027828,-0.00007990,0.00007067,0.00022148,
 -0.00004154,0.00000692,-0.00019721,0.00002615,-0.00001738,0.00005951,0
 .00003867,-0.00003976,0.00013407,0.00003251,-0.00001443,-0.00002442,-0
 .00000933,0.00001455,0.00000558,0.00000259,0.00001073,-0.00000867,-0.0
 0001605,-0.00000651,0.00000166,0.00000742,0.00000181,-0.00000108,-0.00
 000655,-0.00000815,0.00001222,-0.00771796,-0.12290472,-0.11874067,0.00
 088701,0.00766451,0.01411107,0.00065905,0.00012194,-0.00007560,-0.0006
 2667,0.00029684,0.00005979,0.00006763,0.00000224,0.00002324,-0.0000030
 6,0.00001129,-0.00000578,-0.00000050,-0.00001572,-0.00000981,0.0000085
 6,0.00001062,0.00003173,-0.00000018,-0.00000162,0.00000020,0.00000012,
 0.00000031,0.00000035,0.00001025,0.00000055,0.00000261,-0.00170990,-0.
 01500235,-0.02734734,0.00785006,0.12780101,-0.00333350,0.00019351,0.00
 007088,0.00181420,-0.00519979,-0.01200821,0.00154540,0.00077471,0.0012
 6509,-0.00051325,0.00057646,-0.00004901,-0.00009671,-0.00002078,-0.000
 03457,0.00003790,-0.00000522,0.00000629,0.00004933,0.00002592,0.000019
 27,0.00021035,-0.00006166,0.00002951,0.00000444,0.00007696,0.00000488,
 -0.00001726,0.00000409,0.00001433,0.00001241,-0.00001514,0.00001940,0.
 00003150,0.00000625,-0.00000658,-0.00001461,0.00000745,-0.00000925,-0.
 00700047,-0.11710684,-0.24196288,-0.00215998,-0.01039487,-0.01846761,0
 .00011203,0.00006198,0.00084608,-0.00017585,-0.00053381,0.00081614,0.0
 0002367,-0.00005273,0.00004755,-0.00001306,-0.00000759,0.00000275,-0.0
 0000684,-0.00000613,0.00000441,0.00000990,0.00003969,0.00000520,-0.000
 00085,-0.00000177,0.00000025,0.00000116,-0.00000082,-0.00000019,0.0000
 1279,-0.00000330,-0.00000825,0.00025757,0.00341588,0.00737461,0.005939
 34,0.12667502,0.26305624,-0.00146877,-0.00088662,-0.00454926,0.0004594
 0,0.00051136,0.00779032,0.00099209,-0.00024793,-0.00309715,-0.00044787
 ,0.00005093,-0.00010232,-0.00022423,0.00017409,0.00024052,0.00013337,-
 0.00007979,-0.00006500,0.00013543,-0.00009847,-0.00022418,-0.00002265,
 -0.00003107,0.00004055,0.00000300,0.00001134,-0.00000093,-0.00003020,-
 0.00001910,0.00003344,0.00008080,0.00000356,0.00002264,0.00000132,0.00
 000024,-0.00000282,0.00001963,0.00003455,-0.00003721,0.00446633,0.0104
 1862,0.01821564,-0.04984061,-0.01459179,-0.03234813,-0.01630660,-0.013
 45025,-0.03342901,0.00064079,0.00009321,0.00008079,-0.00007079,0.00004
 121,0.00003809,-0.00001324,0.00002005,0.00000988,0.00001294,-0.0000047
 5,-0.00001534,-0.00002099,-0.00009935,-0.00002343,-0.00000432,-0.00000
 190,-0.00000076,0.00000230,-0.00000167,0.00000040,-0.00003975,-0.00000
 231,-0.00002327,0.00060278,-0.00034483,-0.00038308,-0.00369867,-0.0024
 2321,0.00254142,0.06634293,-0.00054360,-0.00183795,-0.00000159,-0.0004
 1952,0.00079157,-0.00010091,0.00024736,0.00018118,-0.00011017,-0.00008
 056,-0.00000563,-0.00012596,-0.00004161,0.00003741,0.00004598,0.000036
 25,-0.00002312,-0.00001220,0.00002344,-0.00002037,-0.00003130,-0.00001
 143,-0.00000206,0.00001665,-0.00000391,-0.00000274,-0.00001143,-0.0000
 0866,-0.00000709,0.00000681,0.00001744,-0.00000366,0.00001154,0.000008
 27,0.00000236,-0.00000136,0.00000536,-0.00000113,-0.00000847,0.0025571
 7,0.00646675,0.01197629,-0.02070661,-0.10742854,-0.11095190,0.00519612
 ,0.00387672,0.01255921,0.00015280,0.00013109,0.00006119,-0.00002466,-0
 .00000389,0.00002280,-0.00000343,0.00000460,0.00000141,-0.00000426,-0.
 00000163,0.00000674,-0.00000633,0.00000048,-0.00001149,-0.00000208,0.0
 0000026,0.00000177,0.00000131,0.00000107,0.00000071,-0.00000499,0.0000
 1359,-0.00000664,0.00079193,0.00064139,0.00003006,-0.00224273,-0.00018
 864,0.00165778,0.01935811,0.10743340,-0.00354927,0.00004737,0.00140965
 ,-0.00089625,-0.00061374,-0.00291135,-0.00008394,0.00006868,-0.0000717
 0,0.00001811,-0.00000483,0.00006595,0.00002356,-0.00004214,-0.00004787
 ,-0.00002256,0.00001325,0.00001082,-0.00000562,0.00001803,0.00003926,-
 0.00000033,0.00001445,0.00000335,0.00000374,-0.00000505,0.00001824,0.0
 0000894,0.00000430,-0.00000727,-0.00000965,0.00000544,-0.00001630,-0.0
 0001933,-0.00000436,0.00000265,0.00000264,-0.00000423,-0.00000077,0.00
 162437,-0.00892808,-0.02062933,-0.04175538,-0.10701677,-0.27579564,-0.
 00161911,-0.00039131,-0.00244197,-0.00003019,-0.00005902,0.00008070,0.
 00002553,-0.00000503,0.00000830,0.00000146,-0.00000053,0.00000027,-0.0
 0000015,-0.00000187,-0.00000363,0.00001522,0.00002361,0.00001448,0.000
 00128,0.00000078,-0.00000116,-0.00000213,0.00000052,0.00000013,-0.0000
 0257,0.00000013,0.00001354,-0.00052355,0.00007596,0.00066836,0.0019531
 6,0.00241095,-0.00158644,0.04360938,0.11223437,0.29460108,-0.00046093,
 0.00068825,-0.00081026,0.00208859,-0.00081608,0.00127029,-0.00065327,0
 .00042787,0.00004763,0.00009778,-0.00006574,0.00011200,0.00006189,-0.0
 0007504,-0.00001481,-0.00006493,0.00005399,0.00000218,-0.00004663,0.00
 004538,-0.00000151,-0.00001909,-0.00000135,-0.00001704,0.00000448,-0.0
 0000564,0.00000992,0.00001226,0.00000537,-0.00000443,-0.00001721,0.000
 00857,-0.00001773,-0.00002006,-0.00000405,0.00000044,-0.00000252,0.000
 00445,0.00000592,0.00294025,-0.02211476,0.00123357,-0.04949637,0.00324
 011,-0.00133431,-0.01312084,0.03999253,-0.00434228,0.00009407,-0.00013
 687,-0.00005498,-0.00003819,-0.00001493,-0.00003649,-0.00000243,-0.000
 01410,0.00000155,0.00001690,0.00001408,-0.00001228,0.00000206,-0.00000
 462,0.00001787,0.00000287,-0.00000022,-0.00000216,-0.00000188,-0.00000
 141,-0.00000124,0.00000185,-0.00001439,0.00000492,-0.00303220,-0.00120
 474,0.00305124,0.00070278,0.00073152,-0.00039278,0.00205544,-0.0058163
 9,0.00162006,0.06312808,-0.00013546,0.00067774,-0.00073115,0.00028196,
 -0.00003341,0.00124516,-0.00018022,-0.00005469,-0.00022025,0.00000480,
 -0.00001168,0.00003731,0.00000328,-0.00000390,0.00000322,-0.00001107,0
 .00000449,-0.00000059,-0.00000480,0.00000423,-0.00000815,-0.00001055,0
 .00001185,0.00000387,-0.00000030,-0.00000412,0.00000358,0.00000396,-0.
 00000001,-0.00000158,-0.00000218,0.00000314,-0.00000548,-0.00000683,-0
 .00000140,0.00000059,0.00000059,0.00000061,-0.00000010,-0.00095190,-0.
 00815245,0.00095356,0.01570583,-0.33078374,0.01888070,0.00119053,-0.00
 281746,-0.00001456,0.00003478,-0.00006247,-0.00001933,-0.00000906,0.00
 000438,-0.00001220,0.00000087,0.00000068,0.00000022,0.00000564,0.00000
 202,-0.00000430,-0.00000056,-0.00000870,0.00000045,0.00000066,0.000000
 27,-0.00000059,-0.00000052,-0.00000007,-0.00000011,-0.00000255,-0.0000
 0245,0.00000254,-0.00115677,0.00095821,0.00093493,0.00011503,0.0010259
 7,-0.00003584,0.00062340,-0.01083199,0.00175542,-0.01631487,0.34851157
 ,-0.00017980,0.00074051,0.00008903,-0.00053388,-0.00002317,0.00010894,
 -0.00002057,-0.00038566,-0.00008622,0.00002303,-0.00001845,0.00000919,
 0.00003916,0.00000844,0.00004876,-0.00002707,0.00000602,-0.00001281,-0
 .00002722,-0.00002585,-0.00003522,0.00000054,0.00002455,-0.00000620,-0
 .00000035,-0.00001230,0.00000491,0.00000596,0.00000016,-0.00000430,-0.
 00000287,0.00000335,-0.00000900,-0.00000936,-0.00000235,0.00000382,0.0
 0000387,-0.00000110,0.00000042,-0.00073218,0.02350052,-0.00180489,-0.0
 0052511,0.01480410,-0.05375578,-0.00362711,0.01016943,-0.00197660,0.00
 001458,0.00013917,-0.00000466,0.00000699,-0.00000047,0.00000740,0.0000
 1044,0.00000434,0.00000118,-0.00000572,-0.00000153,0.00000364,0.000004
 03,-0.00000355,-0.00000473,0.00000022,0.00000167,-0.00000028,-0.000000
 94,0.00000011,0.00000013,-0.00000126,-0.00000386,0.00000657,0.00358591
 ,0.00167422,-0.00226504,-0.00124743,-0.00006550,0.00087798,0.00323619,
 -0.02850036,0.00536222,0.00104259,-0.02290325,0.05313706,0.00070282,0.
 00024294,-0.00100027,0.00003932,-0.00049225,0.00359805,-0.00067376,-0.
 00003422,-0.00070815,0.00000958,0.00006212,0.00020534,-0.00008933,-0.0
 0000024,-0.00008733,0.00001310,0.00000074,0.00002824,0.00003670,-0.000
 00161,0.00001873,-0.00001993,0.00001095,0.00000196,0.00000154,-0.00001
 437,0.00000350,-0.00000198,-0.00000296,0.00000162,0.00001778,0.0000061
 2,-0.00000179,-0.00001395,-0.00000373,0.00000281,0.00001138,0.00000684
 ,-0.00000739,-0.00606746,0.00220706,-0.00430607,-0.01809009,-0.0113407
 9,0.02122122,-0.19460281,-0.08034611,0.15432155,0.00001685,-0.00002032
 ,-0.00003958,-0.00001956,0.00000042,-0.00000247,-0.00001522,0.00000593
 ,0.00000077,-0.00000103,-0.00000209,0.00000043,-0.00000083,-0.00001293
 ,-0.00000583,-0.00000211,-0.00000084,0.00000021,-0.00000074,-0.0000006
 6,0.00000031,-0.00001078,-0.00000178,-0.00000105,0.00054465,0.00008888
 ,-0.00039196,0.00013833,0.00021994,0.00001471,0.00078986,-0.00102146,-
 0.00044411,0.00112662,0.00066038,0.00052267,0.20213249,0.00014105,-0.0
 0014505,0.00000289,-0.00007448,0.00066900,-0.00039949,0.00034216,-0.00
 005228,0.00002814,-0.00005049,-0.00005277,-0.00007872,-0.00006613,0.00
 006039,0.00005858,0.00006700,-0.00004544,-0.00001609,0.00004440,-0.000
 03089,-0.00002662,-0.00001201,-0.00000683,0.00000240,-0.00000402,0.000
 00131,-0.00000390,-0.00000866,-0.00000512,0.00000489,0.00002004,-0.000
 00469,0.00000969,0.00000542,0.00000164,-0.00000069,0.00000561,0.000000
 11,-0.00000914,0.00160036,-0.00066350,0.00139967,0.00398132,0.00410089
 ,-0.00821394,-0.07470906,-0.10912375,0.08142106,-0.00003142,0.00004802
 ,0.00005219,0.00001978,0.00000646,0.00000705,-0.00000355,0.00001161,0.
 00000132,-0.00000418,-0.00000192,0.00000479,-0.00000184,-0.00000347,-0
 .00000821,-0.00000243,0.00000033,0.00000181,0.00000090,0.00000156,0.00
 000121,-0.00000728,0.00000977,-0.00000542,-0.00005996,0.00031835,-0.00
 002568,-0.00027818,0.00005008,0.00010215,-0.00073518,0.00007224,-0.000
 05544,0.00085794,-0.00019571,-0.00046252,0.08202017,0.10679823,-0.0002
 3627,-0.00001445,-0.00008864,-0.00015763,-0.00017471,0.00075101,-0.000
 49095,-0.00000942,-0.00016883,0.00009543,0.00001946,0.00009117,0.00010
 637,-0.00006815,-0.00000329,-0.00010646,0.00005006,0.00000295,-0.00008
 040,0.00001840,-0.00001198,-0.00000117,0.00003733,0.00001349,0.0000059
 1,-0.00001812,0.00001014,0.00001943,0.00000235,-0.00001218,-0.00002790
 ,0.00000682,-0.00002649,-0.00002263,-0.00000404,0.00000429,-0.00000077
 ,-0.00001358,0.00000511,-0.00170457,0.00091761,-0.00103157,-0.00424895
 ,-0.00644958,0.01116030,0.14480252,0.08238921,-0.22727308,0.00008351,-
 0.00001413,-0.00008273,-0.00002110,-0.00000084,-0.00000599,0.00001660,
 -0.00000208,0.00000001,0.00000493,0.00000236,-0.00000502,0.00000585,0.
 00000677,0.00000823,0.00000325,0.00000398,-0.00000132,-0.00000297,0.00
 000140,-0.00000002,0.00000297,0.00000396,0.00002172,0.00011672,0.00004
 036,-0.00020612,-0.00018542,0.00007945,0.00007876,-0.00071711,-0.00033
 806,0.00043301,0.00013812,-0.00004627,0.00032887,-0.15875009,-0.090582
 39,0.23613273,-0.00035786,-0.00021355,0.00164956,-0.00184726,0.0003393
 7,-0.00210934,0.00066105,0.00005647,0.00031613,-0.00017260,-0.00001046
 ,-0.00013716,-0.00017017,0.00009924,0.00004236,0.00016044,-0.00007450,
 -0.00001591,0.00012751,-0.00002656,-0.00000788,0.00000896,-0.00004939,
 -0.00000888,-0.00000433,0.00002239,-0.00000120,-0.00002790,-0.00000538
 ,0.00002231,0.00005292,-0.00000389,0.00002441,0.00001250,0.00000056,-0
 .00000133,0.00001080,0.00002497,-0.00002185,0.00285766,-0.00085422,-0.
 00054088,-0.00624074,-0.01484996,-0.03052569,-0.07956667,-0.03829670,-
 0.07614943,-0.00013970,-0.00001199,0.00012196,0.00002885,0.00000233,0.
 00001479,-0.00002784,0.00000580,0.00000678,-0.00000781,-0.00000280,0.0
 0000476,-0.00000128,-0.00000861,-0.00000994,-0.00000528,-0.00000466,0.
 00000084,0.00000177,-0.00000150,0.00000063,-0.00001302,-0.00000530,-0.
 00002155,-0.00025163,-0.00015963,0.00011444,-0.00064393,0.00038228,0.0
 0106050,-0.00583403,0.00288071,0.00043619,0.00147193,0.00030434,0.0002
 0208,0.00866002,0.01340123,0.02256022,0.08019344,0.00058824,0.00006914
 ,-0.00001564,-0.00068316,-0.00012482,0.00025234,0.00037422,-0.00010155
 ,-0.00017971,-0.00010866,0.00002732,-0.00007305,-0.00010166,0.00009368
 ,0.00008109,0.00008244,-0.00005774,-0.00001972,0.00005995,-0.00005732,
 -0.00005083,0.00001304,-0.00000910,0.00000281,-0.00000397,0.00000771,-
 0.00000539,-0.00001417,-0.00000606,0.00000865,0.00003126,-0.00000618,0
 .00001435,0.00000822,0.00000208,-0.00000060,0.00000767,0.00000515,-0.0
 0001178,-0.00001893,-0.00011797,0.00043287,-0.00033444,0.00584568,0.00
 903895,-0.03318340,-0.12210663,-0.11918598,-0.00002405,0.00007609,0.00
 005478,0.00000941,0.00000995,0.00001572,-0.00000455,0.00001821,0.00000
 342,-0.00000631,-0.00000406,0.00000431,-0.00000471,-0.00002016,-0.0000
 1356,-0.00000356,0.00000029,0.00000188,0.00000126,0.00000097,0.0000013
 7,-0.00001090,0.00000669,-0.00000861,-0.00022828,-0.00043151,-0.000181
 81,-0.00000607,0.00022913,-0.00027214,0.00223399,-0.00011266,0.0002487
 1,0.00041666,0.00006808,0.00094609,0.00586411,0.00779060,0.01483212,0.
 03532015,0.12106544,0.00023233,0.00003907,-0.00022912,-0.00017419,0.00
 007174,-0.00032925,0.00044674,-0.00001812,-0.00011440,-0.00006456,-0.0
 0002699,-0.00008108,-0.00001083,0.00003741,0.00017589,0.00001473,-0.00
 001151,-0.00005005,0.00000406,-0.00002318,-0.00012054,0.00000318,-0.00
 001144,0.00000903,0.00000198,0.00000206,0.00000692,-0.00000485,-0.0000
 0742,0.00001084,0.00002114,0.00000291,-0.00000392,-0.00000766,-0.00000
 193,0.00000235,0.00000763,0.00000985,-0.00001690,0.00052089,0.00046396
 ,0.00260974,-0.00550806,-0.00023387,-0.00403332,-0.06646173,-0.1226743
 1,-0.32964132,0.00005786,0.00002631,0.00009186,0.00000185,0.00000397,0
 .00000198,0.00000404,0.00000179,0.00000827,-0.00000011,0.00000339,-0.0
 0000053,-0.00000331,-0.00001429,-0.00000857,-0.00000069,0.00000169,-0.
 00000043,-0.00000067,0.00000020,0.00000018,-0.00001026,-0.00000018,0.0
 0000047,-0.00005578,0.00005374,0.00008375,-0.00012411,-0.00069725,-0.0
 0026699,-0.00049595,0.00091223,0.00118352,0.00043364,0.00033291,0.0000
 2304,-0.00788372,-0.01199743,-0.02054898,0.07686673,0.13124785,0.34482
 183,0.00045892,-0.00020568,0.00054575,-0.00117623,-0.00037608,-0.00100
 459,0.00076391,-0.00002414,0.00003162,-0.00021210,0.00008160,-0.000161
 26,-0.00020493,0.00014399,0.00010832,0.00017665,-0.00009300,-0.0000296
 7,0.00013707,-0.00005618,-0.00006069,0.00002550,-0.00005977,0.00000107
 ,-0.00000159,0.00002534,-0.00000774,-0.00003710,-0.00001122,0.00002966
 ,0.00007032,-0.00000663,0.00003281,0.00001844,0.00000236,-0.00000180,0
 .00001498,0.00002732,-0.00002968,0.00208992,0.00150987,0.00010662,-0.0
 0261680,0.03519231,-0.00170045,-0.06559456,0.05001210,-0.00120100,-0.0
 0008215,0.00004723,0.00013796,0.00002448,0.00000696,0.00002253,-0.0000
 2547,0.00001358,0.00000801,-0.00001321,-0.00000592,0.00000873,-0.00000
 947,-0.00002221,-0.00002392,-0.00000679,-0.00000388,0.00000155,0.00000
 250,-0.00000127,0.00000107,-0.00001932,0.00000099,-0.00002428,-0.00053
 843,-0.00160668,0.00091520,0.00004661,-0.00031172,0.00004654,0.0012843
 4,-0.00033404,-0.00037952,-0.00683135,-0.00014839,-0.00175738,0.005368
 55,-0.02645850,-0.00120745,0.00106421,-0.01027378,0.00218969,0.0658230
 9,-0.00036765,-0.00021324,0.00006227,0.00028151,-0.00010148,0.00027678
 ,-0.00049097,-0.00004530,-0.00001627,0.00012570,0.00004936,0.00009785,
 0.00005540,-0.00004515,-0.00004632,-0.00007114,0.00002329,0.00001797,-
 0.00006003,-0.00000322,0.00002236,-0.00000391,0.00004016,0.00000483,-0
 .00000068,-0.00002015,-0.00000858,0.00000971,-0.00000017,-0.00001578,-
 0.00002140,-0.00000607,-0.00000585,-0.00000215,0.00000236,0.00000082,-
 0.00000091,-0.00002401,0.00001085,-0.00098584,0.00222782,-0.00165305,0
 .00576524,-0.00335028,0.00212601,0.03906926,-0.39646156,0.01935881,0.0
 0004406,0.00004779,-0.00006183,-0.00000792,-0.00000814,-0.00000254,0.0
 0001335,0.00000974,-0.00000390,-0.00000794,0.00000078,0.00001295,0.000
 00307,0.00002351,-0.00000692,-0.00000011,0.00000502,0.00000312,-0.0000
 0068,0.00000304,0.00000125,0.00000658,0.00001739,0.00001163,0.00044262
 ,-0.00031752,-0.00012076,0.00006840,-0.00031279,0.00010057,-0.00055645
 ,0.00081699,0.00021040,0.00011845,0.00169103,0.00038724,0.00189978,-0.
 00960916,-0.00067582,0.00173925,-0.01216046,0.00250685,-0.04706457,0.4
 1772042,-0.00014198,-0.00018701,-0.00068235,0.00078821,0.00036273,0.00
 055047,-0.00014150,0.00001132,-0.00009074,0.00007184,-0.00003795,0.000
 01698,0.00007984,-0.00004236,0.00005421,-0.00007049,0.00003163,-0.0000
 1452,-0.00005741,0.00001788,-0.00004466,-0.00001759,0.00002612,0.00002
 153,0.00000435,-0.00001725,0.00000966,0.00001429,-0.00000260,-0.000005
 69,-0.00001481,0.00000698,-0.00002133,-0.00002014,-0.00000356,0.000003
 38,0.00000196,-0.00000922,-0.00000386,0.00002357,-0.00162188,0.0001587
 7,-0.00137437,0.00953911,-0.00035149,-0.00038711,0.02190070,-0.0678323
 4,0.00005631,-0.00002668,-0.00001648,-0.00000956,0.00000094,-0.0000068
 5,0.00001300,-0.00000352,0.00000160,0.00000511,0.00000331,-0.00000287,
 0.00000218,0.00000916,0.00000313,0.00000246,0.00000348,-0.00000086,-0.
 00000234,0.00000167,0.00000005,-0.00000159,0.00000792,0.00001652,0.000
 09005,0.00057125,0.00035506,0.00018333,-0.00008219,-0.00013967,-0.0003
 4432,0.00066630,-0.00040208,-0.00194965,-0.00015070,-0.00004742,-0.006
 31230,0.02878785,0.00042443,0.00610635,-0.03716846,0.00641575,0.003402
 31,-0.02259495,0.06163168\\-0.00000161,-0.00000031,-0.00000652,-0.0000
 0513,-0.00000042,0.00000883,0.00000232,-0.00000065,-0.00000755,0.00000
 035,-0.00000009,0.00000167,-0.00000333,0.00000313,-0.00000417,0.000002
 47,-0.00000125,-0.00000300,0.00000216,-0.00000009,0.00000380,-0.000001
 87,-0.00000010,0.00000054,0.00000128,0.00000225,-0.00000083,-0.0000020
 8,0.00000029,0.00000213,-0.00000047,-0.00000031,0.00000181,0.00000164,
 0.,0.00000095,0.00000102,0.00000015,-0.00000036,0.00000112,0.00000002,
 0.00000009,0.00000255,0.00000112,-0.00000101,-0.00000170,-0.00000117,-
 0.00000211,0.00000002,0.00000023,0.00000359,0.00000009,0.00000029,-0.0
 0000057,-0.00000121,0.00000100,0.00000123,0.00000045,0.00000005,-0.000
 00008,0.00000055,-0.00000112,-0.00000034,-0.00000052,0.00000050,0.0000
 0065,-0.00000072,0.00000015,-0.00000084,0.00000050,-0.00000007,-0.0000
 0037,-0.00000115,-0.00000036,0.00000074,-0.00000029,0.00000030,0.00000
 048,0.00000096,-0.00000278,0.00000091,-0.00000018,0.00000143,-0.000000
 28,0.00000153,-0.00000022,-0.00000130,0.00000080,0.00000049,0.00000166
 ,0.00000048,-0.00000245,0.00000024\\\@


 YOU SHOULDN'T LET PEOPLE DRIVE YOU CRAZY
 WHEN YOU KNOW IT'S WITHIN WALKING DISTANCE.
 Job cpu time:       0 days  1 hours  1 minutes  0.8 seconds.
 File lengths (MBytes):  RWF=    277 Int=      0 D2E=      0 Chk=      8 Scr=      1
 Normal termination of Gaussian 09 at Tue Jul 27 02:21:16 2021.
