 Entering Gaussian System, Link 0=g09
 Input=opt_freq-conf-719.com
 Output=opt_freq-conf-719.log
 Initial command:
 /aerosol/software/g09/l1.exe "/scratch/nicole/10532/Gau-96469.inp" -scrdir="/scratch/nicole/10532/"
 Entering Link 1 = /aerosol/software/g09/l1.exe PID=     96474.
  
 Copyright (c) 1988,1990,1992,1993,1995,1998,2003,2009,2013,
            Gaussian, Inc.  All Rights Reserved.
  
 This is part of the Gaussian(R) 09 program.  It is based on
 the Gaussian(R) 03 system (copyright 2003, Gaussian, Inc.),
 the Gaussian(R) 98 system (copyright 1998, Gaussian, Inc.),
 the Gaussian(R) 94 system (copyright 1995, Gaussian, Inc.),
 the Gaussian 92(TM) system (copyright 1992, Gaussian, Inc.),
 the Gaussian 90(TM) system (copyright 1990, Gaussian, Inc.),
 the Gaussian 88(TM) system (copyright 1988, Gaussian, Inc.),
 the Gaussian 86(TM) system (copyright 1986, Carnegie Mellon
 University), and the Gaussian 82(TM) system (copyright 1983,
 Carnegie Mellon University). Gaussian is a federally registered
 trademark of Gaussian, Inc.
  
 This software contains proprietary and confidential information,
 including trade secrets, belonging to Gaussian, Inc.
  
 This software is provided under written license and may be
 used, copied, transmitted, or stored only in accord with that
 written license.
  
 The following legend is applicable only to US Government
 contracts under FAR:
  
                    RESTRICTED RIGHTS LEGEND
  
 Use, reproduction and disclosure by the US Government is
 subject to restrictions as set forth in subparagraphs (a)
 and (c) of the Commercial Computer Software - Restricted
 Rights clause in FAR 52.227-19.
  
 Gaussian, Inc.
 340 Quinnipiac St., Bldg. 40, Wallingford CT 06492
  
  
 ---------------------------------------------------------------
 Warning -- This program may not be used in any manner that
 competes with the business of Gaussian, Inc. or will provide
 assistance to any competitor of Gaussian, Inc.  The licensee
 of this program is prohibited from giving any competitor of
 Gaussian, Inc. access to this program.  By using this program,
 the user acknowledges that Gaussian, Inc. is engaged in the
 business of creating and licensing software in the field of
 computational chemistry and represents and warrants to the
 licensee that it is not a competitor of Gaussian, Inc. and that
 it will not use this program in any manner prohibited above.
 ---------------------------------------------------------------
  

 Cite this work as:
 Gaussian 09, Revision D.01,
 M. J. Frisch, G. W. Trucks, H. B. Schlegel, G. E. Scuseria, 
 M. A. Robb, J. R. Cheeseman, G. Scalmani, V. Barone, B. Mennucci, 
 G. A. Petersson, H. Nakatsuji, M. Caricato, X. Li, H. P. Hratchian, 
 A. F. Izmaylov, J. Bloino, G. Zheng, J. L. Sonnenberg, M. Hada, 
 M. Ehara, K. Toyota, R. Fukuda, J. Hasegawa, M. Ishida, T. Nakajima, 
 Y. Honda, O. Kitao, H. Nakai, T. Vreven, J. A. Montgomery, Jr., 
 J. E. Peralta, F. Ogliaro, M. Bearpark, J. J. Heyd, E. Brothers, 
 K. N. Kudin, V. N. Staroverov, T. Keith, R. Kobayashi, J. Normand, 
 K. Raghavachari, A. Rendell, J. C. Burant, S. S. Iyengar, J. Tomasi, 
 M. Cossi, N. Rega, J. M. Millam, M. Klene, J. E. Knox, J. B. Cross, 
 V. Bakken, C. Adamo, J. Jaramillo, R. Gomperts, R. E. Stratmann, 
 O. Yazyev, A. J. Austin, R. Cammi, C. Pomelli, J. W. Ochterski, 
 R. L. Martin, K. Morokuma, V. G. Zakrzewski, G. A. Voth, 
 P. Salvador, J. J. Dannenberg, S. Dapprich, A. D. Daniels, 
 O. Farkas, J. B. Foresman, J. V. Ortiz, J. Cioslowski, 
 and D. J. Fox, Gaussian, Inc., Wallingford CT, 2013.
 
 ******************************************
 Gaussian 09:  ES64L-G09RevD.01 24-Apr-2013
                27-Jul-2021 
 ******************************************
 %mem=2gb
 %nproc=4
 Will use up to    4 processors via shared memory.
 %chk=conf-719.chk
 ----------------------------------------------------------------------
 # B3LYP/6-31G(d) EmpiricalDispersion=GD3BJ opt=calcfc freq=noraman nos
 ymm integral(ultrafinegrid)
 ----------------------------------------------------------------------
 1/10=4,14=-1,18=20,19=15,26=4,38=1/1,3;
 2/9=110,12=2,15=1,17=6,18=5,40=1/2;
 3/5=1,6=6,7=1,11=2,16=1,25=1,30=1,71=2,74=-5,75=-5,124=41,140=1/1,2,3;
 4//1;
 5/5=2,38=5/2;
 8/6=4,10=90,11=11/1;
 11/6=1,8=1,9=11,15=111,16=1,31=1/1,2,10;
 10/6=1,13=1,31=1/2;
 6/7=2,8=2,9=2,10=2,28=1/1;
 7/10=1,18=20,25=1,30=1/1,2,3,16;
 1/10=4,14=-1,18=20,19=15,26=4/3(2);
 2/9=110,15=1/2;
 99//99;
 2/9=110,15=1/2;
 3/5=1,6=6,7=1,11=2,16=1,25=1,30=1,71=1,74=-5,75=-5,124=41/1,2,3;
 4/5=5,16=3,69=1/1;
 5/5=2,38=5/2;
 7/30=1/1,2,3,16;
 1/14=-1,18=20,19=15,26=4/3(-5);
 2/9=110,15=1/2;
 6/7=2,8=2,9=2,10=2,19=2,28=1/1;
 99/9=1/99;
 ------------------------------------------------------------
 Candidate Structure: Conf:719 OPT and FREQ calc in gas phase
 ------------------------------------------------------------
 Symbolic Z-matrix:
 Charge =  1 Multiplicity = 1
 O                    -0.72005  -0.63766   1.42408 
 C                    -1.30854  -0.35072   0.39193 
 N                    -0.64886   0.02779  -0.73425 
 C                     0.78942   0.22717  -0.70361 
 C                     1.13934   1.06531  -1.91425 
 O                     2.46404   1.31793  -2.00859 
 O                     0.34195   1.46947  -2.71894 
 C                     1.53736  -1.12922  -0.66353 
 C                     2.755    -1.09635   0.19636 
 C                     3.09564  -1.82049   1.30301 
 N                     4.33164  -1.42286   1.78318 
 C                     4.71835  -0.46405   0.97732 
 N                     3.79481  -0.22334   0.00813 
 C                    -2.81985  -0.36212   0.28429 
 C                    -3.40988   0.91549   0.86784 
 N                    -4.89591   0.90764   0.82254 
 H                    -1.13699   0.44142  -1.51384 
 H                     1.02385   0.8044    0.19829 
 H                     2.57954   1.86672  -2.79947 
 H                     0.86206  -1.86744  -0.23474 
 H                     1.76766  -1.4608   -1.67591 
 H                     2.52688  -2.60269   1.78513 
 H                     5.63852   0.08929   1.03276 
 H                     3.82338   0.4747   -0.71798 
 H                    -3.18715  -1.21463   0.85492 
 H                    -3.13759  -0.46911  -0.75496 
 H                    -3.04499   1.77791   0.30734 
 H                    -3.07045   1.02624   1.89791 
 H                    -5.2757    0.11714   1.34345 
 H                    -5.29549   1.75648   1.22538 
 H                    -5.23775   0.83645  -0.1361 
 

 GradGradGradGradGradGradGradGradGradGradGradGradGradGradGradGradGradGrad
 Berny optimization.
 Initialization pass.
                           ----------------------------
                           !    Initial Parameters    !
                           ! (Angstroms and Degrees)  !
 --------------------------                            --------------------------
 ! Name  Definition              Value          Derivative Info.                !
 --------------------------------------------------------------------------------
 ! R1    R(1,2)                  1.2223         calculate D2E/DX2 analytically  !
 ! R2    R(2,3)                  1.3589         calculate D2E/DX2 analytically  !
 ! R3    R(2,14)                 1.5152         calculate D2E/DX2 analytically  !
 ! R4    R(3,4)                  1.4524         calculate D2E/DX2 analytically  !
 ! R5    R(3,17)                 1.0085         calculate D2E/DX2 analytically  !
 ! R6    R(4,5)                  1.5135         calculate D2E/DX2 analytically  !
 ! R7    R(4,8)                  1.5495         calculate D2E/DX2 analytically  !
 ! R8    R(4,18)                 1.0962         calculate D2E/DX2 analytically  !
 ! R9    R(5,6)                  1.3519         calculate D2E/DX2 analytically  !
 ! R10   R(5,7)                  1.2028         calculate D2E/DX2 analytically  !
 ! R11   R(6,19)                 0.9695         calculate D2E/DX2 analytically  !
 ! R12   R(8,9)                  1.491          calculate D2E/DX2 analytically  !
 ! R13   R(8,20)                 1.0885         calculate D2E/DX2 analytically  !
 ! R14   R(8,21)                 1.0899         calculate D2E/DX2 analytically  !
 ! R15   R(9,10)                 1.3657         calculate D2E/DX2 analytically  !
 ! R16   R(9,13)                 1.3707         calculate D2E/DX2 analytically  !
 ! R17   R(10,11)                1.3843         calculate D2E/DX2 analytically  !
 ! R18   R(10,22)                1.0806         calculate D2E/DX2 analytically  !
 ! R19   R(11,12)                1.3108         calculate D2E/DX2 analytically  !
 ! R20   R(12,13)                1.3602         calculate D2E/DX2 analytically  !
 ! R21   R(12,23)                1.0752         calculate D2E/DX2 analytically  !
 ! R22   R(13,24)                1.0076         calculate D2E/DX2 analytically  !
 ! R23   R(14,15)                1.5235         calculate D2E/DX2 analytically  !
 ! R24   R(14,25)                1.0896         calculate D2E/DX2 analytically  !
 ! R25   R(14,26)                1.092          calculate D2E/DX2 analytically  !
 ! R26   R(15,16)                1.4867         calculate D2E/DX2 analytically  !
 ! R27   R(15,27)                1.0914         calculate D2E/DX2 analytically  !
 ! R28   R(15,28)                1.0902         calculate D2E/DX2 analytically  !
 ! R29   R(16,29)                1.02           calculate D2E/DX2 analytically  !
 ! R30   R(16,30)                1.021          calculate D2E/DX2 analytically  !
 ! R31   R(16,31)                1.0202         calculate D2E/DX2 analytically  !
 ! A1    A(1,2,3)              122.1047         calculate D2E/DX2 analytically  !
 ! A2    A(1,2,14)             122.5785         calculate D2E/DX2 analytically  !
 ! A3    A(3,2,14)             115.3041         calculate D2E/DX2 analytically  !
 ! A4    A(2,3,4)              120.0984         calculate D2E/DX2 analytically  !
 ! A5    A(2,3,17)             121.3245         calculate D2E/DX2 analytically  !
 ! A6    A(4,3,17)             116.06           calculate D2E/DX2 analytically  !
 ! A7    A(3,4,5)              106.7453         calculate D2E/DX2 analytically  !
 ! A8    A(3,4,8)              111.0018         calculate D2E/DX2 analytically  !
 ! A9    A(3,4,18)             107.5444         calculate D2E/DX2 analytically  !
 ! A10   A(5,4,8)              113.1954         calculate D2E/DX2 analytically  !
 ! A11   A(5,4,18)             108.4867         calculate D2E/DX2 analytically  !
 ! A12   A(8,4,18)             109.6613         calculate D2E/DX2 analytically  !
 ! A13   A(4,5,6)              112.698          calculate D2E/DX2 analytically  !
 ! A14   A(4,5,7)              124.6084         calculate D2E/DX2 analytically  !
 ! A15   A(6,5,7)              122.6933         calculate D2E/DX2 analytically  !
 ! A16   A(5,6,19)             106.227          calculate D2E/DX2 analytically  !
 ! A17   A(4,8,9)              112.9434         calculate D2E/DX2 analytically  !
 ! A18   A(4,8,20)             107.7227         calculate D2E/DX2 analytically  !
 ! A19   A(4,8,21)             110.1385         calculate D2E/DX2 analytically  !
 ! A20   A(9,8,20)             107.1225         calculate D2E/DX2 analytically  !
 ! A21   A(9,8,21)             111.7052         calculate D2E/DX2 analytically  !
 ! A22   A(20,8,21)            106.8981         calculate D2E/DX2 analytically  !
 ! A23   A(8,9,10)             131.2491         calculate D2E/DX2 analytically  !
 ! A24   A(8,9,13)             123.6667         calculate D2E/DX2 analytically  !
 ! A25   A(10,9,13)            105.0567         calculate D2E/DX2 analytically  !
 ! A26   A(9,10,11)            110.5779         calculate D2E/DX2 analytically  !
 ! A27   A(9,10,22)            127.8827         calculate D2E/DX2 analytically  !
 ! A28   A(11,10,22)           121.5393         calculate D2E/DX2 analytically  !
 ! A29   A(10,11,12)           105.0849         calculate D2E/DX2 analytically  !
 ! A30   A(11,12,13)           111.5417         calculate D2E/DX2 analytically  !
 ! A31   A(11,12,23)           126.6715         calculate D2E/DX2 analytically  !
 ! A32   A(13,12,23)           121.7867         calculate D2E/DX2 analytically  !
 ! A33   A(9,13,12)            107.7286         calculate D2E/DX2 analytically  !
 ! A34   A(9,13,24)            124.1734         calculate D2E/DX2 analytically  !
 ! A35   A(12,13,24)           128.0822         calculate D2E/DX2 analytically  !
 ! A36   A(2,14,15)            110.6579         calculate D2E/DX2 analytically  !
 ! A37   A(2,14,25)            107.7526         calculate D2E/DX2 analytically  !
 ! A38   A(2,14,26)            111.0128         calculate D2E/DX2 analytically  !
 ! A39   A(15,14,25)           108.964          calculate D2E/DX2 analytically  !
 ! A40   A(15,14,26)           109.5123         calculate D2E/DX2 analytically  !
 ! A41   A(25,14,26)           108.8845         calculate D2E/DX2 analytically  !
 ! A42   A(14,15,16)           111.7778         calculate D2E/DX2 analytically  !
 ! A43   A(14,15,27)           109.6626         calculate D2E/DX2 analytically  !
 ! A44   A(14,15,28)           109.0578         calculate D2E/DX2 analytically  !
 ! A45   A(16,15,27)           108.8269         calculate D2E/DX2 analytically  !
 ! A46   A(16,15,28)           109.9093         calculate D2E/DX2 analytically  !
 ! A47   A(27,15,28)           107.5104         calculate D2E/DX2 analytically  !
 ! A48   A(15,16,29)           111.1423         calculate D2E/DX2 analytically  !
 ! A49   A(15,16,30)           112.0089         calculate D2E/DX2 analytically  !
 ! A50   A(15,16,31)           111.3396         calculate D2E/DX2 analytically  !
 ! A51   A(29,16,30)           107.2825         calculate D2E/DX2 analytically  !
 ! A52   A(29,16,31)           107.5184         calculate D2E/DX2 analytically  !
 ! A53   A(30,16,31)           107.3143         calculate D2E/DX2 analytically  !
 ! D1    D(1,2,3,4)             -5.9537         calculate D2E/DX2 analytically  !
 ! D2    D(1,2,3,17)          -167.2503         calculate D2E/DX2 analytically  !
 ! D3    D(14,2,3,4)           172.7854         calculate D2E/DX2 analytically  !
 ! D4    D(14,2,3,17)           11.4887         calculate D2E/DX2 analytically  !
 ! D5    D(1,2,14,15)           80.5041         calculate D2E/DX2 analytically  !
 ! D6    D(1,2,14,25)          -38.5329         calculate D2E/DX2 analytically  !
 ! D7    D(1,2,14,26)         -157.6785         calculate D2E/DX2 analytically  !
 ! D8    D(3,2,14,15)          -98.2283         calculate D2E/DX2 analytically  !
 ! D9    D(3,2,14,25)          142.7347         calculate D2E/DX2 analytically  !
 ! D10   D(3,2,14,26)           23.5891         calculate D2E/DX2 analytically  !
 ! D11   D(2,3,4,5)           -161.334          calculate D2E/DX2 analytically  !
 ! D12   D(2,3,4,8)             74.8806         calculate D2E/DX2 analytically  !
 ! D13   D(2,3,4,18)           -45.0767         calculate D2E/DX2 analytically  !
 ! D14   D(17,3,4,5)             0.9122         calculate D2E/DX2 analytically  !
 ! D15   D(17,3,4,8)          -122.8732         calculate D2E/DX2 analytically  !
 ! D16   D(17,3,4,18)          117.1695         calculate D2E/DX2 analytically  !
 ! D17   D(3,4,5,6)           -179.5997         calculate D2E/DX2 analytically  !
 ! D18   D(3,4,5,7)              0.1965         calculate D2E/DX2 analytically  !
 ! D19   D(8,4,5,6)            -57.1805         calculate D2E/DX2 analytically  !
 ! D20   D(8,4,5,7)            122.6157         calculate D2E/DX2 analytically  !
 ! D21   D(18,4,5,6)            64.7729         calculate D2E/DX2 analytically  !
 ! D22   D(18,4,5,7)          -115.4308         calculate D2E/DX2 analytically  !
 ! D23   D(3,4,8,9)           -142.7371         calculate D2E/DX2 analytically  !
 ! D24   D(3,4,8,20)           -24.6433         calculate D2E/DX2 analytically  !
 ! D25   D(3,4,8,21)            91.6021         calculate D2E/DX2 analytically  !
 ! D26   D(5,4,8,9)             97.2454         calculate D2E/DX2 analytically  !
 ! D27   D(5,4,8,20)          -144.6608         calculate D2E/DX2 analytically  !
 ! D28   D(5,4,8,21)           -28.4154         calculate D2E/DX2 analytically  !
 ! D29   D(18,4,8,9)           -24.0484         calculate D2E/DX2 analytically  !
 ! D30   D(18,4,8,20)           94.0454         calculate D2E/DX2 analytically  !
 ! D31   D(18,4,8,21)         -149.7092         calculate D2E/DX2 analytically  !
 ! D32   D(4,5,6,19)          -179.099          calculate D2E/DX2 analytically  !
 ! D33   D(7,5,6,19)             1.1003         calculate D2E/DX2 analytically  !
 ! D34   D(4,8,9,10)           120.2227         calculate D2E/DX2 analytically  !
 ! D35   D(4,8,9,13)           -57.5692         calculate D2E/DX2 analytically  !
 ! D36   D(20,8,9,10)            1.7786         calculate D2E/DX2 analytically  !
 ! D37   D(20,8,9,13)         -176.0133         calculate D2E/DX2 analytically  !
 ! D38   D(21,8,9,10)         -114.9644         calculate D2E/DX2 analytically  !
 ! D39   D(21,8,9,13)           67.2437         calculate D2E/DX2 analytically  !
 ! D40   D(8,9,10,11)         -179.0325         calculate D2E/DX2 analytically  !
 ! D41   D(8,9,10,22)            0.8577         calculate D2E/DX2 analytically  !
 ! D42   D(13,9,10,11)          -0.9355         calculate D2E/DX2 analytically  !
 ! D43   D(13,9,10,22)         178.9547         calculate D2E/DX2 analytically  !
 ! D44   D(8,9,13,12)          179.2791         calculate D2E/DX2 analytically  !
 ! D45   D(8,9,13,24)            0.6241         calculate D2E/DX2 analytically  !
 ! D46   D(10,9,13,12)           0.9981         calculate D2E/DX2 analytically  !
 ! D47   D(10,9,13,24)        -177.6569         calculate D2E/DX2 analytically  !
 ! D48   D(9,10,11,12)           0.5011         calculate D2E/DX2 analytically  !
 ! D49   D(22,10,11,12)       -179.3972         calculate D2E/DX2 analytically  !
 ! D50   D(10,11,12,13)          0.156          calculate D2E/DX2 analytically  !
 ! D51   D(10,11,12,23)       -179.7186         calculate D2E/DX2 analytically  !
 ! D52   D(11,12,13,9)          -0.7455         calculate D2E/DX2 analytically  !
 ! D53   D(11,12,13,24)        177.8408         calculate D2E/DX2 analytically  !
 ! D54   D(23,12,13,9)         179.1361         calculate D2E/DX2 analytically  !
 ! D55   D(23,12,13,24)         -2.2776         calculate D2E/DX2 analytically  !
 ! D56   D(2,14,15,16)        -177.8071         calculate D2E/DX2 analytically  !
 ! D57   D(2,14,15,27)          61.41           calculate D2E/DX2 analytically  !
 ! D58   D(2,14,15,28)         -56.0723         calculate D2E/DX2 analytically  !
 ! D59   D(25,14,15,16)        -59.5052         calculate D2E/DX2 analytically  !
 ! D60   D(25,14,15,27)        179.7119         calculate D2E/DX2 analytically  !
 ! D61   D(25,14,15,28)         62.2295         calculate D2E/DX2 analytically  !
 ! D62   D(26,14,15,16)         59.4978         calculate D2E/DX2 analytically  !
 ! D63   D(26,14,15,27)        -61.2851         calculate D2E/DX2 analytically  !
 ! D64   D(26,14,15,28)       -178.7675         calculate D2E/DX2 analytically  !
 ! D65   D(14,15,16,29)         59.1679         calculate D2E/DX2 analytically  !
 ! D66   D(14,15,16,30)        179.1595         calculate D2E/DX2 analytically  !
 ! D67   D(14,15,16,31)        -60.6717         calculate D2E/DX2 analytically  !
 ! D68   D(27,15,16,29)       -179.5642         calculate D2E/DX2 analytically  !
 ! D69   D(27,15,16,30)        -59.5726         calculate D2E/DX2 analytically  !
 ! D70   D(27,15,16,31)         60.5963         calculate D2E/DX2 analytically  !
 ! D71   D(28,15,16,29)        -62.0751         calculate D2E/DX2 analytically  !
 ! D72   D(28,15,16,30)         57.9166         calculate D2E/DX2 analytically  !
 ! D73   D(28,15,16,31)        178.0854         calculate D2E/DX2 analytically  !
 --------------------------------------------------------------------------------
 Trust Radius=3.00D-01 FncErr=1.00D-07 GrdErr=1.00D-06
 Number of steps in this run=    167 maximum allowed number of steps=    186.
 GradGradGradGradGradGradGradGradGradGradGradGradGradGradGradGradGradGrad

                          Input orientation:                          
 ---------------------------------------------------------------------
 Center     Atomic      Atomic             Coordinates (Angstroms)
 Number     Number       Type             X           Y           Z
 ---------------------------------------------------------------------
      1          8           0       -0.720054   -0.637656    1.424079
      2          6           0       -1.308542   -0.350722    0.391926
      3          7           0       -0.648861    0.027789   -0.734248
      4          6           0        0.789418    0.227174   -0.703607
      5          6           0        1.139344    1.065305   -1.914246
      6          8           0        2.464037    1.317927   -2.008589
      7          8           0        0.341951    1.469473   -2.718944
      8          6           0        1.537357   -1.129224   -0.663526
      9          6           0        2.754998   -1.096350    0.196361
     10          6           0        3.095644   -1.820487    1.303006
     11          7           0        4.331642   -1.422865    1.783184
     12          6           0        4.718350   -0.464049    0.977320
     13          7           0        3.794806   -0.223340    0.008132
     14          6           0       -2.819851   -0.362120    0.284292
     15          6           0       -3.409884    0.915491    0.867843
     16          7           0       -4.895913    0.907638    0.822538
     17          1           0       -1.136988    0.441420   -1.513845
     18          1           0        1.023851    0.804405    0.198290
     19          1           0        2.579543    1.866720   -2.799467
     20          1           0        0.862055   -1.867444   -0.234739
     21          1           0        1.767665   -1.460804   -1.675913
     22          1           0        2.526878   -2.602694    1.785128
     23          1           0        5.638517    0.089285    1.032764
     24          1           0        3.823382    0.474704   -0.717982
     25          1           0       -3.187149   -1.214629    0.854924
     26          1           0       -3.137595   -0.469107   -0.754956
     27          1           0       -3.044991    1.777907    0.307343
     28          1           0       -3.070450    1.026240    1.897911
     29          1           0       -5.275703    0.117144    1.343445
     30          1           0       -5.295491    1.756479    1.225383
     31          1           0       -5.237750    0.836447   -0.136097
 ---------------------------------------------------------------------
                    Distance matrix (angstroms):
                    1          2          3          4          5
     1  O    0.000000
     2  C    1.222289   0.000000
     3  N    2.259704   1.358940   0.000000
     4  C    2.748360   2.436307   1.452357   0.000000
     5  C    4.183521   3.649069   2.380444   1.513459   0.000000
     6  O    5.074047   4.772757   3.602573   2.386853   1.351861
     7  O    4.767860   3.964183   2.645596   2.409381   1.202800
     8  C    3.113782   3.133558   2.474516   1.549463   2.557082
     9  C    3.713984   4.136009   3.703510   2.534791   3.426040
    10  C    3.996661   4.731504   4.646272   3.679414   4.744008
    11  N    5.124953   5.907348   5.766045   4.631858   5.482038
    12  C    5.459484   6.056315   5.654938   4.328951   4.848645
    13  N    4.749792   5.119345   4.512247   3.121201   3.522445
    14  C    2.405033   1.515180   2.429537   3.788144   4.748299
    15  C    3.155448   2.499086   3.313301   4.536229   5.334599
    16  N    4.493060   3.825980   4.608163   5.925802   6.628663
    17  H    3.157473   2.070962   1.008528   2.100815   2.394001
    18  H    2.573578   2.609956   2.066574   1.096163   2.131717
    19  H    5.915876   5.497203   4.250811   3.207068   1.870844
    20  H    2.601369   2.721148   2.474729   2.147682   3.390966
    21  H    4.059097   3.869275   2.990358   2.179820   2.613965
    22  H    3.812387   4.660776   4.832393   4.149786   5.391181
    23  H    6.411942   6.990416   6.531251   5.152452   5.466263
    24  H    5.144763   5.315061   4.494548   3.044079   2.997318
    25  H    2.596804   2.118930   3.242217   4.507870   5.620048
    26  H    3.259004   2.162126   2.537938   3.988593   4.689412
    27  H    3.533748   2.748357   3.144719   4.257873   4.790816
    28  H    2.918463   2.695984   3.713389   4.722815   5.679475
    29  H    4.618459   4.106416   5.072717   6.402204   7.257024
    30  H    5.167784   4.585925   5.331012   6.563984   7.193198
    31  H    5.001671   4.138460   4.697831   6.084409   6.624313
                    6          7          8          9         10
     6  O    0.000000
     7  O    2.242949   0.000000
     8  C    2.942189   3.522352   0.000000
     9  C    3.282560   4.572226   1.491019   0.000000
    10  C    4.605999   5.880709   2.602567   1.365678   0.000000
    11  N    5.037602   6.674759   3.725674   2.260625   1.384329
    12  C    4.144034   6.045969   3.640543   2.205550   2.139900
    13  N    2.865940   4.714316   2.523456   1.370685   2.171729
    14  C    5.999944   4.729815   4.524607   5.623680   6.177191
    15  C    6.552768   5.219981   5.567867   6.519522   7.070844
    16  N    7.896359   6.347674   6.909714   7.933758   8.458043
    17  H    3.739039   2.167122   3.215911   4.520741   5.564714
    18  H    2.684801   3.068804   2.178379   2.570942   3.521758
    19  H    0.969538   2.274008   3.824144   4.217292   5.540048
    20  H    3.982396   4.192469   1.088512   2.088939   2.712155
    21  H    2.883912   3.421563   1.089915   2.147805   3.281289
    22  H    5.455961   6.453148   3.024264   2.201202   1.080641
    23  H    4.564725   6.635800   4.602356   3.228000   3.191624
    24  H    2.055362   4.136880   2.793110   2.108478   3.143549
    25  H    6.822715   5.694864   4.963259   5.979700   6.327822
    26  H    6.011935   4.441011   4.722212   6.001757   6.701843
    27  H    5.993706   4.552462   5.512885   6.474067   7.186597
    28  H    6.780588   5.758149   5.695513   6.429347   6.817513
    29  H    8.519483   7.063273   7.211044   8.202471   8.592759
    30  H    8.417908   6.886278   7.653957   8.602784   9.122053
    31  H    7.940754   6.181010   7.074186   8.229840   8.864298
                   11         12         13         14         15
    11  N    0.000000
    12  C    1.310835   0.000000
    13  N    2.208588   1.360220   0.000000
    14  C    7.383476   7.570677   6.621874   0.000000
    15  C    8.138611   8.245199   7.344631   1.523470   0.000000
    16  N    9.565660   9.712854   8.801760   2.492394   1.486740
    17  H    6.652208   6.427345   5.203933   2.590560   3.326145
    18  H    4.291165   3.983112   2.961522   4.017739   4.485382
    19  H    5.906937   4.926570   3.705108   6.605358   7.087119
    20  H    4.038279   4.278973   3.370919   4.011462   5.216309
    21  H    4.305900   4.091419   2.911465   5.108308   6.238949
    22  H    2.156194   3.166845   3.229038   5.988338   6.961622
    23  H    2.134866   1.075156   2.132340   8.503410   9.087540
    24  H    3.180398   2.134543   1.007633   6.770331   7.418173
    25  H    7.578736   7.941993   7.102634   1.089632   2.141772
    26  H    7.946150   8.044667   6.978602   1.091990   2.150519
    27  H    8.175436   8.108310   7.132836   2.151961   1.091361
    28  H    7.797579   7.983349   7.229416   2.143387   1.090193
    29  H    9.739922  10.017631   9.174592   2.717114   2.084427
    30  H   10.153869  10.260082   9.382691   3.391594   2.095378
    31  H   10.018053  10.102223   9.095660   2.731213   2.086921
                   16         17         18         19         20
    16  N    0.000000
    17  H    4.450344   0.000000
    18  H    5.953482   2.780718   0.000000
    19  H    8.361890   4.182931   3.540514   0.000000
    20  H    6.478666   3.311063   2.711543   4.844747   0.000000
    21  H    7.500336   3.475878   3.032667   3.604710   1.749991
    22  H    8.267214   5.794287   4.047897   6.402886   2.718840
    23  H   10.568260   7.246840   4.743721   5.215610   5.315067
    24  H    8.864917   5.023921   2.964057   2.795965   3.806395
    25  H    2.724874   3.543546   4.715950   7.490262   4.243770
    26  H    2.734154   2.325382   4.455126   6.505519   4.268860
    27  H    2.109196   2.956923   4.185102   6.426161   5.370981
    28  H    2.121982   3.964892   4.438606   7.395552   5.327870
    29  H    1.020032   5.039665   6.439572   9.051499   6.640883
    30  H    1.021018   5.150329   6.472669   8.844644   7.292472
    31  H    1.020246   4.344017   6.270605   8.322565   6.672959
                   21         22         23         24         25
    21  H    0.000000
    22  H    3.722785   0.000000
    23  H    4.972244   4.182715   0.000000
    24  H    2.981577   4.173352   2.551151   0.000000
    25  H    5.569193   5.953327   8.923239   7.380747   0.000000
    26  H    5.088536   6.564333   8.973733   7.024767   1.774815
    27  H    6.130596   7.240113   8.875866   7.065705   3.045541
    28  H    6.508837   6.671728   8.801845   7.394053   2.474456
    29  H    7.824032   8.274834  10.918677   9.336525   2.524744
    30  H    8.285927   8.972467  11.062060   9.411347   3.661943
    31  H    7.531549   8.706793  10.964382   9.087000   3.064963
                   26         27         28         29         30
    26  H    0.000000
    27  H    2.487192   0.000000
    28  H    3.046026   1.759420   0.000000
    29  H    3.052619   2.967780   2.448883   0.000000
    30  H    3.678518   2.430639   2.436463   1.643701   0.000000
    31  H    2.549139   2.427175   2.978322   1.645565   1.644208
                   31
    31  H    0.000000
 Symmetry turned off by external request.
 Stoichiometry    C9H15N4O3(1+)
 Framework group  C1[X(C9H15N4O3)]
 Deg. of freedom    87
 Full point group                 C1      NOp   1
 Rotational constants (GHZ):      0.8514921      0.2642997      0.2133469
 Standard basis: 6-31G(d) (6D, 7F)
   270 basis functions,   508 primitive gaussians,   270 cartesian basis functions
    60 alpha electrons       60 beta electrons
       nuclear repulsion energy      1124.7477579563 Hartrees.
 NAtoms=   31 NActive=   31 NUniq=   31 SFac= 1.00D+00 NAtFMM=   60 NAOKFM=F Big=F
 Integral buffers will be    131072 words long.
 Raffenetti 2 integral format.
 Two-electron integral symmetry is turned off.
 Nuclear repulsion after empirical dispersion term =     1124.6929369732 Hartrees.
 One-electron integrals computed using PRISM.
 NBasis=   270 RedAO= T EigKep=  1.23D-03  NBF=   270
 NBsUse=   270 1.00D-06 EigRej= -1.00D+00 NBFU=   270
 ExpMin= 1.61D-01 ExpMax= 5.48D+03 ExpMxC= 8.25D+02 IAcc=3 IRadAn=         5 AccDes= 0.00D+00
 Harris functional with IExCor=  402 and IRadAn=       5 diagonalized for initial guess.
 HarFok:  IExCor=  402 AccDes= 0.00D+00 IRadAn=         5 IDoV= 1 UseB2=F ITyADJ=14
 ICtDFT=  3500011 ScaDFX=  1.000000  1.000000  1.000000  1.000000
 FoFCou: FMM=F IPFlag=           0 FMFlag=      100000 FMFlg1=           0
         NFxFlg=           0 DoJE=T BraDBF=F KetDBF=T FulRan=T
         wScrn=  0.000000 ICntrl=     500 IOpCl=  0 I1Cent=   200000004 NGrid=           0
         NMat0=    1 NMatS0=      1 NMatT0=    0 NMatD0=    1 NMtDS0=    0 NMtDT0=    0
 Symmetry not used in FoFCou.
 Requested convergence on RMS density matrix=1.00D-08 within 128 cycles.
 Requested convergence on MAX density matrix=1.00D-06.
 Requested convergence on             energy=1.00D-06.
 No special actions if energy rises.
 Integral accuracy reduced to 1.0D-05 until final iterations.
 EnCoef did     2 forward-backward iterations
 Initial convergence to 1.0D-05 achieved.  Increase integral accuracy.
 SCF Done:  E(RB3LYP) =  -796.488486128     A.U. after   17 cycles
            NFock= 17  Conv=0.87D-08     -V/T= 2.0088
 DoSCS=F DFT=T ScalE2(SS,OS)=  1.000000  1.000000
 Range of M.O.s used for correlation:     1   270
 NBasis=   270 NAE=    60 NBE=    60 NFC=     0 NFV=     0
 NROrb=    270 NOA=    60 NOB=    60 NVA=   210 NVB=   210
 Symmetrizing basis deriv contribution to polar:
 IMax=3 JMax=2 DiffMx= 0.00D+00
 G2DrvN: will do    32 centers at a time, making    1 passes.
 Calling FoFCou, ICntrl=  3107 FMM=F I1Cent=   0 AccDes= 0.00D+00.
 End of G2Drv F.D. properties file   721 does not exist.
 End of G2Drv F.D. properties file   722 does not exist.
 End of G2Drv F.D. properties file   788 does not exist.
          IDoAtm=1111111111111111111111111111111
          Differentiating once with respect to nuclear coordinates.
          There are    96 degrees of freedom in the 1st order CPHF.  IDoFFX=6 NUNeed=     0.
     90 vectors produced by pass  0 Test12= 1.31D-14 1.04D-09 XBig12= 1.75D-01 1.17D-01.
 AX will form    90 AO Fock derivatives at one time.
     90 vectors produced by pass  1 Test12= 1.31D-14 1.04D-09 XBig12= 4.37D-02 6.13D-02.
     90 vectors produced by pass  2 Test12= 1.31D-14 1.04D-09 XBig12= 2.99D-04 3.37D-03.
     90 vectors produced by pass  3 Test12= 1.31D-14 1.04D-09 XBig12= 1.12D-06 1.61D-04.
     90 vectors produced by pass  4 Test12= 1.31D-14 1.04D-09 XBig12= 1.33D-09 3.38D-06.
     70 vectors produced by pass  5 Test12= 1.31D-14 1.04D-09 XBig12= 1.14D-12 9.78D-08.
      9 vectors produced by pass  6 Test12= 1.31D-14 1.04D-09 XBig12= 9.77D-16 2.60D-09.
 InvSVY:  IOpt=1 It=  1 EMax= 7.22D-16
 Solved reduced A of dimension   529 with    96 vectors.
 End of Minotr F.D. properties file   721 does not exist.
 End of Minotr F.D. properties file   722 does not exist.
 End of Minotr F.D. properties file   788 does not exist.

 **********************************************************************

            Population analysis using the SCF density.

 **********************************************************************

 Alpha  occ. eigenvalues --  -19.32375 -19.26979 -19.24658 -14.67841 -14.49007
 Alpha  occ. eigenvalues --  -14.44678 -14.36609 -10.44781 -10.44308 -10.42670
 Alpha  occ. eigenvalues --  -10.37308 -10.35734 -10.29642 -10.29452 -10.28104
 Alpha  occ. eigenvalues --  -10.25425  -1.23716  -1.22679  -1.17082  -1.14910
 Alpha  occ. eigenvalues --   -1.07562  -1.05692  -0.97801  -0.93004  -0.90330
 Alpha  occ. eigenvalues --   -0.85743  -0.82795  -0.80847  -0.80045  -0.76590
 Alpha  occ. eigenvalues --   -0.74182  -0.71094  -0.70833  -0.67790  -0.65534
 Alpha  occ. eigenvalues --   -0.65259  -0.64656  -0.62590  -0.60627  -0.59401
 Alpha  occ. eigenvalues --   -0.58970  -0.58620  -0.57098  -0.54701  -0.54056
 Alpha  occ. eigenvalues --   -0.53313  -0.52875  -0.50773  -0.49215  -0.48279
 Alpha  occ. eigenvalues --   -0.47396  -0.47193  -0.46386  -0.44735  -0.40646
 Alpha  occ. eigenvalues --   -0.38821  -0.38371  -0.33641  -0.32010  -0.28650
 Alpha virt. eigenvalues --   -0.17372  -0.12919  -0.11327  -0.10987  -0.10514
 Alpha virt. eigenvalues --   -0.07198  -0.03802  -0.03445  -0.03198  -0.02783
 Alpha virt. eigenvalues --   -0.01312   0.00111   0.01020   0.01886   0.02268
 Alpha virt. eigenvalues --    0.03889   0.05050   0.05495   0.05929   0.07225
 Alpha virt. eigenvalues --    0.09497   0.10603   0.11559   0.12492   0.15294
 Alpha virt. eigenvalues --    0.16398   0.17646   0.18796   0.21126   0.22792
 Alpha virt. eigenvalues --    0.24778   0.26951   0.28048   0.32586   0.32727
 Alpha virt. eigenvalues --    0.33754   0.34380   0.36384   0.37446   0.41703
 Alpha virt. eigenvalues --    0.42349   0.43709   0.44868   0.45482   0.46493
 Alpha virt. eigenvalues --    0.48139   0.48513   0.49654   0.49800   0.52358
 Alpha virt. eigenvalues --    0.53191   0.53782   0.55390   0.56865   0.57562
 Alpha virt. eigenvalues --    0.57922   0.58686   0.59770   0.60303   0.61135
 Alpha virt. eigenvalues --    0.61191   0.62084   0.62609   0.64255   0.65265
 Alpha virt. eigenvalues --    0.66279   0.67980   0.69373   0.69811   0.70898
 Alpha virt. eigenvalues --    0.71573   0.72016   0.73935   0.75198   0.75531
 Alpha virt. eigenvalues --    0.75973   0.76440   0.76932   0.77342   0.77456
 Alpha virt. eigenvalues --    0.79092   0.80067   0.81849   0.82112   0.83777
 Alpha virt. eigenvalues --    0.84753   0.85598   0.87822   0.89613   0.92639
 Alpha virt. eigenvalues --    0.93693   0.94756   0.96492   0.96806   1.00433
 Alpha virt. eigenvalues --    1.02547   1.05128   1.07382   1.09085   1.11223
 Alpha virt. eigenvalues --    1.15881   1.17779   1.18864   1.21947   1.24754
 Alpha virt. eigenvalues --    1.25609   1.26914   1.28493   1.29894   1.30329
 Alpha virt. eigenvalues --    1.31137   1.34440   1.36471   1.38733   1.39796
 Alpha virt. eigenvalues --    1.43371   1.44393   1.46713   1.48601   1.50247
 Alpha virt. eigenvalues --    1.50939   1.54142   1.56456   1.57954   1.59360
 Alpha virt. eigenvalues --    1.62451   1.64292   1.65874   1.66638   1.67706
 Alpha virt. eigenvalues --    1.69114   1.70519   1.71786   1.72755   1.73695
 Alpha virt. eigenvalues --    1.74676   1.75147   1.77759   1.79129   1.80718
 Alpha virt. eigenvalues --    1.81757   1.82874   1.83992   1.86615   1.87243
 Alpha virt. eigenvalues --    1.89852   1.93645   1.96637   1.97958   2.00906
 Alpha virt. eigenvalues --    2.04782   2.05068   2.06336   2.07649   2.08929
 Alpha virt. eigenvalues --    2.10490   2.14078   2.15244   2.16821   2.18400
 Alpha virt. eigenvalues --    2.19443   2.20767   2.23387   2.25360   2.28791
 Alpha virt. eigenvalues --    2.29925   2.32045   2.32799   2.35036   2.36308
 Alpha virt. eigenvalues --    2.38368   2.42572   2.43163   2.45144   2.50426
 Alpha virt. eigenvalues --    2.52855   2.53567   2.54051   2.55108   2.58742
 Alpha virt. eigenvalues --    2.62255   2.63329   2.67041   2.69432   2.72731
 Alpha virt. eigenvalues --    2.77815   2.81024   2.85880   2.88467   2.94574
 Alpha virt. eigenvalues --    2.98095   2.99110   3.07139   3.08207   3.53319
 Alpha virt. eigenvalues --    3.76774   3.86615   3.90606   3.95102   3.99479
 Alpha virt. eigenvalues --    4.01852   4.04606   4.10210   4.17654   4.20641
 Alpha virt. eigenvalues --    4.24187   4.32128   4.41567   4.52529   4.53174
          Condensed to atoms (all electrons):
               1          2          3          4          5          6
     1  O    8.052202   0.579311  -0.104182   0.006786   0.000656  -0.000001
     2  C    0.579311   4.331178   0.271849  -0.026109   0.006206  -0.000043
     3  N   -0.104182   0.271849   7.215993   0.202220  -0.025053   0.001923
     4  C    0.006786  -0.026109   0.202220   5.202323   0.292535  -0.093103
     5  C    0.000656   0.006206  -0.025053   0.292535   4.349626   0.277337
     6  O   -0.000001  -0.000043   0.001923  -0.093103   0.277337   8.226828
     7  O   -0.000005   0.000593  -0.014944  -0.080884   0.574429  -0.083873
     8  C   -0.003234  -0.005290  -0.041781   0.295527  -0.022160   0.005687
     9  C   -0.000620   0.000046   0.003343  -0.035886  -0.001917  -0.001149
    10  C    0.000133   0.000013  -0.000124  -0.000816   0.000080   0.000030
    11  N    0.000000   0.000001   0.000000  -0.000088  -0.000002  -0.000006
    12  C    0.000000   0.000000   0.000000   0.000289  -0.000032   0.000156
    13  N    0.000004   0.000005   0.000138  -0.000510  -0.001054  -0.011632
    14  C   -0.077771   0.301463  -0.122217   0.007114  -0.000166   0.000000
    15  C   -0.003556  -0.022829  -0.005541  -0.000059   0.000007   0.000000
    16  N   -0.000011   0.001172  -0.000028   0.000001   0.000000   0.000000
    17  H    0.002793  -0.014980   0.275758  -0.038550  -0.006836   0.000778
    18  H    0.008471   0.000617  -0.052537   0.374477  -0.030442   0.001050
    19  H    0.000000   0.000004  -0.000152   0.009444  -0.005364   0.225165
    20  H    0.005453   0.004205  -0.011172  -0.032518   0.002556   0.000098
    21  H    0.000137   0.000351   0.002404  -0.056717  -0.002284   0.000617
    22  H    0.000079  -0.000004   0.000002   0.000014  -0.000001   0.000000
    23  H    0.000000   0.000000   0.000000   0.000000   0.000001  -0.000008
    24  H    0.000000  -0.000001  -0.000025  -0.000599   0.001163   0.024655
    25  H    0.003526  -0.015669   0.003237  -0.000085   0.000000   0.000000
    26  H    0.002391  -0.021262   0.008187   0.000060  -0.000044   0.000000
    27  H   -0.000093  -0.000718   0.004105  -0.000098  -0.000007   0.000000
    28  H    0.006002   0.002174   0.000676  -0.000006  -0.000001   0.000000
    29  H    0.000012  -0.000012   0.000003   0.000000   0.000000   0.000000
    30  H    0.000003   0.000005   0.000004   0.000000   0.000000   0.000000
    31  H    0.000003  -0.000011   0.000017   0.000000   0.000000   0.000000
               7          8          9         10         11         12
     1  O   -0.000005  -0.003234  -0.000620   0.000133   0.000000   0.000000
     2  C    0.000593  -0.005290   0.000046   0.000013   0.000001   0.000000
     3  N   -0.014944  -0.041781   0.003343  -0.000124   0.000000   0.000000
     4  C   -0.080884   0.295527  -0.035886  -0.000816  -0.000088   0.000289
     5  C    0.574429  -0.022160  -0.001917   0.000080  -0.000002  -0.000032
     6  O   -0.083873   0.005687  -0.001149   0.000030  -0.000006   0.000156
     7  O    8.013848  -0.000454   0.000119   0.000001   0.000000   0.000000
     8  C   -0.000454   5.243547   0.329911  -0.054205   0.007106   0.006034
     9  C    0.000119   0.329911   4.719609   0.570536  -0.042813  -0.093064
    10  C    0.000001  -0.054205   0.570536   4.926364   0.424853  -0.117686
    11  N    0.000000   0.007106  -0.042813   0.424853   6.654832   0.536476
    12  C    0.000000   0.006034  -0.093064  -0.117686   0.536476   4.732386
    13  N   -0.000025  -0.073673   0.358711  -0.072634  -0.084896   0.354339
    14  C   -0.000075  -0.000426  -0.000004   0.000000   0.000000   0.000000
    15  C    0.000002  -0.000008   0.000000   0.000000   0.000000   0.000000
    16  N    0.000000   0.000000   0.000000   0.000000   0.000000   0.000000
    17  H    0.036070   0.003611  -0.000134   0.000001   0.000000   0.000000
    18  H    0.000959  -0.047069   0.008151   0.001828  -0.000149  -0.000203
    19  H    0.009203  -0.000262  -0.000058  -0.000002   0.000000  -0.000001
    20  H   -0.000095   0.373588  -0.028308  -0.002837   0.000039  -0.000046
    21  H    0.000256   0.356537  -0.024420   0.000544  -0.000136   0.000180
    22  H    0.000000  -0.001925  -0.059719   0.382215  -0.042145   0.007634
    23  H    0.000000  -0.000193   0.002915   0.007618  -0.037785   0.383003
    24  H    0.000154  -0.003130  -0.025759   0.008619   0.004570  -0.020503
    25  H    0.000000   0.000026  -0.000001   0.000000   0.000000   0.000000
    26  H   -0.000009   0.000021   0.000001   0.000000   0.000000   0.000000
    27  H    0.000000   0.000005   0.000000   0.000000   0.000000   0.000000
    28  H    0.000000   0.000000   0.000000   0.000000   0.000000   0.000000
    29  H    0.000000   0.000000   0.000000   0.000000   0.000000   0.000000
    30  H    0.000000   0.000000   0.000000   0.000000   0.000000   0.000000
    31  H    0.000000   0.000000   0.000000   0.000000   0.000000   0.000000
              13         14         15         16         17         18
     1  O    0.000004  -0.077771  -0.003556  -0.000011   0.002793   0.008471
     2  C    0.000005   0.301463  -0.022829   0.001172  -0.014980   0.000617
     3  N    0.000138  -0.122217  -0.005541  -0.000028   0.275758  -0.052537
     4  C   -0.000510   0.007114  -0.000059   0.000001  -0.038550   0.374477
     5  C   -0.001054  -0.000166   0.000007   0.000000  -0.006836  -0.030442
     6  O   -0.011632   0.000000   0.000000   0.000000   0.000778   0.001050
     7  O   -0.000025  -0.000075   0.000002   0.000000   0.036070   0.000959
     8  C   -0.073673  -0.000426  -0.000008   0.000000   0.003611  -0.047069
     9  C    0.358711  -0.000004   0.000000   0.000000  -0.000134   0.008151
    10  C   -0.072634   0.000000   0.000000   0.000000   0.000001   0.001828
    11  N   -0.084896   0.000000   0.000000   0.000000   0.000000  -0.000149
    12  C    0.354339   0.000000   0.000000   0.000000   0.000000  -0.000203
    13  N    6.914601   0.000000   0.000000   0.000000   0.000000   0.000663
    14  C    0.000000   5.358381   0.336157  -0.045745   0.000287   0.000491
    15  C    0.000000   0.336157   5.131092   0.174376  -0.000015   0.000062
    16  N    0.000000  -0.045745   0.174376   6.750887  -0.000026   0.000000
    17  H    0.000000   0.000287  -0.000015  -0.000026   0.390680   0.003721
    18  H    0.000663   0.000491   0.000062   0.000000   0.003721   0.509090
    19  H    0.000386   0.000000   0.000000   0.000000  -0.000088  -0.000308
    20  H    0.003644  -0.000048   0.000003   0.000000   0.000073  -0.001077
    21  H   -0.001911   0.000027   0.000000   0.000000  -0.000020   0.005037
    22  H    0.004883   0.000000   0.000000   0.000000   0.000000   0.000015
    23  H   -0.058590   0.000000   0.000000   0.000000   0.000000   0.000003
    24  H    0.283299   0.000000   0.000000   0.000000  -0.000004   0.000313
    25  H    0.000000   0.359633  -0.037897  -0.003566   0.000013  -0.000021
    26  H    0.000000   0.344416  -0.039792  -0.003703   0.000786  -0.000002
    27  H    0.000000  -0.036225   0.378178  -0.032996   0.000413  -0.000040
    28  H    0.000000  -0.038910   0.376628  -0.031610  -0.000061  -0.000002
    29  H    0.000000   0.000000  -0.020416   0.301719   0.000000   0.000000
    30  H    0.000000   0.003540  -0.016706   0.302969   0.000000   0.000000
    31  H    0.000000  -0.000052  -0.019473   0.301728   0.000000   0.000000
              19         20         21         22         23         24
     1  O    0.000000   0.005453   0.000137   0.000079   0.000000   0.000000
     2  C    0.000004   0.004205   0.000351  -0.000004   0.000000  -0.000001
     3  N   -0.000152  -0.011172   0.002404   0.000002   0.000000  -0.000025
     4  C    0.009444  -0.032518  -0.056717   0.000014   0.000000  -0.000599
     5  C   -0.005364   0.002556  -0.002284  -0.000001   0.000001   0.001163
     6  O    0.225165   0.000098   0.000617   0.000000  -0.000008   0.024655
     7  O    0.009203  -0.000095   0.000256   0.000000   0.000000   0.000154
     8  C   -0.000262   0.373588   0.356537  -0.001925  -0.000193  -0.003130
     9  C   -0.000058  -0.028308  -0.024420  -0.059719   0.002915  -0.025759
    10  C   -0.000002  -0.002837   0.000544   0.382215   0.007618   0.008619
    11  N    0.000000   0.000039  -0.000136  -0.042145  -0.037785   0.004570
    12  C   -0.000001  -0.000046   0.000180   0.007634   0.383003  -0.020503
    13  N    0.000386   0.003644  -0.001911   0.004883  -0.058590   0.283299
    14  C    0.000000  -0.000048   0.000027   0.000000   0.000000   0.000000
    15  C    0.000000   0.000003   0.000000   0.000000   0.000000   0.000000
    16  N    0.000000   0.000000   0.000000   0.000000   0.000000   0.000000
    17  H   -0.000088   0.000073  -0.000020   0.000000   0.000000  -0.000004
    18  H   -0.000308  -0.001077   0.005037   0.000015   0.000003   0.000313
    19  H    0.323706   0.000009  -0.000162   0.000000   0.000001  -0.000389
    20  H    0.000009   0.514838  -0.028292   0.003206   0.000004  -0.000059
    21  H   -0.000162  -0.028292   0.570982  -0.000028  -0.000001   0.000618
    22  H    0.000000   0.003206  -0.000028   0.567505  -0.000145  -0.000109
    23  H    0.000001   0.000004  -0.000001  -0.000145   0.538733   0.000512
    24  H   -0.000389  -0.000059   0.000618  -0.000109   0.000512   0.374412
    25  H    0.000000   0.000037  -0.000002   0.000000   0.000000   0.000000
    26  H    0.000000  -0.000032  -0.000003   0.000000   0.000000   0.000000
    27  H    0.000000   0.000001   0.000000   0.000000   0.000000   0.000000
    28  H    0.000000  -0.000001   0.000000   0.000000   0.000000   0.000000
    29  H    0.000000   0.000000   0.000000   0.000000   0.000000   0.000000
    30  H    0.000000   0.000000   0.000000   0.000000   0.000000   0.000000
    31  H    0.000000   0.000000   0.000000   0.000000   0.000000   0.000000
              25         26         27         28         29         30
     1  O    0.003526   0.002391  -0.000093   0.006002   0.000012   0.000003
     2  C   -0.015669  -0.021262  -0.000718   0.002174  -0.000012   0.000005
     3  N    0.003237   0.008187   0.004105   0.000676   0.000003   0.000004
     4  C   -0.000085   0.000060  -0.000098  -0.000006   0.000000   0.000000
     5  C    0.000000  -0.000044  -0.000007  -0.000001   0.000000   0.000000
     6  O    0.000000   0.000000   0.000000   0.000000   0.000000   0.000000
     7  O    0.000000  -0.000009   0.000000   0.000000   0.000000   0.000000
     8  C    0.000026   0.000021   0.000005   0.000000   0.000000   0.000000
     9  C   -0.000001   0.000001   0.000000   0.000000   0.000000   0.000000
    10  C    0.000000   0.000000   0.000000   0.000000   0.000000   0.000000
    11  N    0.000000   0.000000   0.000000   0.000000   0.000000   0.000000
    12  C    0.000000   0.000000   0.000000   0.000000   0.000000   0.000000
    13  N    0.000000   0.000000   0.000000   0.000000   0.000000   0.000000
    14  C    0.359633   0.344416  -0.036225  -0.038910   0.000000   0.003540
    15  C   -0.037897  -0.039792   0.378178   0.376628  -0.020416  -0.016706
    16  N   -0.003566  -0.003703  -0.032996  -0.031610   0.301719   0.302969
    17  H    0.000013   0.000786   0.000413  -0.000061   0.000000   0.000000
    18  H   -0.000021  -0.000002  -0.000040  -0.000002   0.000000   0.000000
    19  H    0.000000   0.000000   0.000000   0.000000   0.000000   0.000000
    20  H    0.000037  -0.000032   0.000001  -0.000001   0.000000   0.000000
    21  H   -0.000002  -0.000003   0.000000   0.000000   0.000000   0.000000
    22  H    0.000000   0.000000   0.000000   0.000000   0.000000   0.000000
    23  H    0.000000   0.000000   0.000000   0.000000   0.000000   0.000000
    24  H    0.000000   0.000000   0.000000   0.000000   0.000000   0.000000
    25  H    0.499394  -0.025656   0.004608  -0.003166   0.004626   0.000008
    26  H   -0.025656   0.546507  -0.003917   0.004989  -0.000256   0.000036
    27  H    0.004608  -0.003917   0.475582  -0.023177   0.003750  -0.001746
    28  H   -0.003166   0.004989  -0.023177   0.445690  -0.002404  -0.001217
    29  H    0.004626  -0.000256   0.003750  -0.002404   0.304530  -0.013039
    30  H    0.000008   0.000036  -0.001746  -0.001217  -0.013039   0.298939
    31  H   -0.000222   0.004629  -0.002873   0.003445  -0.014540  -0.013215
              31
     1  O    0.000003
     2  C   -0.000011
     3  N    0.000017
     4  C    0.000000
     5  C    0.000000
     6  O    0.000000
     7  O    0.000000
     8  C    0.000000
     9  C    0.000000
    10  C    0.000000
    11  N    0.000000
    12  C    0.000000
    13  N    0.000000
    14  C   -0.000052
    15  C   -0.019473
    16  N    0.301728
    17  H    0.000000
    18  H    0.000000
    19  H    0.000000
    20  H    0.000000
    21  H    0.000000
    22  H    0.000000
    23  H    0.000000
    24  H    0.000000
    25  H   -0.000222
    26  H    0.004629
    27  H   -0.002873
    28  H    0.003445
    29  H   -0.014540
    30  H   -0.013215
    31  H    0.308015
 Mulliken charges:
               1
     1  O   -0.478487
     2  C    0.607735
     3  N   -0.612102
     4  C   -0.024763
     5  C    0.590767
     6  O   -0.574510
     7  O   -0.455267
     8  C   -0.367793
     9  C    0.320508
    10  C   -0.074533
    11  N   -0.419857
    12  C    0.211039
    13  N   -0.615750
    14  C   -0.389870
    15  C   -0.230214
    16  N   -0.715169
    17  H    0.345729
    18  H    0.216902
    19  H    0.438867
    20  H    0.196736
    21  H    0.176287
    22  H    0.138524
    23  H    0.163932
    24  H    0.352263
    25  H    0.211178
    26  H    0.182655
    27  H    0.235250
    28  H    0.260949
    29  H    0.436026
    30  H    0.440418
    31  H    0.432550
 Sum of Mulliken charges =   1.00000
 Mulliken charges with hydrogens summed into heavy atoms:
               1
     1  O   -0.478487
     2  C    0.607735
     3  N   -0.266373
     4  C    0.192139
     5  C    0.590767
     6  O   -0.135643
     7  O   -0.455267
     8  C    0.005230
     9  C    0.320508
    10  C    0.063990
    11  N   -0.419857
    12  C    0.374971
    13  N   -0.263487
    14  C    0.003963
    15  C    0.265985
    16  N    0.593825
 APT charges:
               1
     1  O   -0.342174
     2  C    0.194337
     3  N   -0.711610
     4  C   -0.299193
     5  C   -0.229334
     6  O   -0.764362
     7  O    0.104135
     8  C   -0.962268
     9  C   -0.504859
    10  C   -0.271833
    11  N    0.181150
    12  C   -0.506381
    13  N   -0.664903
    14  C   -0.830771
    15  C   -0.172818
    16  N   -1.994085
    17  H    0.588901
    18  H    0.328935
    19  H    1.013885
    20  H    0.315474
    21  H    0.535454
    22  H    0.415293
    23  H    1.015123
    24  H    0.474269
    25  H    0.540210
    26  H    0.397539
    27  H    0.210770
    28  H    0.325828
    29  H    0.827805
    30  H    1.088840
    31  H    0.696642
 Sum of APT charges =   1.00000
 APT charges with hydrogens summed into heavy atoms:
               1
     1  O   -0.342174
     2  C    0.194337
     3  N   -0.122709
     4  C    0.029743
     5  C   -0.229334
     6  O    0.249523
     7  O    0.104135
     8  C   -0.111340
     9  C   -0.504859
    10  C    0.143459
    11  N    0.181150
    12  C    0.508742
    13  N   -0.190633
    14  C    0.106978
    15  C    0.363780
    16  N    0.619203
 Electronic spatial extent (au):  <R**2>=           5042.5594
 Charge=              1.0000 electrons
 Dipole moment (field-independent basis, Debye):
    X=            -20.6411    Y=              6.9291    Z=             -1.8904  Tot=             21.8550
 Quadrupole moment (field-independent basis, Debye-Ang):
   XX=             18.7784   YY=            -83.5616   ZZ=            -91.2497
   XY=             -4.2615   XZ=            -34.3767   YZ=              5.7291
 Traceless Quadrupole moment (field-independent basis, Debye-Ang):
   XX=             70.7894   YY=            -31.5506   ZZ=            -39.2388
   XY=             -4.2615   XZ=            -34.3767   YZ=              5.7291
 Octapole moment (field-independent basis, Debye-Ang**2):
  XXX=           -709.2170  YYY=             42.1103  ZZZ=            -10.0227  XYY=            -90.4003
  XXY=            170.2007  XXZ=             23.9930  XZZ=            -84.5887  YZZ=             29.0114
  YYZ=              0.2775  XYZ=            -15.5354
 Hexadecapole moment (field-independent basis, Debye-Ang**3):
 XXXX=          -1823.4543 YYYY=           -625.6222 ZZZZ=          -1004.8880 XXXY=            165.5931
 XXXZ=           -652.4387 YYYX=            341.3841 YYYZ=            210.1269 ZZZX=           -141.1863
 ZZZY=            232.0873 XXYY=           -784.8243 XXZZ=           -851.3531 YYZZ=           -257.6369
 XXYZ=            191.0333 YYXZ=            -78.7048 ZZXY=            180.0779
 N-N= 1.124692936973D+03 E-N=-4.091744299987D+03  KE= 7.895018638102D+02
  Exact polarizability:   0.000   0.000   0.000   0.000   0.000   0.000
 Approx polarizability: 195.705   8.699 145.931  22.983 -37.866 187.850
 Calling FoFJK, ICntrl=    100147 FMM=F ISym2X=0 I1Cent= 0 IOpClX= 0 NMat=1 NMatS=1 NMatT=0.
 -------------------------------------------------------------------
 Center     Atomic                   Forces (Hartrees/Bohr)
 Number     Number              X              Y              Z
 -------------------------------------------------------------------
      1        8          -0.008124544   -0.000689423    0.004989388
      2        6           0.020603880    0.003557282   -0.002590560
      3        7          -0.008440836    0.002489626    0.001833444
      4        6          -0.005107495   -0.000372575    0.001835563
      5        6           0.010730588   -0.003261215    0.007189552
      6        8          -0.005203720   -0.002702337    0.004818209
      7        8          -0.011453149    0.005208188   -0.009259005
      8        6           0.007248503   -0.000563143    0.006571982
      9        6          -0.010302032   -0.002059525   -0.003385140
     10        6           0.007031350   -0.003284152    0.008437138
     11        7          -0.004090785   -0.006003597    0.003101506
     12        6           0.000561799    0.000803230    0.001145164
     13        7           0.004624143    0.006464398   -0.007747050
     14        6          -0.015580331   -0.001183266   -0.002346489
     15        6           0.030166265    0.000923306   -0.000372357
     16        7          -0.005381535    0.002543559    0.001933989
     17        1          -0.001111162   -0.000224756   -0.006294226
     18        1           0.003991010   -0.001859091    0.000956157
     19        1           0.003044010    0.003626304   -0.006270228
     20        1          -0.001506652   -0.000528298    0.000579055
     21        1          -0.000035737   -0.000405628   -0.005577879
     22        1          -0.000098099   -0.000690407    0.000309653
     23        1           0.004344343    0.001986399    0.001700373
     24        1           0.002567998    0.001025382   -0.001490395
     25        1           0.000694580   -0.005033446    0.000536495
     26        1          -0.000490164   -0.002246088   -0.003546199
     27        1          -0.005196919    0.003512250   -0.000575810
     28        1          -0.005375899    0.000909901    0.003686543
     29        1          -0.003000069   -0.006050009    0.003251169
     30        1          -0.002565848    0.005445732    0.002735295
     31        1          -0.002543491   -0.001338601   -0.006155337
 -------------------------------------------------------------------
 Cartesian Forces:  Max     0.030166265 RMS     0.005982042
 FormGI is forming the generalized inverse of G from B-inverse, IUseBI=4.

 GradGradGradGradGradGradGradGradGradGradGradGradGradGradGradGradGradGrad
 Berny optimization.
 Internal  Forces:  Max     0.015537253 RMS     0.003852166
 Search for a local minimum.
 Step number   1 out of a maximum of  167
 All quantities printed in internal units (Hartrees-Bohrs-Radians)
 Mixed Optimization -- RFO/linear search
 Second derivative matrix not updated -- analytic derivatives used.
 ITU=  0
     Eigenvalues ---   -0.00177   0.00121   0.00199   0.00206   0.00274
     Eigenvalues ---    0.00304   0.00578   0.00649   0.00762   0.00964
     Eigenvalues ---    0.01901   0.02003   0.02132   0.02550   0.03496
     Eigenvalues ---    0.03685   0.04058   0.04081   0.04312   0.04372
     Eigenvalues ---    0.04526   0.04624   0.05058   0.05155   0.05245
     Eigenvalues ---    0.05339   0.05742   0.06209   0.06435   0.07606
     Eigenvalues ---    0.08041   0.08183   0.10521   0.10714   0.11183
     Eigenvalues ---    0.11819   0.11931   0.12453   0.13149   0.13553
     Eigenvalues ---    0.13723   0.15156   0.15709   0.16345   0.16608
     Eigenvalues ---    0.18529   0.19056   0.19810   0.21172   0.21797
     Eigenvalues ---    0.23344   0.23480   0.23696   0.25180   0.25544
     Eigenvalues ---    0.27409   0.29508   0.31460   0.31764   0.33157
     Eigenvalues ---    0.33931   0.34526   0.34768   0.34948   0.35141
     Eigenvalues ---    0.35404   0.35732   0.35807   0.36941   0.37858
     Eigenvalues ---    0.38377   0.38838   0.41986   0.42793   0.44280
     Eigenvalues ---    0.44449   0.44989   0.46077   0.47299   0.47635
     Eigenvalues ---    0.48168   0.49622   0.51617   0.58976   0.61315
     Eigenvalues ---    0.84802   0.94208
 RFO step:  Lambda=-1.03864143D-02 EMin=-1.76887017D-03
 Linear search not attempted -- first point.
 Iteration  1 RMS(Cart)=  0.16576473 RMS(Int)=  0.04256685
 Iteration  2 RMS(Cart)=  0.12322824 RMS(Int)=  0.00662246
 Iteration  3 RMS(Cart)=  0.01298855 RMS(Int)=  0.00053433
 Iteration  4 RMS(Cart)=  0.00014636 RMS(Int)=  0.00053149
 Iteration  5 RMS(Cart)=  0.00000022 RMS(Int)=  0.00053149
 Variable       Old X    -DE/DX   Delta X   Delta X   Delta X     New X
                                 (Linear)    (Quad)   (Total)
    R1        2.30979   0.00046   0.00000   0.00537   0.00537   2.31516
    R2        2.56802  -0.00038   0.00000  -0.02547  -0.02547   2.54255
    R3        2.86328   0.00933   0.00000   0.04047   0.04047   2.90374
    R4        2.74456   0.00599   0.00000   0.01136   0.01136   2.75592
    R5        1.90584   0.00531   0.00000   0.01052   0.01052   1.91636
    R6        2.86002   0.00374   0.00000   0.01249   0.01249   2.87251
    R7        2.92806   0.00794   0.00000   0.02366   0.02366   2.95172
    R8        2.07145   0.00066   0.00000   0.00108   0.00108   2.07253
    R9        2.55465  -0.00184   0.00000  -0.01137  -0.01137   2.54328
   R10        2.27296   0.01554   0.00000   0.01703   0.01703   2.28999
   R11        1.83216   0.00753   0.00000   0.01399   0.01399   1.84615
   R12        2.81762   0.00495   0.00000   0.00003   0.00003   2.81765
   R13        2.05699   0.00152   0.00000   0.00509   0.00509   2.06208
   R14        2.05964   0.00530   0.00000   0.01414   0.01414   2.07378
   R15        2.58076   0.01054   0.00000   0.01868   0.01869   2.59945
   R16        2.59022   0.01268   0.00000   0.02618   0.02620   2.61642
   R17        2.61600  -0.00356   0.00000  -0.01561  -0.01563   2.60037
   R18        2.04211   0.00069   0.00000   0.00239   0.00239   2.04451
   R19        2.47712   0.00569   0.00000   0.00954   0.00952   2.48664
   R20        2.57044   0.00767   0.00000   0.01279   0.01280   2.58324
   R21        2.03175   0.00483   0.00000   0.01163   0.01163   2.04338
   R22        1.90415   0.00186   0.00000   0.00401   0.00401   1.90816
   R23        2.87894   0.00435   0.00000  -0.00261  -0.00261   2.87633
   R24        2.05911   0.00398   0.00000   0.01233   0.01233   2.07144
   R25        2.06356   0.00374   0.00000   0.00592   0.00592   2.06948
   R26        2.80953   0.01343   0.00000   0.06178   0.06178   2.87132
   R27        2.06237   0.00133   0.00000   0.00199   0.00199   2.06436
   R28        2.06017   0.00190   0.00000   0.00382   0.00382   2.06398
   R29        1.92758   0.00747   0.00000   0.01476   0.01476   1.94234
   R30        1.92945   0.00661   0.00000   0.01278   0.01278   1.94222
   R31        1.92799   0.00673   0.00000   0.01293   0.01293   1.94092
    A1        2.13113   0.01111   0.00000   0.04945   0.04943   2.18056
    A2        2.13940  -0.01085   0.00000  -0.07279  -0.07280   2.06660
    A3        2.01244  -0.00026   0.00000   0.02315   0.02314   2.03558
    A4        2.09611   0.00269   0.00000   0.01956   0.01799   2.11410
    A5        2.11751   0.00035   0.00000   0.01684   0.01536   2.13287
    A6        2.02563  -0.00260   0.00000  -0.00794  -0.00962   2.01601
    A7        1.86306  -0.00789   0.00000  -0.02358  -0.02352   1.83954
    A8        1.93735   0.00441   0.00000   0.02569   0.02571   1.96306
    A9        1.87700   0.00254   0.00000   0.02375   0.02396   1.90096
   A10        1.97563   0.00376   0.00000   0.00065   0.00071   1.97634
   A11        1.89345   0.00151   0.00000   0.00563   0.00560   1.89905
   A12        1.91395  -0.00439   0.00000  -0.03059  -0.03079   1.88316
   A13        1.96695   0.00204   0.00000   0.00077   0.00077   1.96772
   A14        2.17483  -0.00265   0.00000  -0.00917  -0.00917   2.16565
   A15        2.14140   0.00062   0.00000   0.00838   0.00838   2.14978
   A16        1.85401   0.00380   0.00000   0.01748   0.01748   1.87149
   A17        1.97123   0.00959   0.00000   0.01809   0.01810   1.98934
   A18        1.88012  -0.00379   0.00000  -0.01765  -0.01768   1.86243
   A19        1.92228  -0.00347   0.00000  -0.01111  -0.01129   1.91099
   A20        1.86964  -0.00286   0.00000  -0.00193  -0.00180   1.86784
   A21        1.94962  -0.00151   0.00000   0.00881   0.00883   1.95846
   A22        1.86572   0.00156   0.00000   0.00216   0.00200   1.86773
   A23        2.29073  -0.00387   0.00000  -0.00792  -0.00797   2.28276
   A24        2.15839   0.00634   0.00000   0.01554   0.01549   2.17388
   A25        1.83359  -0.00244   0.00000  -0.00713  -0.00715   1.82643
   A26        1.92995   0.00256   0.00000   0.00847   0.00845   1.93840
   A27        2.23197  -0.00106   0.00000  -0.00801  -0.00801   2.22397
   A28        2.12126  -0.00150   0.00000  -0.00046  -0.00045   2.12081
   A29        1.83408   0.00164   0.00000   0.00277   0.00271   1.83679
   A30        1.94677   0.00135   0.00000   0.00339   0.00337   1.95014
   A31        2.21083  -0.00219   0.00000  -0.01237  -0.01236   2.19848
   A32        2.12558   0.00084   0.00000   0.00898   0.00899   2.13457
   A33        1.88022  -0.00309   0.00000  -0.00723  -0.00722   1.87300
   A34        2.16723   0.00355   0.00000   0.01517   0.01516   2.18239
   A35        2.23546  -0.00047   0.00000  -0.00791  -0.00792   2.22754
   A36        1.93134  -0.00839   0.00000  -0.09220  -0.09276   1.83858
   A37        1.88064   0.00010   0.00000  -0.02635  -0.02850   1.85213
   A38        1.93754   0.00247   0.00000   0.05838   0.06006   1.99760
   A39        1.90178   0.00336   0.00000   0.00355   0.00014   1.90192
   A40        1.91135   0.00456   0.00000   0.05828   0.05929   1.97064
   A41        1.90039  -0.00208   0.00000  -0.00278  -0.00292   1.89748
   A42        1.95089  -0.00173   0.00000  -0.00039  -0.00026   1.95063
   A43        1.91397   0.00399   0.00000   0.04810   0.04793   1.96190
   A44        1.90342   0.00341   0.00000   0.00617   0.00544   1.90886
   A45        1.89939  -0.00259   0.00000  -0.03544  -0.03558   1.86381
   A46        1.91828  -0.00378   0.00000  -0.04666  -0.04690   1.87138
   A47        1.87641   0.00080   0.00000   0.02967   0.02798   1.90439
   A48        1.93980   0.00015   0.00000  -0.00453  -0.00454   1.93526
   A49        1.95492   0.00002   0.00000  -0.00407  -0.00407   1.95085
   A50        1.94324   0.00031   0.00000   0.00376   0.00377   1.94701
   A51        1.87243   0.00001   0.00000   0.00361   0.00360   1.87603
   A52        1.87655  -0.00065   0.00000  -0.00350  -0.00350   1.87305
   A53        1.87299   0.00012   0.00000   0.00503   0.00503   1.87802
    D1       -0.10391   0.00020   0.00000   0.04276   0.04343  -0.06048
    D2       -2.91907  -0.00091   0.00000  -0.05847  -0.05873  -2.97780
    D3        3.01567   0.00018   0.00000   0.03225   0.03251   3.04818
    D4        0.20052  -0.00093   0.00000  -0.06899  -0.06965   0.13086
    D5        1.40506  -0.00174   0.00000  -0.44042  -0.43885   0.96621
    D6       -0.67253  -0.00106   0.00000  -0.37563  -0.37679  -1.04931
    D7       -2.75201  -0.00002   0.00000  -0.38985  -0.38983   3.14135
    D8       -1.71441  -0.00202   0.00000  -0.43157  -0.43028  -2.14469
    D9        2.49119  -0.00134   0.00000  -0.36677  -0.36822   2.12297
   D10        0.41171  -0.00031   0.00000  -0.38099  -0.38126   0.03045
   D11       -2.81581   0.00078   0.00000  -0.06319  -0.06295  -2.87876
   D12        1.30691  -0.00136   0.00000  -0.06425  -0.06378   1.24314
   D13       -0.78674  -0.00017   0.00000  -0.05681  -0.05684  -0.84358
   D14        0.01592   0.00231   0.00000   0.03708   0.03687   0.05279
   D15       -2.14454   0.00016   0.00000   0.03602   0.03604  -2.10851
   D16        2.04499   0.00135   0.00000   0.04346   0.04297   2.08796
   D17       -3.13461  -0.00088   0.00000   0.00326   0.00328  -3.13133
   D18        0.00343  -0.00072   0.00000  -0.00102  -0.00099   0.00244
   D19       -0.99799   0.00151   0.00000   0.01947   0.01953  -0.97846
   D20        2.14005   0.00167   0.00000   0.01519   0.01526   2.15531
   D21        1.13050  -0.00052   0.00000  -0.01503  -0.01512   1.11538
   D22       -2.01465  -0.00036   0.00000  -0.01931  -0.01939  -2.03404
   D23       -2.49123  -0.00116   0.00000  -0.01771  -0.01756  -2.50880
   D24       -0.43011  -0.00152   0.00000  -0.02092  -0.02087  -0.45098
   D25        1.59876  -0.00368   0.00000  -0.03431  -0.03409   1.56466
   D26        1.69725   0.00326   0.00000  -0.00618  -0.00612   1.69113
   D27       -2.52481   0.00290   0.00000  -0.00939  -0.00943  -2.53423
   D28       -0.49594   0.00074   0.00000  -0.02278  -0.02265  -0.51859
   D29       -0.41972   0.00193   0.00000   0.00815   0.00797  -0.41176
   D30        1.64140   0.00157   0.00000   0.00493   0.00466   1.64606
   D31       -2.61292  -0.00059   0.00000  -0.00845  -0.00856  -2.62148
   D32       -3.12587  -0.00067   0.00000  -0.02286  -0.02288   3.13444
   D33        0.01920  -0.00082   0.00000  -0.01863  -0.01861   0.00059
   D34        2.09828  -0.00135   0.00000  -0.05868  -0.05872   2.03957
   D35       -1.00477  -0.00226   0.00000  -0.07817  -0.07824  -1.08301
   D36        0.03104  -0.00038   0.00000  -0.04620  -0.04619  -0.01515
   D37       -3.07201  -0.00129   0.00000  -0.06568  -0.06571  -3.13773
   D38       -2.00651   0.00028   0.00000  -0.05246  -0.05237  -2.05888
   D39        1.17362  -0.00062   0.00000  -0.07194  -0.07189   1.10173
   D40       -3.12471  -0.00009   0.00000  -0.00588  -0.00568  -3.13039
   D41        0.01497  -0.00031   0.00000  -0.00662  -0.00650   0.00847
   D42       -0.01633   0.00085   0.00000   0.01132   0.01134  -0.00498
   D43        3.12335   0.00063   0.00000   0.01058   0.01052   3.13387
   D44        3.12901  -0.00049   0.00000   0.00135   0.00152   3.13053
   D45        0.01089  -0.00023   0.00000   0.00070   0.00080   0.01170
   D46        0.01742  -0.00111   0.00000  -0.01367  -0.01360   0.00382
   D47       -3.10070  -0.00085   0.00000  -0.01432  -0.01432  -3.11502
   D48        0.00875  -0.00030   0.00000  -0.00455  -0.00457   0.00417
   D49       -3.13107  -0.00009   0.00000  -0.00386  -0.00379  -3.13487
   D50        0.00272  -0.00037   0.00000  -0.00428  -0.00434  -0.00162
   D51       -3.13668   0.00008   0.00000  -0.00348  -0.00349  -3.14017
   D52       -0.01301   0.00093   0.00000   0.01155   0.01158  -0.00143
   D53        3.10391   0.00073   0.00000   0.01264   0.01273   3.11664
   D54        3.12652   0.00051   0.00000   0.01077   0.01073   3.13725
   D55       -0.03975   0.00031   0.00000   0.01186   0.01188  -0.02787
   D56       -3.10332   0.00210   0.00000   0.12153   0.12090  -2.98241
   D57        1.07181   0.00379   0.00000   0.13383   0.13339   1.20519
   D58       -0.97865  -0.00146   0.00000   0.06673   0.06572  -0.91292
   D59       -1.03856  -0.00069   0.00000   0.03679   0.03711  -1.00145
   D60        3.13656   0.00100   0.00000   0.04909   0.04960  -3.09703
   D61        1.08611  -0.00425   0.00000  -0.01800  -0.01807   1.06804
   D62        1.03843   0.00148   0.00000   0.06988   0.07038   1.10882
   D63       -1.06963   0.00317   0.00000   0.08218   0.08286  -0.98676
   D64       -3.12008  -0.00208   0.00000   0.01508   0.01520  -3.10488
   D65        1.03267  -0.00071   0.00000  -0.02168  -0.02150   1.01117
   D66        3.12692  -0.00058   0.00000  -0.02297  -0.02278   3.10414
   D67       -1.05892  -0.00020   0.00000  -0.01672  -0.01654  -1.07546
   D68       -3.13399   0.00143   0.00000   0.01446   0.01415  -3.11983
   D69       -1.03974   0.00156   0.00000   0.01317   0.01287  -1.02686
   D70        1.05760   0.00194   0.00000   0.01942   0.01912   1.07672
   D71       -1.08341  -0.00128   0.00000   0.00282   0.00293  -1.08048
   D72        1.01083  -0.00115   0.00000   0.00153   0.00165   1.01249
   D73        3.10818  -0.00077   0.00000   0.00778   0.00790   3.11607
         Item               Value     Threshold  Converged?
 Maximum Force            0.015537     0.000450     NO 
 RMS     Force            0.003852     0.000300     NO 
 Maximum Displacement     1.152152     0.001800     NO 
 RMS     Displacement     0.282513     0.001200     NO 
 Predicted change in Energy=-9.237983D-03
 GradGradGradGradGradGradGradGradGradGradGradGradGradGradGradGradGradGrad

                          Input orientation:                          
 ---------------------------------------------------------------------
 Center     Atomic      Atomic             Coordinates (Angstroms)
 Number     Number       Type             X           Y           Z
 ---------------------------------------------------------------------
      1          8           0       -0.909712   -0.431728    1.279021
      2          6           0       -1.361338   -0.183767    0.167493
      3          7           0       -0.621927    0.125415   -0.913222
      4          6           0        0.826885    0.264199   -0.820885
      5          6           0        1.246849    0.971611   -2.099087
      6          8           0        2.576522    1.165905   -2.173411
      7          8           0        0.476358    1.319378   -2.967357
      8          6           0        1.545825   -1.106428   -0.610403
      9          6           0        2.737002   -1.034933    0.283558
     10          6           0        2.983233   -1.624884    1.501556
     11          7           0        4.222673   -1.269028    1.981860
     12          6           0        4.728938   -0.465482    1.071074
     13          7           0        3.872208   -0.287067    0.020909
     14          6           0       -2.886747   -0.179636   -0.017526
     15          6           0       -3.414977    0.806326    1.014758
     16          7           0       -4.930604    0.761651    1.112530
     17          1           0       -1.038449    0.458359   -1.775802
     18          1           0        1.068744    0.906514    0.034546
     19          1           0        2.756190    1.616154   -3.021591
     20          1           0        0.824352   -1.768455   -0.128818
     21          1           0        1.785306   -1.547939   -1.586104
     22          1           0        2.329896   -2.285024    2.056432
     23          1           0        5.699067    0.010291    1.112623
     24          1           0        4.008562    0.293030   -0.794261
     25          1           0       -3.227917   -1.187666    0.245232
     26          1           0       -3.219334    0.049754   -1.035397
     27          1           0       -3.144133    1.838591    0.781439
     28          1           0       -3.019620    0.546634    1.999227
     29          1           0       -5.254570   -0.183931    1.352068
     30          1           0       -5.285144    1.401702    1.834310
     31          1           0       -5.373922    1.020512    0.222938
 ---------------------------------------------------------------------
                    Distance matrix (angstroms):
                    1          2          3          4          5
     1  O    0.000000
     2  C    1.225131   0.000000
     3  N    2.280166   1.345462   0.000000
     4  C    2.812417   2.442516   1.458370   0.000000
     5  C    4.246378   3.643477   2.369525   1.520067   0.000000
     6  O    5.159994   4.775792   3.591764   2.388227   1.345847
     7  O    4.797841   3.932410   2.617488   2.417357   1.211813
     8  C    3.170931   3.147701   2.511629   1.561984   2.573676
     9  C    3.827966   4.187403   3.749812   2.560485   3.453082
    10  C    4.077765   4.767793   4.678876   3.689472   4.766702
    11  N    5.247517   5.970838   5.813443   4.662353   5.525407
    12  C    5.642584   6.163383   5.737451   4.397495   4.923424
    13  N    4.946769   5.236617   4.608686   3.207257   3.601550
    14  C    2.377657   1.536594   2.454534   3.825368   4.769160
    15  C    2.806949   2.432195   3.461485   4.653695   5.608562
    16  N    4.197552   3.811373   4.803453   6.093786   6.965594
    17  H    3.184458   2.071950   1.014094   2.104527   2.364430
    18  H    2.693306   2.666775   2.089677   1.096734   2.142043
    19  H    6.010650   5.510355   4.251964   3.223834   1.882700
    20  H    2.603042   2.715931   2.508736   2.147242   3.401239
    21  H    4.088764   3.851940   3.007932   2.188144   2.627017
    22  H    3.812366   4.648504   4.831389   4.127534   5.389528
    23  H    6.625634   7.126027   6.638695   5.247959   5.573281
    24  H    5.386390   5.476143   4.635049   3.181919   3.128914
    25  H    2.648441   2.120842   3.139646   4.436884   5.493800
    26  H    3.304953   2.225674   2.601380   4.057572   4.682740
    27  H    3.224062   2.764999   3.488320   4.562361   5.322576
    28  H    2.434666   2.576554   3.795882   4.777908   5.931235
    29  H    4.352532   4.069456   5.166103   6.473534   7.450786
    30  H    4.776423   4.548433   5.560884   6.760242   7.636984
    31  H    4.811807   4.189772   4.967244   6.333371   7.016324
                    6          7          8          9         10
     6  O    0.000000
     7  O    2.250465   0.000000
     8  C    2.944287   3.547326   0.000000
     9  C    3.302445   4.606706   1.491034   0.000000
    10  C    4.632418   5.909677   2.606782   1.375569   0.000000
    11  N    5.089694   6.725286   3.729851   2.268534   1.376059
    12  C    4.221493   6.130178   3.656554   2.216363   2.139395
    13  N    2.933422   4.800228   2.545970   1.384551   2.184570
    14  C    6.025415   4.717947   4.567071   5.696379   6.233219
    15  C    6.796453   5.591328   5.559616   6.463105   6.861840
    16  N    8.204741   6.796453   6.957179   7.918781   8.275005
    17  H    3.704960   2.110875   3.238083   4.552462   5.590608
    18  H    2.686215   3.087523   2.166910   2.571830   3.496478
    19  H    0.976941   2.299707   3.832918   4.237056   5.569087
    20  H    3.982578   4.208695   1.091205   2.089578   2.709151
    21  H    2.887196   3.441323   1.097395   2.159754   3.312792
    22  H    5.464551   6.454903   3.019250   2.207158   1.081907
    23  H    4.678007   6.755489   4.633066   3.248642   3.193872
    24  H    2.171337   4.272260   2.838549   2.131208   3.162351
    25  H    6.714211   5.507054   4.850497   5.966997   6.351999
    26  H    6.011058   4.359191   4.921800   6.196299   6.907415
    27  H    6.473758   5.237462   5.710172   6.564509   7.075228
    28  H    7.007939   6.122577   5.512356   6.211567   6.402922
    29  H    8.693507   7.332183   7.137763   8.107474   8.364216
    30  H    8.827413   7.500512   7.676553   8.526244   8.811187
    31  H    8.305010   6.670313   7.287059   8.367533   8.858613
                   11         12         13         14         15
    11  N    0.000000
    12  C    1.315873   0.000000
    13  N    2.220902   1.366992   0.000000
    14  C    7.465131   7.698404   6.759918   0.000000
    15  C    7.973461   8.242816   7.435476   1.522090   0.000000
    16  N    9.416043   9.737265   8.932018   2.518015   1.519434
    17  H    6.692032   6.497764   5.281891   2.629597   3.681874
    18  H    4.297939   4.043981   3.047003   4.102237   4.590709
    19  H    5.958973   4.997484   3.758264   6.640181   7.418304
    20  H    4.031498   4.287572   3.392102   4.038439   5.090106
    21  H    4.330002   4.110630   2.920179   5.114760   6.272957
    22  H    2.149515   3.168133   3.242517   5.995609   6.606444
    23  H    2.138216   1.081313   2.148878   8.661958   9.149265
    24  H    3.192603   2.138634   1.009756   6.955000   7.658000
    25  H    7.650738   8.032130   7.160528   1.096158   2.145500
    26  H    8.137967   8.238794   7.177687   1.095124   2.194041
    27  H    8.085057   8.208404   7.370609   2.185826   1.092413
    28  H    7.466441   7.869307   7.218455   2.147654   1.092212
    29  H    9.559928   9.991430   9.223920   2.735396   2.116245
    30  H    9.876900  10.215221   9.486699   3.417928   2.126890
    31  H   10.021499  10.246721   9.340315   2.772042   2.123752
                   16         17         18         19         20
    16  N    0.000000
    17  H    4.856266   0.000000
    18  H    6.097148   2.813977   0.000000
    19  H    8.769717   4.158336   3.562448   0.000000
[...]
 03427,0.00001433,0.00001307,0.00000944,-0.00000060,0.00001268,-0.00000
 824,-0.00001006,0.00001420,-0.01415840,-0.05347494,-0.06341391,-0.0080
 1322,-0.02954896,-0.00759225,-0.00114297,0.00034069,0.00186377,0.00009
 058,0.00050578,0.00023449,0.00008615,0.00002571,-0.00005209,-0.0000065
 1,0.00000018,0.00001254,-0.00001442,-0.00000632,0.00000029,0.00001688,
 -0.00003072,-0.00000399,-0.00000143,-0.00000618,-0.00000214,0.00000171
 ,0.00000039,0.00000056,-0.00001374,0.00000630,0.00000241,0.01445995,0.
 06176028,0.06709177,-0.00817284,-0.00197697,-0.00212227,0.00084406,0.0
 2086872,-0.02727696,0.00076850,-0.00137746,0.00171268,-0.00004759,-0.0
 0032355,-0.00006699,-0.00023930,0.00009351,-0.00029513,0.00015390,-0.0
 0001332,0.00005195,0.00020279,-0.00012124,0.00018886,0.00017493,0.0000
 1819,0.00004804,0.00003399,-0.00003595,-0.00001969,0.00002267,0.000016
 98,-0.00000860,-0.00000930,0.00000692,0.00002115,-0.00002157,-0.000006
 95,-0.00000297,-0.00002072,-0.00001157,0.00002129,-0.06415601,0.039852
 92,-0.04554832,0.00340728,-0.01132719,0.01542051,0.00132625,-0.0004558
 6,0.00006710,-0.00164831,0.00052599,0.00078945,0.00006955,0.00005886,0
 .00002283,-0.00002456,0.00001097,0.00000673,0.00003763,-0.00010796,-0.
 00003131,-0.00001704,-0.00000195,0.00001401,0.00000733,-0.00002890,0.0
 0001628,-0.00000210,-0.00000112,0.00000142,-0.00001256,0.00001429,-0.0
 0001572,0.00231025,-0.00561345,0.00814501,0.06736689,-0.00042082,0.000
 80483,-0.00080518,-0.00216324,0.00014693,-0.00047026,0.00015516,-0.000
 02746,-0.00044485,0.00008191,0.00016234,-0.00021552,0.00009098,-0.0000
 4300,0.00017730,-0.00003657,0.00001654,-0.00004546,-0.00006672,-0.0000
 2446,-0.00012867,-0.00005763,-0.00004495,0.00000733,-0.00001916,0.0000
 1531,-0.00000605,-0.00001038,-0.00000832,0.00001034,0.00000755,-0.0000
 0215,-0.00000406,0.00000468,0.00000349,-0.00000404,0.00001611,0.000005
 34,-0.00000474,0.03955854,-0.14801214,0.12239733,-0.00345290,0.0077462
 5,-0.01093074,-0.00064031,0.00011651,0.00017608,0.00054656,0.00035678,
 -0.00026218,-0.00005942,-0.00000443,-0.00000175,0.00000729,0.00000739,
 0.00000656,-0.00001100,0.00002275,-0.00000768,0.00001065,-0.00000584,-
 0.00000561,-0.00000275,0.00000762,-0.00000871,0.00000136,0.00000048,-0
 .00000049,-0.00000046,0.00000033,0.00000807,0.00771102,-0.01726867,0.0
 2368141,-0.04193506,0.15491468,-0.00129926,0.00038253,0.00133085,-0.00
 149125,0.00123757,-0.00501577,0.00148344,-0.00039836,0.00026191,-0.000
 45932,-0.00059213,-0.00000119,-0.00006020,0.00002439,0.00006224,0.0000
 1619,0.00000218,-0.00002327,0.00001380,-0.00001327,-0.00004979,0.00013
 301,0.00007663,-0.00000132,0.00002452,-0.00004751,-0.00000070,0.000009
 50,0.00000460,-0.00003433,0.00002272,0.00001119,0.00001298,0.00000759,
 -0.00000221,0.00001701,-0.00002110,-0.00001219,0.00001808,-0.04473429,
 0.12068357,-0.20336312,-0.00781550,0.01635568,-0.02188623,-0.00006380,
 -0.00003246,0.00075860,0.00053050,0.00028197,0.00077044,-0.00003203,0.
 00005106,0.00002260,-0.00000102,0.00000482,0.00000420,0.00000175,-0.00
 000791,-0.00001277,0.00000546,-0.00001800,0.00000632,0.00000098,-0.000
 00742,0.00000165,-0.00000020,0.00000045,0.00000122,-0.00000610,0.00000
 258,-0.00000082,0.00226601,-0.00470073,0.00736329,0.04783663,-0.131462
 95,0.22221923,-0.00067957,-0.00076340,-0.00067539,0.00211978,0.0006601
 6,0.00081499,-0.00062153,-0.00029334,0.00015136,0.00013028,0.00005995,
 0.00007910,0.00004357,0.00003254,-0.00002503,-0.00006239,-0.00002451,0
 .00002396,-0.00004751,-0.00003479,0.00000508,-0.00000706,-0.00001097,-
 0.00001845,0.00000712,0.00000380,0.00000992,0.00001075,-0.00000391,0.0
 0000597,-0.00002252,-0.00001306,-0.00001247,-0.00001109,-0.00000019,-0
 .00000201,0.00000131,-0.00000379,-0.00001423,0.00311471,0.01520942,0.0
 0148802,-0.05081242,-0.01161323,-0.00356786,-0.01511165,-0.04076763,-0
 .00498756,0.00007534,0.00011052,-0.00006041,-0.00005109,0.00001591,-0.
 00001777,0.00000308,0.00001266,0.00000209,0.00001248,-0.00000261,0.000
 01576,0.00000586,-0.00000385,-0.00000649,0.00000292,0.00000552,0.00000
 584,-0.00000244,0.00000206,0.00000024,0.00000595,0.00000626,0.00000318
 ,-0.00136890,0.00052199,0.00282534,0.00030952,-0.00064498,-0.00030826,
 0.06387052,0.00034031,0.00068050,0.00071059,-0.00050880,0.00007617,-0.
 00115648,0.00022063,-0.00010986,0.00017947,-0.00001503,-0.00001177,-0.
 00003090,-0.00000859,0.00000693,-0.00000800,0.00001397,0.00000031,-0.0
 0000250,0.00000993,-0.00000292,0.00001304,0.00000541,0.00001461,-0.000
 00110,0.00000193,0.00000064,-0.00000440,0.00000022,0.00000388,-0.00000
 383,0.00000365,0.00000338,0.00000638,0.00000137,-0.00000018,-0.0000011
 8,-0.00000283,-0.00000219,0.00000813,0.00068174,-0.00554713,-0.0014960
 2,-0.02474788,-0.32517793,-0.04037070,-0.00087564,-0.00209244,0.000216
 08,-0.00003349,-0.00005433,0.00001962,0.00001045,0.00000439,0.00000648
 ,-0.00000104,0.00000019,-0.00000020,-0.00000055,-0.00000973,-0.0000050
 6,-0.00000271,-0.00000183,0.00000314,-0.00000062,-0.00000506,-0.000001
 18,0.00000008,-0.00000035,0.00000012,-0.00000203,0.00000025,-0.0000021
 1,0.00061666,0.00118025,-0.00073798,0.00002493,0.00102337,0.00004735,0
 .02671542,0.34161619,0.00002686,-0.00052567,0.00032863,-0.00109402,-0.
 00015300,-0.00014615,0.00016797,0.00044969,-0.00004933,-0.00001585,0.0
 0001577,-0.00002311,0.00005485,-0.00003525,0.00004688,-0.00002536,0.00
 000871,-0.00001177,-0.00002851,0.00004711,-0.00002825,0.00000976,-0.00
 001769,0.00000873,-0.00000426,0.00000477,-0.00000006,0.00000141,-0.000
 00094,0.00000191,-0.00000085,-0.00000269,-0.00000800,0.00000114,-0.000
 00089,0.00000607,0.00000361,0.00000547,-0.00000711,-0.00240346,-0.0286
 0018,-0.00450566,-0.00399397,-0.03955377,-0.05811013,-0.00050460,0.000
 09761,-0.00070581,-0.00000768,-0.00017231,-0.00001488,0.00003091,-0.00
 000617,0.00001306,0.00000728,-0.00000748,-0.00000256,0.00000050,0.0000
 0092,-0.00001623,-0.00000773,0.00000264,0.00000225,0.00000183,0.000003
 49,0.00000142,0.00000035,-0.00000003,0.00000052,0.00000350,-0.00000483
 ,0.00000360,0.00341050,-0.00149669,-0.00415531,-0.00110967,0.00024704,
 0.00130297,0.00126182,0.04566186,0.05932411,-0.00339079,0.00123321,-0.
 00328418,0.00183271,-0.00088671,0.00667051,0.00021583,0.00034189,-0.00
 325514,-0.00048203,-0.00000881,0.00004046,-0.00016198,-0.00014581,0.00
 028987,0.00011937,0.00005058,-0.00010476,0.00008333,0.00012031,-0.0002
 4235,-0.00003337,0.00001643,0.00000668,-0.00003125,-0.00004365,0.00001
 049,-0.00003595,-0.00002644,-0.00001661,0.00007243,0.00000491,0.000005
 25,0.00002356,0.00000886,0.00001430,0.00001439,-0.00000383,-0.00000091
 ,0.00743135,-0.00885028,0.00980094,-0.08030283,0.04794806,-0.07652641,
 -0.02388956,0.01615354,-0.02654503,0.00063550,-0.00005436,-0.00004024,
 -0.00002113,-0.00002891,0.00006505,-0.00001592,-0.00001515,0.00001948,
 -0.00001450,0.00011162,0.00002299,0.00003518,-0.00000378,-0.00002380,-
 0.00001346,0.00003478,-0.00002063,0.00000523,0.00000253,-0.00000191,-0
 .00002050,0.00000266,0.00001302,0.00036721,0.00034352,-0.00024926,-0.0
 0244432,0.00151932,0.00288908,0.00366304,-0.00171398,0.00405890,0.1003
 1465,0.00081549,-0.00184450,-0.00051670,0.00059587,0.00071474,0.000320
 43,-0.00020891,0.00018162,0.00018125,0.00010740,-0.00000272,0.00008397
 ,0.00002059,0.00002351,-0.00005423,-0.00003053,-0.00001556,0.00002418,
 -0.00001210,-0.00001791,0.00003082,0.00001579,-0.00000089,-0.00001135,
 0.00000929,-0.00000222,0.00000673,0.00002021,0.00000151,-0.00000761,-0
 .00002063,-0.00001244,-0.00000628,-0.00000868,-0.00000173,0.00000339,-
 0.00000794,-0.00000385,-0.00000548,-0.00494577,0.00641911,-0.00824406,
 0.05571771,-0.12949656,0.11441817,-0.00808374,0.00509038,-0.01042321,-
 0.00014773,0.00012996,-0.00001762,0.00001288,-0.00000385,-0.00002572,0
 .00000315,0.00000464,-0.00000273,0.00000636,0.00000128,-0.00000107,-0.
 00000191,-0.00000052,-0.00000094,0.00000526,0.00000661,0.00000973,-0.0
 0000228,0.00000101,0.00000122,0.00000438,0.00000384,-0.00000067,-0.000
 71278,0.00063185,0.00014875,0.00159805,0.00020671,-0.00191454,0.012271
 36,-0.01323670,0.02442328,-0.05521425,0.13029511,-0.00240493,-0.000676
 32,0.00312161,-0.00201725,0.00121587,-0.00432523,-0.00019682,-0.000087
 17,0.00077426,0.00017963,-0.00000343,0.00004706,0.00005555,0.00007894,
 -0.00012733,-0.00005836,-0.00002395,0.00004813,-0.00002251,-0.00005372
 ,0.00009704,0.00003266,-0.00001244,0.00001611,0.00001745,0.00000747,0.
 00001774,-0.00000228,-0.00000812,0.00002823,-0.00002876,-0.00000519,-0
 .00002469,-0.00001408,-0.00000429,-0.00000034,0.00000691,0.00001041,-0
 .00003270,-0.00584948,0.01418982,-0.02356465,-0.08531343,0.11233784,-0
 .22306495,0.00319333,-0.00311894,0.00398751,-0.00017975,0.00005781,0.0
 0009806,0.00002901,0.00001006,-0.00002026,0.00000501,0.00000446,-0.000
 00538,0.00001815,-0.00005912,-0.00000045,-0.00002044,0.00000348,0.0000
 0351,0.00000305,-0.00000049,0.00001398,-0.00000171,0.00000064,-0.00000
 085,0.00001213,-0.00000043,0.00000052,-0.00051740,-0.00017292,0.000843
 83,0.00225221,-0.00268466,-0.00327269,0.00326911,-0.00322756,0.0061658
 4,0.08674743,-0.11756042,0.23787197,0.00049088,0.00020745,0.00026472,-
 0.00110097,0.00034738,-0.00056650,0.00068500,-0.00001569,-0.00016597,-
 0.00022518,-0.00004629,-0.00009995,-0.00015345,-0.00008394,0.00017191,
 0.00016131,0.00004308,-0.00008660,0.00010470,0.00004988,-0.00009715,-0
 .00000472,0.00004282,-0.00000084,-0.00000999,-0.00002864,-0.00000831,-
 0.00002299,-0.00000752,-0.00002329,0.00006329,0.00001193,0.00001819,0.
 00001460,0.00000337,0.00001062,0.00000333,-0.00000950,0.00001853,0.001
 98643,-0.00100433,-0.00044440,-0.00400264,-0.03620857,-0.00439499,-0.0
 6794361,-0.05932113,-0.00742837,-0.00003234,-0.00005202,0.00014486,0.0
 0003350,-0.00000219,0.00001054,-0.00001953,-0.00001154,0.00001639,-0.0
 0001245,0.00003531,-0.00001210,0.00001304,-0.00001141,0.00000084,-0.00
 000687,0.00000807,-0.00001313,0.00000395,0.00000120,-0.00000055,-0.000
 02435,0.00000487,0.00000331,-0.00017843,0.00131486,0.00121668,0.000103
 23,0.00031930,0.00001135,-0.00730640,0.00033164,0.00015929,0.00100776,
 0.00022186,-0.00073448,0.06912955,0.00036729,-0.00022999,-0.00011582,-
 0.00043253,-0.00002167,-0.00023275,0.00049481,-0.00005569,-0.00010763,
 -0.00014740,0.00005231,-0.00006613,-0.00008481,-0.00002457,0.00006322,
 0.00009780,0.00000797,-0.00004554,0.00007250,-0.00000282,-0.00003116,-
 0.00000660,0.00004135,-0.00001292,0.00000503,-0.00002848,-0.00000378,0
 .00000856,-0.00000460,-0.00002602,0.00001989,-0.00000836,0.00001344,0.
 00000130,0.00000297,0.00000423,-0.00000989,-0.00001789,0.00001544,0.00
 140772,0.00187446,0.00152900,-0.00603049,-0.00249531,-0.00086405,-0.04
 821939,-0.39022037,-0.03924163,-0.00003000,0.00003565,0.00008148,0.000
 00974,-0.00000214,-0.00000056,-0.00000917,0.00000657,0.00000935,-0.000
 00370,0.00003181,0.00000899,0.00001632,-0.00000681,-0.00000891,-0.0000
 0316,0.00001412,0.00000041,-0.00000039,0.00000272,0.00000111,-0.000015
 17,0.00001549,-0.00000125,-0.00041545,-0.00024443,0.00016635,-0.000108
 02,-0.00030512,-0.00009969,-0.00005015,0.00170361,-0.00022275,0.000540
 99,0.00090158,-0.00024229,0.05699856,0.41087669,-0.00039808,0.00018152
 ,-0.00071051,0.00117605,-0.00051731,0.00045006,-0.00030537,-0.00000086
 ,-0.00002502,0.00012539,0.00004570,0.00001764,0.00013933,0.00002723,-0
 .00000843,-0.00011906,-0.00001739,0.00002742,-0.00009580,-0.00001916,-
 0.00001188,0.00000373,-0.00003072,0.00002307,-0.00000122,0.00001331,0.
 00001546,-0.00000999,-0.00000825,0.00003738,-0.00003022,-0.00000172,-0
 .00003190,-0.00000629,-0.00000288,0.00000129,0.00001485,0.00001628,-0.
 00004056,-0.00028497,0.00212008,0.00059014,-0.00119073,-0.00060816,0.0
 0013102,-0.00554426,-0.03892307,-0.07180249,0.00005564,0.00005175,-0.0
 0005925,-0.00001950,-0.00000158,-0.00000449,0.00001586,0.00000770,-0.0
 0000459,0.00000296,-0.00002098,0.00001693,-0.00000545,0.00000718,-0.00
 000917,0.00000246,-0.00000260,0.00000642,-0.00000078,0.00000016,-0.000
 00082,0.00001832,-0.00000579,0.00000722,0.00017535,-0.00100260,-0.0000
 4872,0.00011033,-0.00002541,-0.00019157,-0.00006396,0.00023166,0.00041
 777,-0.00068199,-0.00062353,-0.00020345,0.00752055,0.04300138,0.065232
 31,0.00036523,-0.00013873,-0.00112664,0.00089435,0.00017123,0.00359628
 ,-0.00092236,0.00007291,-0.00052282,0.00007269,-0.00005086,0.00020418,
 -0.00008336,0.00001528,-0.00005728,-0.00000330,-0.00001190,0.00002918,
 0.00001703,-0.00000742,0.00000692,-0.00000619,-0.00002174,0.00000267,-
 0.00000564,0.00000467,0.00000933,-0.00001493,-0.00001034,0.00001401,0.
 00000773,-0.00000364,-0.00001183,-0.00000159,0.00000109,0.00000024,0.0
 0001506,0.00000482,-0.00001630,-0.00723786,-0.00196637,-0.00291667,-0.
 01199672,0.01022947,0.02857003,-0.12141855,0.04501818,0.13016117,0.000
 02313,0.00003159,-0.00006268,-0.00002087,-0.00000095,0.00000548,-0.000
 01307,0.00000064,0.00000587,0.00000202,0.00001020,0.00000380,-0.000000
 35,0.00000303,-0.00000424,-0.00000177,0.00000834,-0.00000195,0.0000006
 8,0.00000167,-0.00000111,-0.00000050,0.00000035,0.00000545,0.00043267,
 -0.00004889,-0.00056576,0.00007725,-0.00022780,-0.00000644,0.00121292,
 -0.00067930,0.00023926,0.00050751,0.00110909,-0.00035519,0.00350253,-0
 .00118002,-0.00779711,0.12456611,-0.00011350,-0.00014328,0.00001121,0.
 00020081,0.00060215,0.00038601,-0.00030677,-0.00004181,0.00005070,0.00
 006350,-0.00005128,0.00005042,0.00002961,0.00003567,-0.00007208,-0.000
 04727,-0.00002320,0.00003193,-0.00002521,-0.00003106,0.00003752,0.0000
 1107,-0.00000626,-0.00000345,0.00000661,0.00000498,0.00000036,0.000014
 88,0.00000238,-0.00000156,-0.00001935,-0.00001051,-0.00000259,-0.00000
 580,-0.00000037,-0.00000269,-0.00000452,-0.00000482,0.00000004,-0.0017
 7552,-0.00046123,-0.00098001,-0.00169410,0.00280875,0.00823641,0.04075
 129,-0.09376023,-0.08051055,0.00001216,0.00005003,-0.00004049,-0.00002
 256,0.00000482,0.00000023,0.00000321,0.00001155,-0.00000172,0.00000455
 ,-0.00000644,0.00000206,-0.00000131,0.00000116,-0.00000180,0.00000167,
 0.00000145,0.00000474,-0.00000229,0.00000138,0.00000102,0.00000512,0.0
 0000489,-0.00000096,0.00007556,0.00031316,0.00005807,0.00026543,0.0000
 6889,-0.00016477,-0.00073102,-0.00024822,0.00061752,0.00078693,0.00005
 186,-0.00018975,0.01817518,-0.00669678,-0.03530357,-0.04439333,0.08986
 379,-0.00037352,0.00004998,0.00027599,-0.00016062,0.00012261,-0.000109
 77,-0.00033524,0.00000906,0.00010128,0.00010982,-0.00001889,0.00001082
 ,0.00015146,0.00002582,-0.00002681,-0.00012931,-0.00001800,0.00003476,
 -0.00010073,-0.00001019,0.00000688,0.00002195,-0.00003483,0.00001754,0
 .00000056,0.00001556,0.00001285,-0.00000061,-0.00000466,0.00003154,-0.
 00003510,-0.00000475,-0.00003133,-0.00000769,-0.00000389,0.00000397,0.
 00001019,0.00001488,-0.00003727,-0.00028335,-0.00040564,0.00000135,0.0
 0173112,0.00310848,0.00623668,0.12020617,-0.08270869,-0.31571524,0.000
 05753,0.00002576,-0.00009020,-0.00001996,-0.00000273,0.00000250,0.0000
 1780,0.00000505,-0.00000652,0.00000947,-0.00002025,0.00000713,-0.00000
 838,0.00000643,-0.00000645,0.00000433,-0.00000181,0.00000922,-0.000001
 35,0.00000010,0.,0.00001966,-0.00000684,0.00000579,-0.00004129,0.00002
 799,-0.00008733,-0.00016706,-0.00002050,0.00010441,-0.00017007,0.00016
 903,0.00030236,-0.00065933,0.00001072,0.00074506,-0.00020363,0.0002865
 1,-0.00063578,-0.13286060,0.08965386,0.33063341,0.00005155,0.00006024,
 0.00160494,-0.00230776,-0.00014009,-0.00168579,0.00078748,-0.00008191,
 0.00009115,-0.00020614,0.00002755,-0.00010112,-0.00016510,-0.00005292,
 0.00013126,0.00017136,0.00003352,-0.00007990,0.00011970,0.00002341,-0.
 00006316,-0.00000910,0.00004849,-0.00000685,-0.00000255,-0.00003090,-0
 .00000699,-0.00001011,-0.00000396,-0.00003025,0.00005301,0.00000645,0.
 00002081,0.00000823,0.00000270,0.00000901,-0.00000405,-0.00001500,0.00
 002186,0.00286978,0.00068589,-0.00050334,-0.01462021,0.01736286,-0.026
 32184,-0.12818207,0.07984456,-0.11938808,-0.00008052,-0.00001358,0.000
 16803,0.00003279,0.00000305,0.00000194,-0.00002088,-0.00000772,0.00001
 723,-0.00000629,0.00002295,-0.00000989,0.00001157,-0.00001331,0.000002
 26,-0.00000442,0.00000815,-0.00000847,0.00000254,0.00000154,0.00000006
 ,-0.00002560,0.00000990,0.00000066,-0.00022135,0.00013280,0.00021164,-
 0.00039982,-0.00028126,0.00104624,0.00151540,-0.00038583,-0.00024379,-
 0.00547143,-0.00313747,0.00189523,0.00374083,-0.00329415,0.00719394,0.
 01003016,-0.01126504,0.01321779,0.13234299,-0.00058232,0.00006829,0.00
 020127,0.00059541,-0.00011007,-0.00039172,-0.00035575,-0.00008873,0.00
 027406,0.00013860,0.00001671,0.00004886,0.00006020,0.00007374,-0.00012
 499,-0.00007130,-0.00003446,0.00005111,-0.00003975,-0.00006536,0.00007
 491,-0.00000153,-0.00000822,0.00000110,0.00001093,0.00001345,0.0000027
 0,0.00001392,0.00000335,0.00000988,-0.00003271,-0.00000928,-0.00000691
 ,-0.00000989,-0.00000155,-0.00000769,-0.00000243,-0.00000130,-0.000006
 53,-0.00017721,0.00001561,-0.00065946,-0.00129686,0.00672524,-0.008145
 70,0.07309859,-0.14653638,0.12175973,0.00000138,0.00008124,-0.00005876
 ,-0.00001957,0.00000776,-0.00001280,0.00000578,0.00001679,-0.00000530,
 0.00000491,-0.00002890,0.00000821,-0.00000565,0.00000372,-0.00000120,0
 .00000283,-0.00000472,0.00000770,-0.00000286,0.00000085,0.00000056,0.0
 0000976,0.00000472,-0.00000248,0.00026122,-0.00044254,0.00006172,0.000
 09076,0.00012000,0.00030759,-0.00066610,0.00018597,-0.00078553,-0.0022
 2419,-0.00002590,0.00021444,0.01868601,-0.01520228,0.03141165,-0.00794
 125,0.00765857,-0.01027016,-0.07955092,0.14756369,0.00010536,-0.000023
 76,-0.00067711,0.00040179,-0.00000072,0.00009910,0.00017540,0.00001015
 ,-0.00022612,-0.00001956,0.00002936,-0.00003218,0.00008373,-0.00003685
 ,0.00013102,-0.00004926,0.00000738,-0.00003046,-0.00006017,0.00002915,
 -0.00009735,0.00000497,-0.00000555,0.00000894,-0.00000719,-0.00000418,
 0.00000702,-0.00000929,-0.00000746,0.00001126,0.00000066,0.00000006,-0
 .00001659,0.00000250,-0.00000047,0.00000860,0.00000858,0.00000612,-0.0
 0002048,0.00039220,-0.00090661,0.00246461,-0.00285685,-0.00328643,0.00
 353478,-0.11022421,0.12366266,-0.25675505,0.00010020,-0.00001137,0.000
 02779,-0.00000287,-0.00000061,0.00000284,0.00001085,0.00000074,0.00000
 415,-0.00000343,0.00001074,0.00000401,0.00000401,-0.00000258,-0.000007
 14,-0.00000010,0.00000451,-0.00000029,0.00000058,0.00000084,-0.0000000
 3,0.00000536,-0.00000274,0.00000882,0.00005154,-0.00014976,0.00005319,
 -0.00006179,0.00082806,-0.00040441,-0.00003178,-0.00022375,-0.00014176
 ,0.00099809,-0.00024649,0.00076250,0.00471251,-0.00385804,0.00681450,-
 0.01654724,0.01813388,-0.02179685,0.12281540,-0.13395628,0.26626269\\0
 .00000042,-0.00000299,0.00000309,0.00000717,0.00000653,-0.00000752,-0.
 00000251,-0.00000139,0.00000353,-0.00000181,-0.00000142,0.00000002,0.0
 0000866,0.00000123,-0.00000177,-0.00000032,-0.00000615,0.00001244,-0.0
 0000560,0.00000074,-0.00000221,0.00000027,-0.00000264,-0.00000012,-0.0
 0000375,0.00000498,0.00000139,-0.00000019,-0.00000141,-0.00000056,0.00
 000054,-0.00000043,-0.00000148,0.00000430,0.00000089,0.00000105,-0.000
 00595,0.00000120,-0.00000411,-0.00000258,0.00000415,0.00000209,0.00000
 415,0.00000087,0.00000091,-0.00000137,0.00000050,-0.00000015,0.0000012
 8,0.00000077,-0.00000024,0.00000004,-0.00000027,0.00000040,0.00000040,
 0.00000112,-0.00000004,-0.00000172,-0.00000013,-0.00000089,0.00000032,
 0.00000003,-0.00000050,-0.00000015,-0.00000097,-0.00000016,0.00000055,
 -0.00000039,0.00000001,0.00000237,-0.00000071,-0.00000429,-0.00000040,
 -0.00000208,0.00000036,-0.00000186,-0.00000162,-0.00000049,-0.00000057
 ,0.00000055,0.00000015,-0.00000080,-0.00000128,-0.00000107,-0.00000009
 ,-0.00000076,-0.00000023,-0.00000012,0.00000047,0.00000089,-0.00000069
 ,0.00000060,-0.00000050\\\@


 THE WISE MAN HAS THE POWER TO REASON AWAY
 WHAT A FOOL BELIEVES.
                     - DOOBIE BROTHERS
 Job cpu time:       0 days  1 hours  1 minutes 16.8 seconds.
 File lengths (MBytes):  RWF=    277 Int=      0 D2E=      0 Chk=      8 Scr=      1
 Normal termination of Gaussian 09 at Tue Jul 27 02:08:13 2021.
