 Entering Gaussian System, Link 0=g09
 Input=opt_freq-conf-214.com
 Output=opt_freq-conf-214.log
 Initial command:
 /aerosol/software/g09/l1.exe "/scratch/nicole/10527/Gau-551761.inp" -scrdir="/scratch/nicole/10527/"
 Entering Link 1 = /aerosol/software/g09/l1.exe PID=    551765.
  
 Copyright (c) 1988,1990,1992,1993,1995,1998,2003,2009,2013,
            Gaussian, Inc.  All Rights Reserved.
  
 This is part of the Gaussian(R) 09 program.  It is based on
 the Gaussian(R) 03 system (copyright 2003, Gaussian, Inc.),
 the Gaussian(R) 98 system (copyright 1998, Gaussian, Inc.),
 the Gaussian(R) 94 system (copyright 1995, Gaussian, Inc.),
 the Gaussian 92(TM) system (copyright 1992, Gaussian, Inc.),
 the Gaussian 90(TM) system (copyright 1990, Gaussian, Inc.),
 the Gaussian 88(TM) system (copyright 1988, Gaussian, Inc.),
 the Gaussian 86(TM) system (copyright 1986, Carnegie Mellon
 University), and the Gaussian 82(TM) system (copyright 1983,
 Carnegie Mellon University). Gaussian is a federally registered
 trademark of Gaussian, Inc.
  
 This software contains proprietary and confidential information,
 including trade secrets, belonging to Gaussian, Inc.
  
 This software is provided under written license and may be
 used, copied, transmitted, or stored only in accord with that
 written license.
  
 The following legend is applicable only to US Government
 contracts under FAR:
  
                    RESTRICTED RIGHTS LEGEND
  
 Use, reproduction and disclosure by the US Government is
 subject to restrictions as set forth in subparagraphs (a)
 and (c) of the Commercial Computer Software - Restricted
 Rights clause in FAR 52.227-19.
  
 Gaussian, Inc.
 340 Quinnipiac St., Bldg. 40, Wallingford CT 06492
  
  
 ---------------------------------------------------------------
 Warning -- This program may not be used in any manner that
 competes with the business of Gaussian, Inc. or will provide
 assistance to any competitor of Gaussian, Inc.  The licensee
 of this program is prohibited from giving any competitor of
 Gaussian, Inc. access to this program.  By using this program,
 the user acknowledges that Gaussian, Inc. is engaged in the
 business of creating and licensing software in the field of
 computational chemistry and represents and warrants to the
 licensee that it is not a competitor of Gaussian, Inc. and that
 it will not use this program in any manner prohibited above.
 ---------------------------------------------------------------
  

 Cite this work as:
 Gaussian 09, Revision D.01,
 M. J. Frisch, G. W. Trucks, H. B. Schlegel, G. E. Scuseria, 
 M. A. Robb, J. R. Cheeseman, G. Scalmani, V. Barone, B. Mennucci, 
 G. A. Petersson, H. Nakatsuji, M. Caricato, X. Li, H. P. Hratchian, 
 A. F. Izmaylov, J. Bloino, G. Zheng, J. L. Sonnenberg, M. Hada, 
 M. Ehara, K. Toyota, R. Fukuda, J. Hasegawa, M. Ishida, T. Nakajima, 
 Y. Honda, O. Kitao, H. Nakai, T. Vreven, J. A. Montgomery, Jr., 
 J. E. Peralta, F. Ogliaro, M. Bearpark, J. J. Heyd, E. Brothers, 
 K. N. Kudin, V. N. Staroverov, T. Keith, R. Kobayashi, J. Normand, 
 K. Raghavachari, A. Rendell, J. C. Burant, S. S. Iyengar, J. Tomasi, 
 M. Cossi, N. Rega, J. M. Millam, M. Klene, J. E. Knox, J. B. Cross, 
 V. Bakken, C. Adamo, J. Jaramillo, R. Gomperts, R. E. Stratmann, 
 O. Yazyev, A. J. Austin, R. Cammi, C. Pomelli, J. W. Ochterski, 
 R. L. Martin, K. Morokuma, V. G. Zakrzewski, G. A. Voth, 
 P. Salvador, J. J. Dannenberg, S. Dapprich, A. D. Daniels, 
 O. Farkas, J. B. Foresman, J. V. Ortiz, J. Cioslowski, 
 and D. J. Fox, Gaussian, Inc., Wallingford CT, 2013.
 
 ******************************************
 Gaussian 09:  ES64L-G09RevD.01 24-Apr-2013
                27-Jul-2021 
 ******************************************
 %mem=2gb
 %nproc=4
 Will use up to    4 processors via shared memory.
 %chk=conf-214.chk
 ----------------------------------------------------------------------
 # B3LYP/6-31G(d) EmpiricalDispersion=GD3BJ opt=calcfc freq=noraman nos
 ymm integral(ultrafinegrid)
 ----------------------------------------------------------------------
 1/10=4,14=-1,18=20,19=15,26=4,38=1/1,3;
 2/9=110,12=2,15=1,17=6,18=5,40=1/2;
 3/5=1,6=6,7=1,11=2,16=1,25=1,30=1,71=2,74=-5,75=-5,124=41,140=1/1,2,3;
 4//1;
 5/5=2,38=5/2;
 8/6=4,10=90,11=11/1;
 11/6=1,8=1,9=11,15=111,16=1,31=1/1,2,10;
 10/6=1,13=1,31=1/2;
 6/7=2,8=2,9=2,10=2,28=1/1;
 7/10=1,18=20,25=1,30=1/1,2,3,16;
 1/10=4,14=-1,18=20,19=15,26=4/3(2);
 2/9=110,15=1/2;
 99//99;
 2/9=110,15=1/2;
 3/5=1,6=6,7=1,11=2,16=1,25=1,30=1,71=1,74=-5,75=-5,124=41/1,2,3;
 4/5=5,16=3,69=1/1;
 5/5=2,38=5/2;
 7/30=1/1,2,3,16;
 1/14=-1,18=20,19=15,26=4/3(-5);
 2/9=110,15=1/2;
 6/7=2,8=2,9=2,10=2,19=2,28=1/1;
 99/9=1/99;
 ------------------------------------------------------------
 Candidate Structure: Conf:214 OPT and FREQ calc in gas phase
 ------------------------------------------------------------
 Symbolic Z-matrix:
 Charge =  1 Multiplicity = 1
 O                    -1.0496   -0.53171  -1.26429 
 C                    -1.10935  -0.17362  -0.09274 
 N                    -0.07815  -0.35767   0.78573 
 C                     1.02197  -1.24123   0.46697 
 C                     0.99565  -2.41586   1.43875 
 O                     1.65977  -3.52102   1.03213 
 O                     0.4677   -2.37978   2.51493 
 C                     2.39123  -0.554     0.56355 
 C                     2.65125   0.44626  -0.52716 
 C                     1.96614   0.8207   -1.6442 
 N                     2.65836   1.78482  -2.35484 
 C                     3.75716   1.98695  -1.66937 
 N                     3.80598   1.20777  -0.55842 
 C                    -2.2992    0.57826   0.4719 
 C                    -3.58898   0.26692  -0.27238 
 N                    -4.74081   1.0379    0.26778 
 H                    -0.28411  -0.2903    1.77378 
 H                     0.86987  -1.58714  -0.55552 
 H                     1.993    -3.39268   0.13839 
 H                     2.48575  -0.07101   1.5373 
 H                     3.17116  -1.32253   0.52594 
 H                     0.99862   0.45657  -1.9497 
 H                     4.54429   2.67546  -1.92422 
 H                     4.54554   1.18272   0.12319 
 H                    -2.08898   1.64809   0.38756 
 H                    -2.4075    0.3501    1.53438 
 H                    -3.79994  -0.79962  -0.20382 
 H                    -3.44895   0.49931  -1.32737 
 H                    -4.57879   2.04215   0.19387 
 H                    -5.60488   0.83192  -0.23548 
 H                    -4.90422   0.82239   1.25117 
 

 GradGradGradGradGradGradGradGradGradGradGradGradGradGradGradGradGradGrad
 Berny optimization.
 Initialization pass.
                           ----------------------------
                           !    Initial Parameters    !
                           ! (Angstroms and Degrees)  !
 --------------------------                            --------------------------
 ! Name  Definition              Value          Derivative Info.                !
 --------------------------------------------------------------------------------
 ! R1    R(1,2)                  1.2265         calculate D2E/DX2 analytically  !
 ! R2    R(2,3)                  1.3671         calculate D2E/DX2 analytically  !
 ! R3    R(2,14)                 1.5165         calculate D2E/DX2 analytically  !
 ! R4    R(3,4)                  1.4466         calculate D2E/DX2 analytically  !
 ! R5    R(3,17)                 1.0115         calculate D2E/DX2 analytically  !
 ! R6    R(4,5)                  1.5247         calculate D2E/DX2 analytically  !
 ! R7    R(4,8)                  1.5351         calculate D2E/DX2 analytically  !
 ! R8    R(4,18)                 1.0901         calculate D2E/DX2 analytically  !
 ! R9    R(5,6)                  1.3519         calculate D2E/DX2 analytically  !
 ! R10   R(5,7)                  1.1993         calculate D2E/DX2 analytically  !
 ! R11   R(6,19)                 0.9624         calculate D2E/DX2 analytically  !
 ! R12   R(8,9)                  1.5026         calculate D2E/DX2 analytically  !
 ! R13   R(8,20)                 1.0911         calculate D2E/DX2 analytically  !
 ! R14   R(8,21)                 1.0956         calculate D2E/DX2 analytically  !
 ! R15   R(9,10)                 1.3628         calculate D2E/DX2 analytically  !
 ! R16   R(9,13)                 1.3836         calculate D2E/DX2 analytically  !
 ! R17   R(10,11)                1.3834         calculate D2E/DX2 analytically  !
 ! R18   R(10,22)                1.078          calculate D2E/DX2 analytically  !
 ! R19   R(11,12)                1.3108         calculate D2E/DX2 analytically  !
 ! R20   R(12,13)                1.3578         calculate D2E/DX2 analytically  !
 ! R21   R(12,23)                1.0764         calculate D2E/DX2 analytically  !
 ! R22   R(13,24)                1.0061         calculate D2E/DX2 analytically  !
 ! R23   R(14,15)                1.5213         calculate D2E/DX2 analytically  !
 ! R24   R(14,25)                1.0935         calculate D2E/DX2 analytically  !
 ! R25   R(14,26)                1.0921         calculate D2E/DX2 analytically  !
 ! R26   R(15,16)                1.4876         calculate D2E/DX2 analytically  !
 ! R27   R(15,27)                1.0894         calculate D2E/DX2 analytically  !
 ! R28   R(15,28)                1.0893         calculate D2E/DX2 analytically  !
 ! R29   R(16,29)                1.0199         calculate D2E/DX2 analytically  !
 ! R30   R(16,30)                1.0209         calculate D2E/DX2 analytically  !
 ! R31   R(16,31)                1.0199         calculate D2E/DX2 analytically  !
 ! A1    A(1,2,3)              122.5296         calculate D2E/DX2 analytically  !
 ! A2    A(1,2,14)             122.5885         calculate D2E/DX2 analytically  !
 ! A3    A(3,2,14)             114.7914         calculate D2E/DX2 analytically  !
 ! A4    A(2,3,4)              120.9497         calculate D2E/DX2 analytically  !
 ! A5    A(2,3,17)             117.7175         calculate D2E/DX2 analytically  !
 ! A6    A(4,3,17)             114.253          calculate D2E/DX2 analytically  !
 ! A7    A(3,4,5)              108.4804         calculate D2E/DX2 analytically  !
 ! A8    A(3,4,8)              113.0197         calculate D2E/DX2 analytically  !
 ! A9    A(3,4,18)             107.1214         calculate D2E/DX2 analytically  !
 ! A10   A(5,4,8)              108.6745         calculate D2E/DX2 analytically  !
 ! A11   A(5,4,18)             110.5452         calculate D2E/DX2 analytically  !
 ! A12   A(8,4,18)             108.9981         calculate D2E/DX2 analytically  !
 ! A13   A(4,5,6)              115.4415         calculate D2E/DX2 analytically  !
 ! A14   A(4,5,7)              123.8043         calculate D2E/DX2 analytically  !
 ! A15   A(6,5,7)              120.7138         calculate D2E/DX2 analytically  !
 ! A16   A(5,6,19)             109.8994         calculate D2E/DX2 analytically  !
 ! A17   A(4,8,9)              113.9978         calculate D2E/DX2 analytically  !
 ! A18   A(4,8,20)             109.366          calculate D2E/DX2 analytically  !
 ! A19   A(4,8,21)             108.5884         calculate D2E/DX2 analytically  !
 ! A20   A(9,8,20)             109.7652         calculate D2E/DX2 analytically  !
 ! A21   A(9,8,21)             108.5944         calculate D2E/DX2 analytically  !
 ! A22   A(20,8,21)            106.2301         calculate D2E/DX2 analytically  !
 ! A23   A(8,9,10)             133.699          calculate D2E/DX2 analytically  !
 ! A24   A(8,9,13)             121.8173         calculate D2E/DX2 analytically  !
 ! A25   A(10,9,13)            104.467          calculate D2E/DX2 analytically  !
 ! A26   A(9,10,11)            111.1605         calculate D2E/DX2 analytically  !
 ! A27   A(9,10,22)            126.2051         calculate D2E/DX2 analytically  !
 ! A28   A(11,10,22)           122.6126         calculate D2E/DX2 analytically  !
 ! A29   A(10,11,12)           104.9693         calculate D2E/DX2 analytically  !
 ! A30   A(11,12,13)           111.6857         calculate D2E/DX2 analytically  !
 ! A31   A(11,12,23)           126.0041         calculate D2E/DX2 analytically  !
 ! A32   A(13,12,23)           122.3101         calculate D2E/DX2 analytically  !
 ! A33   A(9,13,12)            107.7173         calculate D2E/DX2 analytically  !
 ! A34   A(9,13,24)            125.7679         calculate D2E/DX2 analytically  !
 ! A35   A(12,13,24)           126.5148         calculate D2E/DX2 analytically  !
 ! A36   A(2,14,15)            112.4305         calculate D2E/DX2 analytically  !
 ! A37   A(2,14,25)            107.7876         calculate D2E/DX2 analytically  !
 ! A38   A(2,14,26)            109.6605         calculate D2E/DX2 analytically  !
 ! A39   A(15,14,25)           108.9935         calculate D2E/DX2 analytically  !
 ! A40   A(15,14,26)           110.4352         calculate D2E/DX2 analytically  !
 ! A41   A(25,14,26)           107.3665         calculate D2E/DX2 analytically  !
 ! A42   A(14,15,16)           111.8848         calculate D2E/DX2 analytically  !
 ! A43   A(14,15,27)           109.4968         calculate D2E/DX2 analytically  !
 ! A44   A(14,15,28)           108.734          calculate D2E/DX2 analytically  !
 ! A45   A(16,15,27)           109.5496         calculate D2E/DX2 analytically  !
 ! A46   A(16,15,28)           109.9155         calculate D2E/DX2 analytically  !
 ! A47   A(27,15,28)           107.1398         calculate D2E/DX2 analytically  !
 ! A48   A(15,16,29)           111.1616         calculate D2E/DX2 analytically  !
 ! A49   A(15,16,30)           111.825          calculate D2E/DX2 analytically  !
 ! A50   A(15,16,31)           111.386          calculate D2E/DX2 analytically  !
 ! A51   A(29,16,30)           107.301          calculate D2E/DX2 analytically  !
 ! A52   A(29,16,31)           107.6609         calculate D2E/DX2 analytically  !
 ! A53   A(30,16,31)           107.2807         calculate D2E/DX2 analytically  !
 ! D1    D(1,2,3,4)            -13.7324         calculate D2E/DX2 analytically  !
 ! D2    D(1,2,3,17)          -162.6151         calculate D2E/DX2 analytically  !
 ! D3    D(14,2,3,4)           169.6455         calculate D2E/DX2 analytically  !
 ! D4    D(14,2,3,17)           20.7628         calculate D2E/DX2 analytically  !
 ! D5    D(1,2,14,15)           27.4281         calculate D2E/DX2 analytically  !
 ! D6    D(1,2,14,25)          -92.7184         calculate D2E/DX2 analytically  !
 ! D7    D(1,2,14,26)          150.6984         calculate D2E/DX2 analytically  !
 ! D8    D(3,2,14,15)         -155.952          calculate D2E/DX2 analytically  !
 ! D9    D(3,2,14,25)           83.9015         calculate D2E/DX2 analytically  !
 ! D10   D(3,2,14,26)          -32.6817         calculate D2E/DX2 analytically  !
 ! D11   D(2,3,4,5)           -114.4931         calculate D2E/DX2 analytically  !
 ! D12   D(2,3,4,8)            124.9223         calculate D2E/DX2 analytically  !
 ! D13   D(2,3,4,18)             4.8568         calculate D2E/DX2 analytically  !
 ! D14   D(17,3,4,5)            35.3894         calculate D2E/DX2 analytically  !
 ! D15   D(17,3,4,8)           -85.1953         calculate D2E/DX2 analytically  !
 ! D16   D(17,3,4,18)          154.7393         calculate D2E/DX2 analytically  !
 ! D17   D(3,4,5,6)            159.6472         calculate D2E/DX2 analytically  !
 ! D18   D(3,4,5,7)            -22.6568         calculate D2E/DX2 analytically  !
 ! D19   D(8,4,5,6)            -77.1104         calculate D2E/DX2 analytically  !
 ! D20   D(8,4,5,7)            100.5856         calculate D2E/DX2 analytically  !
 ! D21   D(18,4,5,6)            42.4697         calculate D2E/DX2 analytically  !
 ! D22   D(18,4,5,7)          -139.8342         calculate D2E/DX2 analytically  !
 ! D23   D(3,4,8,9)            -70.9751         calculate D2E/DX2 analytically  !
 ! D24   D(3,4,8,20)            52.3124         calculate D2E/DX2 analytically  !
 ! D25   D(3,4,8,21)           167.8289         calculate D2E/DX2 analytically  !
 ! D26   D(5,4,8,9)            168.5509         calculate D2E/DX2 analytically  !
 ! D27   D(5,4,8,20)           -68.1617         calculate D2E/DX2 analytically  !
 ! D28   D(5,4,8,21)            47.3549         calculate D2E/DX2 analytically  !
 ! D29   D(18,4,8,9)            48.0098         calculate D2E/DX2 analytically  !
 ! D30   D(18,4,8,20)          171.2972         calculate D2E/DX2 analytically  !
 ! D31   D(18,4,8,21)          -73.1862         calculate D2E/DX2 analytically  !
 ! D32   D(4,5,6,19)            -4.2457         calculate D2E/DX2 analytically  !
 ! D33   D(7,5,6,19)           177.9811         calculate D2E/DX2 analytically  !
 ! D34   D(4,8,9,10)            -5.0285         calculate D2E/DX2 analytically  !
 ! D35   D(4,8,9,13)           176.7125         calculate D2E/DX2 analytically  !
 ! D36   D(20,8,9,10)         -128.0989         calculate D2E/DX2 analytically  !
 ! D37   D(20,8,9,13)           53.642          calculate D2E/DX2 analytically  !
 ! D38   D(21,8,9,10)          116.1642         calculate D2E/DX2 analytically  !
 ! D39   D(21,8,9,13)          -62.0949         calculate D2E/DX2 analytically  !
 ! D40   D(8,9,10,11)         -178.6068         calculate D2E/DX2 analytically  !
 ! D41   D(8,9,10,22)            3.0695         calculate D2E/DX2 analytically  !
 ! D42   D(13,9,10,11)          -0.1345         calculate D2E/DX2 analytically  !
 ! D43   D(13,9,10,22)        -178.4582         calculate D2E/DX2 analytically  !
 ! D44   D(8,9,13,12)          178.7672         calculate D2E/DX2 analytically  !
 ! D45   D(8,9,13,24)           -1.1857         calculate D2E/DX2 analytically  !
 ! D46   D(10,9,13,12)           0.067          calculate D2E/DX2 analytically  !
 ! D47   D(10,9,13,24)        -179.8859         calculate D2E/DX2 analytically  !
 ! D48   D(9,10,11,12)           0.1507         calculate D2E/DX2 analytically  !
 ! D49   D(22,10,11,12)        178.5449         calculate D2E/DX2 analytically  !
 ! D50   D(10,11,12,13)         -0.1052         calculate D2E/DX2 analytically  !
 ! D51   D(10,11,12,23)        179.8774         calculate D2E/DX2 analytically  !
 ! D52   D(11,12,13,9)           0.0256         calculate D2E/DX2 analytically  !
 ! D53   D(11,12,13,24)        179.978          calculate D2E/DX2 analytically  !
 ! D54   D(23,12,13,9)        -179.9578         calculate D2E/DX2 analytically  !
 ! D55   D(23,12,13,24)         -0.0055         calculate D2E/DX2 analytically  !
 ! D56   D(2,14,15,16)        -178.4771         calculate D2E/DX2 analytically  !
 ! D57   D(2,14,15,27)          59.8705         calculate D2E/DX2 analytically  !
 ! D58   D(2,14,15,28)         -56.8858         calculate D2E/DX2 analytically  !
 ! D59   D(25,14,15,16)        -59.0308         calculate D2E/DX2 analytically  !
 ! D60   D(25,14,15,27)        179.3167         calculate D2E/DX2 analytically  !
 ! D61   D(25,14,15,28)         62.5605         calculate D2E/DX2 analytically  !
 ! D62   D(26,14,15,16)         58.687          calculate D2E/DX2 analytically  !
 ! D63   D(26,14,15,27)        -62.9654         calculate D2E/DX2 analytically  !
 ! D64   D(26,14,15,28)       -179.7217         calculate D2E/DX2 analytically  !
 ! D65   D(14,15,16,29)         59.7998         calculate D2E/DX2 analytically  !
 ! D66   D(14,15,16,30)        179.7036         calculate D2E/DX2 analytically  !
 ! D67   D(14,15,16,31)        -60.2646         calculate D2E/DX2 analytically  !
 ! D68   D(27,15,16,29)       -178.5782         calculate D2E/DX2 analytically  !
 ! D69   D(27,15,16,30)        -58.6744         calculate D2E/DX2 analytically  !
 ! D70   D(27,15,16,31)         61.3575         calculate D2E/DX2 analytically  !
 ! D71   D(28,15,16,29)        -61.1086         calculate D2E/DX2 analytically  !
 ! D72   D(28,15,16,30)         58.7951         calculate D2E/DX2 analytically  !
 ! D73   D(28,15,16,31)        178.827          calculate D2E/DX2 analytically  !
 --------------------------------------------------------------------------------
 Trust Radius=3.00D-01 FncErr=1.00D-07 GrdErr=1.00D-06
 Number of steps in this run=    167 maximum allowed number of steps=    186.
 GradGradGradGradGradGradGradGradGradGradGradGradGradGradGradGradGradGrad

                          Input orientation:                          
 ---------------------------------------------------------------------
 Center     Atomic      Atomic             Coordinates (Angstroms)
 Number     Number       Type             X           Y           Z
 ---------------------------------------------------------------------
      1          8           0       -1.049596   -0.531706   -1.264292
      2          6           0       -1.109346   -0.173623   -0.092736
      3          7           0       -0.078151   -0.357673    0.785728
      4          6           0        1.021972   -1.241229    0.466970
      5          6           0        0.995651   -2.415864    1.438746
      6          8           0        1.659768   -3.521016    1.032134
      7          8           0        0.467700   -2.379782    2.514929
      8          6           0        2.391234   -0.553995    0.563546
      9          6           0        2.651246    0.446263   -0.527163
     10          6           0        1.966139    0.820698   -1.644203
     11          7           0        2.658360    1.784824   -2.354840
     12          6           0        3.757165    1.986952   -1.669368
     13          7           0        3.805978    1.207767   -0.558422
     14          6           0       -2.299205    0.578256    0.471900
     15          6           0       -3.588979    0.266920   -0.272377
     16          7           0       -4.740810    1.037903    0.267777
     17          1           0       -0.284107   -0.290299    1.773778
     18          1           0        0.869867   -1.587145   -0.555517
     19          1           0        1.992998   -3.392677    0.138393
     20          1           0        2.485753   -0.071009    1.537297
     21          1           0        3.171155   -1.322535    0.525938
     22          1           0        0.998621    0.456573   -1.949698
     23          1           0        4.544285    2.675463   -1.924222
     24          1           0        4.545540    1.182715    0.123195
     25          1           0       -2.088981    1.648089    0.387562
     26          1           0       -2.407496    0.350098    1.534384
     27          1           0       -3.799939   -0.799621   -0.203819
     28          1           0       -3.448949    0.499307   -1.327374
     29          1           0       -4.578785    2.042150    0.193870
     30          1           0       -5.604884    0.831919   -0.235479
     31          1           0       -4.904217    0.822388    1.251171
 ---------------------------------------------------------------------
                    Distance matrix (angstroms):
                    1          2          3          4          5
     1  O    0.000000
     2  C    1.226515   0.000000
     3  N    2.275209   1.367090   0.000000
     4  C    2.791431   2.448585   1.446564   0.000000
     5  C    3.878080   3.435709   2.411563   1.524733   0.000000
     6  O    4.642219   4.487579   3.617709   2.433849   1.351941
     7  O    4.472145   3.762197   2.716066   2.407832   1.199251
     8  C    3.896254   3.581822   2.487120   1.535088   2.485998
     9  C    3.898207   3.836019   3.133624   2.547639   3.846761
    10  C    3.326858   3.585294   3.387070   3.098394   4.574031
    11  N    4.506056   4.811262   4.684223   4.449424   5.899295
    12  C    5.441752   5.553087   5.121953   4.739870   6.055669
    13  N    5.205825   5.126940   4.398158   3.847037   5.001732
    14  C    2.409959   1.516542   2.430541   3.786920   4.555834
    15  C    2.840804   2.524862   3.719626   4.907343   5.580690
    16  N    4.293713   3.845165   4.894517   6.200304   6.797548
    17  H    3.142311   2.044140   1.011534   2.077945   2.503608
    18  H    2.302314   2.475782   2.051652   1.090080   2.163258
    19  H    4.405684   4.476635   3.730945   2.383187   1.907821
    20  H    4.534295   3.948705   2.687124   2.158163   2.780011
    21  H    4.652427   4.474980   3.399476   2.151529   2.600271
    22  H    2.375220   2.879060   3.050408   2.953534   4.442124
    23  H    6.481739   6.590537   6.157163   5.784892   7.058610
    24  H    6.014142   5.819280   4.918360   4.290597   5.223233
    25  H    2.925825   2.123442   2.867936   4.246469   5.209190
    26  H    3.233275   2.146392   2.547013   3.928479   4.386468
    27  H    2.959860   2.764689   3.876368   4.888334   5.320522
    28  H    2.612253   2.729635   4.069631   5.122331   5.992004
    29  H    4.605014   4.126597   5.134701   6.497972   7.245546
    30  H    4.865036   4.608834   5.744804   6.979011   7.544414
    31  H    4.797836   4.147188   4.989999   6.324018   6.732748
                    6          7          8          9         10
     6  O    0.000000
     7  O    2.218586   0.000000
     8  C    3.091574   3.292624   0.000000
     9  C    4.376498   4.691346   1.502588   0.000000
    10  C    5.109513   5.457726   2.635269   1.362847   0.000000
    11  N    6.373438   6.771823   3.749454   2.265436   1.383370
    12  C    6.483432   6.884568   3.648025   2.213913   2.137418
    13  N    5.431157   5.784470   2.522720   1.383571   2.171117
    14  C    5.726373   4.536487   4.826034   5.051981   4.767581
    15  C    6.602995   5.588448   6.093899   6.247999   5.748731
    16  N    7.895276   6.622600   7.313526   7.458181   6.977536
    17  H    3.842683   2.341037   2.948159   3.801730   4.240344
    18  H    2.623821   3.196506   2.152732   2.703491   2.860901
    19  H    0.962438   3.000069   2.897837   3.951420   4.575030
    20  H    3.583293   3.218499   1.091055   2.134702   3.344710
    21  H    2.715482   3.518882   1.095603   2.123199   3.279485
    22  H    5.014943   5.315984   3.045819   2.180569   1.077963
    23  H    7.446935   7.866392   4.610209   3.241096   3.188323
    24  H    5.592758   5.919507   2.801983   2.133934   3.147708
    25  H    6.417807   5.223606   4.995245   4.975024   4.610493
    26  H    5.637412   4.084172   4.978727   5.463524   5.427114
    27  H    6.224305   5.301061   6.243381   6.578341   6.160178
    28  H    6.915870   6.196175   6.228384   6.152685   5.433862
    29  H    8.400657   7.099845   7.446999   7.439093   6.906989
    30  H    8.563296   7.399732   8.154575   8.270278   7.700975
    31  H    7.873946   6.380318   7.455927   7.771033   7.455533
                   11         12         13         14         15
    11  N    0.000000
    12  C    1.310762   0.000000
    13  N    2.208424   1.357834   0.000000
    14  C    5.832985   6.576402   6.223432   0.000000
    15  C    6.757953   7.673064   7.460053   1.521313   0.000000
    16  N    7.885666   8.767485   8.588308   2.492865   1.487580
    17  H    5.478114   5.776937   4.940865   2.551449   3.926757
    18  H    4.219768   4.727718   4.053675   3.973356   4.837255
    19  H    5.784931   5.943121   4.993649   5.856836   6.687290
    20  H    4.315395   4.016764   2.787526   4.944940   6.347557
    21  H    4.268198   4.014408   2.825113   5.791439   6.990213
    22  H    2.164053   3.167050   3.221986   4.093239   4.888297
    23  H    2.129644   1.076363   2.136502   7.548048   8.641739
    24  H    3.172481   2.116982   1.006073   6.880225   8.195459
    25  H    5.484224   6.206706   5.986594   1.093550   2.143161
    26  H    6.545793   7.137672   6.612314   1.092088   2.160372
    27  H    7.281200   8.186736   7.874346   2.146472   1.089364
    28  H    6.325146   7.366012   7.329882   2.136710   1.089325
    29  H    7.677136   8.541825   8.459692   2.723375   2.085316
    30  H    8.583759   9.541388   9.423899   3.390021   2.093910
    31  H    8.433396   9.214406   8.904528   2.730009   2.087964
                   16         17         18         19         20
    16  N    0.000000
    17  H    4.888186   0.000000
    18  H    6.248871   2.905009   0.000000
    19  H    8.061696   4.181439   2.236712   0.000000
    20  H    7.420551   2.788572   3.047888   3.637749   0.000000
    21  H    8.260599   3.815947   2.556460   2.413241   1.748983
    22  H    6.180308   4.008427   2.477317   4.490616   3.827406
    23  H    9.679848   6.766411   5.791764   6.898244   4.874708
    24  H    9.288604   5.312220   4.652241   5.239267   2.795395
    25  H    2.723761   2.989401   4.484520   6.491068   5.020496
    26  H    2.742576   2.230740   4.343007   5.943190   4.911337
    27  H    2.117577   4.065880   4.748787   6.356034   6.562948
    28  H    2.122144   4.500761   4.858109   6.849146   6.614551
    29  H    1.019914   5.136213   6.589474   8.528115   7.495194
    30  H    1.020940   5.797168   6.919299   8.701425   8.331651
    31  H    1.019908   4.780858   6.512297   8.159449   7.449273
                   21         22         23         24         25
    21  H    0.000000
    22  H    3.743515   0.000000
    23  H    4.885976   4.182805   0.000000
    24  H    2.885726   4.171906   2.533814   0.000000
    25  H    6.042581   4.051640   7.099300   6.656075   0.000000
    26  H    5.910670   4.873583   8.105341   7.143488   1.761089
    27  H    7.028666   5.258545   9.201200   8.583916   3.044404
    28  H    7.111937   4.491102   8.305642   8.153714   2.471886
    29  H    8.455350   6.181942   9.387109   9.164984   2.528226
    30  H    9.068643   6.832694  10.452566  10.162815   3.662770
    31  H    8.386792   6.724796  10.138599   9.523658   3.058293
                   26         27         28         29         30
    26  H    0.000000
    27  H    2.506413   0.000000
    28  H    3.049024   1.752935   0.000000
    29  H    3.061783   2.973284   2.443579   0.000000
    30  H    3.686171   2.433259   2.439450   1.643739   0.000000
    31  H    2.556732   2.442814   2.978435   1.646696   1.643518
                   31
    31  H    0.000000
 Symmetry turned off by external request.
 Stoichiometry    C9H15N4O3(1+)
 Framework group  C1[X(C9H15N4O3)]
 Deg. of freedom    87
 Full point group                 C1      NOp   1
 Rotational constants (GHZ):      0.5724950      0.3213214      0.2246511
 Standard basis: 6-31G(d) (6D, 7F)
   270 basis functions,   508 primitive gaussians,   270 cartesian basis functions
    60 alpha electrons       60 beta electrons
       nuclear repulsion energy      1121.2879976823 Hartrees.
 NAtoms=   31 NActive=   31 NUniq=   31 SFac= 1.00D+00 NAtFMM=   60 NAOKFM=F Big=F
 Integral buffers will be    131072 words long.
 Raffenetti 2 integral format.
 Two-electron integral symmetry is turned off.
 Nuclear repulsion after empirical dispersion term =     1121.2332339254 Hartrees.
 One-electron integrals computed using PRISM.
 NBasis=   270 RedAO= T EigKep=  1.15D-03  NBF=   270
 NBsUse=   270 1.00D-06 EigRej= -1.00D+00 NBFU=   270
 ExpMin= 1.61D-01 ExpMax= 5.48D+03 ExpMxC= 8.25D+02 IAcc=3 IRadAn=         5 AccDes= 0.00D+00
 Harris functional with IExCor=  402 and IRadAn=       5 diagonalized for initial guess.
 HarFok:  IExCor=  402 AccDes= 0.00D+00 IRadAn=         5 IDoV= 1 UseB2=F ITyADJ=14
 ICtDFT=  3500011 ScaDFX=  1.000000  1.000000  1.000000  1.000000
 FoFCou: FMM=F IPFlag=           0 FMFlag=      100000 FMFlg1=           0
         NFxFlg=           0 DoJE=T BraDBF=F KetDBF=T FulRan=T
         wScrn=  0.000000 ICntrl=     500 IOpCl=  0 I1Cent=   200000004 NGrid=           0
         NMat0=    1 NMatS0=      1 NMatT0=    0 NMatD0=    1 NMtDS0=    0 NMtDT0=    0
 Symmetry not used in FoFCou.
 Requested convergence on RMS density matrix=1.00D-08 within 128 cycles.
 Requested convergence on MAX density matrix=1.00D-06.
 Requested convergence on             energy=1.00D-06.
 No special actions if energy rises.
 Integral accuracy reduced to 1.0D-05 until final iterations.
 Initial convergence to 1.0D-05 achieved.  Increase integral accuracy.
 SCF Done:  E(RB3LYP) =  -796.484235367     A.U. after   14 cycles
            NFock= 14  Conv=0.98D-08     -V/T= 2.0089
 DoSCS=F DFT=T ScalE2(SS,OS)=  1.000000  1.000000
 Range of M.O.s used for correlation:     1   270
 NBasis=   270 NAE=    60 NBE=    60 NFC=     0 NFV=     0
 NROrb=    270 NOA=    60 NOB=    60 NVA=   210 NVB=   210
 Symmetrizing basis deriv contribution to polar:
 IMax=3 JMax=2 DiffMx= 0.00D+00
 G2DrvN: will do    32 centers at a time, making    1 passes.
 Calling FoFCou, ICntrl=  3107 FMM=F I1Cent=   0 AccDes= 0.00D+00.
 End of G2Drv F.D. properties file   721 does not exist.
 End of G2Drv F.D. properties file   722 does not exist.
 End of G2Drv F.D. properties file   788 does not exist.
          IDoAtm=1111111111111111111111111111111
          Differentiating once with respect to nuclear coordinates.
          There are    96 degrees of freedom in the 1st order CPHF.  IDoFFX=6 NUNeed=     0.
     90 vectors produced by pass  0 Test12= 1.31D-14 1.04D-09 XBig12= 1.52D-01 9.44D-02.
 AX will form    90 AO Fock derivatives at one time.
     90 vectors produced by pass  1 Test12= 1.31D-14 1.04D-09 XBig12= 1.28D-02 3.27D-02.
     90 vectors produced by pass  2 Test12= 1.31D-14 1.04D-09 XBig12= 1.08D-04 1.99D-03.
     90 vectors produced by pass  3 Test12= 1.31D-14 1.04D-09 XBig12= 4.40D-07 9.87D-05.
     90 vectors produced by pass  4 Test12= 1.31D-14 1.04D-09 XBig12= 5.65D-10 3.16D-06.
     70 vectors produced by pass  5 Test12= 1.31D-14 1.04D-09 XBig12= 5.02D-13 7.76D-08.
     11 vectors produced by pass  6 Test12= 1.31D-14 1.04D-09 XBig12= 3.69D-16 2.08D-09.
 InvSVY:  IOpt=1 It=  1 EMax= 6.11D-16
 Solved reduced A of dimension   531 with    96 vectors.
 End of Minotr F.D. properties file   721 does not exist.
 End of Minotr F.D. properties file   722 does not exist.
 End of Minotr F.D. properties file   788 does not exist.

 **********************************************************************

            Population analysis using the SCF density.

 **********************************************************************

 Alpha  occ. eigenvalues --  -19.29972 -19.25557 -19.24587 -14.67505 -14.49173
 Alpha  occ. eigenvalues --  -14.46621 -14.38162 -10.43547 -10.43450 -10.42706
 Alpha  occ. eigenvalues --  -10.37580 -10.35807 -10.31281 -10.31064 -10.29995
 Alpha  occ. eigenvalues --  -10.26844  -1.22280  -1.21087  -1.17540  -1.13208
 Alpha  occ. eigenvalues --   -1.09044  -1.05950  -0.97409  -0.94398  -0.91156
 Alpha  occ. eigenvalues --   -0.85937  -0.82687  -0.80483  -0.79753  -0.76561
 Alpha  occ. eigenvalues --   -0.72946  -0.71444  -0.70396  -0.68990  -0.67760
 Alpha  occ. eigenvalues --   -0.66531  -0.65055  -0.61944  -0.61626  -0.59819
 Alpha  occ. eigenvalues --   -0.58238  -0.56511  -0.55905  -0.54727  -0.54326
 Alpha  occ. eigenvalues --   -0.53251  -0.51686  -0.51284  -0.50410  -0.49012
 Alpha  occ. eigenvalues --   -0.48726  -0.48251  -0.47189  -0.42264  -0.39815
 Alpha  occ. eigenvalues --   -0.39514  -0.37788  -0.35170  -0.33648  -0.30283
 Alpha virt. eigenvalues --   -0.17117  -0.12624  -0.10656  -0.10253  -0.09751
 Alpha virt. eigenvalues --   -0.07058  -0.04946  -0.04195  -0.03044  -0.02709
 Alpha virt. eigenvalues --   -0.01829  -0.00312  -0.00025   0.01025   0.02130
 Alpha virt. eigenvalues --    0.03216   0.03921   0.05448   0.06705   0.06899
 Alpha virt. eigenvalues --    0.08849   0.10128   0.10998   0.11662   0.13585
 Alpha virt. eigenvalues --    0.15101   0.16642   0.20716   0.20849   0.24118
 Alpha virt. eigenvalues --    0.24354   0.26497   0.27515   0.31496   0.34048
 Alpha virt. eigenvalues --    0.34308   0.34608   0.35818   0.38198   0.38534
 Alpha virt. eigenvalues --    0.41389   0.42811   0.44514   0.46434   0.47523
 Alpha virt. eigenvalues --    0.48296   0.48350   0.48629   0.50162   0.50742
 Alpha virt. eigenvalues --    0.52433   0.54123   0.55266   0.55728   0.56710
 Alpha virt. eigenvalues --    0.57060   0.58313   0.58486   0.60304   0.61304
 Alpha virt. eigenvalues --    0.61617   0.61951   0.62334   0.65092   0.65660
 Alpha virt. eigenvalues --    0.66696   0.68885   0.69869   0.70516   0.71019
 Alpha virt. eigenvalues --    0.72278   0.72799   0.73725   0.74621   0.75179
 Alpha virt. eigenvalues --    0.75822   0.76314   0.76985   0.77885   0.78708
 Alpha virt. eigenvalues --    0.79222   0.80208   0.80830   0.83091   0.84076
 Alpha virt. eigenvalues --    0.84694   0.85710   0.87795   0.89576   0.92817
 Alpha virt. eigenvalues --    0.93716   0.95259   0.95936   0.97809   0.98300
 Alpha virt. eigenvalues --    1.02303   1.04323   1.06669   1.10360   1.12019
 Alpha virt. eigenvalues --    1.13214   1.14685   1.19451   1.20926   1.22577
 Alpha virt. eigenvalues --    1.23100   1.24814   1.27886   1.29295   1.30631
 Alpha virt. eigenvalues --    1.31213   1.33733   1.37375   1.38790   1.39431
 Alpha virt. eigenvalues --    1.40698   1.42889   1.47902   1.48977   1.50285
 Alpha virt. eigenvalues --    1.51877   1.54022   1.55791   1.56775   1.60799
 Alpha virt. eigenvalues --    1.64185   1.65164   1.66625   1.67144   1.68836
 Alpha virt. eigenvalues --    1.69357   1.70343   1.71909   1.72509   1.75399
 Alpha virt. eigenvalues --    1.75644   1.76604   1.77478   1.78383   1.80549
 Alpha virt. eigenvalues --    1.81164   1.83799   1.85286   1.86860   1.87627
 Alpha virt. eigenvalues --    1.89467   1.90143   1.96095   1.97553   1.99666
 Alpha virt. eigenvalues --    2.01805   2.02979   2.05046   2.06751   2.09036
 Alpha virt. eigenvalues --    2.09893   2.11627   2.14300   2.15606   2.17056
 Alpha virt. eigenvalues --    2.18618   2.19461   2.22714   2.25785   2.27106
 Alpha virt. eigenvalues --    2.30462   2.31850   2.33149   2.34290   2.35437
 Alpha virt. eigenvalues --    2.37318   2.40794   2.41739   2.44556   2.50046
 Alpha virt. eigenvalues --    2.51544   2.51819   2.53102   2.54923   2.58315
 Alpha virt. eigenvalues --    2.60162   2.61990   2.65022   2.68849   2.74592
 Alpha virt. eigenvalues --    2.79811   2.81507   2.86705   2.91125   2.93476
 Alpha virt. eigenvalues --    2.97051   2.99293   3.04008   3.07420   3.53567
 Alpha virt. eigenvalues --    3.75422   3.85162   3.91000   3.96881   3.98575
 Alpha virt. eigenvalues --    4.01505   4.06227   4.10264   4.16877   4.19770
 Alpha virt. eigenvalues --    4.21580   4.26803   4.36529   4.42761   4.58256
          Condensed to atoms (all electrons):
               1          2          3          4          5          6
     1  O    8.093070   0.540579  -0.092473  -0.004820   0.000188  -0.000004
     2  C    0.540579   4.306486   0.311032  -0.026592   0.002571   0.000045
     3  N   -0.092473   0.311032   7.093941   0.234821  -0.035940   0.003165
     4  C   -0.004820  -0.026592   0.234821   5.263745   0.279378  -0.095950
     5  C    0.000188   0.002571  -0.035940   0.279378   4.347017   0.276659
     6  O   -0.000004   0.000045   0.003165  -0.095950   0.276659   8.201592
     7  O    0.000000   0.001255  -0.009578  -0.087661   0.597339  -0.076346
     8  C    0.000562   0.002008  -0.050368   0.322992  -0.034653  -0.001444
     9  C   -0.000794   0.000498  -0.001849  -0.026322   0.002318   0.000077
    10  C   -0.007328   0.002641   0.001496  -0.003497   0.000205   0.000004
    11  N    0.000048  -0.000006  -0.000008  -0.000100  -0.000001   0.000000
    12  C   -0.000003  -0.000005   0.000021  -0.000064   0.000002   0.000000
    13  N   -0.000001  -0.000016  -0.000082   0.002583  -0.000081   0.000000
    14  C   -0.091108   0.286714  -0.119383   0.006834  -0.000293   0.000000
    15  C    0.004445  -0.018911   0.002876  -0.000085   0.000005   0.000000
    16  N    0.000269   0.001952  -0.000020   0.000000   0.000000   0.000000
    17  H    0.002806  -0.015325   0.285930  -0.044260  -0.002592   0.000623
    18  H    0.018702  -0.003298  -0.048368   0.360637  -0.028562   0.001956
    19  H   -0.000014  -0.000017   0.000186   0.007190  -0.018600   0.228380
    20  H   -0.000013  -0.000159  -0.004229  -0.026269  -0.003658   0.000123
    21  H   -0.000009   0.000024   0.004686  -0.040561   0.000065   0.005927
    22  H    0.017944   0.000236  -0.003518   0.001480   0.000019   0.000001
    23  H    0.000000   0.000000   0.000000   0.000002   0.000000   0.000000
    24  H    0.000000   0.000000   0.000000  -0.000058  -0.000002   0.000000
    25  H   -0.000362  -0.013941  -0.001843  -0.000102  -0.000002   0.000000
    26  H    0.002247  -0.018631   0.004554  -0.000200   0.000024   0.000000
    27  H    0.001543   0.000188   0.000279  -0.000009   0.000000   0.000000
    28  H    0.011578   0.001226   0.000493  -0.000002   0.000000   0.000000
    29  H    0.000017   0.000020   0.000002   0.000000   0.000000   0.000000
    30  H    0.000012   0.000026   0.000001   0.000000   0.000000   0.000000
    31  H    0.000003  -0.000054   0.000001   0.000000   0.000000   0.000000
               7          8          9         10         11         12
     1  O    0.000000   0.000562  -0.000794  -0.007328   0.000048  -0.000003
     2  C    0.001255   0.002008   0.000498   0.002641  -0.000006  -0.000005
     3  N   -0.009578  -0.050368  -0.001849   0.001496  -0.000008   0.000021
     4  C   -0.087661   0.322992  -0.026322  -0.003497  -0.000100  -0.000064
     5  C    0.597339  -0.034653   0.002318   0.000205  -0.000001   0.000002
     6  O   -0.076346  -0.001444   0.000077   0.000004   0.000000   0.000000
     7  O    7.980974  -0.001979  -0.000017  -0.000001   0.000000   0.000000
     8  C   -0.001979   5.255520   0.320929  -0.070615   0.008156   0.006610
     9  C   -0.000017   0.320929   4.741321   0.582657  -0.044195  -0.087035
    10  C   -0.000001  -0.070615   0.582657   4.986700   0.414456  -0.121148
    11  N    0.000000   0.008156  -0.044195   0.414456   6.661597   0.541350
    12  C    0.000000   0.006610  -0.087035  -0.121148   0.541350   4.723132
    13  N    0.000000  -0.061753   0.337252  -0.070858  -0.082210   0.350584
    14  C   -0.000142  -0.000301  -0.000028  -0.000220   0.000001   0.000000
    15  C    0.000001  -0.000001   0.000000   0.000005   0.000000   0.000000
    16  N    0.000000   0.000000   0.000000   0.000000   0.000000   0.000000
    17  H    0.027671   0.000615  -0.000110   0.000037   0.000001   0.000000
    18  H    0.001872  -0.042054  -0.002314   0.002104  -0.000039  -0.000025
    19  H    0.004705  -0.000595  -0.000192  -0.000015   0.000000   0.000000
    20  H    0.001452   0.349889  -0.030020   0.000981  -0.000114   0.000166
    21  H   -0.000137   0.351808  -0.032021   0.000978  -0.000095   0.000229
    22  H    0.000000  -0.001959  -0.060651   0.369849  -0.038521   0.007003
    23  H    0.000000  -0.000113   0.003059   0.007174  -0.037242   0.383854
    24  H    0.000000  -0.002516  -0.030076   0.008939   0.005215  -0.022695
    25  H    0.000000   0.000026   0.000015   0.000081  -0.000001   0.000000
    26  H    0.000009  -0.000002   0.000000   0.000001   0.000000   0.000000
    27  H    0.000000   0.000000   0.000000   0.000000   0.000000   0.000000
    28  H    0.000000   0.000000   0.000000  -0.000001   0.000000   0.000000
    29  H    0.000000   0.000000   0.000000   0.000000   0.000000   0.000000
    30  H    0.000000   0.000000   0.000000   0.000000   0.000000   0.000000
    31  H    0.000000   0.000000   0.000000   0.000000   0.000000   0.000000
              13         14         15         16         17         18
     1  O   -0.000001  -0.091108   0.004445   0.000269   0.002806   0.018702
     2  C   -0.000016   0.286714  -0.018911   0.001952  -0.015325  -0.003298
     3  N   -0.000082  -0.119383   0.002876  -0.000020   0.285930  -0.048368
     4  C    0.002583   0.006834  -0.000085   0.000000  -0.044260   0.360637
     5  C   -0.000081  -0.000293   0.000005   0.000000  -0.002592  -0.028562
     6  O    0.000000   0.000000   0.000000   0.000000   0.000623   0.001956
     7  O    0.000000  -0.000142   0.000001   0.000000   0.027671   0.001872
     8  C   -0.061753  -0.000301  -0.000001   0.000000   0.000615  -0.042054
     9  C    0.337252  -0.000028   0.000000   0.000000  -0.000110  -0.002314
    10  C   -0.070858  -0.000220   0.000005   0.000000   0.000037   0.002104
    11  N   -0.082210   0.000001   0.000000   0.000000   0.000001  -0.000039
    12  C    0.350584   0.000000   0.000000   0.000000   0.000000  -0.000025
    13  N    6.887406   0.000000   0.000000   0.000000   0.000004   0.000119
    14  C    0.000000   5.398175   0.320051  -0.044035  -0.001083   0.001420
    15  C    0.000000   0.320051   5.131914   0.163006  -0.000138   0.000012
    16  N    0.000000  -0.044035   0.163006   6.752057  -0.000011   0.000000
    17  H    0.000004  -0.001083  -0.000138  -0.000011   0.388343   0.005156
    18  H    0.000119   0.001420   0.000012   0.000000   0.005156   0.519640
    19  H   -0.000001   0.000000   0.000000   0.000000  -0.000068   0.001767
    20  H   -0.001770  -0.000002   0.000000   0.000000   0.002082   0.005656
    21  H   -0.002184   0.000005   0.000000   0.000000  -0.000066  -0.003319
    22  H    0.004888   0.000452  -0.000018   0.000000  -0.000006   0.000215
    23  H   -0.057137   0.000000   0.000000   0.000000   0.000000   0.000000
    24  H    0.303970   0.000000   0.000000   0.000000   0.000000   0.000003
    25  H    0.000000   0.361602  -0.038843  -0.002225   0.000254  -0.000025
    26  H    0.000000   0.349755  -0.040237  -0.002209   0.002761  -0.000060
    27  H    0.000000  -0.035717   0.384249  -0.031759  -0.000006  -0.000005
    28  H    0.000000  -0.038419   0.376142  -0.030096  -0.000017  -0.000011
    29  H    0.000000  -0.000113  -0.020835   0.302161   0.000000   0.000000
    30  H    0.000000   0.003512  -0.021126   0.308364   0.000000   0.000000
    31  H    0.000000  -0.001247  -0.017437   0.301829   0.000000   0.000000
              19         20         21         22         23         24
     1  O   -0.000014  -0.000013  -0.000009   0.017944   0.000000   0.000000
     2  C   -0.000017  -0.000159   0.000024   0.000236   0.000000   0.000000
     3  N    0.000186  -0.004229   0.004686  -0.003518   0.000000   0.000000
     4  C    0.007190  -0.026269  -0.040561   0.001480   0.000002  -0.000058
     5  C   -0.018600  -0.003658   0.000065   0.000019   0.000000  -0.000002
     6  O    0.228380   0.000123   0.005927   0.000001   0.000000   0.000000
     7  O    0.004705   0.001452  -0.000137   0.000000   0.000000   0.000000
     8  C   -0.000595   0.349889   0.351808  -0.001959  -0.000113  -0.002516
     9  C   -0.000192  -0.030020  -0.032021  -0.060651   0.003059  -0.030076
    10  C   -0.000015   0.000981   0.000978   0.369849   0.007174   0.008939
    11  N    0.000000  -0.000114  -0.000095  -0.038521  -0.037242   0.005215
    12  C    0.000000   0.000166   0.000229   0.007003   0.383854  -0.022695
    13  N   -0.000001  -0.001770  -0.002184   0.004888  -0.057137   0.303970
    14  C    0.000000  -0.000002   0.000005   0.000452   0.000000   0.000000
    15  C    0.000000   0.000000   0.000000  -0.000018   0.000000   0.000000
    16  N    0.000000   0.000000   0.000000   0.000000   0.000000   0.000000
    17  H   -0.000068   0.002082  -0.000066  -0.000006   0.000000   0.000000
    18  H    0.001767   0.005656  -0.003319   0.000215   0.000000   0.000003
    19  H    0.348142  -0.000048   0.002377  -0.000006   0.000000   0.000000
    20  H   -0.000048   0.566384  -0.037131  -0.000094  -0.000002   0.001245
    21  H    0.002377  -0.037131   0.577454  -0.000066   0.000000   0.000806
    22  H   -0.000006  -0.000094  -0.000066   0.547037  -0.000133  -0.000093
    23  H    0.000000  -0.000002   0.000000  -0.000133   0.526770   0.000466
    24  H    0.000000   0.001245   0.000806  -0.000093   0.000466   0.397346
    25  H    0.000000  -0.000004   0.000000   0.000000   0.000000   0.000000
    26  H    0.000000   0.000001   0.000000  -0.000004   0.000000   0.000000
    27  H    0.000000   0.000000   0.000000   0.000000   0.000000   0.000000
    28  H    0.000000   0.000000   0.000000   0.000002   0.000000   0.000000
    29  H    0.000000   0.000000   0.000000   0.000000   0.000000   0.000000
    30  H    0.000000   0.000000   0.000000   0.000000   0.000000   0.000000
    31  H    0.000000   0.000000   0.000000   0.000000   0.000000   0.000000
              25         26         27         28         29         30
     1  O   -0.000362   0.002247   0.001543   0.011578   0.000017   0.000012
     2  C   -0.013941  -0.018631   0.000188   0.001226   0.000020   0.000026
     3  N   -0.001843   0.004554   0.000279   0.000493   0.000002   0.000001
     4  C   -0.000102  -0.000200  -0.000009  -0.000002   0.000000   0.000000
     5  C   -0.000002   0.000024   0.000000   0.000000   0.000000   0.000000
     6  O    0.000000   0.000000   0.000000   0.000000   0.000000   0.000000
     7  O    0.000000   0.000009   0.000000   0.000000   0.000000   0.000000
     8  C    0.000026  -0.000002   0.000000   0.000000   0.000000   0.000000
     9  C    0.000015   0.000000   0.000000   0.000000   0.000000   0.000000
    10  C    0.000081   0.000001   0.000000  -0.000001   0.000000   0.000000
    11  N   -0.000001   0.000000   0.000000   0.000000   0.000000   0.000000
    12  C    0.000000   0.000000   0.000000   0.000000   0.000000   0.000000
    13  N    0.000000   0.000000   0.000000   0.000000   0.000000   0.000000
    14  C    0.361602   0.349755  -0.035717  -0.038419  -0.000113   0.003512
    15  C   -0.038843  -0.040237   0.384249   0.376142  -0.020835  -0.021126
    16  N   -0.002225  -0.002209  -0.031759  -0.030096   0.302161   0.308364
    17  H    0.000254   0.002761  -0.000006  -0.000017   0.000000   0.000000
    18  H   -0.000025  -0.000060  -0.000005  -0.000011   0.000000   0.000000
    19  H    0.000000   0.000000   0.000000   0.000000   0.000000   0.000000
    20  H   -0.000004   0.000001   0.000000   0.000000   0.000000   0.000000
    21  H    0.000000   0.000000   0.000000   0.000000   0.000000   0.000000
    22  H    0.000000  -0.000004   0.000000   0.000002   0.000000   0.000000
    23  H    0.000000   0.000000   0.000000   0.000000   0.000000   0.000000
    24  H    0.000000   0.000000   0.000000   0.000000   0.000000   0.000000
    25  H    0.504234  -0.028078   0.004245  -0.003885   0.004839  -0.000036
    26  H   -0.028078   0.543195  -0.003775   0.004560  -0.000240  -0.000006
    27  H    0.004245  -0.003775   0.457449  -0.021791   0.003636  -0.001818
    28  H   -0.003885   0.004560  -0.021791   0.436496  -0.002534  -0.001299
    29  H    0.004839  -0.000240   0.003636  -0.002534   0.307439  -0.012972
    30  H   -0.000036  -0.000006  -0.001818  -0.001299  -0.012972   0.296849
    31  H   -0.000381   0.004295  -0.002892   0.003293  -0.014841  -0.013643
              31
     1  O    0.000003
     2  C   -0.000054
     3  N    0.000001
     4  C    0.000000
     5  C    0.000000
     6  O    0.000000
     7  O    0.000000
     8  C    0.000000
     9  C    0.000000
    10  C    0.000000
    11  N    0.000000
    12  C    0.000000
    13  N    0.000000
    14  C   -0.001247
    15  C   -0.017437
    16  N    0.301829
    17  H    0.000000
    18  H    0.000000
    19  H    0.000000
    20  H    0.000000
    21  H    0.000000
    22  H    0.000000
    23  H    0.000000
    24  H    0.000000
    25  H   -0.000381
    26  H    0.004295
    27  H   -0.002892
    28  H    0.003293
    29  H   -0.014841
    30  H   -0.013643
    31  H    0.308176
 Mulliken charges:
               1
     1  O   -0.497085
     2  C    0.639453
     3  N   -0.575823
     4  C   -0.123111
     5  C    0.618594
     6  O   -0.544808
     7  O   -0.439418
     8  C   -0.350760
     9  C    0.327498
    10  C   -0.104625
    11  N   -0.428295
    12  C    0.218026
    13  N   -0.610714
    14  C   -0.396431
    15  C   -0.225076
    16  N   -0.719284
    17  H    0.347398
    18  H    0.208819
    19  H    0.426813
    20  H    0.175535
    21  H    0.171231
    22  H    0.155944
    23  H    0.173303
    24  H    0.337450
    25  H    0.214429
    26  H    0.182039
    27  H    0.246182
    28  H    0.264263
    29  H    0.433421
    30  H    0.442135
    31  H    0.432899
 Sum of Mulliken charges =   1.00000
 Mulliken charges with hydrogens summed into heavy atoms:
               1
     1  O   -0.497085
     2  C    0.639453
     3  N   -0.228425
     4  C    0.085708
     5  C    0.618594
     6  O   -0.117995
     7  O   -0.439418
     8  C   -0.003994
     9  C    0.327498
    10  C    0.051318
    11  N   -0.428295
    12  C    0.391328
    13  N   -0.273264
    14  C    0.000037
    15  C    0.285369
    16  N    0.589171
 APT charges:
               1
     1  O   -0.307503
     2  C    0.090033
     3  N   -0.631310
     4  C   -0.409472
     5  C   -0.334690
     6  O   -0.108733
     7  O    0.110009
     8  C   -1.023601
     9  C   -0.138681
    10  C   -0.364472
    11  N   -0.382141
    12  C   -0.296923
    13  N   -0.874184
    14  C   -0.632871
    15  C   -0.403518
    16  N   -1.885683
    17  H    0.575109
    18  H    0.339777
    19  H    0.497408
    20  H    0.411262
    21  H    0.599470
    22  H    0.098673
    23  H    1.101632
    24  H    0.922155
    25  H    0.374435
    26  H    0.401730
    27  H    0.407979
    28  H    0.343932
    29  H    0.604058
    30  H    1.217702
    31  H    0.698420
 Sum of APT charges =   1.00000
 APT charges with hydrogens summed into heavy atoms:
               1
     1  O   -0.307503
     2  C    0.090033
     3  N   -0.056201
     4  C   -0.069695
     5  C   -0.334690
     6  O    0.388675
     7  O    0.110009
     8  C   -0.012869
     9  C   -0.138681
    10  C   -0.265800
    11  N   -0.382141
    12  C    0.804709
    13  N    0.047971
    14  C    0.143293
    15  C    0.348393
    16  N    0.634497
 Electronic spatial extent (au):  <R**2>=           4826.8894
 Charge=              1.0000 electrons
 Dipole moment (field-independent basis, Debye):
    X=            -15.8369    Y=              4.3825    Z=              3.6543  Tot=             16.8336
 Quadrupole moment (field-independent basis, Debye-Ang):
   XX=             34.1105   YY=            -87.2115   ZZ=           -105.0635
   XY=            -21.9763   XZ=             -2.5272   YZ=             14.6218
 Traceless Quadrupole moment (field-independent basis, Debye-Ang):
   XX=             86.8320   YY=            -34.4900   ZZ=            -52.3420
   XY=            -21.9763   XZ=             -2.5272   YZ=             14.6218
 Octapole moment (field-independent basis, Debye-Ang**2):
  XXX=           -503.0920  YYY=             67.9646  ZZZ=             28.7338  XYY=            -61.3626
  XXY=            140.1142  XXZ=             41.7178  XZZ=            -76.8226  YZZ=             27.8870
  YYZ=            -19.8363  XYZ=             10.4002
 Hexadecapole moment (field-independent basis, Debye-Ang**3):
 XXXX=           -612.4633 YYYY=          -1400.7134 ZZZZ=          -1063.8304 XXXY=           -317.0403
 XXXZ=            120.0365 YYYX=            -55.0275 YYYZ=            493.6520 ZZZX=            262.5965
 ZZZY=            482.1162 XXYY=           -584.7511 XXZZ=           -740.0882 YYZZ=           -476.8329
 XXYZ=            142.5090 YYXZ=             31.5593 ZZXY=            -24.7271
 N-N= 1.121233233925D+03 E-N=-4.084557777352D+03  KE= 7.894292925513D+02
  Exact polarizability:   0.000   0.000   0.000   0.000   0.000   0.000
 Approx polarizability: 178.040   3.865 150.782   8.645 -15.080 198.614
 Calling FoFJK, ICntrl=    100147 FMM=F ISym2X=0 I1Cent= 0 IOpClX= 0 NMat=1 NMatS=1 NMatT=0.
 -------------------------------------------------------------------
 Center     Atomic                   Forces (Hartrees/Bohr)
 Number     Number              X              Y              Z
 -------------------------------------------------------------------
      1        8          -0.011480755    0.003465517    0.000976169
      2        6           0.019341683   -0.009587623   -0.006013924
      3        7          -0.013219332    0.003395561   -0.001571065
      4        6           0.003739291    0.002226677   -0.002080121
      5        6           0.006653978   -0.011575416   -0.007134615
      6        8          -0.003914531    0.003332093    0.008128845
      7        8          -0.008191378    0.005090237    0.010101564
      8        6           0.007481110    0.007057494   -0.007933608
      9        6           0.001509820   -0.004507605    0.009049451
     10        6          -0.006508439    0.002720949   -0.006700633
     11        7          -0.005705544   -0.001683721   -0.001596852
     12        6           0.000091473    0.003320477   -0.004847571
     13        7           0.001222669   -0.004697648    0.008365470
     14        6          -0.008054975    0.009693476    0.008831402
     15        6           0.025096613   -0.016730557   -0.012048505
     16        7          -0.003517458    0.000740648   -0.000082506
     17        1           0.001978648   -0.000228570    0.003781364
     18        1          -0.001505800   -0.001030686   -0.002165814
     19        1           0.004433373   -0.001516254   -0.009443787
     20        1          -0.000966727   -0.000204493    0.005787120
     21        1           0.000697230   -0.003141271    0.001929482
     22        1          -0.001388964    0.000429719   -0.004364597
     23        1           0.002832909    0.002467521   -0.001094472
     24        1           0.003656744    0.000306039    0.002200804
     25        1           0.002963250    0.003596234    0.000985039
     26        1          -0.000395590    0.000109980    0.003918201
     27        1          -0.007000920   -0.000708104    0.001206841
     28        1          -0.004366623    0.002356272   -0.001968655
     29        1           0.000861073    0.007267226    0.000334129
     30        1          -0.005157531   -0.001469564   -0.003485449
     31        1          -0.001185296   -0.000494606    0.006936293
 -------------------------------------------------------------------
 Cartesian Forces:  Max     0.025096613 RMS     0.006322031
 FormGI is forming the generalized inverse of G from B-inverse, IUseBI=4.
 GSVD:  received Info=                   1 from GESDD.

 GradGradGradGradGradGradGradGradGradGradGradGradGradGradGradGradGradGrad
 Berny optimization.
 Internal  Forces:  Max     0.018065182 RMS     0.003902480
 Search for a local minimum.
 Step number   1 out of a maximum of  167
 All quantities printed in internal units (Hartrees-Bohrs-Radians)
 Mixed Optimization -- RFO/linear search
 Second derivative matrix not updated -- analytic derivatives used.
 ITU=  0
     Eigenvalues ---    0.00003   0.00073   0.00155   0.00206   0.00286
     Eigenvalues ---    0.00402   0.00466   0.00536   0.00799   0.00875
     Eigenvalues ---    0.01172   0.01559   0.02133   0.02697   0.03275
     Eigenvalues ---    0.03792   0.03875   0.04018   0.04168   0.04304
     Eigenvalues ---    0.04406   0.04563   0.05155   0.05191   0.05222
     Eigenvalues ---    0.05256   0.05561   0.05894   0.06220   0.07530
     Eigenvalues ---    0.08570   0.08620   0.10667   0.10798   0.11382
     Eigenvalues ---    0.11942   0.12134   0.12543   0.13551   0.13681
     Eigenvalues ---    0.14006   0.15583   0.16041   0.16659   0.17178
     Eigenvalues ---    0.17734   0.18405   0.20006   0.20880   0.22058
     Eigenvalues ---    0.23255   0.23460   0.23777   0.24349   0.25003
     Eigenvalues ---    0.27038   0.29947   0.30199   0.32061   0.33232
     Eigenvalues ---    0.33348   0.34025   0.34310   0.34667   0.34845
     Eigenvalues ---    0.34954   0.35279   0.35439   0.36085   0.36962
     Eigenvalues ---    0.38324   0.38661   0.40893   0.43106   0.44123
     Eigenvalues ---    0.44335   0.44513   0.45055   0.46322   0.46570
     Eigenvalues ---    0.48192   0.48789   0.50224   0.53728   0.60758
     Eigenvalues ---    0.82470   0.95299
 RFO step:  Lambda=-1.09499966D-02 EMin= 2.56425755D-05
 Linear search not attempted -- first point.
 Iteration  1 RMS(Cart)=  0.12296179 RMS(Int)=  0.00306254
 Iteration  2 RMS(Cart)=  0.00747086 RMS(Int)=  0.00034046
 Iteration  3 RMS(Cart)=  0.00001829 RMS(Int)=  0.00034030
 Iteration  4 RMS(Cart)=  0.00000001 RMS(Int)=  0.00034030
 Variable       Old X    -DE/DX   Delta X   Delta X   Delta X     New X
                                 (Linear)    (Quad)   (Total)
    R1        2.31778  -0.00250   0.00000   0.00051   0.00051   2.31829
    R2        2.58343  -0.00533   0.00000  -0.03190  -0.03190   2.55153
    R3        2.86585   0.00448   0.00000   0.03236   0.03236   2.89821
    R4        2.73361   0.00440   0.00000   0.01485   0.01485   2.74846
    R5        1.91152   0.00328   0.00000   0.00666   0.00666   1.91818
    R6        2.88133   0.00467   0.00000   0.01817   0.01817   2.89950
    R7        2.90090   0.00358   0.00000   0.01519   0.01519   2.91609
    R8        2.05995   0.00257   0.00000   0.00696   0.00696   2.06692
    R9        2.55480  -0.00083   0.00000  -0.01587  -0.01587   2.53893
   R10        2.26626   0.01282   0.00000   0.01540   0.01540   2.28166
   R11        1.81874   0.01010   0.00000   0.01840   0.01840   1.83715
   R12        2.83948  -0.00257   0.00000  -0.01302  -0.01302   2.82646
   R13        2.06179   0.00499   0.00000   0.01471   0.01471   2.07650
   R14        2.07039   0.00263   0.00000   0.00770   0.00770   2.07809
   R15        2.57541   0.01343   0.00000   0.02497   0.02498   2.60039
   R16        2.61457   0.00291   0.00000   0.00344   0.00344   2.61801
   R17        2.61419  -0.00163   0.00000  -0.00723  -0.00723   2.60696
   R18        2.03705   0.00234   0.00000   0.00492   0.00492   2.04198
   R19        2.47698   0.00535   0.00000   0.00601   0.00600   2.48298
   R20        2.56593   0.00986   0.00000   0.01997   0.01996   2.58589
   R21        2.03403   0.00391   0.00000   0.00931   0.00931   2.04334
   R22        1.90120   0.00417   0.00000   0.00806   0.00806   1.90926
   R23        2.87487   0.00229   0.00000   0.00065   0.00065   2.87552
   R24        2.06651   0.00401   0.00000   0.00887   0.00887   2.07538
   R25        2.06375   0.00383   0.00000   0.00810   0.00810   2.07185
   R26        2.81112   0.01145   0.00000   0.05757   0.05757   2.86869
   R27        2.05860   0.00213   0.00000   0.00372   0.00372   2.06232
   R28        2.05853   0.00185   0.00000   0.00185   0.00185   2.06038
   R29        1.92736   0.00727   0.00000   0.01434   0.01434   1.94170
   R30        1.92930   0.00638   0.00000   0.01242   0.01242   1.94172
   R31        1.92735   0.00698   0.00000   0.01355   0.01355   1.94090
    A1        2.13854   0.01343   0.00000   0.04781   0.04782   2.18636
    A2        2.13957  -0.01350   0.00000  -0.06121  -0.06122   2.07836
    A3        2.00349   0.00007   0.00000   0.01366   0.01365   2.01714
    A4        2.11097   0.00280   0.00000   0.01965   0.01905   2.13002
    A5        2.05456   0.00098   0.00000   0.02030   0.01982   2.07438
    A6        1.99409  -0.00298   0.00000  -0.01093  -0.01170   1.98239
    A7        1.89334  -0.00266   0.00000  -0.02160  -0.02157   1.87177
    A8        1.97257  -0.00223   0.00000  -0.01955  -0.01949   1.95307
    A9        1.86962   0.00127   0.00000   0.00312   0.00327   1.87289
   A10        1.89673   0.00358   0.00000   0.01446   0.01405   1.91078
   A11        1.92938  -0.00024   0.00000   0.00851   0.00827   1.93764
   A12        1.90238   0.00020   0.00000   0.01509   0.01494   1.91732
   A13        2.01483   0.00415   0.00000   0.02208   0.02207   2.03691
   A14        2.16079  -0.00818   0.00000  -0.03578  -0.03578   2.12501
   A15        2.10685   0.00404   0.00000   0.01354   0.01353   2.12038
   A16        1.91811   0.00545   0.00000   0.02503   0.02503   1.94313
   A17        1.98964  -0.00543   0.00000  -0.02203  -0.02202   1.96762
   A18        1.90880  -0.00083   0.00000  -0.02614  -0.02616   1.88264
   A19        1.89523   0.00049   0.00000  -0.00125  -0.00107   1.89416
   A20        1.91576   0.00322   0.00000   0.01837   0.01775   1.93351
   A21        1.89533   0.00383   0.00000   0.03867   0.03856   1.93389
   A22        1.85406  -0.00099   0.00000  -0.00630  -0.00685   1.84721
   A23        2.33349  -0.00049   0.00000  -0.00323  -0.00326   2.33022
   A24        2.12611  -0.00061   0.00000   0.00164   0.00160   2.12771
   A25        1.82329   0.00110   0.00000   0.00188   0.00188   1.82518
   A26        1.94012  -0.00111   0.00000  -0.00365  -0.00367   1.93644
   A27        2.20269   0.00435   0.00000   0.02948   0.02942   2.23211
   A28        2.13999  -0.00323   0.00000  -0.02534  -0.02541   2.11459
   A29        1.83206   0.00182   0.00000   0.00751   0.00752   1.83958
   A30        1.94928   0.00078   0.00000  -0.00168  -0.00168   1.94761
   A31        2.19919  -0.00053   0.00000   0.00171   0.00171   2.20089
   A32        2.13471  -0.00024   0.00000  -0.00003  -0.00003   2.13468
   A33        1.88002  -0.00259   0.00000  -0.00407  -0.00406   1.87596
   A34        2.19506   0.00216   0.00000   0.00841   0.00840   2.20346
   A35        2.20810   0.00044   0.00000  -0.00434  -0.00435   2.20375
   A36        1.96228  -0.01807   0.00000  -0.10384  -0.10381   1.85847
   A37        1.88125   0.00332   0.00000   0.00011  -0.00036   1.88089
   A38        1.91394   0.00676   0.00000   0.04149   0.04207   1.95600
   A39        1.90230   0.00631   0.00000   0.02714   0.02548   1.92778
   A40        1.92746   0.00534   0.00000   0.03203   0.03237   1.95983
   A41        1.87390  -0.00309   0.00000   0.00698   0.00595   1.87985
   A42        1.95276  -0.00306   0.00000  -0.00912  -0.00876   1.94400
   A43        1.91108   0.00478   0.00000   0.04459   0.04403   1.95511
   A44        1.89777   0.00349   0.00000   0.02629   0.02558   1.92335
   A45        1.91200  -0.00302   0.00000  -0.04295  -0.04285   1.86915
   A46        1.91839  -0.00227   0.00000  -0.03707  -0.03708   1.88131
   A47        1.86994   0.00030   0.00000   0.02035   0.01816   1.88810
   A48        1.94014   0.00072   0.00000   0.00088   0.00088   1.94102
   A49        1.95171  -0.00075   0.00000  -0.00608  -0.00608   1.94563
   A50        1.94405   0.00083   0.00000   0.00494   0.00495   1.94900
   A51        1.87276   0.00005   0.00000   0.00243   0.00243   1.87518
   A52        1.87904  -0.00102   0.00000  -0.00602  -0.00602   1.87302
   A53        1.87240   0.00011   0.00000   0.00382   0.00383   1.87623
    D1       -0.23967   0.00105   0.00000   0.06639   0.06684  -0.17283
    D2       -2.83817   0.00035   0.00000   0.01106   0.01083  -2.82734
    D3        2.96087   0.00161   0.00000   0.06375   0.06399   3.02486
    D4        0.36238   0.00091   0.00000   0.00843   0.00797   0.37035
    D5        0.47871  -0.00079   0.00000  -0.04623  -0.04536   0.43335
    D6       -1.61824   0.00020   0.00000  -0.01660  -0.01700  -1.63524
    D7        2.63018  -0.00161   0.00000  -0.04727  -0.04751   2.58268
    D8       -2.72188  -0.00034   0.00000  -0.03948  -0.03877  -2.76065
    D9        1.46436   0.00066   0.00000  -0.00985  -0.01041   1.45395
   D10       -0.57040  -0.00115   0.00000  -0.04052  -0.04092  -0.61132
   D11       -1.99828   0.00005   0.00000  -0.03557  -0.03526  -2.03354
   D12        2.18030  -0.00120   0.00000  -0.02637  -0.02636   2.15394
   D13        0.08477  -0.00096   0.00000  -0.03544  -0.03530   0.04946
   D14        0.61766   0.00180   0.00000   0.02664   0.02664   0.64431
   D15       -1.48694   0.00054   0.00000   0.03584   0.03554  -1.45140
   D16        2.70071   0.00079   0.00000   0.02677   0.02660   2.72731
   D17        2.78637   0.00114   0.00000   0.03872   0.03874   2.82510
   D18       -0.39544   0.00134   0.00000   0.03450   0.03454  -0.36089
   D19       -1.34583  -0.00103   0.00000   0.01030   0.01021  -1.33562
   D20        1.75555  -0.00083   0.00000   0.00608   0.00602   1.76157
   D21        0.74124   0.00131   0.00000   0.04292   0.04295   0.78418
   D22       -2.44057   0.00151   0.00000   0.03870   0.03875  -2.40181
   D23       -1.23875   0.00020   0.00000   0.03697   0.03681  -1.20194
   D24        0.91302  -0.00010   0.00000   0.02531   0.02542   0.93845
   D25        2.92917  -0.00146   0.00000   0.00300   0.00302   2.93219
   D26        2.94177   0.00251   0.00000   0.06679   0.06674   3.00851
   D27       -1.18965   0.00221   0.00000   0.05512   0.05535  -1.13429
   D28        0.82650   0.00085   0.00000   0.03282   0.03295   0.85944
   D29        0.83793   0.00053   0.00000   0.03881   0.03856   0.87649
   D30        2.98970   0.00023   0.00000   0.02714   0.02717   3.01687
   D31       -1.27734  -0.00113   0.00000   0.00484   0.00477  -1.27257
   D32       -0.07410  -0.00031   0.00000  -0.01251  -0.01255  -0.08665
   D33        3.10636  -0.00020   0.00000  -0.00718  -0.00714   3.09922
   D34       -0.08776  -0.00092   0.00000  -0.03139  -0.03146  -0.11923
   D35        3.08421  -0.00106   0.00000  -0.04656  -0.04657   3.03764
   D36       -2.23575   0.00160   0.00000   0.00461   0.00490  -2.23085
   D37        0.93623   0.00147   0.00000  -0.01055  -0.01021   0.92602
   D38        2.02745  -0.00112   0.00000  -0.01960  -0.01991   2.00754
   D39       -1.08376  -0.00126   0.00000  -0.03477  -0.03502  -1.11877
   D40       -3.11728  -0.00026   0.00000  -0.01475  -0.01470  -3.13197
   D41        0.05357  -0.00080   0.00000  -0.03343  -0.03360   0.01997
   D42       -0.00235  -0.00015   0.00000  -0.00143  -0.00143  -0.00378
   D43       -3.11468  -0.00069   0.00000  -0.02011  -0.02034  -3.13502
   D44        3.12008   0.00018   0.00000   0.01154   0.01150   3.13157
   D45       -0.02069   0.00024   0.00000   0.01605   0.01607  -0.00463
   D46        0.00117   0.00009   0.00000   0.00030   0.00026   0.00143
   D47       -3.13960   0.00015   0.00000   0.00481   0.00483  -3.13477
   D48        0.00263   0.00015   0.00000   0.00201   0.00206   0.00469
   D49        3.11620   0.00081   0.00000   0.02097   0.02055   3.13674
   D50       -0.00184  -0.00009   0.00000  -0.00181  -0.00189  -0.00373
   D51        3.13945  -0.00014   0.00000  -0.00289  -0.00291   3.13655
   D52        0.00045  -0.00001   0.00000   0.00098   0.00104   0.00149
   D53        3.14121  -0.00007   0.00000  -0.00357  -0.00352   3.13769
   D54       -3.14086   0.00004   0.00000   0.00201   0.00201  -3.13885
   D55       -0.00010  -0.00002   0.00000  -0.00253  -0.00255  -0.00264
   D56       -3.11501   0.00129   0.00000   0.05183   0.05176  -3.06325
   D57        1.04494   0.00385   0.00000   0.08147   0.08191   1.12685
   D58       -0.99284  -0.00116   0.00000   0.01725   0.01672  -0.97612
   D59       -1.03028  -0.00169   0.00000   0.00486   0.00458  -1.02570
   D60        3.12967   0.00087   0.00000   0.03450   0.03473  -3.11879
   D61        1.09189  -0.00414   0.00000  -0.02971  -0.03046   1.06143
   D62        1.02428   0.00146   0.00000   0.04841   0.04872   1.07300
   D63       -1.09895   0.00402   0.00000   0.07805   0.07887  -1.02008
   D64       -3.13674  -0.00099   0.00000   0.01384   0.01368  -3.12306
   D65        1.04370  -0.00048   0.00000  -0.00812  -0.00810   1.03560
   D66        3.13642  -0.00043   0.00000  -0.00855  -0.00852   3.12790
   D67       -1.05181  -0.00023   0.00000  -0.00442  -0.00440  -1.05621
   D68       -3.11678   0.00145   0.00000   0.01261   0.01241  -3.10437
   D69       -1.02406   0.00150   0.00000   0.01219   0.01198  -1.01208
   D70        1.07089   0.00171   0.00000   0.01631   0.01611   1.08700
   D71       -1.06655  -0.00131   0.00000  -0.00994  -0.00975  -1.07630
   D72        1.02617  -0.00126   0.00000  -0.01036  -0.01018   1.01599
   D73        3.12112  -0.00105   0.00000  -0.00623  -0.00605   3.11507
         Item               Value     Threshold  Converged?
 Maximum Force            0.018065     0.000450     NO 
 RMS     Force            0.003902     0.000300     NO 
 Maximum Displacement     0.514052     0.001800     NO 
 RMS     Displacement     0.127205     0.001200     NO 
 Predicted change in Energy=-6.114114D-03
 GradGradGradGradGradGradGradGradGradGradGradGradGradGradGradGradGradGrad

                          Input orientation:                          
 ---------------------------------------------------------------------
 Center     Atomic      Atomic             Coordinates (Angstroms)
 Number     Number       Type             X           Y           Z
 ---------------------------------------------------------------------
      1          8           0       -1.135658   -0.570033   -1.194169
      2          6           0       -1.082203   -0.218419   -0.020067
      3          7           0       -0.045664   -0.444595    0.815098
      4          6           0        1.053602   -1.327873    0.459046
      5          6           0        1.035856   -2.498647    1.450609
      6          8           0        1.709061   -3.604459    1.091325
      7          8           0        0.484791   -2.415888    2.521727
      8          6           0        2.417179   -0.609494    0.535388
      9          6           0        2.583146    0.430117   -0.527051
     10          6           0        1.831978    0.795610   -1.620540
     11          7           0        2.433683    1.828347   -2.309419
     12          6           0        3.540791    2.088409   -1.651308
     13          7           0        3.682387    1.272593   -0.561858
     14          6           0       -2.234577    0.608241    0.563717
     15          6           0       -3.463568    0.287833   -0.274354
     16          7           0       -4.653061    1.134434    0.141387
     17          1           0       -0.197189   -0.367893    1.815849
     18          1           0        0.873741   -1.675900   -0.562154
     19          1           0        2.060805   -3.526648    0.188359
     20          1           0        2.507461   -0.162937    1.535327
     21          1           0        3.214037   -1.364574    0.470852
     22          1           0        0.888874    0.380903   -1.946424
     23          1           0        4.272260    2.842328   -1.907714
     24          1           0        4.450600    1.279751    0.094327
     25          1           0       -1.969104    1.669383    0.465539
     26          1           0       -2.391955    0.401020    1.628768
     27          1           0       -3.763871   -0.756888   -0.177474
     28          1           0       -3.263874    0.488146   -1.327333
     29          1           0       -4.449760    2.136508    0.039985
     30          1           0       -5.480275    0.928441   -0.432261
     31          1           0       -4.909510    0.972294    1.122629
 ---------------------------------------------------------------------
                    Distance matrix (angstroms):
                    1          2          3          4          5
     1  O    0.000000
     2  C    1.226786   0.000000
     3  N    2.289318   1.350211   0.000000
     4  C    2.846103   2.453997   1.454421   0.000000
     5  C    3.928088   3.442165   2.406800   1.534348   0.000000
     6  O    4.745908   4.526766   3.624927   2.451988   1.343544
     7  O    4.454314   3.707432   2.660819   2.400411   1.207400
     8  C    3.951655   3.564709   2.484155   1.543126   2.512883
     9  C    3.908305   3.756650   3.078494   2.530300   3.857836
    10  C    3.294485   3.475949   3.316019   3.072414   4.573609
    11  N    4.442545   4.668174   4.590864   4.419360   5.900390
    12  C    5.398654   5.417978   5.036063   4.723419   6.077637
    13  N    5.196984   5.021751   4.329331   3.836037   5.027563
    14  C    2.384557   1.533667   2.441924   3.817278   4.597288
    15  C    2.645970   2.447826   3.661342   4.853165   5.566398
    16  N    4.130501   3.821951   4.916842   6.223333   6.875836
    17  H    3.159397   2.043570   1.015059   2.080133   2.488757
    18  H    2.379090   2.498765   2.063551   1.093765   2.180461
    19  H    4.568406   4.567967   3.785375   2.433586   1.923690
    20  H    4.570360   3.912546   2.667678   2.151549   2.761945
    21  H    4.724768   4.473516   3.404484   2.160778   2.643959
    22  H    2.359850   2.820493   3.029985   2.955222   4.455697
    23  H    6.434200   6.449935   6.071411   5.775109   7.090744
    24  H    6.023968   5.733194   4.869216   4.297943   5.270319
    25  H    2.909337   2.141542   2.879360   4.256799   5.231885
    26  H    3.238857   2.194951   2.623396   4.028546   4.493294
    27  H    2.824196   2.739720   3.861061   4.892773   5.359268
    28  H    2.380500   2.639672   3.977046   5.012951   5.926683
    29  H    4.453287   4.109711   5.163231   6.516482   7.318914
    30  H    4.658501   4.563796   5.742485   6.969716   7.599349
    31  H    4.689167   4.167953   5.075348   6.425716   6.892197
                    6          7          8          9         10
     6  O    0.000000
     7  O    2.226564   0.000000
     8  C    3.127349   3.307979   0.000000
     9  C    4.434069   4.668820   1.495698   0.000000
    10  C    5.170100   5.411747   2.639092   1.376066   0.000000
    11  N    6.450234   6.719500   3.746501   2.270291   1.379546
    12  C    6.579211   6.858720   3.650045   2.220579   2.142970
    13  N    5.514768   5.773907   2.519316   1.385391   2.184568
    14  C    5.794608   4.513769   4.808588   4.942869   4.619843
    15  C    6.615974   5.542356   6.003671   6.053664   5.487519
    16  N    7.989749   6.683437   7.292793   7.301066   6.728664
    17  H    3.825452   2.271044   2.921108   3.722399   4.156925
    18  H    2.674152   3.195182   2.173481   2.712674   2.854253
    19  H    0.972176   3.026915   2.959260   4.054706   4.691097
    20  H    3.560710   3.184331   1.098837   2.147287   3.366688
    21  H    2.768939   3.572133   1.099678   2.148196   3.309139
    22  H    5.077768   5.286746   3.078310   2.210792   1.080568
    23  H    7.558127   7.849439   4.617916   3.252399   3.197890
    24  H    5.689073   5.939500   2.810442   2.143682   3.167388
    25  H    6.460179   5.190274   4.943444   4.821202   4.423056
    26  H    5.757693   4.124077   5.034321   5.422179   5.343717
    27  H    6.298531   5.299915   6.223767   6.466514   5.983829
    28  H    6.879637   6.107468   6.078562   5.901818   5.113532
    29  H    8.484992   7.157733   7.412206   7.259136   6.634423
    30  H    8.634527   7.449335   8.103788   8.079361   7.409365
    31  H    8.046933   6.521943   7.518463   7.691248   7.280375
                   11         12         13         14         15
    11  N    0.000000
    12  C    1.313937   0.000000
    13  N    2.218580   1.368396   0.000000
    14  C    5.615712   6.360197   6.059599   0.000000
    15  C    6.425904   7.362005   7.219217   1.521658   0.000000
    16  N    7.530599   8.441744   8.366203   2.510839   1.518047
    17  H    5.363095   5.659248   4.836920   2.582948   3.932958
    18  H    4.214985   4.740193   4.072112   4.018274   4.769835
    19  H    5.920634   6.091273   5.121041   5.973985   6.729270
    20  H    4.330442   4.036208   2.799889   4.901598   6.255504
    21  H    4.305067   4.066131   2.870625   5.795516   6.919262
    22  H    2.147859   3.167860   3.242816   4.013531   4.663499
    23  H    2.137730   1.081288   2.150197   7.310133   8.308812
    24  H    3.185421   2.128126   1.010336   6.735194   7.984603
    25  H    5.206745   5.917395   5.757807   1.098243   2.165536
    26  H    6.390099   6.985961   6.515836   1.096377   2.187016
    27  H    7.045445   7.976590   7.727438   2.179835   1.091334
    28  H    5.934879   6.997805   7.032202   2.156374   1.090306
    29  H    7.279866   8.167722   8.200023   2.741702   2.118721
    30  H    8.183171   9.176668   9.170039   3.410141   2.121891
    31  H    8.150722   8.963706   8.760615   2.756844   2.123864
                   16         17         18         19         20
    16  N    0.000000
    17  H    4.991554   0.000000
    18  H    6.240072   2.917648   0.000000
    19  H    8.173365   4.210106   2.323286   0.000000
    20  H    7.409408   2.726872   3.059007   3.650805   0.000000
[...]
 28,-0.00020824,-0.00005825,-0.00005364,0.00004251,0.00002705,0.0002359
 6,0.00021480,-0.00001226,-0.00017776,0.00020730,-0.06751520,-0.1109198
 7,-0.17727597,-0.00960474,-0.01823226,-0.02141568,0.00015258,-0.000116
 40,0.00107002,-0.00013926,0.00033656,0.00119401,-0.00012507,0.00010280
 ,0.00002237,0.00001149,-0.00002057,0.00001027,0.00000340,0.00003302,-0
 .00000428,-0.00003185,0.00001385,0.00001114,-0.00005558,0.00003035,0.0
 0007783,0.00007653,0.00004590,-0.00002401,0.00007259,-0.00001098,0.000
 01846,0.07724480,0.12018360,0.19367829,0.00268171,0.00098665,-0.001747
 46,-0.02111040,-0.00887709,0.00650547,-0.00052667,0.00263177,0.0001934
 6,0.00012532,0.00088856,-0.00069943,0.00020004,0.00008344,0.00031580,-
 0.00024663,0.00012319,-0.00016229,-0.00012126,0.00001077,-0.00013301,0
 .00017269,-0.00003022,-0.00020869,0.00003857,-0.00002217,-0.00001004,-
 0.00004851,0.00003067,-0.00004592,0.00009018,-0.00006023,0.00004284,-0
 .00000651,0.00006881,-0.00005221,0.00000733,-0.00003679,0.00012464,-0.
 23518161,-0.09419683,0.07474817,0.00652765,0.00469464,-0.00325981,0.00
 209014,-0.00001723,-0.00028779,-0.00004873,-0.00034525,0.00098382,-0.0
 0036071,0.00011970,-0.00001832,0.00004593,-0.00008118,0.00002190,-0.00
 001013,0.00000958,0.00003153,-0.00001897,0.00000169,0.00003949,-0.0000
 0517,0.00000603,0.00000871,0.00001107,0.00000986,-0.00000199,0.0000658
 4,0.00001919,-0.00000147,-0.00894135,-0.00370110,0.00366901,0.25370284
 ,-0.00187837,-0.00151977,0.00198457,0.02287830,0.01189644,-0.01056418,
 0.00057447,-0.00203199,0.00069861,-0.00007189,-0.00064948,0.00057169,-
 0.00010886,-0.00018876,-0.00021441,0.00015629,-0.00003779,0.00011520,0
 .00008550,0.00007550,0.00008223,-0.00012553,-0.00007719,0.00018404,-0.
 00004272,-0.00002178,0.00001433,0.00006923,-0.00010488,-0.00003114,-0.
 00026340,0.00000285,-0.00001694,0.00007794,0.00005489,0.00016320,-0.00
 009865,0.00004306,-0.00011276,-0.09050176,-0.08999192,0.03216158,-0.01
 443598,-0.00962713,0.00787777,-0.00122012,0.00107612,-0.00121014,0.000
 26962,0.00000006,-0.00037926,0.00022600,-0.00006240,0.00001424,-0.0000
 2969,0.00004904,-0.00000922,0.00001303,0.00001472,-0.00003499,-0.00000
 524,0.00001335,-0.00001291,0.00000863,-0.00001671,0.00000609,0.0000126
 0,0.00001483,-0.00000839,0.00001790,-0.00002512,0.00000982,-0.01639288
 ,-0.00761471,0.00724685,0.09778373,0.09902354,-0.00071127,-0.00096825,
 0.00084580,0.00473724,0.00088646,-0.00219655,-0.00043372,0.00057071,-0
 .00064659,0.00037491,0.00008088,-0.00009755,0.00009528,-0.00009140,0.0
 0007749,-0.00006446,0.00005739,-0.00004119,-0.00007963,0.00003859,-0.0
 0003193,-0.00002363,0.00001858,0.00000055,0.00000078,0.00000261,-0.000
 05704,-0.00001679,0.00010726,-0.00004210,0.00042428,0.00002922,0.00008
 969,-0.00010604,0.00005902,-0.00021197,0.00006524,-0.00014299,0.000269
 55,0.07191261,0.03456030,-0.07924459,0.02703160,0.01411680,-0.01217006
 ,0.00044812,-0.00119032,0.00199171,-0.00002453,-0.00025697,0.00054825,
 -0.00013674,0.00008535,0.00005073,0.00001837,-0.00001675,0.00000968,-0
 .00000861,-0.00001402,0.00002468,-0.00000284,0.00000059,0.00000363,-0.
 00003817,0.00002612,0.00005103,0.00003946,0.00002287,-0.00001183,0.000
 04469,0.00000385,-0.00002876,-0.02032193,-0.00842942,0.00944451,-0.079
 75257,-0.04194739,0.08449558,-0.00043783,0.00056647,0.00238165,-0.0003
 4224,-0.00233053,-0.00377823,0.00059819,0.00067503,0.00084745,-0.00004
 313,0.00010993,-0.00006841,-0.00006026,-0.00003097,-0.00006792,0.00000
 754,0.00000787,0.00001903,0.00004225,0.00005432,0.00006638,0.00000589,
 -0.00004917,-0.00001718,-0.00007902,0.00013250,-0.00023921,0.00009832,
 -0.00043309,-0.00042651,-0.00079566,-0.00013102,0.00028123,0.00028222,
 -0.00004131,0.00058318,0.00003047,0.00032205,0.00010471,-0.00164971,-0
 .00299409,-0.00310332,-0.07482368,-0.05978961,-0.06037211,0.00119780,0
 .02706562,0.02427991,0.00025383,-0.00006747,-0.00002509,-0.00002935,0.
 00000466,-0.00002225,-0.00000805,0.00000903,-0.00001176,0.00001747,0.0
 0000923,0.00000235,-0.00004037,0.00003751,0.00001583,-0.00031730,0.000
 07792,0.00034832,0.00002131,0.00001961,0.00001489,0.00002393,0.0000283
 1,-0.00000106,0.00075498,0.00114732,-0.00102739,0.00043527,0.00075071,
 0.00019342,0.07938398,-0.00035833,-0.00218379,-0.00158126,0.00164321,0
 .00264499,0.00335114,-0.00104684,-0.00072061,-0.00154165,0.00021599,-0
 .00027823,-0.00000202,0.00009612,0.00003757,0.00014835,-0.00005416,0.0
 0000816,-0.00004961,-0.00010940,-0.00007827,-0.00009127,-0.00001724,0.
 00016728,-0.00002390,0.00000698,0.00008632,-0.00011853,0.00000517,-0.0
 0008624,-0.00012046,-0.00008926,-0.00008906,0.00015711,0.00003205,-0.0
 0009288,-0.00000361,0.00008348,0.00003790,0.00019304,0.00442190,0.0129
 7466,0.01171214,-0.05026746,-0.16231656,-0.12806072,-0.00123307,-0.017
 69425,-0.01430236,-0.00044032,0.00031376,0.00005302,0.00002626,-0.0000
 0783,0.00005101,0.00002893,-0.00001459,0.00000891,-0.00002585,-0.00004
 601,0.00002210,0.00005445,-0.00002009,-0.00004920,-0.00002792,0.000159
 36,0.00008831,0.00000165,-0.00000282,0.00001209,-0.00000412,0.00004220
 ,-0.00001193,0.00148779,-0.00222693,0.00337979,-0.00040531,0.00068320,
 -0.00037950,0.04670129,0.17741030,0.00237000,-0.00029180,0.00259930,-0
 .00072037,-0.00340024,-0.00319535,0.00029672,0.00019223,0.00065091,-0.
 00009186,0.00009924,0.00004370,-0.00006625,-0.00001291,-0.00010958,0.0
 0003902,-0.00001284,0.00003086,0.00005168,0.00004403,0.00006959,-0.000
 00112,-0.00004028,0.00002391,0.00000584,-0.00007877,0.00006375,-0.0000
 1982,0.00012950,0.00012536,0.00017717,0.00005073,-0.00016722,-0.000044
 81,0.00004954,-0.00011800,-0.00004690,-0.00007816,-0.00004738,-0.01050
 285,-0.01544411,-0.02204701,-0.05289126,-0.13041507,-0.19618692,0.0007
 1081,0.00070252,0.00021034,0.00025300,-0.00004459,0.00003011,-0.000024
 68,0.00002293,-0.00000948,-0.00001763,0.00001351,-0.00000446,0.0000144
 5,0.00001075,-0.00000433,-0.00003055,0.00000054,0.00003984,0.00015125,
 -0.00001435,-0.00000468,0.00000052,0.00000242,-0.00001299,0.00000033,-
 0.00002560,-0.00001001,-0.00027336,0.00340892,-0.00360088,0.00057759,-
 0.00038730,0.00094513,0.05870630,0.13822923,0.21043625,-0.00113057,0.0
 0035668,0.00020021,0.00371174,-0.00138812,-0.00004543,-0.00160670,0.00
 016612,-0.00024332,0.00043428,-0.00043848,-0.00009377,-0.00020907,0.00
 030722,0.00002359,0.00006697,-0.00014436,-0.00000776,-0.00017333,-0.00
 027414,0.00014146,-0.00007321,0.00065702,-0.00007536,0.00023721,-0.000
 10928,0.00081529,-0.00381437,0.00361656,0.00176194,-0.00012747,0.00034
 539,0.00040753,-0.00205205,-0.00024353,-0.00307238,0.00101285,-0.00159
 642,0.00137712,0.00963251,0.00441862,-0.00128477,-0.21702660,-0.116308
 67,0.05869423,-0.02521135,-0.00707089,0.00621856,0.00030276,0.00016102
 ,-0.00010871,-0.00007781,-0.00001509,0.00014736,0.00002692,0.00006581,
 -0.00005065,0.00000549,-0.00021196,0.00014921,0.00003837,-0.00009413,-
 0.00000473,0.00010081,-0.00009012,-0.00036061,0.00031776,0.00005349,-0
 .00002968,-0.00019077,-0.00004585,-0.00029589,0.00030340,-0.00005159,-
 0.00007526,0.00018751,0.00176732,-0.00277337,-0.00237443,-0.00318831,0
 .00122736,0.23893768,0.00060455,-0.00027663,-0.00061926,-0.00120621,0.
 00063041,0.00088909,0.00030819,-0.00015554,0.00002064,-0.00001890,-0.0
 0006457,0.00009884,-0.00001564,0.00004234,0.00001136,0.00002326,-0.000
 02726,-0.00000055,-0.00001336,-0.00003998,-0.00000683,-0.00007260,0.00
 003816,0.00010553,0.00096555,-0.00058941,0.00155695,-0.00042050,0.0010
 5332,0.00013833,0.00109678,0.00110808,-0.00024521,-0.00098460,-0.00008
 523,-0.00155198,0.00005843,-0.00140401,-0.00023170,-0.01101985,-0.0075
 1409,0.00432324,-0.12881246,-0.14111174,0.04238302,0.03119823,0.010517
 57,-0.00892002,-0.00003289,-0.00001167,0.00004279,-0.00000797,0.000009
 78,-0.00000626,-0.00000285,0.00000366,0.00000238,-0.00001331,0.0000307
 4,-0.00000533,0.00001007,-0.00003100,-0.00000319,0.00052708,-0.0002385
 3,-0.00069694,0.00007453,0.00003601,-0.00004802,0.00001175,-0.00015543
 ,0.00000819,0.00065841,0.00082802,-0.00045262,0.00128265,-0.00026020,0
 .00224216,-0.01510903,-0.00780629,0.00696678,0.11661451,0.14662330,0.0
 0048191,0.00006900,0.00032715,0.00068508,-0.00063711,-0.00008651,-0.00
 005697,-0.00021570,0.00010472,-0.00012649,0.00010809,-0.00001567,-0.00
 001951,0.00001824,-0.00001571,0.00002130,-0.00001642,0.00000612,0.0000
 4830,0.00000515,-0.00002145,0.00000497,-0.00005674,0.00002537,-0.00015
 857,-0.00023234,0.00004631,0.00173034,-0.00051969,0.00015164,0.0004909
 1,-0.00095487,-0.00116581,-0.00058739,0.00058283,-0.00032985,-0.000709
 86,0.00025203,-0.00077351,0.02153624,0.01625922,-0.00853109,0.05744260
 ,0.03957481,-0.07587097,0.00238125,-0.00007967,-0.00108888,-0.00003805
 ,0.00010166,-0.00011314,0.00001996,-0.00000841,-0.00003098,-0.00000774
 ,0.00000028,0.00000345,0.00001359,0.00002234,-0.00002278,-0.00000456,-
 0.00001312,0.00001717,0.00035976,-0.00029490,-0.00022320,-0.00016112,-
 0.00008201,0.00002491,0.00006062,0.00007185,-0.00002774,0.00063644,-0.
 00090604,0.00123045,-0.00160894,0.00306943,-0.00400489,-0.01990847,-0.
 01109731,0.00915310,-0.06268351,-0.04504287,0.08056876,-0.00028882,-0.
 00008885,-0.00100231,-0.00022884,0.00067888,0.00101687,-0.00009268,-0.
 00018812,-0.00017641,0.00002307,-0.00000721,0.00002456,-0.00009155,0.0
 0012958,-0.00001644,0.00007589,-0.00008660,0.00002348,0.00001537,-0.00
 010027,0.00000728,-0.00000081,0.00007877,-0.00000039,0.00001356,-0.000
 12086,0.00002282,0.00006564,0.00015540,0.00017264,0.00034297,-0.000124
 41,-0.00010970,-0.00013779,0.00005597,-0.00032976,0.00005894,-0.000088
 43,0.00000744,0.00152765,-0.00052922,0.00107543,0.00959395,0.01879943,
 0.02118296,-0.07591329,-0.04888496,-0.04559953,-0.00004514,0.00007876,
 -0.00005943,0.00000555,-0.00001846,0.00001152,-0.00000854,0.00002815,-
 0.00001032,0.00000938,-0.00002485,0.00001463,0.00000366,-0.00001272,0.
 00000159,0.00003011,-0.00002883,-0.00006649,-0.00010129,-0.00003368,0.
 00000736,-0.00004652,0.00001831,-0.00002175,-0.00035091,-0.00009186,-0
 .00099006,-0.00017293,-0.00023220,-0.00018102,-0.00498839,0.00317360,-
 0.00045332,0.00041620,-0.00017177,0.00065742,0.07637583,-0.00022069,0.
 00060725,0.00091236,0.00132949,-0.00142739,-0.00093091,-0.00067932,0.0
 0042446,-0.00003470,0.00013062,-0.00019218,-0.00010813,0.00016839,-0.0
 0001114,0.00018850,-0.00014149,0.00007753,-0.00008412,-0.00013382,-0.0
 0002107,-0.00007023,-0.00005218,0.00009320,-0.00004281,0.00005992,-0.0
 0006424,0.00003983,-0.00009262,-0.00003981,0.00002361,-0.00007105,-0.0
 0013196,0.00001537,-0.00000130,0.00014610,-0.00000874,-0.00004603,-0.0
 0007292,-0.00000061,-0.00187183,0.00133737,0.00018495,-0.00253155,-0.0
 1528446,-0.01480131,-0.05676035,-0.22370371,-0.16479932,0.00013651,0.0
 0004015,0.00010856,-0.00003714,0.00002664,0.00002540,0.00004304,-0.000
 03954,0.00000850,-0.00002682,-0.00002190,0.00003025,0.00002737,-0.0000
 1730,-0.00001779,0.00002423,-0.00000040,-0.00003769,-0.00004604,0.0000
 1112,-0.00001313,0.00005359,0.00004273,-0.00001240,0.00051752,-0.00009
 162,0.00069373,-0.00001808,-0.00042206,0.00015375,0.00396022,-0.000896
 65,0.00075620,-0.00041599,0.00166717,0.00027033,0.05359058,0.23108618,
 -0.00003476,-0.00013219,-0.00044186,-0.00023060,0.00036928,-0.00019537
 ,-0.00005746,0.00004915,-0.00010452,-0.00006852,-0.00001023,0.00000069
 ,0.00002344,0.00006671,0.00008405,0.00000834,-0.00002043,-0.00002065,0
 .00001783,-0.00004352,-0.00008253,-0.00001524,-0.00005165,0.00000925,0
 .00000751,0.00002271,0.00003815,-0.00005171,-0.00014953,-0.00001072,-0
 .00034311,0.00008868,-0.00002607,0.00016657,0.00000099,0.00022357,-0.0
 0010238,0.00011043,-0.00021743,0.00070758,0.00131728,0.00228902,0.0033
 6601,-0.00230965,0.00031548,-0.05231881,-0.15942549,-0.23175695,-0.000
 09922,0.00003784,0.00005163,0.00001644,-0.00000300,-0.00001334,-0.0000
 0321,-0.00000749,0.00001472,-0.00000407,0.00001825,-0.00000933,0.00000
 217,0.00000295,-0.00000460,0.00002116,-0.00002029,-0.00001467,-0.00002
 847,-0.00002249,0.00002490,-0.00000911,0.00000805,0.00004839,-0.000585
 26,-0.00067239,-0.00025955,0.00007916,0.00011909,-0.00001134,0.0002209
 8,0.00064137,0.00088518,0.00039116,0.00013971,-0.00031218,0.05418501,0
 .17547306,0.23932192,-0.00007138,0.00001303,0.00062895,0.00078401,-0.0
 0028601,-0.00222965,-0.00057861,0.00041606,0.00021588,0.00004032,-0.00
 018094,-0.00008492,-0.00005847,0.00011491,0.00005619,0.00000424,-0.000
 03617,-0.00001832,-0.00003492,-0.00008029,0.00001063,-0.00003793,0.000
 15038,-0.00003070,0.00001188,-0.00003282,-0.00004713,0.00003454,0.0002
 1827,0.00002809,0.00054505,-0.00013514,0.00009100,-0.00020821,-0.00002
 134,-0.00036025,0.00018332,-0.00016484,0.00031265,-0.00454088,0.003759
 78,0.00276113,-0.00248431,0.01108014,-0.02351197,-0.07037985,0.0224352
 1,-0.05120525,0.00006504,0.00006447,-0.00000467,-0.00001139,-0.0000017
 1,0.00003036,0.00000699,0.00001118,-0.00001077,-0.00000057,-0.00004979
 ,0.00004097,0.00000662,-0.00001093,-0.00000635,-0.00004253,0.00005521,
 0.00000994,-0.00000818,0.00000730,-0.00000457,-0.00001703,0.00001804,-
 0.00004958,0.00013792,-0.00030512,0.00022089,0.00034889,-0.00006737,0.
 00025631,0.00129471,-0.00034267,0.00026551,-0.00053105,-0.00046433,-0.
 00055486,-0.00169923,0.00485083,-0.00708743,0.06761836,-0.00030373,-0.
 00001060,-0.00069621,0.00024701,0.00074442,0.00221720,0.00023164,-0.00
 041703,-0.00035612,0.00004059,0.00003998,0.00009466,0.00005792,-0.0000
 5452,-0.00001168,-0.00001074,0.00001346,0.00000755,-0.00002243,0.00001
 397,-0.00001058,0.00001048,-0.00002377,0.00001520,0.00004887,-0.000061
 44,0.00008482,-0.00006067,0.00000528,0.00009846,-0.00015430,-0.0000953
 8,0.00002238,-0.00001327,0.00006480,0.00002608,-0.00005295,-0.00005399
 ,-0.00011537,0.00365049,-0.00292448,-0.00213918,0.00275093,-0.00996514
 ,0.01796058,0.01941700,-0.14078397,0.14491738,-0.00001522,-0.00001611,
 -0.00000751,0.00000603,-0.00000150,-0.00000107,0.00000685,-0.00000101,
 0.00000328,-0.00000511,0.00001131,-0.00000955,0.00000903,-0.00000375,-
 0.00000159,0.00005594,-0.00002328,-0.00006119,-0.00001933,0.00001127,-
 0.00002116,0.00002629,-0.00000180,0.00000607,0.00018584,0.00015062,0.0
 0004194,-0.00010255,0.00034448,-0.00049806,-0.00067038,-0.00054534,-0.
 00000735,-0.00033188,0.00146103,-0.00024267,-0.00397544,0.01796000,-0.
 02574221,-0.02581851,0.14210658,0.00026011,-0.00015932,0.00004875,-0.0
 0023025,-0.00015717,0.00035646,0.00034187,-0.00021611,0.00000772,-0.00
 005559,0.00011679,0.00002162,-0.00010707,0.00008460,-0.00006555,0.0000
 9552,-0.00007473,0.00003794,0.00007308,-0.00003979,0.00001073,0.000027
 17,-0.00002659,0.00002901,-0.00003455,-0.00002344,-0.00005263,0.000160
 50,0.00007075,0.00007897,0.00014245,0.00001237,-0.00018768,-0.00001345
 ,0.00000499,-0.00005004,-0.00001853,0.00002844,-0.00005040,0.00090699,
 -0.00062410,-0.00019049,-0.00223670,-0.00133032,0.00885507,-0.04331420
 ,0.13751896,-0.31965525,-0.00009496,-0.00000804,-0.00004591,0.00001407
 ,-0.00001641,-0.00000705,-0.00002572,0.00002588,-0.00000008,0.00001700
 ,0.00000344,-0.00001332,-0.00001418,0.00000153,0.00001038,-0.00000109,
 -0.00005090,0.00005215,-0.00002662,-0.00001256,0.00000619,-0.00004678,
 -0.00000951,0.00001175,0.00010668,-0.00004698,0.00007813,-0.00002781,-
 0.00000333,-0.00011129,0.00035835,-0.00052655,0.00059779,-0.00022901,-
 0.00037544,0.00045686,-0.00280567,0.01467250,-0.02065833,0.04849969,-0
 .15070116,0.33583434,0.00029334,-0.00046743,-0.00021570,-0.00059066,0.
 00088585,0.00071686,0.00066137,-0.00047156,0.00005817,-0.00011633,0.00
 016677,0.00014134,-0.00016837,0.00005934,-0.00016964,0.00015280,-0.000
 10639,0.00008697,0.00011796,-0.00002267,0.00005352,0.00001735,-0.00006
 247,0.00004198,0.00006451,-0.00004574,0.00013710,-0.00018844,-0.000066
 93,-0.00001132,-0.00009783,0.00003771,0.00002273,-0.00001503,0.0000293
 9,0.00002953,-0.00001633,-0.00002873,-0.00014917,0.00181759,-0.0014586
 6,-0.00100738,-0.02239336,-0.00938428,0.00697763,-0.30462804,-0.143418
 06,0.07388370,-0.00009835,-0.00000969,-0.00010753,0.00003890,-0.000029
 76,-0.00002171,-0.00003774,0.00004805,-0.00001164,0.00002424,0.0000181
 9,-0.00002681,-0.00002572,0.00001397,0.00001246,0.00001126,0.00000260,
 -0.00001330,-0.00002778,-0.00000891,0.00000149,-0.00003107,-0.00002027
 ,0.00001364,-0.00007710,0.00002942,0.00000475,0.00006856,0.00078340,-0
 .00096699,0.00154127,-0.00036862,0.00033722,-0.00113370,0.00493229,0.0
 0005533,-0.00439104,-0.00174601,0.00182603,0.00962263,0.00481160,-0.00
 172129,0.31960510,-0.00036683,0.00000707,0.00007763,0.00026470,-0.0004
 7780,0.00003799,-0.00037040,0.00017569,-0.00014761,0.00013151,-0.00005
 076,-0.00007744,0.00002999,0.00004869,0.00006824,-0.00003494,-0.000003
 11,-0.00002464,-0.00006320,-0.00005279,-0.00001276,0.00000480,0.000094
 12,-0.00002399,-0.00008068,0.00003561,-0.00015718,0.00022140,0.0002118
 7,0.00000894,0.00044830,-0.00007850,-0.00004030,-0.00010562,-0.0000254
 6,-0.00024705,0.00011266,-0.00005275,0.00027227,0.00071334,0.00177458,
 -0.00130045,0.01976461,0.01729862,-0.00647538,-0.13160713,-0.13615829,
 0.03951661,0.00005135,0.00004768,0.00003446,-0.00003069,0.00000382,0.0
 0002459,0.00002113,-0.00000077,-0.00000517,-0.00000382,-0.00003566,0.0
 0002745,0.00001134,-0.00000897,-0.00000412,-0.00003702,0.00001604,0.00
 004857,0.00001254,0.00000505,0.00000381,-0.00001100,0.00002626,-0.0000
 3480,-0.00039773,-0.00016817,0.00010118,-0.00085688,-0.00064017,0.0008
 7259,-0.00003293,0.00054072,-0.00042570,0.00348907,-0.00427800,-0.0000
 0537,-0.02197864,-0.01108152,0.01014501,-0.01519684,-0.00794409,0.0018
 6219,0.14589761,0.14077100,-0.00002742,-0.00041679,-0.00050510,-0.0002
 0394,0.00112767,0.00017173,0.00017829,-0.00016282,-0.00005381,-0.00008
 784,0.00002463,0.00005454,-0.00005160,0.00003997,-0.00001967,0.0000570
 9,-0.00003793,0.00001700,0.00005002,-0.00001839,-0.00001595,0.00000606
 ,-0.00003197,0.00002090,0.00000242,0.00000952,0.00000519,0.00004009,0.
 00002017,0.00002600,-0.00001053,0.00003669,-0.00003162,0.00001426,-0.0
 0002782,0.00002076,-0.00001618,0.00000840,-0.00005656,-0.00161235,-0.0
 0142939,0.00097239,0.00354476,0.00006296,-0.00069101,0.07185383,0.0425
 3532,-0.08980455,-0.00007184,-0.00001759,-0.00001682,0.00002823,-0.000
 00996,-0.00000604,-0.00001810,0.00001281,0.00000658,0.00000668,0.00001
 078,-0.00001071,-0.00000549,0.00000502,0.00000334,0.00000734,-0.000008
 14,0.00001185,0.00000500,-0.00000216,0.00000442,-0.00001872,-0.0000143
 4,0.00001949,-0.00008213,0.00006776,-0.00019540,0.00067615,0.00061361,
 0.00005966,0.00064492,-0.00008771,-0.00038684,-0.00012081,-0.00072281,
 0.00051836,-0.02658842,-0.01259498,0.01083249,0.03177822,0.01512706,-0
 .00540585,-0.07997799,-0.04411956,0.08445522\\-0.00000543,-0.00000343,
 -0.00000110,-0.00001826,-0.00000063,-0.00001997,-0.00001045,-0.0000082
 6,0.00002532,0.00000996,-0.00000254,-0.00000303,-0.00000189,-0.0000154
 4,-0.00000907,-0.00000331,0.00000256,0.00000554,0.00000058,0.00001314,
 0.00000146,0.00001604,-0.00000346,0.00001031,0.00000428,-0.00000305,-0
 .00001142,-0.00000612,-0.00000009,0.00000301,0.00000085,-0.00000107,0.
 00000060,-0.00000426,0.00000249,-0.00000410,-0.00000212,-0.00001053,0.
 00000314,0.00001288,0.00001467,-0.00002096,-0.00001019,0.00002393,-0.0
 0000011,0.00000061,-0.00000121,-0.00000670,0.00000575,0.00000492,0.000
 01262,-0.00000270,0.00000145,-0.00000033,-0.00000221,0.00000097,0.0000
 0246,-0.00000262,0.00000243,-0.00000267,-0.00000217,0.00000062,0.00000
 334,0.00000509,-0.00000040,-0.00000266,0.00000237,-0.00000098,-0.00000
 120,0.00000365,0.00000055,0.00000136,0.00000136,-0.00000098,0.00000010
 ,0.00000285,-0.00000320,0.00000218,-0.00000101,-0.00001010,0.00000129,
 0.00000502,-0.00000471,0.00001441,0.00000102,0.00000019,-0.00000170,-0
 .00000049,0.00000004,0.00000017,0.00000090,0.00000212,-0.00000227\\\@


 YOU WILL NEVER "FIND" TIME FOR ANYTHING.
 IF YOU WANT TIME, YOU MUST MAKE IT.

                        -- CHARLES BIXTON
 Job cpu time:       0 days  1 hours 16 minutes  5.1 seconds.
 File lengths (MBytes):  RWF=    277 Int=      0 D2E=      0 Chk=      8 Scr=      1
 Normal termination of Gaussian 09 at Tue Jul 27 03:04:38 2021.
