 Entering Gaussian System, Link 0=g09
 Input=opt_freq-conf-301.com
 Output=opt_freq-conf-301.log
 Initial command:
 /aerosol/software/g09/l1.exe "/scratch/nicole/10526/Gau-551760.inp" -scrdir="/scratch/nicole/10526/"
 Entering Link 1 = /aerosol/software/g09/l1.exe PID=    551764.
  
 Copyright (c) 1988,1990,1992,1993,1995,1998,2003,2009,2013,
            Gaussian, Inc.  All Rights Reserved.
  
 This is part of the Gaussian(R) 09 program.  It is based on
 the Gaussian(R) 03 system (copyright 2003, Gaussian, Inc.),
 the Gaussian(R) 98 system (copyright 1998, Gaussian, Inc.),
 the Gaussian(R) 94 system (copyright 1995, Gaussian, Inc.),
 the Gaussian 92(TM) system (copyright 1992, Gaussian, Inc.),
 the Gaussian 90(TM) system (copyright 1990, Gaussian, Inc.),
 the Gaussian 88(TM) system (copyright 1988, Gaussian, Inc.),
 the Gaussian 86(TM) system (copyright 1986, Carnegie Mellon
 University), and the Gaussian 82(TM) system (copyright 1983,
 Carnegie Mellon University). Gaussian is a federally registered
 trademark of Gaussian, Inc.
  
 This software contains proprietary and confidential information,
 including trade secrets, belonging to Gaussian, Inc.
  
 This software is provided under written license and may be
 used, copied, transmitted, or stored only in accord with that
 written license.
  
 The following legend is applicable only to US Government
 contracts under FAR:
  
                    RESTRICTED RIGHTS LEGEND
  
 Use, reproduction and disclosure by the US Government is
 subject to restrictions as set forth in subparagraphs (a)
 and (c) of the Commercial Computer Software - Restricted
 Rights clause in FAR 52.227-19.
  
 Gaussian, Inc.
 340 Quinnipiac St., Bldg. 40, Wallingford CT 06492
  
  
 ---------------------------------------------------------------
 Warning -- This program may not be used in any manner that
 competes with the business of Gaussian, Inc. or will provide
 assistance to any competitor of Gaussian, Inc.  The licensee
 of this program is prohibited from giving any competitor of
 Gaussian, Inc. access to this program.  By using this program,
 the user acknowledges that Gaussian, Inc. is engaged in the
 business of creating and licensing software in the field of
 computational chemistry and represents and warrants to the
 licensee that it is not a competitor of Gaussian, Inc. and that
 it will not use this program in any manner prohibited above.
 ---------------------------------------------------------------
  

 Cite this work as:
 Gaussian 09, Revision D.01,
 M. J. Frisch, G. W. Trucks, H. B. Schlegel, G. E. Scuseria, 
 M. A. Robb, J. R. Cheeseman, G. Scalmani, V. Barone, B. Mennucci, 
 G. A. Petersson, H. Nakatsuji, M. Caricato, X. Li, H. P. Hratchian, 
 A. F. Izmaylov, J. Bloino, G. Zheng, J. L. Sonnenberg, M. Hada, 
 M. Ehara, K. Toyota, R. Fukuda, J. Hasegawa, M. Ishida, T. Nakajima, 
 Y. Honda, O. Kitao, H. Nakai, T. Vreven, J. A. Montgomery, Jr., 
 J. E. Peralta, F. Ogliaro, M. Bearpark, J. J. Heyd, E. Brothers, 
 K. N. Kudin, V. N. Staroverov, T. Keith, R. Kobayashi, J. Normand, 
 K. Raghavachari, A. Rendell, J. C. Burant, S. S. Iyengar, J. Tomasi, 
 M. Cossi, N. Rega, J. M. Millam, M. Klene, J. E. Knox, J. B. Cross, 
 V. Bakken, C. Adamo, J. Jaramillo, R. Gomperts, R. E. Stratmann, 
 O. Yazyev, A. J. Austin, R. Cammi, C. Pomelli, J. W. Ochterski, 
 R. L. Martin, K. Morokuma, V. G. Zakrzewski, G. A. Voth, 
 P. Salvador, J. J. Dannenberg, S. Dapprich, A. D. Daniels, 
 O. Farkas, J. B. Foresman, J. V. Ortiz, J. Cioslowski, 
 and D. J. Fox, Gaussian, Inc., Wallingford CT, 2013.
 
 ******************************************
 Gaussian 09:  ES64L-G09RevD.01 24-Apr-2013
                27-Jul-2021 
 ******************************************
 %mem=2gb
 %nproc=4
 Will use up to    4 processors via shared memory.
 %chk=conf-301.chk
 ----------------------------------------------------------------------
 # B3LYP/6-31G(d) EmpiricalDispersion=GD3BJ opt=calcfc freq=noraman nos
 ymm integral(ultrafinegrid)
 ----------------------------------------------------------------------
 1/10=4,14=-1,18=20,19=15,26=4,38=1/1,3;
 2/9=110,12=2,15=1,17=6,18=5,40=1/2;
 3/5=1,6=6,7=1,11=2,16=1,25=1,30=1,71=2,74=-5,75=-5,124=41,140=1/1,2,3;
 4//1;
 5/5=2,38=5/2;
 8/6=4,10=90,11=11/1;
 11/6=1,8=1,9=11,15=111,16=1,31=1/1,2,10;
 10/6=1,13=1,31=1/2;
 6/7=2,8=2,9=2,10=2,28=1/1;
 7/10=1,18=20,25=1,30=1/1,2,3,16;
 1/10=4,14=-1,18=20,19=15,26=4/3(2);
 2/9=110,15=1/2;
 99//99;
 2/9=110,15=1/2;
 3/5=1,6=6,7=1,11=2,16=1,25=1,30=1,71=1,74=-5,75=-5,124=41/1,2,3;
 4/5=5,16=3,69=1/1;
 5/5=2,38=5/2;
 7/30=1/1,2,3,16;
 1/14=-1,18=20,19=15,26=4/3(-5);
 2/9=110,15=1/2;
 6/7=2,8=2,9=2,10=2,19=2,28=1/1;
 99/9=1/99;
 ------------------------------------------------------------
 Candidate Structure: Conf:301 OPT and FREQ calc in gas phase
 ------------------------------------------------------------
 Symbolic Z-matrix:
 Charge =  1 Multiplicity = 1
 O                    -0.13881  -0.14864  -1.76768 
 C                     0.37704   0.73199  -1.08592 
 N                    -0.36807   1.54339  -0.28954 
 C                    -1.69978   1.15699   0.11336 
 C                    -2.48703   2.41612   0.39823 
 O                    -3.81375   2.17874   0.4095 
 O                    -2.00478   3.49354   0.62806 
 C                    -1.71407   0.28347   1.39749 
 C                    -0.86229  -0.9459    1.29263 
 C                     0.37799  -1.24597   1.78407 
 N                     0.81292  -2.47088   1.32067 
 C                    -0.17136  -2.92931   0.59162 
 N                    -1.20497  -2.04884   0.5375 
 C                     1.87632   0.99424  -1.03538 
 C                     2.70492   0.02335  -1.85939 
 N                     2.44095  -1.38529  -1.47797 
 H                     0.06396   2.28836   0.23028 
 H                    -2.15378   0.60536  -0.70847 
 H                    -4.23228   3.02183   0.6253 
 H                    -1.3464    0.87479   2.23745 
 H                    -2.74758   0.01572   1.61236 
 H                     0.99944  -0.61957   2.41458 
 H                    -0.1819   -3.87674   0.07388 
 H                    -2.04603  -2.15826  -0.00986 
 H                     2.19196   0.9501    0.01525 
 H                     2.05996   2.0183   -1.37188 
 H                     2.46431   0.1559   -2.91485 
 H                     3.76406   0.2522   -1.73145 
 H                     3.06624  -2.03948  -1.94956 
 H                     1.47923  -1.59914  -1.75807 
 H                     2.49377  -1.5368   -0.46652 
 

 GradGradGradGradGradGradGradGradGradGradGradGradGradGradGradGradGradGrad
 Berny optimization.
 Initialization pass.
                           ----------------------------
                           !    Initial Parameters    !
                           ! (Angstroms and Degrees)  !
 --------------------------                            --------------------------
 ! Name  Definition              Value          Derivative Info.                !
 --------------------------------------------------------------------------------
 ! R1    R(1,2)                  1.2274         calculate D2E/DX2 analytically  !
 ! R2    R(2,3)                  1.3593         calculate D2E/DX2 analytically  !
 ! R3    R(2,14)                 1.5229         calculate D2E/DX2 analytically  !
 ! R4    R(3,4)                  1.444          calculate D2E/DX2 analytically  !
 ! R5    R(3,17)                 1.0059         calculate D2E/DX2 analytically  !
 ! R6    R(4,5)                  1.5121         calculate D2E/DX2 analytically  !
 ! R7    R(4,8)                  1.5531         calculate D2E/DX2 analytically  !
 ! R8    R(4,18)                 1.089          calculate D2E/DX2 analytically  !
 ! R9    R(5,6)                  1.3478         calculate D2E/DX2 analytically  !
 ! R10   R(5,7)                  1.2026         calculate D2E/DX2 analytically  !
 ! R11   R(6,19)                 0.9657         calculate D2E/DX2 analytically  !
 ! R12   R(8,9)                  1.4993         calculate D2E/DX2 analytically  !
 ! R13   R(8,20)                 1.091          calculate D2E/DX2 analytically  !
 ! R14   R(8,21)                 1.089          calculate D2E/DX2 analytically  !
 ! R15   R(9,10)                 1.3674         calculate D2E/DX2 analytically  !
 ! R16   R(9,13)                 1.3799         calculate D2E/DX2 analytically  !
 ! R17   R(10,11)                1.38           calculate D2E/DX2 analytically  !
 ! R18   R(10,22)                1.0845         calculate D2E/DX2 analytically  !
 ! R19   R(11,12)                1.3079         calculate D2E/DX2 analytically  !
 ! R20   R(12,13)                1.3589         calculate D2E/DX2 analytically  !
 ! R21   R(12,23)                1.0797         calculate D2E/DX2 analytically  !
 ! R22   R(13,24)                1.0094         calculate D2E/DX2 analytically  !
 ! R23   R(14,15)                1.5193         calculate D2E/DX2 analytically  !
 ! R24   R(14,25)                1.0979         calculate D2E/DX2 analytically  !
 ! R25   R(14,26)                1.0935         calculate D2E/DX2 analytically  !
 ! R26   R(15,16)                1.483          calculate D2E/DX2 analytically  !
 ! R27   R(15,27)                1.0906         calculate D2E/DX2 analytically  !
 ! R28   R(15,28)                1.0911         calculate D2E/DX2 analytically  !
 ! R29   R(16,29)                1.0205         calculate D2E/DX2 analytically  !
 ! R30   R(16,30)                1.0243         calculate D2E/DX2 analytically  !
 ! R31   R(16,31)                1.0241         calculate D2E/DX2 analytically  !
 ! A1    A(1,2,3)              121.5556         calculate D2E/DX2 analytically  !
 ! A2    A(1,2,14)             123.764          calculate D2E/DX2 analytically  !
 ! A3    A(3,2,14)             114.6718         calculate D2E/DX2 analytically  !
 ! A4    A(2,3,4)              120.6148         calculate D2E/DX2 analytically  !
 ! A5    A(2,3,17)             120.6239         calculate D2E/DX2 analytically  !
 ! A6    A(4,3,17)             116.7494         calculate D2E/DX2 analytically  !
 ! A7    A(3,4,5)              108.0534         calculate D2E/DX2 analytically  !
 ! A8    A(3,4,8)              112.9349         calculate D2E/DX2 analytically  !
 ! A9    A(3,4,18)             108.0278         calculate D2E/DX2 analytically  !
 ! A10   A(5,4,8)              107.9259         calculate D2E/DX2 analytically  !
 ! A11   A(5,4,18)             110.3004         calculate D2E/DX2 analytically  !
 ! A12   A(8,4,18)             109.5873         calculate D2E/DX2 analytically  !
 ! A13   A(4,5,6)              111.5559         calculate D2E/DX2 analytically  !
 ! A14   A(4,5,7)              124.9785         calculate D2E/DX2 analytically  !
 ! A15   A(6,5,7)              123.4302         calculate D2E/DX2 analytically  !
 ! A16   A(5,6,19)             105.9456         calculate D2E/DX2 analytically  !
 ! A17   A(4,8,9)              113.4602         calculate D2E/DX2 analytically  !
 ! A18   A(4,8,20)             109.1842         calculate D2E/DX2 analytically  !
 ! A19   A(4,8,21)             108.0677         calculate D2E/DX2 analytically  !
 ! A20   A(9,8,20)             107.8662         calculate D2E/DX2 analytically  !
 ! A21   A(9,8,21)             110.5699         calculate D2E/DX2 analytically  !
 ! A22   A(20,8,21)            107.5279         calculate D2E/DX2 analytically  !
 ! A23   A(8,9,10)             132.0744         calculate D2E/DX2 analytically  !
 ! A24   A(8,9,13)             123.5444         calculate D2E/DX2 analytically  !
 ! A25   A(10,9,13)            104.2715         calculate D2E/DX2 analytically  !
 ! A26   A(9,10,11)            111.0983         calculate D2E/DX2 analytically  !
 ! A27   A(9,10,22)            127.0102         calculate D2E/DX2 analytically  !
 ! A28   A(11,10,22)           121.8242         calculate D2E/DX2 analytically  !
 ! A29   A(10,11,12)           105.1373         calculate D2E/DX2 analytically  !
 ! A30   A(11,12,13)           111.5634         calculate D2E/DX2 analytically  !
 ! A31   A(11,12,23)           125.6073         calculate D2E/DX2 analytically  !
 ! A32   A(13,12,23)           122.8225         calculate D2E/DX2 analytically  !
 ! A33   A(9,13,12)            107.8912         calculate D2E/DX2 analytically  !
 ! A34   A(9,13,24)            126.1768         calculate D2E/DX2 analytically  !
 ! A35   A(12,13,24)           125.8125         calculate D2E/DX2 analytically  !
 ! A36   A(2,14,15)            114.1355         calculate D2E/DX2 analytically  !
 ! A37   A(2,14,25)            107.9306         calculate D2E/DX2 analytically  !
 ! A38   A(2,14,26)            108.4455         calculate D2E/DX2 analytically  !
 ! A39   A(15,14,25)           109.6656         calculate D2E/DX2 analytically  !
 ! A40   A(15,14,26)           109.8762         calculate D2E/DX2 analytically  !
 ! A41   A(25,14,26)           106.4904         calculate D2E/DX2 analytically  !
 ! A42   A(14,15,16)           111.7413         calculate D2E/DX2 analytically  !
 ! A43   A(14,15,27)           109.08           calculate D2E/DX2 analytically  !
 ! A44   A(14,15,28)           109.3767         calculate D2E/DX2 analytically  !
 ! A45   A(16,15,27)           108.97           calculate D2E/DX2 analytically  !
 ! A46   A(16,15,28)           109.9886         calculate D2E/DX2 analytically  !
 ! A47   A(27,15,28)           107.5867         calculate D2E/DX2 analytically  !
 ! A48   A(15,16,29)           112.3948         calculate D2E/DX2 analytically  !
 ! A49   A(15,16,30)           107.1637         calculate D2E/DX2 analytically  !
 ! A50   A(15,16,31)           112.6662         calculate D2E/DX2 analytically  !
 ! A51   A(29,16,30)           108.3673         calculate D2E/DX2 analytically  !
 ! A52   A(29,16,31)           109.2679         calculate D2E/DX2 analytically  !
 ! A53   A(30,16,31)           106.7156         calculate D2E/DX2 analytically  !
 ! D1    D(1,2,3,4)             19.5353         calculate D2E/DX2 analytically  !
 ! D2    D(1,2,3,17)          -177.1208         calculate D2E/DX2 analytically  !
 ! D3    D(14,2,3,4)          -159.4324         calculate D2E/DX2 analytically  !
 ! D4    D(14,2,3,17)            3.9116         calculate D2E/DX2 analytically  !
 ! D5    D(1,2,14,15)           -2.7105         calculate D2E/DX2 analytically  !
 ! D6    D(1,2,14,25)         -124.8903         calculate D2E/DX2 analytically  !
 ! D7    D(1,2,14,26)          120.1217         calculate D2E/DX2 analytically  !
 ! D8    D(3,2,14,15)          176.2313         calculate D2E/DX2 analytically  !
 ! D9    D(3,2,14,25)           54.0516         calculate D2E/DX2 analytically  !
 ! D10   D(3,2,14,26)          -60.9365         calculate D2E/DX2 analytically  !
 ! D11   D(2,3,4,5)           -153.9324         calculate D2E/DX2 analytically  !
 ! D12   D(2,3,4,8)             86.7643         calculate D2E/DX2 analytically  !
 ! D13   D(2,3,4,18)           -34.6031         calculate D2E/DX2 analytically  !
 ! D14   D(17,3,4,5)            42.1016         calculate D2E/DX2 analytically  !
 ! D15   D(17,3,4,8)           -77.2016         calculate D2E/DX2 analytically  !
 ! D16   D(17,3,4,18)          161.431          calculate D2E/DX2 analytically  !
 ! D17   D(3,4,5,6)            162.512          calculate D2E/DX2 analytically  !
 ! D18   D(3,4,5,7)            -19.5962         calculate D2E/DX2 analytically  !
 ! D19   D(8,4,5,6)            -75.0616         calculate D2E/DX2 analytically  !
 ! D20   D(8,4,5,7)            102.8302         calculate D2E/DX2 analytically  !
 ! D21   D(18,4,5,6)            44.631          calculate D2E/DX2 analytically  !
 ! D22   D(18,4,5,7)          -137.4772         calculate D2E/DX2 analytically  !
 ! D23   D(3,4,8,9)            -55.4448         calculate D2E/DX2 analytically  !
 ! D24   D(3,4,8,20)            64.8933         calculate D2E/DX2 analytically  !
 ! D25   D(3,4,8,21)          -178.4322         calculate D2E/DX2 analytically  !
 ! D26   D(5,4,8,9)           -174.8217         calculate D2E/DX2 analytically  !
 ! D27   D(5,4,8,20)           -54.4836         calculate D2E/DX2 analytically  !
 ! D28   D(5,4,8,21)            62.1909         calculate D2E/DX2 analytically  !
 ! D29   D(18,4,8,9)            65.036          calculate D2E/DX2 analytically  !
 ! D30   D(18,4,8,20)         -174.6259         calculate D2E/DX2 analytically  !
 ! D31   D(18,4,8,21)          -57.9514         calculate D2E/DX2 analytically  !
 ! D32   D(4,5,6,19)           178.1955         calculate D2E/DX2 analytically  !
 ! D33   D(7,5,6,19)             0.2653         calculate D2E/DX2 analytically  !
 ! D34   D(4,8,9,10)           102.3333         calculate D2E/DX2 analytically  !
 ! D35   D(4,8,9,13)           -73.2285         calculate D2E/DX2 analytically  !
 ! D36   D(20,8,9,10)          -18.7483         calculate D2E/DX2 analytically  !
 ! D37   D(20,8,9,13)          165.6898         calculate D2E/DX2 analytically  !
 ! D38   D(21,8,9,10)         -136.0673         calculate D2E/DX2 analytically  !
 ! D39   D(21,8,9,13)           48.3708         calculate D2E/DX2 analytically  !
 ! D40   D(8,9,10,11)         -174.3606         calculate D2E/DX2 analytically  !
 ! D41   D(8,9,10,22)            2.6761         calculate D2E/DX2 analytically  !
 ! D42   D(13,9,10,11)           1.8236         calculate D2E/DX2 analytically  !
 ! D43   D(13,9,10,22)         178.8603         calculate D2E/DX2 analytically  !
 ! D44   D(8,9,13,12)          175.669          calculate D2E/DX2 analytically  !
 ! D45   D(8,9,13,24)           -0.5304         calculate D2E/DX2 analytically  !
 ! D46   D(10,9,13,12)          -0.9332         calculate D2E/DX2 analytically  !
 ! D47   D(10,9,13,24)        -177.1326         calculate D2E/DX2 analytically  !
 ! D48   D(9,10,11,12)          -2.0211         calculate D2E/DX2 analytically  !
 ! D49   D(22,10,11,12)       -179.2363         calculate D2E/DX2 analytically  !
 ! D50   D(10,11,12,13)          1.3885         calculate D2E/DX2 analytically  !
 ! D51   D(10,11,12,23)       -179.5397         calculate D2E/DX2 analytically  !
 ! D52   D(11,12,13,9)          -0.3003         calculate D2E/DX2 analytically  !
 ! D53   D(11,12,13,24)        175.9167         calculate D2E/DX2 analytically  !
 ! D54   D(23,12,13,9)        -179.4022         calculate D2E/DX2 analytically  !
 ! D55   D(23,12,13,24)         -3.1853         calculate D2E/DX2 analytically  !
 ! D56   D(2,14,15,16)         -55.3687         calculate D2E/DX2 analytically  !
 ! D57   D(2,14,15,27)          65.1784         calculate D2E/DX2 analytically  !
 ! D58   D(2,14,15,28)        -177.3984         calculate D2E/DX2 analytically  !
 ! D59   D(25,14,15,16)         65.8549         calculate D2E/DX2 analytically  !
 ! D60   D(25,14,15,27)       -173.598          calculate D2E/DX2 analytically  !
 ! D61   D(25,14,15,28)        -56.1748         calculate D2E/DX2 analytically  !
 ! D62   D(26,14,15,16)       -177.4187         calculate D2E/DX2 analytically  !
 ! D63   D(26,14,15,27)        -56.8716         calculate D2E/DX2 analytically  !
 ! D64   D(26,14,15,28)         60.5516         calculate D2E/DX2 analytically  !
 ! D65   D(14,15,16,29)       -173.5573         calculate D2E/DX2 analytically  !
 ! D66   D(14,15,16,30)         67.498          calculate D2E/DX2 analytically  !
 ! D67   D(14,15,16,31)        -49.5803         calculate D2E/DX2 analytically  !
 ! D68   D(27,15,16,29)         65.8315         calculate D2E/DX2 analytically  !
 ! D69   D(27,15,16,30)        -53.1132         calculate D2E/DX2 analytically  !
 ! D70   D(27,15,16,31)       -170.1915         calculate D2E/DX2 analytically  !
 ! D71   D(28,15,16,29)        -51.8798         calculate D2E/DX2 analytically  !
 ! D72   D(28,15,16,30)       -170.8245         calculate D2E/DX2 analytically  !
 ! D73   D(28,15,16,31)         72.0972         calculate D2E/DX2 analytically  !
 --------------------------------------------------------------------------------
 Trust Radius=3.00D-01 FncErr=1.00D-07 GrdErr=1.00D-06
 Number of steps in this run=    167 maximum allowed number of steps=    186.
 GradGradGradGradGradGradGradGradGradGradGradGradGradGradGradGradGradGrad

                          Input orientation:                          
 ---------------------------------------------------------------------
 Center     Atomic      Atomic             Coordinates (Angstroms)
 Number     Number       Type             X           Y           Z
 ---------------------------------------------------------------------
      1          8           0       -0.138812   -0.148640   -1.767677
      2          6           0        0.377043    0.731988   -1.085918
      3          7           0       -0.368072    1.543392   -0.289539
      4          6           0       -1.699776    1.156991    0.113364
      5          6           0       -2.487034    2.416121    0.398227
      6          8           0       -3.813746    2.178739    0.409500
      7          8           0       -2.004782    3.493543    0.628056
      8          6           0       -1.714069    0.283474    1.397493
      9          6           0       -0.862288   -0.945898    1.292630
     10          6           0        0.377987   -1.245966    1.784068
     11          7           0        0.812918   -2.470876    1.320671
     12          6           0       -0.171359   -2.929311    0.591616
     13          7           0       -1.204965   -2.048844    0.537500
     14          6           0        1.876321    0.994236   -1.035383
     15          6           0        2.704922    0.023349   -1.859393
     16          7           0        2.440955   -1.385286   -1.477965
     17          1           0        0.063956    2.288359    0.230280
     18          1           0       -2.153784    0.605359   -0.708473
     19          1           0       -4.232284    3.021834    0.625295
     20          1           0       -1.346396    0.874791    2.237450
     21          1           0       -2.747575    0.015717    1.612359
     22          1           0        0.999445   -0.619573    2.414576
     23          1           0       -0.181899   -3.876737    0.073880
     24          1           0       -2.046031   -2.158257   -0.009859
     25          1           0        2.191957    0.950096    0.015249
     26          1           0        2.059958    2.018302   -1.371880
     27          1           0        2.464305    0.155904   -2.914855
     28          1           0        3.764060    0.252198   -1.731446
     29          1           0        3.066242   -2.039480   -1.949563
     30          1           0        1.479227   -1.599140   -1.758067
     31          1           0        2.493767   -1.536799   -0.466521
 ---------------------------------------------------------------------
                    Distance matrix (angstroms):
                    1          2          3          4          5
     1  O    0.000000
     2  C    1.227358   0.000000
     3  N    2.258412   1.359335   0.000000
     4  C    2.771208   2.435586   1.443978   0.000000
     5  C    4.096741   3.638946   2.392630   1.512062   0.000000
     6  O    4.864353   4.678897   3.572813   2.366545   1.347828
     7  O    4.742033   4.029514   2.706268   2.411931   1.202591
     8  C    3.561805   3.277384   2.499035   1.553133   2.478748
     9  C    3.244152   3.163659   2.990665   2.552292   3.839652
    10  C    3.753145   3.485559   3.554851   3.589227   4.851781
    11  N    3.979506   4.029888   4.483510   4.575220   5.968528
    12  C    3.646841   4.064477   4.562916   4.388923   5.828670
    13  N    3.171955   3.587654   3.780019   3.271407   4.647474
    14  C    2.429646   1.522879   2.427994   3.759598   4.807896
    15  C    2.850406   2.553322   3.770711   4.957648   6.146431
    16  N    2.875487   2.982664   4.228492   5.112841   6.500451
    17  H    3.157833   2.062205   1.005900   2.098669   2.559703
    18  H    2.398028   2.561949   2.060141   1.088961   2.148186
    19  H    5.703922   5.423794   4.237316   3.186426   1.861275
    20  H    4.306589   3.746386   2.791024   2.171694   2.656971
    21  H    4.272856   4.190105   3.407791   2.155777   2.702580
    22  H    4.359891   3.803625   3.723004   3.967058   5.043475
    23  H    4.158353   4.785175   5.435489   5.257749   6.709614
    24  H    3.281153   3.922079   4.073815   3.335557   4.613670
    25  H    3.133454   2.134023   2.645495   3.898464   4.918217
    26  H    3.112376   2.137424   2.700432   4.133208   4.895577
    27  H    2.860941   2.834351   4.103628   5.245174   6.371880
    28  H    3.923569   3.481205   4.562980   5.837420   6.949406
    29  H    3.725685   3.957109   5.233274   6.098197   7.496891
    30  H    2.173038   2.664723   3.929961   4.604841   6.041784
    31  H    3.248148   3.164106   4.208209   5.017825   6.417301
                    6          7          8          9         10
     6  O    0.000000
     7  O    2.246959   0.000000
     8  C    2.996131   3.313772   0.000000
     9  C    4.387981   4.632017   1.499294   0.000000
    10  C    5.584681   5.429263   2.620177   1.367419   0.000000
    11  N    6.622324   6.632755   3.738718   2.265538   1.379967
    12  C    6.276330   6.679507   3.653954   2.214212   2.134801
    13  N    4.969364   5.600532   2.537417   1.379906   2.168936
    14  C    5.988956   4.906783   4.394880   4.084574   3.900361
    15  C    7.230948   6.356962   5.495676   4.857950   4.505618
    16  N    7.442182   6.928410   5.321395   4.333668   3.862138
    17  H    3.883389   2.427009   2.922896   3.528021   3.873542
    18  H    2.545754   3.185925   2.175328   2.842318   4.006248
    19  H    0.965687   2.276902   3.799514   5.248343   6.388385
    20  H    3.336090   3.143482   1.091039   2.107594   2.770678
    21  H    2.694857   3.689968   1.089034   2.140382   3.374976
    22  H    5.917574   5.397662   3.035311   2.198022   1.084490
    23  H    7.069069   7.612558   4.626755   3.246244   3.187346
    24  H    4.702149   5.687836   2.837761   2.137180   3.150605
    25  H    6.142757   4.945430   4.196668   3.815090   3.352894
    26  H    6.139988   4.764262   4.992228   4.942229   4.841951
    27  H    7.386279   6.607934   6.005949   5.475685   5.328962
    28  H    8.106685   7.025176   6.308814   5.655402   5.105764
    29  H    8.407900   7.935600   6.280945   5.209711   4.668659
    30  H    6.854653   6.615687   4.868155   3.900791   3.726149
    31  H    7.372744   6.836620   4.949124   3.834956   3.102622
                   11         12         13         14         15
    11  N    0.000000
    12  C    1.307856   0.000000
    13  N    2.205294   1.358857   0.000000
    14  C    4.323056   4.715330   4.607453   0.000000
    15  C    4.462470   4.795689   5.032524   1.519274   0.000000
    16  N    3.414876   3.673059   4.218429   2.485320   1.483043
    17  H    4.939657   5.235457   4.529445   2.561507   4.058534
    18  H    4.730958   4.256070   3.081801   4.061999   5.026965
    19  H    7.490492   7.204746   5.906280   6.647109   7.955464
    20  H    4.086148   4.308210   3.384889   4.594737   5.824281
    21  H    4.352624   4.043760   2.792379   5.417421   6.463965
    22  H    2.158412   3.166837   3.228878   3.908390   4.646377
    23  H    2.126169   1.079712   2.145414   5.403065   5.223213
    24  H    3.168854   2.114401   1.009438   5.135635   5.545424
    25  H    3.912662   4.579002   4.561301   1.097909   2.153202
    26  H    5.381232   5.771739   5.554020   1.093464   2.152553
    27  H    5.250403   5.362892   5.499383   2.140313   1.090626
    28  H    5.043787   5.568316   5.927404   2.144454   1.091108
    29  H    3.994746   4.210872   4.942548   3.384534   2.096174
    30  H    3.268412   3.164617   3.560442   2.721314   2.035943
    31  H    2.625226   3.187733   3.866636   2.666642   2.102080
                   16         17         18         19         20
    16  N    0.000000
    17  H    4.697221   0.000000
    18  H    5.066202   2.938046   0.000000
    19  H    8.269131   4.376266   3.455206   0.000000
    20  H    5.766826   2.831254   3.066419   3.941723   0.000000
    21  H    6.199496   3.870368   2.467088   3.495052   1.758422
    22  H    4.220918   3.755311   4.603992   6.620601   2.787017
    23  H    3.936359   6.171978   4.958789   8.018725   5.349215
    24  H    4.783917   4.927687   2.852585   5.658309   3.839175
    25  H    2.783109   2.523009   4.419059   6.777546   4.178970
    26  H    3.426488   2.573688   4.493566   6.677432   5.092949
    27  H    2.107240   4.494542   5.137789   8.098798   6.448603
    28  H    2.120427   4.656725   6.015985   8.784454   6.500501
    29  H    1.020469   5.700493   5.981985   9.247447   6.745029
    30  H    1.024261   4.590115   4.377240   7.723676   5.483487
    31  H    1.024093   4.584903   5.123193   8.198351   5.279590
                   21         22         23         24         25
    21  H    0.000000
    22  H    3.884238   0.000000
    23  H    4.909258   4.181334   0.000000
    24  H    2.801770   4.185732   2.536765   0.000000
    25  H    5.274732   3.105273   5.379308   5.255762   0.000000
    26  H    6.002367   4.735011   6.470521   6.013143   1.755738
    27  H    6.904999   5.581220   5.674251   5.842728   3.048020
    28  H    7.323820   5.058911   5.989817   6.521603   2.451431
    29  H    7.121207   5.033239   4.245027   5.469177   3.682720
    30  H    5.642108   4.312852   3.361967   3.974454   3.186101
    31  H    5.848394   3.372688   3.595350   4.604837   2.551046
                   26         27         28         29         30
    26  H    0.000000
    27  H    2.452100   0.000000
    28  H    2.480398   1.760423   0.000000
    29  H    4.220417   2.472615   2.405476   0.000000
    30  H    3.684057   2.321360   2.940854   1.658067   0.000000
    31  H    3.694131   2.976650   2.532625   1.667282   1.643554
                   31
    31  H    0.000000
 Symmetry turned off by external request.
 Stoichiometry    C9H15N4O3(1+)
 Framework group  C1[X(C9H15N4O3)]
 Deg. of freedom    87
 Full point group                 C1      NOp   1
 Rotational constants (GHZ):      0.7464841      0.3985491      0.2973763
 Standard basis: 6-31G(d) (6D, 7F)
   270 basis functions,   508 primitive gaussians,   270 cartesian basis functions
    60 alpha electrons       60 beta electrons
       nuclear repulsion energy      1185.4331447700 Hartrees.
 NAtoms=   31 NActive=   31 NUniq=   31 SFac= 1.00D+00 NAtFMM=   60 NAOKFM=F Big=F
 Integral buffers will be    131072 words long.
 Raffenetti 2 integral format.
 Two-electron integral symmetry is turned off.
 Nuclear repulsion after empirical dispersion term =     1185.3729858217 Hartrees.
 One-electron integrals computed using PRISM.
 NBasis=   270 RedAO= T EigKep=  1.14D-03  NBF=   270
 NBsUse=   270 1.00D-06 EigRej= -1.00D+00 NBFU=   270
 ExpMin= 1.61D-01 ExpMax= 5.48D+03 ExpMxC= 8.25D+02 IAcc=3 IRadAn=         5 AccDes= 0.00D+00
 Harris functional with IExCor=  402 and IRadAn=       5 diagonalized for initial guess.
 HarFok:  IExCor=  402 AccDes= 0.00D+00 IRadAn=         5 IDoV= 1 UseB2=F ITyADJ=14
 ICtDFT=  3500011 ScaDFX=  1.000000  1.000000  1.000000  1.000000
 FoFCou: FMM=F IPFlag=           0 FMFlag=      100000 FMFlg1=           0
         NFxFlg=           0 DoJE=T BraDBF=F KetDBF=T FulRan=T
         wScrn=  0.000000 ICntrl=     500 IOpCl=  0 I1Cent=   200000004 NGrid=           0
         NMat0=    1 NMatS0=      1 NMatT0=    0 NMatD0=    1 NMtDS0=    0 NMtDT0=    0
 Symmetry not used in FoFCou.
 Requested convergence on RMS density matrix=1.00D-08 within 128 cycles.
 Requested convergence on MAX density matrix=1.00D-06.
 Requested convergence on             energy=1.00D-06.
 No special actions if energy rises.
 Integral accuracy reduced to 1.0D-05 until final iterations.
 Initial convergence to 1.0D-05 achieved.  Increase integral accuracy.
 SCF Done:  E(RB3LYP) =  -796.532858002     A.U. after   14 cycles
            NFock= 14  Conv=0.65D-08     -V/T= 2.0090
 DoSCS=F DFT=T ScalE2(SS,OS)=  1.000000  1.000000
 Range of M.O.s used for correlation:     1   270
 NBasis=   270 NAE=    60 NBE=    60 NFC=     0 NFV=     0
 NROrb=    270 NOA=    60 NOB=    60 NVA=   210 NVB=   210
 Symmetrizing basis deriv contribution to polar:
 IMax=3 JMax=2 DiffMx= 0.00D+00
 G2DrvN: will do    32 centers at a time, making    1 passes.
 Calling FoFCou, ICntrl=  3107 FMM=F I1Cent=   0 AccDes= 0.00D+00.
 End of G2Drv F.D. properties file   721 does not exist.
 End of G2Drv F.D. properties file   722 does not exist.
 End of G2Drv F.D. properties file   788 does not exist.
          IDoAtm=1111111111111111111111111111111
          Differentiating once with respect to nuclear coordinates.
          There are    96 degrees of freedom in the 1st order CPHF.  IDoFFX=6 NUNeed=     0.
     90 vectors produced by pass  0 Test12= 1.31D-14 1.04D-09 XBig12= 1.45D-01 1.06D-01.
 AX will form    90 AO Fock derivatives at one time.
     90 vectors produced by pass  1 Test12= 1.31D-14 1.04D-09 XBig12= 1.46D-02 3.51D-02.
     90 vectors produced by pass  2 Test12= 1.31D-14 1.04D-09 XBig12= 1.25D-04 1.44D-03.
     90 vectors produced by pass  3 Test12= 1.31D-14 1.04D-09 XBig12= 4.64D-07 1.30D-04.
     90 vectors produced by pass  4 Test12= 1.31D-14 1.04D-09 XBig12= 6.60D-10 2.42D-06.
     67 vectors produced by pass  5 Test12= 1.31D-14 1.04D-09 XBig12= 6.10D-13 7.13D-08.
      8 vectors produced by pass  6 Test12= 1.31D-14 1.04D-09 XBig12= 5.14D-16 2.42D-09.
 InvSVY:  IOpt=1 It=  1 EMax= 5.00D-16
 Solved reduced A of dimension   525 with    96 vectors.
 End of Minotr F.D. properties file   721 does not exist.
 End of Minotr F.D. properties file   722 does not exist.
 End of Minotr F.D. properties file   788 does not exist.

 **********************************************************************

            Population analysis using the SCF density.

 **********************************************************************

 Alpha  occ. eigenvalues --  -19.30857 -19.26973 -19.25816 -14.62988 -14.51142
 Alpha  occ. eigenvalues --  -14.49802 -14.43812 -10.44124 -10.43769 -10.41957
 Alpha  occ. eigenvalues --  -10.36815 -10.36633 -10.36172 -10.34247 -10.32943
 Alpha  occ. eigenvalues --  -10.31839  -1.22526  -1.19385  -1.17829  -1.13942
 Alpha  occ. eigenvalues --   -1.13698  -1.06917  -0.99461  -0.95978  -0.92408
 Alpha  occ. eigenvalues --   -0.87435  -0.83682  -0.79720  -0.76555  -0.76195
 Alpha  occ. eigenvalues --   -0.73902  -0.73473  -0.72357  -0.71188  -0.68307
 Alpha  occ. eigenvalues --   -0.66331  -0.65008  -0.62182  -0.61166  -0.60824
 Alpha  occ. eigenvalues --   -0.59325  -0.58526  -0.57349  -0.56759  -0.55863
 Alpha  occ. eigenvalues --   -0.55313  -0.54253  -0.53049  -0.52909  -0.52653
 Alpha  occ. eigenvalues --   -0.51882  -0.50073  -0.49375  -0.43395  -0.41494
 Alpha  occ. eigenvalues --   -0.41039  -0.39723  -0.39193  -0.39065  -0.34988
 Alpha virt. eigenvalues --   -0.13218  -0.12516  -0.11273  -0.09331  -0.06376
 Alpha virt. eigenvalues --   -0.06327  -0.05188  -0.04245  -0.03704  -0.03561
 Alpha virt. eigenvalues --   -0.01894  -0.01000  -0.00507   0.01425   0.01542
 Alpha virt. eigenvalues --    0.02196   0.03110   0.03689   0.04647   0.05477
 Alpha virt. eigenvalues --    0.06374   0.07758   0.09526   0.10349   0.12071
 Alpha virt. eigenvalues --    0.12642   0.13264   0.17179   0.18316   0.20495
 Alpha virt. eigenvalues --    0.21430   0.24648   0.25867   0.26889   0.31196
 Alpha virt. eigenvalues --    0.33282   0.34299   0.35690   0.38269   0.39626
 Alpha virt. eigenvalues --    0.40467   0.41296   0.42411   0.43645   0.44068
 Alpha virt. eigenvalues --    0.45060   0.46747   0.47808   0.49252   0.49826
 Alpha virt. eigenvalues --    0.50995   0.51195   0.52267   0.53099   0.53924
 Alpha virt. eigenvalues --    0.55724   0.56673   0.57454   0.58936   0.59654
 Alpha virt. eigenvalues --    0.62259   0.63038   0.64798   0.65407   0.66353
 Alpha virt. eigenvalues --    0.66902   0.67945   0.68612   0.69109   0.70455
 Alpha virt. eigenvalues --    0.70742   0.71208   0.72012   0.73202   0.73736
 Alpha virt. eigenvalues --    0.74792   0.75299   0.76490   0.77673   0.78474
 Alpha virt. eigenvalues --    0.78669   0.79426   0.81301   0.82226   0.82597
 Alpha virt. eigenvalues --    0.83151   0.85272   0.86657   0.87652   0.90220
 Alpha virt. eigenvalues --    0.91897   0.93824   0.95823   0.97663   1.00773
 Alpha virt. eigenvalues --    1.01918   1.03167   1.04561   1.08916   1.11139
 Alpha virt. eigenvalues --    1.14166   1.16359   1.17631   1.19774   1.21980
 Alpha virt. eigenvalues --    1.23221   1.23798   1.25951   1.26368   1.27516
 Alpha virt. eigenvalues --    1.29335   1.32434   1.33375   1.36290   1.38266
 Alpha virt. eigenvalues --    1.39927   1.41756   1.42980   1.44383   1.46744
 Alpha virt. eigenvalues --    1.51049   1.53079   1.55111   1.58159   1.60583
 Alpha virt. eigenvalues --    1.61083   1.63354   1.64435   1.65067   1.67585
 Alpha virt. eigenvalues --    1.68924   1.69850   1.70563   1.71791   1.74366
 Alpha virt. eigenvalues --    1.74485   1.75769   1.77325   1.77996   1.79725
 Alpha virt. eigenvalues --    1.80722   1.83104   1.83939   1.85967   1.86857
 Alpha virt. eigenvalues --    1.92439   1.92803   1.94542   1.96164   1.98682
 Alpha virt. eigenvalues --    1.99694   2.00948   2.02356   2.07576   2.09273
 Alpha virt. eigenvalues --    2.10607   2.11611   2.13122   2.14753   2.16882
 Alpha virt. eigenvalues --    2.17747   2.21035   2.22925   2.23910   2.25696
 Alpha virt. eigenvalues --    2.27506   2.28528   2.29530   2.29990   2.32541
 Alpha virt. eigenvalues --    2.36097   2.38505   2.38789   2.43935   2.47717
 Alpha virt. eigenvalues --    2.48424   2.51074   2.51691   2.53766   2.58532
 Alpha virt. eigenvalues --    2.58640   2.62848   2.66293   2.67514   2.72387
 Alpha virt. eigenvalues --    2.74742   2.80834   2.86197   2.88509   2.88904
 Alpha virt. eigenvalues --    2.91407   2.99822   3.01480   3.05337   3.61732
 Alpha virt. eigenvalues --    3.75659   3.82022   3.88226   3.91844   3.99998
 Alpha virt. eigenvalues --    4.02721   4.05063   4.07067   4.14981   4.18090
 Alpha virt. eigenvalues --    4.25336   4.28285   4.36174   4.46023   4.55785
          Condensed to atoms (all electrons):
               1          2          3          4          5          6
     1  O    8.126513   0.538533  -0.093760   0.001867   0.000236   0.000000
     2  C    0.538533   4.315109   0.303061  -0.025259   0.004657  -0.000018
     3  N   -0.093760   0.303061   7.106474   0.239261  -0.037932   0.001963
     4  C    0.001867  -0.025259   0.239261   5.191457   0.288827  -0.100123
     5  C    0.000236   0.004657  -0.037932   0.288827   4.338231   0.293567
     6  O    0.000000  -0.000018   0.001963  -0.100123   0.293567   8.211392
     7  O   -0.000003   0.000733  -0.003615  -0.084789   0.587185  -0.084676
     8  C   -0.000853  -0.004456  -0.056754   0.324034  -0.037817   0.002922
     9  C    0.000031   0.010156  -0.009353  -0.044901   0.002509   0.000083
    10  C   -0.001330   0.005657   0.002211  -0.004999  -0.000097  -0.000001
    11  N   -0.000235  -0.000339   0.000058  -0.000059   0.000001   0.000000
    12  C    0.002121  -0.000074  -0.000107   0.000522   0.000002   0.000000
    13  N   -0.001325  -0.000627  -0.000434  -0.000377   0.000006   0.000003
    14  C   -0.093415   0.310330  -0.122238   0.007041  -0.000224   0.000000
    15  C    0.011191  -0.031022   0.005492  -0.000184   0.000001   0.000000
    16  N   -0.017416  -0.005035  -0.000375   0.000007   0.000000   0.000000
    17  H    0.002725  -0.022686   0.298100  -0.034250  -0.002060   0.000402
    18  H    0.013345  -0.002157  -0.045240   0.362763  -0.020732   0.003293
    19  H    0.000000   0.000001  -0.000246   0.010520  -0.007544   0.226555
    20  H   -0.000035  -0.000146  -0.002239  -0.037745  -0.002876  -0.000064
    21  H   -0.000081   0.000221   0.004853  -0.040647  -0.002576   0.005008
    22  H   -0.000006   0.000002   0.000025   0.000018   0.000001   0.000000
    23  H    0.000041   0.000005  -0.000001   0.000001   0.000000   0.000000
    24  H    0.000399   0.000001  -0.000005   0.000484  -0.000031  -0.000001
    25  H    0.001193  -0.026775  -0.000521  -0.000557  -0.000008   0.000000
    26  H    0.000996  -0.016890   0.000238  -0.000034   0.000002   0.000000
    27  H    0.003660  -0.003189   0.000114  -0.000004   0.000000   0.000000
    28  H    0.000298   0.003432  -0.000035   0.000001   0.000000   0.000000
    29  H    0.000342   0.000278   0.000003   0.000000   0.000000   0.000000
    30  H    0.045841   0.003250   0.000713   0.000025   0.000000   0.000000
    31  H    0.000210  -0.000741  -0.000062  -0.000006   0.000000   0.000000
               7          8          9         10         11         12
     1  O   -0.000003  -0.000853   0.000031  -0.001330  -0.000235   0.002121
     2  C    0.000733  -0.004456   0.010156   0.005657  -0.000339  -0.000074
     3  N   -0.003615  -0.056754  -0.009353   0.002211   0.000058  -0.000107
     4  C   -0.084789   0.324034  -0.044901  -0.004999  -0.000059   0.000522
     5  C    0.587185  -0.037817   0.002509  -0.000097   0.000001   0.000002
     6  O   -0.084676   0.002922   0.000083  -0.000001   0.000000   0.000000
     7  O    8.001277  -0.003227  -0.000113   0.000001   0.000000   0.000000
     8  C   -0.003227   5.209213   0.365783  -0.055994   0.006654   0.006069
     9  C   -0.000113   0.365783   4.695439   0.562784  -0.047183  -0.084653
    10  C    0.000001  -0.055994   0.562784   5.000975   0.403375  -0.126976
    11  N    0.000000   0.006654  -0.047183   0.403375   6.709716   0.520810
    12  C    0.000000   0.006069  -0.084653  -0.126976   0.520810   4.766510
    13  N    0.000000  -0.068878   0.343945  -0.071813  -0.084144   0.353334
    14  C   -0.000048  -0.000309  -0.000905  -0.000762   0.000048   0.000031
    15  C    0.000000   0.000008  -0.000062  -0.000449   0.000047   0.000092
    16  N    0.000000   0.000002   0.000014   0.000039  -0.005699  -0.000715
    17  H    0.019243   0.000376  -0.000375   0.000096   0.000001  -0.000001
    18  H    0.001773  -0.033874  -0.007525  -0.000044   0.000009  -0.000055
    19  H    0.009003  -0.000259   0.000013   0.000000   0.000000   0.000000
    20  H    0.002083   0.367997  -0.033377  -0.003098   0.000060  -0.000105
    21  H    0.000060   0.354822  -0.021481   0.002821  -0.000141  -0.000085
    22  H    0.000000  -0.001278  -0.055222   0.383220  -0.043266   0.007272
    23  H    0.000000  -0.000152   0.002787   0.007335  -0.040321   0.384108
    24  H    0.000000  -0.002783  -0.026602   0.008409   0.004685  -0.023649
    25  H   -0.000001   0.000197   0.000386   0.002811  -0.000066  -0.000100
    26  H   -0.000002  -0.000010   0.000035   0.000059   0.000001  -0.000001
    27  H    0.000000   0.000001   0.000000   0.000000  -0.000004  -0.000004
    28  H    0.000000   0.000000   0.000001   0.000003  -0.000006  -0.000003
    29  H    0.000000   0.000000   0.000001   0.000024   0.000136   0.000051
    30  H    0.000000   0.000008  -0.000364  -0.000807   0.000652   0.004421
    31  H    0.000000  -0.000025   0.000398   0.002734   0.024983   0.000511
              13         14         15         16         17         18
     1  O   -0.001325  -0.093415   0.011191  -0.017416   0.002725   0.013345
     2  C   -0.000627   0.310330  -0.031022  -0.005035  -0.022686  -0.002157
     3  N   -0.000434  -0.122238   0.005492  -0.000375   0.298100  -0.045240
     4  C   -0.000377   0.007041  -0.000184   0.000007  -0.034250   0.362763
     5  C    0.000006  -0.000224   0.000001   0.000000  -0.002060  -0.020732
     6  O    0.000003   0.000000   0.000000   0.000000   0.000402   0.003293
     7  O    0.000000  -0.000048   0.000000   0.000000   0.019243   0.001773
     8  C   -0.068878  -0.000309   0.000008   0.000002   0.000376  -0.033874
     9  C    0.343945  -0.000905  -0.000062   0.000014  -0.000375  -0.007525
    10  C   -0.071813  -0.000762  -0.000449   0.000039   0.000096  -0.000044
    11  N   -0.084144   0.000048   0.000047  -0.005699   0.000001   0.000009
    12  C    0.353334   0.000031   0.000092  -0.000715  -0.000001  -0.000055
    13  N    6.850937  -0.000044   0.000029  -0.000078  -0.000003   0.002232
    14  C   -0.000044   5.381934   0.329104  -0.040887   0.000348   0.000874
    15  C    0.000029   0.329104   5.031734   0.206555   0.000005  -0.000003
    16  N   -0.000078  -0.040887   0.206555   6.830473   0.000012   0.000006
    17  H   -0.000003   0.000348   0.000005   0.000012   0.373749   0.004672
    18  H    0.002232   0.000874  -0.000003   0.000006   0.004672   0.505053
    19  H    0.000000   0.000000   0.000000   0.000000  -0.000038  -0.000330
    20  H    0.003728  -0.000005   0.000000   0.000000   0.002355   0.004687
    21  H   -0.003473   0.000002   0.000000   0.000000  -0.000096  -0.001702
    22  H    0.004901  -0.000080  -0.000013   0.000063   0.000032   0.000006
    23  H   -0.053608   0.000001  -0.000001   0.000063   0.000000   0.000002
    24  H    0.307788   0.000009   0.000000   0.000008   0.000001   0.000569
    25  H   -0.000010   0.355494  -0.035586  -0.003069   0.000679  -0.000029
    26  H   -0.000002   0.357285  -0.023580   0.003160   0.000970  -0.000020
    27  H    0.000001  -0.034758   0.384401  -0.032284  -0.000005  -0.000003
    28  H    0.000000  -0.030957   0.383637  -0.032947  -0.000008   0.000000
    29  H   -0.000006   0.003479  -0.019696   0.302991   0.000000   0.000000
    30  H    0.000331  -0.011718  -0.015244   0.253138  -0.000035  -0.000045
    31  H   -0.000211  -0.000712  -0.017540   0.266976   0.000000  -0.000002
              19         20         21         22         23         24
     1  O    0.000000  -0.000035  -0.000081  -0.000006   0.000041   0.000399
     2  C    0.000001  -0.000146   0.000221   0.000002   0.000005   0.000001
     3  N   -0.000246  -0.002239   0.004853   0.000025  -0.000001  -0.000005
     4  C    0.010520  -0.037745  -0.040647   0.000018   0.000001   0.000484
     5  C   -0.007544  -0.002876  -0.002576   0.000001   0.000000  -0.000031
     6  O    0.226555  -0.000064   0.005008   0.000000   0.000000  -0.000001
     7  O    0.009003   0.002083   0.000060   0.000000   0.000000   0.000000
     8  C   -0.000259   0.367997   0.354822  -0.001278  -0.000152  -0.002783
     9  C    0.000013  -0.033377  -0.021481  -0.055222   0.002787  -0.026602
    10  C    0.000000  -0.003098   0.002821   0.383220   0.007335   0.008409
    11  N    0.000000   0.000060  -0.000141  -0.043266  -0.040321   0.004685
    12  C    0.000000  -0.000105  -0.000085   0.007272   0.384108  -0.023649
    13  N    0.000000   0.003728  -0.003473   0.004901  -0.053608   0.307788
    14  C    0.000000  -0.000005   0.000002  -0.000080   0.000001   0.000009
    15  C    0.000000   0.000000   0.000000  -0.000013  -0.000001   0.000000
    16  N    0.000000   0.000000   0.000000   0.000063   0.000063   0.000008
    17  H   -0.000038   0.002355  -0.000096   0.000032   0.000000   0.000001
    18  H   -0.000330   0.004687  -0.001702   0.000006   0.000002   0.000569
    19  H    0.328135  -0.000079  -0.000084   0.000000   0.000000   0.000000
    20  H   -0.000079   0.531349  -0.023318   0.002533   0.000003  -0.000062
    21  H   -0.000084  -0.023318   0.521305  -0.000018  -0.000004   0.001385
    22  H    0.000000   0.002533  -0.000018   0.551608  -0.000138  -0.000094
    23  H    0.000000   0.000003  -0.000004  -0.000138   0.518453   0.000232
    24  H    0.000000  -0.000062   0.001385  -0.000094   0.000232   0.374544
    25  H    0.000000   0.000017   0.000001   0.000819   0.000000  -0.000001
    26  H    0.000000   0.000001   0.000000   0.000001   0.000000   0.000000
    27  H    0.000000   0.000000   0.000000   0.000000   0.000000   0.000000
    28  H    0.000000   0.000000   0.000000   0.000000   0.000000   0.000000
    29  H    0.000000   0.000000   0.000000   0.000000   0.000004   0.000000
    30  H    0.000000   0.000000  -0.000001  -0.000008   0.000160  -0.000002
    31  H    0.000000  -0.000001   0.000000  -0.000373  -0.000203  -0.000033
              25         26         27         28         29         30
     1  O    0.001193   0.000996   0.003660   0.000298   0.000342   0.045841
     2  C   -0.026775  -0.016890  -0.003189   0.003432   0.000278   0.003250
     3  N   -0.000521   0.000238   0.000114  -0.000035   0.000003   0.000713
     4  C   -0.000557  -0.000034  -0.000004   0.000001   0.000000   0.000025
     5  C   -0.000008   0.000002   0.000000   0.000000   0.000000   0.000000
     6  O    0.000000   0.000000   0.000000   0.000000   0.000000   0.000000
     7  O   -0.000001  -0.000002   0.000000   0.000000   0.000000   0.000000
     8  C    0.000197  -0.000010   0.000001   0.000000   0.000000   0.000008
     9  C    0.000386   0.000035   0.000000   0.000001   0.000001  -0.000364
    10  C    0.002811   0.000059   0.000000   0.000003   0.000024  -0.000807
    11  N   -0.000066   0.000001  -0.000004  -0.000006   0.000136   0.000652
    12  C   -0.000100  -0.000001  -0.000004  -0.000003   0.000051   0.004421
    13  N   -0.000010  -0.000002   0.000001   0.000000  -0.000006   0.000331
    14  C    0.355494   0.357285  -0.034758  -0.030957   0.003479  -0.011718
    15  C   -0.035586  -0.023580   0.384401   0.383637  -0.019696  -0.015244
    16  N   -0.003069   0.003160  -0.032284  -0.032947   0.302991   0.253138
    17  H    0.000679   0.000970  -0.000005  -0.000008   0.000000  -0.000035
    18  H   -0.000029  -0.000020  -0.000003   0.000000   0.000000  -0.000045
    19  H    0.000000   0.000000   0.000000   0.000000   0.000000   0.000000
    20  H    0.000017   0.000001   0.000000   0.000000   0.000000   0.000000
    21  H    0.000001   0.000000   0.000000   0.000000   0.000000  -0.000001
    22  H    0.000819   0.000001   0.000000   0.000000   0.000000  -0.000008
    23  H    0.000000   0.000000   0.000000   0.000000   0.000004   0.000160
    24  H   -0.000001   0.000000   0.000000   0.000000   0.000000  -0.000002
    25  H    0.518671  -0.020369   0.004396  -0.002665  -0.000100  -0.000222
    26  H   -0.020369   0.467798  -0.002696  -0.001317  -0.000070   0.000123
    27  H    0.004396  -0.002696   0.466555  -0.024878  -0.001387  -0.002973
    28  H   -0.002665  -0.001317  -0.024878   0.476886  -0.002769   0.003501
    29  H   -0.000100  -0.000070  -0.001387  -0.002769   0.311055  -0.008530
    30  H   -0.000222   0.000123  -0.002973   0.003501  -0.008530   0.304689
    31  H    0.004065   0.000000   0.003003  -0.001978  -0.010763  -0.011188
              31
     1  O    0.000210
     2  C   -0.000741
     3  N   -0.000062
     4  C   -0.000006
     5  C    0.000000
     6  O    0.000000
     7  O    0.000000
     8  C   -0.000025
     9  C    0.000398
    10  C    0.002734
    11  N    0.024983
    12  C    0.000511
    13  N   -0.000211
    14  C   -0.000712
    15  C   -0.017540
    16  N    0.266976
    17  H    0.000000
    18  H   -0.000002
    19  H    0.000000
    20  H   -0.000001
    21  H    0.000000
    22  H   -0.000373
    23  H   -0.000203
    24  H   -0.000033
    25  H    0.004065
    26  H    0.000000
    27  H    0.003003
    28  H   -0.001978
    29  H   -0.010763
    30  H   -0.011188
    31  H    0.313759
 Mulliken charges:
               1
     1  O   -0.541083
     2  C    0.643989
     3  N   -0.589650
     4  C   -0.052893
     5  C    0.596673
     6  O   -0.560304
     7  O   -0.444882
     8  C   -0.371415
     9  C    0.347752
    10  C   -0.116182
    11  N   -0.449773
    12  C    0.190674
    13  N   -0.582203
    14  C   -0.408918
    15  C   -0.208914
    16  N   -0.725002
    17  H    0.355789
    18  H    0.212477
    19  H    0.434353
    20  H    0.188337
    21  H    0.203229
    22  H    0.149995
    23  H    0.181232
    24  H    0.354750
    25  H    0.201350
    26  H    0.234323
    27  H    0.240054
    28  H    0.229804
    29  H    0.424957
    30  H    0.434284
    31  H    0.427198
 Sum of Mulliken charges =   1.00000
 Mulliken charges with hydrogens summed into heavy atoms:
               1
     1  O   -0.541083
     2  C    0.643989
     3  N   -0.233861
     4  C    0.159584
     5  C    0.596673
     6  O   -0.125951
     7  O   -0.444882
     8  C    0.020151
     9  C    0.347752
    10  C    0.033812
    11  N   -0.449773
    12  C    0.371905
    13  N   -0.227453
    14  C    0.026755
    15  C    0.260944
    16  N    0.561437
 APT charges:
               1
     1  O   -0.393316
     2  C    0.166661
     3  N   -0.575055
     4  C   -0.485645
     5  C   -0.431849
     6  O   -0.814044
     7  O    0.281219
     8  C   -1.001731
     9  C   -0.137739
    10  C   -0.336122
    11  N   -0.327549
    12  C   -0.293399
    13  N   -0.770608
    14  C   -0.774304
    15  C   -1.212212
    16  N   -1.078241
    17  H    0.618180
    18  H    0.386630
    19  H    1.163812
    20  H    0.451314
    21  H    0.614293
    22  H    0.440315
    23  H    0.763897
    24  H    0.677777
    25  H    0.301283
    26  H    0.623446
    27  H    0.595513
    28  H    0.772289
    29  H    1.111422
    30  H    0.316995
    31  H    0.346768
 Sum of APT charges =   1.00000
 APT charges with hydrogens summed into heavy atoms:
               1
     1  O   -0.393316
     2  C    0.166661
     3  N    0.043125
     4  C   -0.099015
     5  C   -0.431849
     6  O    0.349767
     7  O    0.281219
     8  C    0.063876
     9  C   -0.137739
    10  C    0.104193
    11  N   -0.327549
    12  C    0.470498
    13  N   -0.092830
    14  C    0.150425
    15  C    0.155590
    16  N    0.696944
 Electronic spatial extent (au):  <R**2>=           3770.4306
 Charge=              1.0000 electrons
 Dipole moment (field-independent basis, Debye):
    X=              5.2649    Y=             -2.1697    Z=             -4.7811  Tot=              7.4354
 Quadrupole moment (field-independent basis, Debye-Ang):
   XX=            -45.7921   YY=            -77.1886   ZZ=            -82.3595
   XY=             -7.7943   XZ=            -21.5345   YZ=             11.8879
 Traceless Quadrupole moment (field-independent basis, Debye-Ang):
   XX=             22.6546   YY=             -8.7419   ZZ=            -13.9127
   XY=             -7.7943   XZ=            -21.5345   YZ=             11.8879
 Octapole moment (field-independent basis, Debye-Ang**2):
  XXX=             99.4226  YYY=            -63.6346  ZZZ=            -29.2099  XYY=             14.0003
  XXY=              4.4468  XXZ=            -42.4797  XZZ=             57.9095  YZZ=             -5.6505
  YYZ=            -40.4710  XYZ=             15.7386
 Hexadecapole moment (field-independent basis, Debye-Ang**3):
 XXXX=          -1405.2273 YYYY=          -1817.4457 ZZZZ=           -809.1663 XXXY=            116.9222
 XXXZ=            119.3438 YYYX=            366.6361 YYYZ=            134.3366 ZZZX=            237.8685
 ZZZY=            112.1620 XXYY=           -389.9697 XXZZ=           -360.9173 YYZZ=           -445.2809
 XXYZ=            120.0170 YYXZ=             28.5528 ZZXY=            100.4701
 N-N= 1.185372985822D+03 E-N=-4.211122830167D+03  KE= 7.894329068256D+02
  Exact polarizability:   0.000   0.000   0.000   0.000   0.000   0.000
 Approx polarizability: 191.376  -6.720 195.883  10.462  29.601 147.132
 Calling FoFJK, ICntrl=    100147 FMM=F ISym2X=0 I1Cent= 0 IOpClX= 0 NMat=1 NMatS=1 NMatT=0.
 -------------------------------------------------------------------
 Center     Atomic                   Forces (Hartrees/Bohr)
 Number     Number              X              Y              Z
 -------------------------------------------------------------------
      1        8           0.009492240   -0.017319613   -0.007163950
      2        6          -0.009994655    0.012257743    0.010785873
      3        7           0.007661013   -0.011565184   -0.003521645
      4        6          -0.003173716    0.002927942   -0.000479375
      5        6          -0.014382617   -0.003705164   -0.004169058
      6        8           0.008011332   -0.009871956   -0.002451830
      7        8           0.010019791    0.008762735    0.002394806
      8        6           0.006921183   -0.009656638    0.000535728
      9        6          -0.009790750    0.005978122   -0.001679258
     10        6           0.011619231    0.008421776    0.000529118
     11        7           0.014695509    0.004450327    0.005079255
     12        6          -0.004708839   -0.006194116   -0.010993303
     13        7          -0.005178731   -0.000063137   -0.002288279
     14        6          -0.001718105   -0.001203084    0.008395432
     15        6           0.003837397    0.025216764   -0.008374616
     16        7          -0.002431179   -0.004002112   -0.002715449
     17        1           0.001592790    0.005676627    0.003669273
     18        1          -0.001057963    0.000558958   -0.001379179
     19        1          -0.007283249    0.008626762    0.002878524
     20        1           0.000006074    0.002190511    0.001834209
     21        1          -0.004306573    0.000448859    0.001402718
     22        1          -0.000993157   -0.002451833    0.000897190
     23        1          -0.001389719   -0.001915668   -0.000177921
     24        1          -0.001978396   -0.000340820    0.000309238
     25        1          -0.000055512    0.001202356    0.000136718
     26        1           0.003953359    0.000359453   -0.002046513
     27        1          -0.000781994   -0.006830411   -0.001761512
     28        1           0.001191341   -0.004571676    0.001486876
     29        1           0.003713954   -0.002985260   -0.000169760
     30        1          -0.011552367    0.000520692    0.001274979
     31        1          -0.001937693   -0.004922957    0.007761709
 -------------------------------------------------------------------
 Cartesian Forces:  Max     0.025216764 RMS     0.006540634
 FormGI is forming the generalized inverse of G from B-inverse, IUseBI=4.
 GSVD:  received Info=                   1 from GESDD.

 GradGradGradGradGradGradGradGradGradGradGradGradGradGradGradGradGradGrad
 Berny optimization.
 Internal  Forces:  Max     0.043155359 RMS     0.008545523
 Search for a local minimum.
 Step number   1 out of a maximum of  167
 All quantities printed in internal units (Hartrees-Bohrs-Radians)
 Mixed Optimization -- RFO/linear search
 Second derivative matrix not updated -- analytic derivatives used.
 ITU=  0
     Eigenvalues ---   -0.01125   0.00158   0.00258   0.00301   0.00334
     Eigenvalues ---    0.00517   0.00711   0.00724   0.00825   0.01244
     Eigenvalues ---    0.01689   0.02007   0.02267   0.02513   0.02940
     Eigenvalues ---    0.03792   0.03862   0.04066   0.04093   0.04102
     Eigenvalues ---    0.04365   0.04752   0.04907   0.05120   0.05206
     Eigenvalues ---    0.05770   0.05940   0.06060   0.06378   0.08004
     Eigenvalues ---    0.08506   0.08664   0.10612   0.11199   0.11247
     Eigenvalues ---    0.11825   0.11990   0.12203   0.12675   0.13745
     Eigenvalues ---    0.14304   0.15085   0.15560   0.16093   0.17385
     Eigenvalues ---    0.18752   0.20315   0.20418   0.22209   0.23258
     Eigenvalues ---    0.23797   0.24511   0.24903   0.25642   0.26386
     Eigenvalues ---    0.28607   0.29198   0.32641   0.33172   0.33594
     Eigenvalues ---    0.34384   0.34632   0.34681   0.34865   0.34939
     Eigenvalues ---    0.35314   0.35631   0.36002   0.36322   0.37097
     Eigenvalues ---    0.37925   0.38137   0.42084   0.42672   0.43244
     Eigenvalues ---    0.43612   0.44583   0.44727   0.46636   0.47826
     Eigenvalues ---    0.48363   0.49389   0.50245   0.53258   0.61632
     Eigenvalues ---    0.83072   0.93960
 RFO step:  Lambda=-5.23501336D-02 EMin=-1.12531483D-02
 Linear search not attempted -- first point.
 Maximum step size (   0.300) exceeded in Quadratic search.
    -- Step size scaled by   0.656
 Iteration  1 RMS(Cart)=  0.38028632 RMS(Int)=  0.02698924
 Iteration  2 RMS(Cart)=  0.21713817 RMS(Int)=  0.00625742
 Iteration  3 RMS(Cart)=  0.01055866 RMS(Int)=  0.00126612
 Iteration  4 RMS(Cart)=  0.00003776 RMS(Int)=  0.00126591
 Iteration  5 RMS(Cart)=  0.00000008 RMS(Int)=  0.00126591
 Variable       Old X    -DE/DX   Delta X   Delta X   Delta X     New X
                                 (Linear)    (Quad)   (Total)
    R1        2.31937   0.01242   0.00000   0.00506   0.00506   2.32443
    R2        2.56877  -0.00654   0.00000   0.01193   0.01193   2.58070
    R3        2.87782  -0.00508   0.00000   0.00266   0.00266   2.88048
    R4        2.72872  -0.00161   0.00000   0.01042   0.01042   2.73914
    R5        1.90088   0.00678   0.00000   0.00707   0.00707   1.90794
    R6        2.85738   0.00481   0.00000  -0.00004  -0.00004   2.85734
    R7        2.93500  -0.00429   0.00000   0.02985   0.02985   2.96485
    R8        2.05784   0.00120   0.00000   0.00014   0.00014   2.05798
    R9        2.54703  -0.00049   0.00000  -0.00394  -0.00394   2.54309
   R10        2.27257   0.01233   0.00000   0.00491   0.00491   2.27748
   R11        1.82488   0.01133   0.00000   0.01284   0.01284   1.83773
   R12        2.83326  -0.00459   0.00000  -0.00137  -0.00137   2.83188
   R13        2.06176   0.00260   0.00000   0.00278   0.00278   2.06454
   R14        2.05798   0.00425   0.00000   0.00405   0.00405   2.06203
   R15        2.58405   0.01018   0.00000   0.00994   0.01015   2.59420
   R16        2.60764   0.00443   0.00000  -0.00437  -0.00417   2.60347
   R17        2.60776   0.00367   0.00000   0.01468   0.01453   2.62229
   R18        2.04939  -0.00146   0.00000  -0.00462  -0.00462   2.04477
   R19        2.47149   0.01628   0.00000   0.03798   0.03775   2.50924
   R20        2.56787   0.00572   0.00000  -0.00913  -0.00918   2.55869
   R21        2.04036   0.00178   0.00000   0.00177   0.00177   2.04213
   R22        1.90756   0.00152   0.00000   0.00397   0.00397   1.91153
   R23        2.87101  -0.00454   0.00000   0.00722   0.00722   2.87823
   R24        2.07475   0.00007   0.00000  -0.00507  -0.00507   2.06968
   R25        2.06635   0.00163   0.00000   0.00284   0.00284   2.06918
   R26        2.80254   0.01457   0.00000   0.02742   0.02742   2.82996
   R27        2.06099   0.00105   0.00000   0.00166   0.00166   2.06265
   R28        2.06189   0.00037   0.00000   0.00014   0.00014   2.06203
   R29        1.92841   0.00427   0.00000   0.00234   0.00234   1.93075
   R30        1.93557   0.01039   0.00000   0.00164   0.00164   1.93722
   R31        1.93525   0.00829   0.00000   0.05609   0.05609   1.99135
    A1        2.12155   0.01323   0.00000   0.01255   0.01070   2.13225
    A2        2.16009  -0.02299   0.00000  -0.01649  -0.01815   2.14194
    A3        2.00140   0.00959   0.00000   0.00216   0.00042   2.00182
    A4        2.10513  -0.01605   0.00000  -0.05093  -0.05666   2.04847
    A5        2.10528   0.00724   0.00000   0.00145  -0.00474   2.10054
    A6        2.03766   0.00620   0.00000   0.00132  -0.00467   2.03300
    A7        1.88589   0.01136   0.00000   0.04751   0.04893   1.93482
    A8        1.97109  -0.03219   0.00000  -0.12553  -0.12591   1.84518
    A9        1.88544   0.00700   0.00000   0.01866   0.01664   1.90208
   A10        1.88366   0.01829   0.00000   0.04866   0.04983   1.93349
   A11        1.92510  -0.00671   0.00000   0.00101  -0.00032   1.92478
   A12        1.91266   0.00221   0.00000   0.01080   0.00919   1.92185
   A13        1.94702  -0.00117   0.00000  -0.01085  -0.01086   1.93616
   A14        2.18129  -0.00572   0.00000  -0.01010  -0.01011   2.17117
   A15        2.15426   0.00686   0.00000   0.02061   0.02059   2.17486
   A16        1.84910   0.00486   0.00000   0.01532   0.01532   1.86442
   A17        1.98025  -0.04316   0.00000  -0.12715  -0.12790   1.85235
   A18        1.90562   0.00867   0.00000  -0.01976  -0.02305   1.88257
   A19        1.88614   0.01435   0.00000   0.08119   0.08318   1.96932
   A20        1.88262   0.01187   0.00000   0.01257   0.00710   1.88972
   A21        1.92981   0.01565   0.00000   0.05230   0.05492   1.98473
   A22        1.87672  -0.00592   0.00000   0.00538   0.00484   1.88155
   A23        2.30513  -0.00370   0.00000  -0.04245  -0.04345   2.26168
   A24        2.15626   0.00050   0.00000   0.03192   0.02990   2.18615
   A25        1.81988   0.00296   0.00000   0.00518   0.00442   1.82430
   A26        1.93903  -0.00114   0.00000  -0.00832  -0.00842   1.93061
   A27        2.21675   0.00163   0.00000   0.01009   0.00943   2.22618
   A28        2.12623  -0.00056   0.00000  -0.00429  -0.00480   2.12144
   A29        1.83499  -0.00068   0.00000  -0.00071  -0.00102   1.83397
   A30        1.94715  -0.00056   0.00000  -0.01058  -0.01068   1.93646
   A31        2.19226   0.00125   0.00000   0.00494   0.00498   2.19724
   A32        2.14366  -0.00068   0.00000   0.00560   0.00565   2.14931
   A33        1.88306  -0.00063   0.00000   0.01270   0.01279   1.89585
   A34        2.20220   0.00000   0.00000  -0.00476  -0.00500   2.19720
   A35        2.19584   0.00055   0.00000  -0.01000  -0.01041   2.18543
   A36        1.99204  -0.03353   0.00000  -0.01600  -0.01664   1.97540
   A37        1.88374   0.00784   0.00000  -0.02537  -0.02613   1.85761
   A38        1.89273   0.01586   0.00000   0.04502   0.04503   1.93776
   A39        1.91403   0.00799   0.00000  -0.02147  -0.02224   1.89178
   A40        1.91770   0.00791   0.00000   0.01547   0.01535   1.93305
   A41        1.85861  -0.00428   0.00000   0.00351   0.00393   1.86254
   A42        1.95025  -0.02140   0.00000  -0.00542  -0.00537   1.94488
   A43        1.90380   0.00984   0.00000   0.02864   0.02856   1.93236
   A44        1.90898   0.00878   0.00000  -0.00189  -0.00195   1.90703
   A45        1.90189  -0.00060   0.00000  -0.02778  -0.02770   1.87419
   A46        1.91966   0.00616   0.00000   0.00183   0.00182   1.92148
   A47        1.87774  -0.00208   0.00000   0.00521   0.00502   1.88277
   A48        1.96166   0.00061   0.00000  -0.01883  -0.01992   1.94174
   A49        1.87036  -0.00266   0.00000  -0.01758  -0.01715   1.85321
   A50        1.96640   0.00509   0.00000   0.11186   0.11142   2.07782
   A51        1.89137   0.00239   0.00000   0.00490   0.00461   1.89598
   A52        1.90708  -0.00268   0.00000  -0.01355  -0.01497   1.89211
   A53        1.86254  -0.00297   0.00000  -0.07354  -0.07255   1.78999
    D1        0.34095   0.00214   0.00000   0.17694   0.17593   0.51688
    D2       -3.09134  -0.00739   0.00000  -0.01757  -0.01766  -3.10900
    D3       -2.78262   0.01206   0.00000   0.28303   0.28313  -2.49949
    D4        0.06827   0.00253   0.00000   0.08852   0.08954   0.15781
    D5       -0.04731   0.00072   0.00000  -0.03782  -0.03812  -0.08542
    D6       -2.17975   0.00701   0.00000   0.01891   0.01815  -2.16159
    D7        2.09652  -0.00018   0.00000   0.00489   0.00464   2.10116
    D8        3.07582  -0.00901   0.00000  -0.14622  -0.14565   2.93017
    D9        0.94338  -0.00273   0.00000  -0.08949  -0.08938   0.85400
   D10       -1.06354  -0.00991   0.00000  -0.10351  -0.10289  -1.16643
   D11       -2.68663  -0.00750   0.00000  -0.13871  -0.13893  -2.82556
   D12        1.51432  -0.01820   0.00000  -0.15435  -0.15302   1.36130
   D13       -0.60394  -0.00527   0.00000  -0.10068  -0.10008  -0.70402
   D14        0.73481   0.00132   0.00000   0.04808   0.04672   0.78153
   D15       -1.34742  -0.00938   0.00000   0.03243   0.03262  -1.31480
   D16        2.81750   0.00356   0.00000   0.08611   0.08557   2.90307
   D17        2.83637   0.01139   0.00000   0.05084   0.05045   2.88682
   D18       -0.34202   0.01050   0.00000   0.04138   0.04104  -0.30098
   D19       -1.31007  -0.00991   0.00000  -0.04373  -0.04345  -1.35352
   D20        1.79473  -0.01080   0.00000  -0.05320  -0.05286   1.74187
   D21        0.77896   0.00002   0.00000  -0.00032  -0.00030   0.77866
   D22       -2.39943  -0.00087   0.00000  -0.00978  -0.00970  -2.40913
   D23       -0.96769   0.01015   0.00000   0.08191   0.07906  -0.88864
   D24        1.13260   0.00302   0.00000   0.00040   0.00087   1.13347
   D25       -3.11423   0.00860   0.00000   0.04105   0.04086  -3.07337
   D26       -3.05121   0.00341   0.00000   0.06677   0.06538  -2.98583
   D27       -0.95092  -0.00372   0.00000  -0.01474  -0.01280  -0.96372
   D28        1.08544   0.00186   0.00000   0.02590   0.02718   1.11262
   D29        1.13509  -0.00071   0.00000   0.03011   0.02836   1.16345
   D30       -3.04780  -0.00784   0.00000  -0.05140  -0.04982  -3.09762
   D31       -1.01144  -0.00226   0.00000  -0.01076  -0.00984  -1.02128
   D32        3.11010  -0.00104   0.00000  -0.00405  -0.00413   3.10597
   D33        0.00463   0.00015   0.00000   0.00598   0.00606   0.01069
   D34        1.78605  -0.00712   0.00000  -0.20372  -0.20267   1.58338
   D35       -1.27808  -0.00252   0.00000  -0.09630  -0.09561  -1.37369
   D36       -0.32722   0.00114   0.00000  -0.10647  -0.10667  -0.43389
   D37        2.89183   0.00574   0.00000   0.00096   0.00039   2.89222
   D38       -2.37482  -0.00742   0.00000  -0.14946  -0.14975  -2.52457
   D39        0.84423  -0.00282   0.00000  -0.04203  -0.04270   0.80153
   D40       -3.04317   0.00536   0.00000   0.13727   0.13491  -2.90825
   D41        0.04671   0.00391   0.00000   0.08157   0.07996   0.12666
   D42        0.03183   0.00138   0.00000   0.04628   0.04613   0.07795
   D43        3.12170  -0.00007   0.00000  -0.00942  -0.00883   3.11287
   D44        3.06600  -0.00492   0.00000  -0.11598  -0.11865   2.94735
   D45       -0.00926  -0.00374   0.00000  -0.08291  -0.08493  -0.09418
   D46       -0.01629  -0.00116   0.00000  -0.03144  -0.03136  -0.04765
   D47       -3.09155   0.00002   0.00000   0.00162   0.00236  -3.08919
   D48       -0.03527  -0.00093   0.00000  -0.04329  -0.04324  -0.07851
   D49       -3.12826   0.00035   0.00000   0.00855   0.00738  -3.12088
   D50        0.02423   0.00022   0.00000   0.02234   0.02269   0.04693
   D51       -3.13356   0.00088   0.00000   0.01949   0.01930  -3.11426
   D52       -0.00524   0.00064   0.00000   0.00582   0.00546   0.00022
   D53        3.07033  -0.00056   0.00000  -0.02685  -0.02773   3.04259
   D54       -3.13116  -0.00002   0.00000   0.00857   0.00874  -3.12242
   D55       -0.05559  -0.00122   0.00000  -0.02409  -0.02445  -0.08004
   D56       -0.96637   0.00767   0.00000   0.07784   0.07771  -0.88865
   D57        1.13758  -0.00015   0.00000   0.05875   0.05850   1.19608
   D58       -3.09619   0.00804   0.00000   0.08043   0.08030  -3.01588
   D59        1.14939   0.00062   0.00000   0.01806   0.01831   1.16769
   D60       -3.02986  -0.00720   0.00000  -0.00103  -0.00090  -3.03076
   D61       -0.98044   0.00099   0.00000   0.02065   0.02090  -0.95954
   D62       -3.09654   0.00472   0.00000   0.01877   0.01877  -3.07777
   D63       -0.99260  -0.00310   0.00000  -0.00032  -0.00044  -0.99304
   D64        1.05682   0.00509   0.00000   0.02136   0.02136   1.07819
   D65       -3.02915  -0.00100   0.00000   0.01679   0.01657  -3.01257
   D66        1.17806  -0.00258   0.00000   0.03300   0.03269   1.21075
   D67       -0.86534  -0.00014   0.00000   0.07106   0.07166  -0.79367
   D68        1.14898   0.00070   0.00000   0.00295   0.00269   1.15167
   D69       -0.92700  -0.00088   0.00000   0.01916   0.01881  -0.90819
   D70       -2.97040   0.00156   0.00000   0.05722   0.05779  -2.91262
   D71       -0.90547   0.00000   0.00000   0.01200   0.01174  -0.89373
   D72       -2.98145  -0.00158   0.00000   0.02821   0.02786  -2.95359
   D73        1.25833   0.00086   0.00000   0.06627   0.06684   1.32517
         Item               Value     Threshold  Converged?
 Maximum Force            0.043155     0.000450     NO 
 RMS     Force            0.008546     0.000300     NO 
 Maximum Displacement     1.995508     0.001800     NO 
 RMS     Displacement     0.586411     0.001200     NO 
 Predicted change in Energy=-3.737504D-02
 GradGradGradGradGradGradGradGradGradGradGradGradGradGradGradGradGradGrad

                          Input orientation:                          
 ---------------------------------------------------------------------
 Center     Atomic      Atomic             Coordinates (Angstroms)
 Number     Number       Type             X           Y           Z
 ---------------------------------------------------------------------
      1          8           0       -0.259932   -0.132238   -1.758048
      2          6           0        0.258879    0.731877   -1.052979
      3          7           0       -0.482435    1.632495   -0.342812
      4          6           0       -1.793398    1.208721    0.107535
      5          6           0       -2.648924    2.401061    0.471778
      6          8           0       -3.942929    2.048489    0.582534
      7          8           0       -2.220198    3.507169    0.684380
      8          6           0       -1.539220    0.301866    1.362344
      9          6           0       -0.514651   -0.708930    0.944910
     10          6           0        0.854444   -0.652496    1.028262
     11          7           0        1.432247   -1.656836    0.264694
     12          6           0        0.412065   -2.372677   -0.193497
     13          7           0       -0.768943   -1.835571    0.193867
     14          6           0        1.755767    0.773886   -0.768365
     15          6           0        2.509073   -0.418539   -1.343226
     16          7           0        1.867183   -1.712938   -0.949310
     17          1           0       -0.027743    2.348230    0.205230
     18          1           0       -2.269374    0.629868   -0.682642
     19          1           0       -4.430392    2.846833    0.848524
     20          1           0       -1.104146    0.927380    2.145297
     21          1           0       -2.455219   -0.139479    1.758366
     22          1           0        1.454765    0.103434    1.517149
     23          1           0        0.485003   -3.257126   -0.810129
     24          1           0       -1.681164   -2.158266   -0.100981
     25          1           0        1.864514    0.758613    0.321342
     26          1           0        2.195428    1.714674   -1.115589
     27          1           0        2.520332   -0.378776   -2.433948
     28          1           0        3.543342   -0.392196   -0.996428
     29          1           0        2.439107   -2.511035   -1.231855
     30          1           0        0.975308   -1.754464   -1.453024
     31          1           0        1.571403   -1.853445    0.052296
 ---------------------------------------------------------------------
                    Distance matrix (angstroms):
                    1          2          3          4          5
     1  O    0.000000
     2  C    1.230034   0.000000
     3  N    2.273033   1.365648   0.000000
     4  C    2.762261   2.405414   1.449491   0.000000
     5  C    4.134852   3.683256   2.438837   1.512041   0.000000
     6  O    4.878356   4.697187   3.606153   2.356124   1.345743
     7  O    4.801393   4.106882   2.754877   2.407856   1.205189
     8  C    3.400274   3.041686   2.407266   1.568929   2.535975
     9  C    2.775506   2.581827   2.672366   2.452300   3.801449
    10  C    3.045656   2.569581   2.981321   3.364957   4.680541
    11  N    3.046203   2.969681   3.854189   4.317512   5.758938
    12  C    2.814066   3.224970   4.106560   4.216764   5.709712
    13  N    2.640153   3.033618   3.521022   3.213204   4.643340
    14  C    2.421482   1.524284   2.434718   3.681420   4.856640
    15  C    2.814504   2.543830   3.762537   4.823271   6.152179
    16  N    2.770792   2.928226   4.132852   4.801340   6.272136
    17  H    3.171923   2.068294   1.009639   2.103702   2.635228
    18  H    2.403156   2.557268   2.076992   1.089038   2.147991
    19  H    5.749940   5.484343   4.298868   3.191585   1.874642
    20  H    4.131778   3.482101   2.659775   2.169492   2.712700
    21  H    4.145419   4.003654   3.383300   2.231791   2.854325
    22  H    3.704408   2.903557   3.090344   3.709344   4.817899
    23  H    3.349388   4.002781   5.006267   5.096764   6.593925
    24  H    2.978349   3.608739   3.983128   3.375305   4.695963
    25  H    3.103345   2.113654   2.590934   3.691698   4.805350
    26  H    3.138890   2.172563   2.788348   4.202708   5.143792
    27  H    2.871845   2.873116   4.175485   5.252386   6.549194
    28  H    3.887484   3.471949   4.553401   5.680005   6.949968
    29  H    3.635982   3.911760   5.147295   5.791774   7.274552
    30  H    2.061668   2.618244   3.850854   4.345290   5.840232
    31  H    3.097368   3.102941   4.065236   4.549923   6.007324
                    6          7          8          9         10
     6  O    0.000000
     7  O    2.259629   0.000000
     8  C    3.071907   3.346242   0.000000
     9  C    4.414495   4.555465   1.498567   0.000000
    10  C    5.523476   5.184061   2.598470   1.372790   0.000000
    11  N    6.536282   6.339041   3.724375   2.269721   1.387657
    12  C    6.254191   6.501697   3.658050   2.218744   2.155787
    13  N    5.031021   5.558023   2.554858   1.377698   2.175148
    14  C    5.993720   5.038810   3.952172   3.207624   2.464714
    15  C    7.170991   6.472123   4.922171   3.802998   2.901118
    16  N    7.088884   6.828260   4.583313   3.204564   2.461903
    17  H    3.944729   2.525783   2.794831   3.182834   3.234191
    18  H    2.532577   3.185911   2.196059   2.742327   3.785483
    19  H    0.972483   2.312563   3.885839   5.290158   6.340907
    20  H    3.428966   3.167833   1.092508   2.113278   2.753153
    21  H    2.895353   3.808769   1.091179   2.179860   3.427842
    22  H    5.813076   5.077821   3.004544   2.205899   1.082047
    23  H    7.049514   7.436891   4.635034   3.251580   3.209402
    24  H    4.824890   5.744955   2.865958   2.134295   3.157822
    25  H    5.954696   4.936723   3.588553   2.864078   1.873822
    26  H    6.377655   5.094181   4.699338   4.178999   3.463788
    27  H    7.534224   6.877294   5.599560   4.553768   3.851884
    28  H    8.030835   7.158809   5.646057   4.509591   3.375988
    29  H    8.050568   7.848558   5.519906   4.087856   3.327680
    30  H    6.541790   6.516482   4.298563   3.010516   2.717669
    31  H    6.775995   6.596359   4.004693   2.541318   1.705526
                   11         12         13         14         15
    11  N    0.000000
    12  C    1.327832   0.000000
    13  N    2.209570   1.353999   0.000000
    14  C    2.660881   3.469419   3.756237   0.000000
    15  C    2.297464   3.088361   3.887933   1.523093   0.000000
    16  N    1.290783   1.767450   2.875944   2.495886   1.497551
    17  H    4.263293   4.758086   4.248965   2.570478   4.060563
    18  H    4.452915   4.055201   3.016281   4.028628   4.936505
    19  H    7.415823   7.195727   5.979941   6.721607   7.976378
    20  H    4.080213   4.319633   3.399168   4.085596   5.199678
    21  H    4.432361   4.125319   2.857956   4.995098   5.860199
    22  H    2.160487   3.185068   3.233526   2.400768   3.092858
    23  H    2.147892   1.080650   2.145042   4.226776   3.526843
    24  H    3.174662   2.106214   1.011540   4.566772   4.704031
    25  H    2.454478   3.489935   3.698803   1.095226   2.138207
    26  H    3.722191   4.553798   4.806913   1.094965   2.168131
    27  H    3.178056   3.666068   4.454997   2.165030   1.091505
    28  H    2.765224   3.791029   4.700631   2.146435   1.091181
    29  H    1.995765   2.281716   3.574985   3.387105   2.096625
    30  H    1.780135   1.511899   2.400259   2.733208   2.036955
    31  H    0.321142   1.293863   2.344692   2.758685   2.210353
                   16         17         18         19         20
    16  N    0.000000
    17  H    4.627828   0.000000
    18  H    4.761402   2.960742   0.000000
[...]
 .00001220,0.00000451,-0.00000851,0.00000691,0.00000603,-0.00003858,0.0
 0002333,0.00001112,-0.00004531,0.00037486,0.00046099,-0.00018950,-0.00
 000002,0.00001306,-0.00000933,-0.00002324,-0.00001741,0.00001434,0.074
 64048,0.00263579,0.31932946,-0.00500507,0.00078493,-0.00291913,-0.0014
 0502,-0.03300455,0.01275517,-0.00015907,0.00253673,-0.00115117,-0.0003
 0563,0.00024665,-0.00014139,-0.00015580,-0.00030568,-0.00010524,-0.000
 03279,0.00010712,0.00003697,0.00004815,0.00015332,-0.00002902,-0.00002
 197,0.00024875,-0.00019328,0.00024696,0.00002174,-0.00002762,-0.000196
 24,0.00002106,0.00008729,0.00020676,0.00011549,-0.00013287,-0.00013808
 ,-0.00005023,-0.00009878,0.00014072,0.00000004,0.00000419,-0.05756129,
 -0.04707276,0.02188863,0.00449126,0.01571222,-0.00773599,-0.00197415,0
 .00365904,0.00241328,-0.00052057,-0.00009133,0.00083737,0.00008909,0.0
 0004232,-0.00000149,-0.00002557,-0.00000548,0.00002382,0.00000232,-0.0
 0001245,0.00002471,-0.00000467,-0.00000765,0.00002923,-0.00000034,0.00
 003740,0.00001713,-0.00000652,-0.00000264,0.00000850,0.00000399,0.0000
 0080,-0.00000095,0.00190212,0.00939732,-0.00331356,0.06028939,-0.00088
 861,0.00079144,0.00046480,-0.00328961,-0.00492161,0.00025026,0.0012896
 8,0.00001447,-0.00053204,-0.00075919,0.00024005,-0.00027455,-0.0000921
 2,0.00006748,0.00003123,0.00004350,-0.00002382,-0.00001362,0.00003111,
 -0.00005421,-0.00001465,0.00028415,0.00001512,-0.00002221,0.00002252,-
 0.00003903,0.00004645,-0.00002537,-0.00006256,-0.00003800,-0.00011572,
 -0.00000312,0.00010750,0.00006608,0.00003874,0.00005140,-0.00005043,0.
 00001502,-0.00003831,-0.04232252,-0.26884023,0.08952859,-0.00449304,-0
 .01937558,0.00802486,0.00326138,-0.00199856,-0.00265276,0.00007910,0.0
 0007493,0.00048140,0.00001593,0.00002182,0.00001806,-0.00000282,0.0000
 0373,0.00000361,-0.00000877,0.00000136,0.00000528,-0.00000213,0.000049
 81,-0.00007015,0.00002014,0.00001269,0.00001023,0.00000427,0.00000684,
 -0.00000219,0.00000650,-0.00000264,-0.00000443,0.00048649,0.00136908,0
 .00008889,0.04695289,0.29159816,-0.00161324,-0.00002049,-0.00137142,-0
 .00141935,-0.00436742,0.00102454,0.00083565,-0.00011951,0.00044239,0.0
 0007527,-0.00000358,-0.00044276,0.00010609,0.00022745,0.00011274,-0.00
 007088,-0.00005955,-0.00001792,-0.00011741,-0.00013703,-0.00005498,0.0
 0013086,-0.00009423,0.00010259,-0.00042176,0.00004891,-0.00012850,0.00
 031129,0.00016978,-0.00046536,-0.00007104,-0.00022697,0.00004686,0.000
 26492,0.00003762,0.00009787,0.00005639,0.00025646,0.00017910,0.0194671
 0,0.09105594,-0.08161923,-0.00431336,-0.01629007,0.00589774,0.00253286
 ,-0.00441644,-0.00160655,0.00069929,0.00006296,-0.00026548,-0.00004808
 ,-0.00003399,0.00002937,0.00001390,0.00000266,0.00000314,0.00001018,0.
 00000271,-0.00002255,0.00001246,-0.00000354,-0.00003521,0.00005159,0.0
 0006236,0.00031376,0.00001963,0.00001757,-0.00001038,-0.00002438,0.000
 01011,0.00000568,0.00617360,0.03005296,-0.01081707,-0.02202962,-0.0955
 8766,0.08777040,-0.00020048,-0.00042754,-0.00124741,0.00088506,0.00055
 716,0.00162251,-0.00004096,-0.00021984,-0.00046876,-0.00015539,0.00000
 306,-0.00006868,-0.00006561,0.00004824,0.00000060,0.00004575,-0.000014
 65,-0.00001334,0.00003634,-0.00002882,-0.00001889,0.00006615,-0.000033
 81,0.00001470,-0.00002478,0.00002884,0.00000311,0.00004059,-0.00016078
 ,-0.00003329,-0.00032146,-0.00002336,0.00037341,0.00018054,0.00003368,
 0.00012080,-0.00013059,0.00005279,-0.00009220,0.00258642,-0.00218941,0
 .01949431,-0.05770039,0.00528652,-0.03079642,0.00000590,-0.00626418,0.
 01460269,0.00014484,-0.00008276,0.00008156,-0.00004268,0.00000074,0.00
 002031,-0.00000854,0.00000352,0.00000826,-0.00000297,0.00000616,-0.000
 00584,-0.00000396,0.00002325,-0.00002184,-0.00000495,0.00002842,-0.000
 02431,0.00000046,-0.00000785,0.00000434,-0.00000655,-0.00000746,0.0000
 1777,-0.00180960,0.00236959,0.00177983,0.00114291,-0.00063573,-0.00065
 026,0.05470975,0.00035790,0.00098448,0.00010457,-0.00150303,-0.0005671
 2,-0.00047544,0.00057456,-0.00008495,0.00017329,-0.00016221,-0.0000355
 5,0.00012109,-0.00006067,0.00001144,-0.00004072,0.00007485,-0.00001407
 ,-0.00000667,0.00006647,0.00000648,0.00001995,0.00006238,-0.00008552,-
 0.00001984,-0.00026315,0.00002349,-0.00007314,0.00005564,-0.00047523,-
 0.00028630,-0.00091924,-0.00031224,0.00117243,0.00062482,0.00026422,0.
 00036741,-0.00034470,0.00027833,-0.00001471,-0.00229076,0.00223080,-0.
 02350127,0.00261505,-0.05297814,0.03068223,-0.00157651,-0.01758050,0.0
 4063652,-0.00017646,0.00019761,-0.00005224,0.00004641,0.00001563,-0.00
 000775,-0.00000349,0.00000057,-0.00000149,-0.00001389,0.00001803,0.000
 00667,-0.00000382,0.00002986,-0.00001676,0.00002311,0.00001563,0.00016
 667,0.00000391,-0.00000327,0.00001592,-0.00000156,0.00003858,0.0000026
 9,0.00358711,-0.00241842,-0.00230027,-0.00031782,0.00086015,-0.0002629
 9,-0.00223919,0.07140034,0.00008771,0.00056733,0.00104427,-0.00088649,
 -0.00101564,-0.00080042,0.00015410,0.00018177,0.00017080,0.00000324,-0
 .00003531,0.00005485,-0.00002089,0.00000883,-0.00000032,0.00002240,-0.
 00000602,0.00000100,0.00001377,-0.00000415,0.00000867,-0.00001414,0.00
 001088,-0.00000714,-0.00001412,0.00000288,-0.00002130,-0.00005528,-0.0
 0001379,-0.00002367,0.00003197,-0.00004511,0.,-0.00000285,0.00000782,0
 .00001530,0.00004256,0.00003633,0.00002271,-0.00120519,-0.00047165,-0.
 01461066,-0.02591023,0.04067996,-0.32021304,0.00022829,0.00233612,-0.0
 0232426,-0.00011089,0.00013470,-0.00005823,0.00002514,0.00001737,0.000
 00129,-0.00000265,0.00000110,-0.00000316,-0.00000362,-0.00000074,0.000
 00613,0.00000298,-0.00000206,0.00000519,-0.00000184,-0.00000469,0.0000
 6162,0.00000300,0.00000164,-0.00000142,-0.00000523,0.00000178,-0.00000
 705,0.00196604,-0.00202191,0.00010763,-0.00009922,-0.00003767,0.000751
 10,0.02664182,-0.04175601,0.34016150,0.00049883,0.00000899,-0.00013739
 ,0.00067063,0.00276923,0.00151641,-0.00109716,-0.00040255,0.00011930,0
 .00015536,0.00021328,0.00006901,0.00003598,-0.00014855,0.00000526,-0.0
 0007994,0.00005182,0.00001573,-0.00003366,0.00005473,0.00001671,-0.000
 07551,0.00001696,-0.00001806,0.00000785,0.00004345,0.00000146,-0.00007
 403,-0.00001897,-0.00001158,0.00005762,0.00000387,0.00004936,-0.000013
 78,-0.00001792,-0.00000010,0.00006954,-0.00000921,0.00003650,-0.014894
 28,-0.00017202,-0.00379595,-0.30955642,-0.01815821,-0.07192886,-0.0063
 6891,-0.00268036,-0.00128450,0.00001409,-0.00007782,-0.00008522,-0.000
 00308,-0.00000643,0.00000099,0.00000228,-0.00000410,-0.00000519,0.0000
 0296,-0.00000169,0.00000205,0.00000336,-0.00002033,0.00002461,-0.00002
 571,0.00001856,0.00001569,0.00000744,0.00001355,-0.00000957,0.00000661
 ,0.00001012,-0.00000588,0.00092185,-0.00057292,0.00011703,0.00001419,0
 .00024874,-0.00003301,-0.00013993,0.00064906,-0.00065347,0.32914683,-0
 .00016145,0.00149970,0.00035852,-0.00038662,-0.00447640,-0.00294209,0.
 00199013,0.00084206,-0.00011387,-0.00021726,-0.00044769,-0.00006680,-0
 .00003151,0.00022768,-0.00002457,0.00015075,-0.00009123,-0.00002902,0.
 00006785,-0.00006845,-0.00002055,0.00009012,-0.00002543,0.00000137,0.0
 0002178,0.00002078,0.00002568,-0.00001906,-0.00005799,-0.00006616,-0.0
 0018850,-0.00012754,0.00022161,0.00017178,0.00005985,0.00020335,-0.000
 06153,-0.00000489,-0.00006444,0.02182676,0.00386120,0.00582171,-0.0080
 2679,-0.05165229,-0.00098934,-0.03950037,-0.01028824,-0.00956442,-0.00
 004722,0.00015049,0.00011591,0.00001141,0.00000972,-0.00000697,0.00000
 056,0.00000419,0.00000919,-0.00001022,0.00001319,-0.00000136,-0.000006
 26,0.00003882,-0.00003597,0.00001060,0.00000910,0.00004908,0.00001197,
 0.00004885,-0.00003300,0.00000908,-0.00001039,-0.00000124,-0.00042937,
 0.00087185,0.00007332,-0.00048130,0.00028258,0.00051183,0.00542131,0.0
 0141712,0.00046948,0.01968256,0.06275572,-0.00048795,0.00054993,0.0007
 7569,0.00061267,-0.00445306,-0.00199491,0.00138483,0.00060018,-0.00021
 997,-0.00008726,-0.00022116,-0.00017029,-0.00000562,0.00013134,-0.0000
 1490,0.00006583,-0.00004985,-0.00001192,0.00002280,-0.00004244,-0.0000
 1446,0.00009096,-0.00002940,0.00002660,0.00001673,-0.00004605,0.000010
 04,0.00005989,0.00000444,0.00002160,-0.00009654,-0.00002409,-0.0000190
 0,0.00001034,0.00004452,0.00000245,-0.00011509,-0.00000213,-0.00004985
 ,0.01980334,0.00082117,0.00406090,-0.07553849,-0.00431154,-0.07447636,
 0.00955293,0.00231096,0.00243698,0.00000332,0.00006429,0.00008032,0.00
 000298,0.00001061,0.00000284,0.00000510,0.00000019,0.00000476,0.000000
 05,0.00000179,-0.00000353,-0.00000629,0.00002519,-0.00002793,0.0000380
 0,-0.00001494,-0.00002794,-0.00001019,-0.00001535,0.00000967,-0.000000
 94,-0.00000422,-0.00000032,0.00027226,0.00075686,0.00082170,-0.0005265
 2,0.00017128,0.00031278,-0.03140464,-0.00270353,-0.00579099,0.07579282
 ,0.00552964,0.07385976,-0.00276965,0.00360625,-0.00001931,-0.00171982,
 -0.00193657,-0.00163467,0.00002760,0.00039479,0.00056581,0.00012283,-0
 .00001608,-0.00001813,-0.00001575,0.00005974,0.00005230,0.00002165,-0.
 00001736,-0.00000678,-0.00000389,-0.00002966,-0.00002209,-0.00006160,0
 .00003783,0.00000619,-0.00007741,-0.00010807,-0.00011216,0.00019312,-0
 .00005179,-0.00004507,0.00004394,-0.00003049,-0.00006161,-0.00001229,0
 .00009739,0.00005881,0.00001629,0.00007815,-0.00000237,-0.00098792,-0.
 00357670,0.00123983,0.01053337,-0.00862909,-0.00993681,-0.17106272,0.1
 3090668,0.09937216,-0.00004269,0.00003934,0.00009465,0.00003608,-0.000
 00213,-0.00001538,-0.00000962,0.00000610,0.00000203,0.00000379,-0.0000
 1590,0.00000168,0.00000755,-0.00001877,0.00001314,0.00000307,-0.000024
 02,0.00001867,-0.00007812,-0.00013543,0.00010586,-0.00003888,0.0000035
 2,0.00004415,0.00003232,0.00017278,-0.00000628,0.00061425,-0.00078594,
 -0.00051308,0.00033700,0.00055312,-0.00001108,0.00013718,-0.00049837,-
 0.00065447,0.17288392,-0.00061714,0.00169719,0.00028872,-0.00076022,-0
 .00079249,-0.00047898,-0.00016705,0.00033776,0.00029981,0.00010265,0.0
 0008037,-0.00001904,0.00011530,-0.00010133,-0.00002408,-0.00009152,0.0
 0003354,0.00001337,-0.00005404,0.00006057,0.00001955,-0.00001446,-0.00
 003036,-0.00001746,0.00007657,-0.00008942,-0.00008809,0.00014607,-0.00
 034346,-0.00007462,-0.00069175,-0.00099919,0.00088183,0.00029275,0.000
 39363,0.00029084,-0.00038535,0.00003733,-0.00015432,-0.00335542,-0.004
 77152,0.00312459,0.01845413,-0.01897525,-0.01655318,0.13200888,-0.2137
 9767,-0.11767805,-0.00008256,-0.00003821,0.00005439,0.00002266,-0.0000
 0871,-0.00000843,0.00001650,-0.00000562,-0.00000256,0.00000548,0.00000
 349,-0.00000011,-0.00001191,-0.00000209,0.00000787,0.00001308,-0.00000
 915,-0.00003435,-0.00014323,-0.00005886,0.00010288,0.00002049,0.000078
 27,-0.00001365,-0.00019955,0.00004074,0.00002485,0.00107883,-0.0007915
 7,-0.00107194,0.00069893,0.00093725,0.00056454,-0.00031113,0.00125951,
 -0.00071289,-0.13976122,0.22407519,-0.00205796,0.00187630,0.00005079,0
 .00000543,-0.00076258,-0.00078947,-0.00027787,0.00019845,0.00034756,0.
 00014769,0.00007950,-0.00000738,0.00014500,-0.00008802,-0.00000690,-0.
 00011521,0.00003295,0.00000416,-0.00007645,0.00004796,0.00000828,-0.00
 003947,-0.00000515,-0.00002462,-0.00002865,0.00019532,0.00014122,-0.00
 036338,0.00021127,0.00006770,0.00073702,0.00137116,-0.00102506,-0.0001
 8844,-0.00004293,-0.00027387,0.00028389,-0.00016450,0.00008173,0.00038
 694,0.00113658,-0.00011609,-0.00584548,0.00420849,0.00453152,0.1004592
 9,-0.11823605,-0.15396099,0.00003591,-0.00004461,0.00000527,0.00001684
 ,-0.00001202,-0.00000374,0.00001705,-0.00000676,0.00000503,0.00000640,
 -0.00000501,-0.00000527,-0.00001046,-0.00001325,0.00002158,0.00000948,
 -0.00001322,-0.00000401,0.00010937,0.00007013,-0.00004569,-0.00000552,
 -0.00001521,0.00004806,-0.00000030,0.00019866,0.00006520,-0.00009426,0
 .00031394,0.00033583,-0.00045455,0.00080118,0.00008773,-0.00009755,-0.
 00038092,0.00006559,-0.10998852,0.12541646,0.15157691,-0.01158653,-0.0
 1765258,-0.00826010,0.01247679,0.01745538,0.01453952,0.00055852,-0.007
 31777,-0.00681472,-0.00231539,-0.00026169,0.00043527,-0.00123284,0.000
 80617,-0.00002644,0.00087403,-0.00027972,-0.00013272,0.00070088,-0.000
 55144,-0.00014287,0.00069184,-0.00030402,0.00022707,-0.00075608,-0.000
 02404,0.00015859,0.00081342,-0.00130061,-0.00060484,-0.00272628,-0.000
 69837,0.00268675,0.00202582,-0.00011648,0.00112282,-0.00191327,0.00099
 623,-0.00070957,-0.00036957,-0.00101041,-0.00158301,-0.01166029,-0.014
 44382,-0.00236542,-0.30198919,-0.00827658,-0.08278399,0.00091742,0.000
 43342,-0.00060095,-0.00024532,0.00016538,0.00013181,-0.00012239,0.0000
 4978,0.00003830,-0.00006428,0.00003760,0.00000285,0.00000800,0.0002871
 1,-0.00024145,0.00012592,-0.00001517,0.00006608,0.00007877,-0.00017973
 ,0.00014148,-0.00017516,-0.00012355,0.00024405,-0.00075036,-0.00001385
 ,0.00001772,-0.00129111,0.00038501,0.00033203,0.00064515,0.00164960,-0
 .00003484,0.00099152,0.00049672,0.00040693,-0.00817363,0.00002106,-0.0
 0298186,0.31726095,-0.00254516,0.00956090,0.00645376,-0.00285765,-0.01
 769371,-0.01281894,-0.00158097,0.00475450,0.00474900,0.00195801,0.0002
 9873,-0.00038143,0.00096073,-0.00044683,0.00016656,-0.00071864,0.00017
 697,0.00009449,-0.00060587,0.00027868,0.00007535,-0.00064402,0.0002937
 5,-0.00012916,-0.00003597,-0.00043410,-0.00036909,0.00014314,-0.000056
 56,0.00041090,0.00104688,0.00058468,-0.00059893,-0.00108589,-0.0001630
 8,-0.00100124,0.00022712,0.00023813,0.00046598,0.00035056,0.00117928,-
 0.00035884,-0.03663120,-0.00361917,-0.01126329,-0.01452851,-0.05584305
 ,-0.00971655,-0.00050328,-0.00015431,0.00011697,0.00028285,-0.00010449
 ,-0.00008803,0.00008728,-0.00002449,-0.00003895,0.00007076,-0.00008529
 ,0.00000310,0.00001348,-0.00024324,0.00020081,-0.00006054,-0.00003166,
 -0.00024170,-0.00014789,-0.00050903,0.00039632,-0.00005721,0.00015513,
 -0.00001884,0.00038519,0.00017594,0.00016643,0.00059858,0.00023066,0.0
 0029251,0.00001995,0.00082459,0.00037454,-0.00107475,-0.00735307,0.001
 81758,0.02220866,0.00158590,0.01087756,0.02717318,0.06599641,-0.001641
 97,-0.00007296,-0.00703762,0.00337728,-0.00202055,-0.00047638,-0.00058
 199,-0.00094446,-0.00011138,-0.00025607,0.00015032,0.00028114,0.000173
 16,-0.00028527,-0.00016997,-0.00011801,0.00008067,-0.00000563,0.000025
 40,0.00016144,0.00003591,0.00009247,-0.00018723,-0.00010587,0.00025301
 ,0.00033196,0.00015447,-0.00007331,-0.00076192,-0.00049984,-0.00058638
 ,-0.00050102,0.00087061,0.00151724,0.00100616,0.00087798,-0.00017505,-
 0.00022197,-0.00043250,-0.00110701,-0.00057309,-0.00074585,0.00642490,
 0.00052861,0.00368310,-0.08812796,-0.00709721,-0.09637026,0.00023985,-
 0.00031079,0.00011499,-0.00002877,-0.00001657,-0.00001407,0.00002744,-
 0.00001747,0.00002710,-0.00001954,0.00006140,-0.00001269,-0.00005383,0
 .00004996,0.00000041,-0.00002018,0.00005396,0.00008937,0.00000564,0.00
 017220,-0.00009697,0.00009940,0.00003963,0.00015790,-0.00014966,-0.000
 28302,-0.00012375,0.00011784,0.00012848,0.00007279,0.00129812,0.000769
 46,-0.00007659,0.00037333,0.00175376,0.00008138,0.02255632,0.00399382,
 0.00883418,0.09273117,0.00549543,0.10299568,-0.00197466,0.00046267,0.0
 0236238,0.00108780,0.00077146,-0.00124392,-0.00079088,0.00015000,0.000
 86486,0.00074501,-0.00017405,-0.00035830,-0.00031749,0.00063795,0.0004
 0854,0.00014844,-0.00016202,-0.00000576,-0.00005840,-0.00046427,-0.000
 13834,-0.00045528,0.00046735,0.00028011,0.00141183,0.00041295,0.000631
 45,-0.00192469,0.00370613,0.00216283,-0.00000347,0.00216882,-0.0044575
 9,-0.00740153,-0.00208894,-0.00145748,0.00281956,-0.00225594,0.0003990
 3,0.00051453,0.00095581,-0.00097834,-0.00124538,-0.00376112,0.01006560
 ,-0.06088165,0.00379146,0.00403575,0.00005331,0.00006663,-0.00007865,-
 0.00002385,0.00003015,-0.00006121,-0.00006415,0.00004712,-0.00003465,0
 .00005088,-0.00015373,-0.00000585,0.00007864,-0.00012941,0.00008744,0.
 00018025,-0.00018578,-0.00060811,0.00030184,0.00017460,-0.00041633,-0.
 00027776,-0.00035655,-0.00000238,0.00029084,0.00000483,-0.00008585,-0.
 00038822,0.00027453,0.00023239,-0.00016805,-0.00106750,-0.00019098,-0.
 00038169,0.00010246,0.00079222,0.00004005,-0.00642684,0.02026561,0.007
 20268,0.00755119,-0.03637283,0.06143150,-0.00121462,0.00104793,0.00079
 419,0.00232853,-0.00173839,-0.00135464,-0.00102321,0.00045518,0.000941
 87,0.00084120,-0.00003010,-0.00024774,0.00011045,0.00016123,0.00021078
 ,-0.00015168,-0.00002068,0.00003046,-0.00019011,-0.00015920,-0.0000407
 2,-0.00020907,0.00027383,0.00031750,0.00221602,-0.00075677,0.00015418,
 0.00224533,0.00233208,0.00030700,0.00074322,-0.00393103,-0.00509803,-0
 .00437687,-0.00143406,-0.00013839,0.00137894,-0.00168712,-0.00022086,0
 .00058122,0.00132145,0.00015176,0.00102567,-0.00588814,0.02969901,0.00
 267079,-0.08515288,0.06338221,0.00004688,-0.00011658,-0.00008281,-0.00
 000370,-0.00001667,-0.00003308,-0.00000132,0.00001415,-0.00002815,0.00
 002544,-0.00006378,0.00000092,0.00005552,-0.00014859,0.00009919,0.0000
 5306,-0.00011696,-0.00076540,-0.00002496,0.00009001,-0.00010466,0.0001
 2921,-0.00009925,-0.00017404,-0.00007436,-0.00055991,-0.00068906,-0.00
 036333,0.00041880,-0.00011644,-0.00224677,-0.00499963,0.00001768,-0.00
 010795,0.00123120,-0.00020933,-0.00252677,0.01019417,-0.02724564,0.002
 61320,0.00042780,-0.00148374,-0.00454996,0.08895193,0.00296032,-0.0037
 5191,-0.00231296,-0.00244743,0.00289941,0.00405998,0.00206287,-0.00091
 462,-0.00253353,-0.00151957,0.00001181,0.00056572,0.00010594,-0.000633
 10,-0.00049605,0.00008363,0.00013531,-0.00006066,0.00027184,0.00051166
 ,0.00010489,0.00051662,-0.00082054,-0.00014754,-0.00242735,-0.00059753
 ,-0.00087524,0.00260774,-0.00535345,-0.00400666,-0.00547466,-0.0084022
 9,0.00363414,0.00590217,0.00528345,0.00429542,-0.00699253,0.00269857,-
 0.00126392,-0.00033308,0.00034960,0.00220654,0.00260639,0.00844749,0.0
 0739345,0.00660060,0.05595776,-0.30587052,-0.00001942,0.00003312,0.000
 24539,0.00000736,-0.00000609,0.00009939,0.00005689,-0.00005414,0.00007
 373,-0.00003923,0.00018789,-0.00000471,-0.00013288,0.00033097,-0.00021
 167,0.00012845,0.00011388,0.00078129,-0.00062515,-0.00084215,0.0008230
 1,-0.00005106,0.00081289,-0.00000871,-0.00015571,-0.00027718,-0.000566
 58,0.00035597,-0.00043801,-0.00064127,-0.00078372,-0.00352097,0.001438
 44,-0.00008993,-0.00080375,0.00024930,-0.00108379,0.00184824,-0.010015
 23,-0.00599968,0.00486772,-0.01199765,0.00390837,-0.05807403,0.3150422
 0\\-0.00000598,0.00000571,-0.00000049,-0.00000592,-0.00000189,0.000020
 18,0.00000871,-0.00000004,0.00001691,-0.00001564,-0.00000903,-0.000014
 23,0.00000557,-0.00000109,0.00000194,-0.00000384,0.00000175,0.00000046
 ,-0.00000013,-0.00000051,-0.00000261,-0.00000817,0.00001050,0.00001225
 ,0.00000731,0.00001325,-0.00002217,-0.00000655,-0.00000128,-0.00000157
 ,0.00000365,0.00000821,0.00000676,0.00001020,0.00000226,-0.00000114,-0
 .00000149,-0.00000125,-0.00000229,-0.00000744,0.00000006,-0.00001799,0
 .00001133,-0.00001471,0.00001015,0.00001226,0.00001590,0.00002120,0.00
 000289,-0.00000108,-0.00000005,0.00000058,-0.00000035,0.00000041,0.000
 00228,-0.00000109,-0.00000086,0.00000192,-0.00000066,-0.00000077,0.000
 00094,0.00000171,0.00000195,0.00000274,0.00000452,-0.00000150,0.000000
 32,0.00000040,0.00000027,0.00000094,0.00000132,-0.00000182,-0.00000377
 ,-0.00000182,0.00000781,-0.00000368,-0.00000090,0.00000131,0.00000041,
 0.00000199,0.00000134,0.00000091,0.00000305,-0.00000440,-0.00000017,-0
 .00000198,0.00000679,-0.00001292,-0.00000767,-0.00000924,0.00000273,-0
 .00002529,-0.00002860\\\@


      HUMANKIND PERIODICALLY GOES THROUGH A SPEEDUP OF ITS AFFAIRS, 
      THEREBY EXPERIENCING THE RACE BETWEEN THE RENEWABLE VITALITY
      OF THE LIVING, AND THE BECKONING VITIATION OF DECADENCE.
      IN THIS PERIODIC RACE, ANY PAUSE BECOMES A LUXURY.
      ONLY THEN CAN ONE REFLECT THAT ALL IS PERMITTED;
      ALL IS POSSIBLE.

                              -- THE APOCRYPHA OF MUAD'DIB
                                 CHILDREN OF DUNE, BY FRANK HERBERT
 Job cpu time:       0 days  1 hours 18 minutes 40.7 seconds.
 File lengths (MBytes):  RWF=    277 Int=      0 D2E=      0 Chk=      8 Scr=      1
 Normal termination of Gaussian 09 at Tue Jul 27 02:27:07 2021.
