 Entering Gaussian System, Link 0=g09
 Input=opt_freq-conf-715.com
 Output=opt_freq-conf-715.log
 Initial command:
 /aerosol/software/g09/l1.exe "/scratch/nicole/10530/Gau-96466.inp" -scrdir="/scratch/nicole/10530/"
 Entering Link 1 = /aerosol/software/g09/l1.exe PID=     96471.
  
 Copyright (c) 1988,1990,1992,1993,1995,1998,2003,2009,2013,
            Gaussian, Inc.  All Rights Reserved.
  
 This is part of the Gaussian(R) 09 program.  It is based on
 the Gaussian(R) 03 system (copyright 2003, Gaussian, Inc.),
 the Gaussian(R) 98 system (copyright 1998, Gaussian, Inc.),
 the Gaussian(R) 94 system (copyright 1995, Gaussian, Inc.),
 the Gaussian 92(TM) system (copyright 1992, Gaussian, Inc.),
 the Gaussian 90(TM) system (copyright 1990, Gaussian, Inc.),
 the Gaussian 88(TM) system (copyright 1988, Gaussian, Inc.),
 the Gaussian 86(TM) system (copyright 1986, Carnegie Mellon
 University), and the Gaussian 82(TM) system (copyright 1983,
 Carnegie Mellon University). Gaussian is a federally registered
 trademark of Gaussian, Inc.
  
 This software contains proprietary and confidential information,
 including trade secrets, belonging to Gaussian, Inc.
  
 This software is provided under written license and may be
 used, copied, transmitted, or stored only in accord with that
 written license.
  
 The following legend is applicable only to US Government
 contracts under FAR:
  
                    RESTRICTED RIGHTS LEGEND
  
 Use, reproduction and disclosure by the US Government is
 subject to restrictions as set forth in subparagraphs (a)
 and (c) of the Commercial Computer Software - Restricted
 Rights clause in FAR 52.227-19.
  
 Gaussian, Inc.
 340 Quinnipiac St., Bldg. 40, Wallingford CT 06492
  
  
 ---------------------------------------------------------------
 Warning -- This program may not be used in any manner that
 competes with the business of Gaussian, Inc. or will provide
 assistance to any competitor of Gaussian, Inc.  The licensee
 of this program is prohibited from giving any competitor of
 Gaussian, Inc. access to this program.  By using this program,
 the user acknowledges that Gaussian, Inc. is engaged in the
 business of creating and licensing software in the field of
 computational chemistry and represents and warrants to the
 licensee that it is not a competitor of Gaussian, Inc. and that
 it will not use this program in any manner prohibited above.
 ---------------------------------------------------------------
  

 Cite this work as:
 Gaussian 09, Revision D.01,
 M. J. Frisch, G. W. Trucks, H. B. Schlegel, G. E. Scuseria, 
 M. A. Robb, J. R. Cheeseman, G. Scalmani, V. Barone, B. Mennucci, 
 G. A. Petersson, H. Nakatsuji, M. Caricato, X. Li, H. P. Hratchian, 
 A. F. Izmaylov, J. Bloino, G. Zheng, J. L. Sonnenberg, M. Hada, 
 M. Ehara, K. Toyota, R. Fukuda, J. Hasegawa, M. Ishida, T. Nakajima, 
 Y. Honda, O. Kitao, H. Nakai, T. Vreven, J. A. Montgomery, Jr., 
 J. E. Peralta, F. Ogliaro, M. Bearpark, J. J. Heyd, E. Brothers, 
 K. N. Kudin, V. N. Staroverov, T. Keith, R. Kobayashi, J. Normand, 
 K. Raghavachari, A. Rendell, J. C. Burant, S. S. Iyengar, J. Tomasi, 
 M. Cossi, N. Rega, J. M. Millam, M. Klene, J. E. Knox, J. B. Cross, 
 V. Bakken, C. Adamo, J. Jaramillo, R. Gomperts, R. E. Stratmann, 
 O. Yazyev, A. J. Austin, R. Cammi, C. Pomelli, J. W. Ochterski, 
 R. L. Martin, K. Morokuma, V. G. Zakrzewski, G. A. Voth, 
 P. Salvador, J. J. Dannenberg, S. Dapprich, A. D. Daniels, 
 O. Farkas, J. B. Foresman, J. V. Ortiz, J. Cioslowski, 
 and D. J. Fox, Gaussian, Inc., Wallingford CT, 2013.
 
 ******************************************
 Gaussian 09:  ES64L-G09RevD.01 24-Apr-2013
                27-Jul-2021 
 ******************************************
 %mem=2gb
 %nproc=4
 Will use up to    4 processors via shared memory.
 %chk=conf-715.chk
 ----------------------------------------------------------------------
 # B3LYP/6-31G(d) EmpiricalDispersion=GD3BJ opt=calcfc freq=noraman nos
 ymm integral(ultrafinegrid)
 ----------------------------------------------------------------------
 1/10=4,14=-1,18=20,19=15,26=4,38=1/1,3;
 2/9=110,12=2,15=1,17=6,18=5,40=1/2;
 3/5=1,6=6,7=1,11=2,16=1,25=1,30=1,71=2,74=-5,75=-5,124=41,140=1/1,2,3;
 4//1;
 5/5=2,38=5/2;
 8/6=4,10=90,11=11/1;
 11/6=1,8=1,9=11,15=111,16=1,31=1/1,2,10;
 10/6=1,13=1,31=1/2;
 6/7=2,8=2,9=2,10=2,28=1/1;
 7/10=1,18=20,25=1,30=1/1,2,3,16;
 1/10=4,14=-1,18=20,19=15,26=4/3(2);
 2/9=110,15=1/2;
 99//99;
 2/9=110,15=1/2;
 3/5=1,6=6,7=1,11=2,16=1,25=1,30=1,71=1,74=-5,75=-5,124=41/1,2,3;
 4/5=5,16=3,69=1/1;
 5/5=2,38=5/2;
 7/30=1/1,2,3,16;
 1/14=-1,18=20,19=15,26=4/3(-5);
 2/9=110,15=1/2;
 6/7=2,8=2,9=2,10=2,19=2,28=1/1;
 99/9=1/99;
 ------------------------------------------------------------
 Candidate Structure: Conf:715 OPT and FREQ calc in gas phase
 ------------------------------------------------------------
 Symbolic Z-matrix:
 Charge =  1 Multiplicity = 1
 O                    -2.0885    1.182    -0.21825 
 C                    -1.46719   0.20547   0.19926 
 N                    -0.12132   0.20757   0.28624 
 C                     0.63783   1.29466  -0.29198 
 C                     0.98029   1.0447   -1.75562 
 O                     1.23244   2.14989  -2.48335 
 O                     1.08562  -0.04757  -2.25602 
 C                     1.91546   1.5648    0.52718 
 C                     2.70196   0.33131   0.85697 
 C                     3.40428  -0.01181   1.97613 
 N                     3.95687  -1.26981   1.84035 
 C                     3.5892   -1.67166   0.64641 
 N                     2.82178  -0.74817   0.01529 
 C                    -2.16715  -1.04944   0.69628 
 C                    -3.29142  -1.47616  -0.2379 
 N                    -4.33054  -0.42348  -0.32038 
 H                     0.38118  -0.63739   0.50118 
 H                    -0.00933   2.17279  -0.24627 
 H                     1.09821   2.93528  -1.94331 
 H                     2.53317   2.28932  -0.01518 
 H                     1.6259    2.0376    1.46797 
 H                     3.54597   0.56831   2.87675 
 H                     3.83588  -2.61477   0.19139 
 H                     2.44531  -0.82716  -0.92241 
 H                    -1.44086  -1.85534   0.81604 
 H                    -2.58091  -0.82551   1.683 
 H                    -3.73537  -2.40919   0.11305 
 H                    -2.88608  -1.66138  -1.23542 
 H                    -3.83816   0.47228  -0.44803 
 H                    -4.9767   -0.56907  -1.09527 
 H                    -4.85767  -0.35807   0.54953 
 

 GradGradGradGradGradGradGradGradGradGradGradGradGradGradGradGradGradGrad
 Berny optimization.
 Initialization pass.
                           ----------------------------
                           !    Initial Parameters    !
                           ! (Angstroms and Degrees)  !
 --------------------------                            --------------------------
 ! Name  Definition              Value          Derivative Info.                !
 --------------------------------------------------------------------------------
 ! R1    R(1,2)                  1.2304         calculate D2E/DX2 analytically  !
 ! R2    R(2,3)                  1.3487         calculate D2E/DX2 analytically  !
 ! R3    R(2,14)                 1.5205         calculate D2E/DX2 analytically  !
 ! R4    R(3,4)                  1.4465         calculate D2E/DX2 analytically  !
 ! R5    R(3,17)                 1.0063         calculate D2E/DX2 analytically  !
 ! R6    R(4,5)                  1.5238         calculate D2E/DX2 analytically  !
 ! R7    R(4,8)                  1.5415         calculate D2E/DX2 analytically  !
 ! R8    R(4,18)                 1.0918         calculate D2E/DX2 analytically  !
 ! R9    R(5,6)                  1.3471         calculate D2E/DX2 analytically  !
 ! R10   R(5,7)                  1.206          calculate D2E/DX2 analytically  !
 ! R11   R(6,19)                 0.9625         calculate D2E/DX2 analytically  !
 ! R12   R(8,9)                  1.4996         calculate D2E/DX2 analytically  !
 ! R13   R(8,20)                 1.0957         calculate D2E/DX2 analytically  !
 ! R14   R(8,21)                 1.092          calculate D2E/DX2 analytically  !
 ! R15   R(9,10)                 1.3651         calculate D2E/DX2 analytically  !
 ! R16   R(9,13)                 1.3741         calculate D2E/DX2 analytically  !
 ! R17   R(10,11)                1.3807         calculate D2E/DX2 analytically  !
 ! R18   R(10,22)                1.0806         calculate D2E/DX2 analytically  !
 ! R19   R(11,12)                1.3123         calculate D2E/DX2 analytically  !
 ! R20   R(12,13)                1.3565         calculate D2E/DX2 analytically  !
 ! R21   R(12,23)                1.0758         calculate D2E/DX2 analytically  !
 ! R22   R(13,24)                1.0135         calculate D2E/DX2 analytically  !
 ! R23   R(14,15)                1.5227         calculate D2E/DX2 analytically  !
 ! R24   R(14,25)                1.0915         calculate D2E/DX2 analytically  !
 ! R25   R(14,26)                1.0932         calculate D2E/DX2 analytically  !
 ! R26   R(15,16)                1.4815         calculate D2E/DX2 analytically  !
 ! R27   R(15,27)                1.0912         calculate D2E/DX2 analytically  !
 ! R28   R(15,28)                1.0925         calculate D2E/DX2 analytically  !
 ! R29   R(16,29)                1.0301         calculate D2E/DX2 analytically  !
 ! R30   R(16,30)                1.0194         calculate D2E/DX2 analytically  !
 ! R31   R(16,31)                1.0193         calculate D2E/DX2 analytically  !
 ! A1    A(1,2,3)              121.6382         calculate D2E/DX2 analytically  !
 ! A2    A(1,2,14)             122.2423         calculate D2E/DX2 analytically  !
 ! A3    A(3,2,14)             116.0786         calculate D2E/DX2 analytically  !
 ! A4    A(2,3,4)              119.9412         calculate D2E/DX2 analytically  !
 ! A5    A(2,3,17)             120.7154         calculate D2E/DX2 analytically  !
 ! A6    A(4,3,17)             117.0225         calculate D2E/DX2 analytically  !
 ! A7    A(3,4,5)              112.2482         calculate D2E/DX2 analytically  !
 ! A8    A(3,4,8)              110.7476         calculate D2E/DX2 analytically  !
 ! A9    A(3,4,18)             106.0591         calculate D2E/DX2 analytically  !
 ! A10   A(5,4,8)              110.6642         calculate D2E/DX2 analytically  !
 ! A11   A(5,4,18)             107.7799         calculate D2E/DX2 analytically  !
 ! A12   A(8,4,18)             109.152          calculate D2E/DX2 analytically  !
 ! A13   A(4,5,6)              115.2382         calculate D2E/DX2 analytically  !
 ! A14   A(4,5,7)              124.5212         calculate D2E/DX2 analytically  !
 ! A15   A(6,5,7)              120.1687         calculate D2E/DX2 analytically  !
 ! A16   A(5,6,19)             109.8912         calculate D2E/DX2 analytically  !
 ! A17   A(4,8,9)              114.0417         calculate D2E/DX2 analytically  !
 ! A18   A(4,8,20)             108.6675         calculate D2E/DX2 analytically  !
 ! A19   A(4,8,21)             108.2948         calculate D2E/DX2 analytically  !
 ! A20   A(9,8,20)             110.9204         calculate D2E/DX2 analytically  !
 ! A21   A(9,8,21)             107.8024         calculate D2E/DX2 analytically  !
 ! A22   A(20,8,21)            106.8359         calculate D2E/DX2 analytically  !
 ! A23   A(8,9,10)             131.062          calculate D2E/DX2 analytically  !
 ! A24   A(8,9,13)             123.8635         calculate D2E/DX2 analytically  !
 ! A25   A(10,9,13)            105.0617         calculate D2E/DX2 analytically  !
 ! A26   A(9,10,11)            110.7505         calculate D2E/DX2 analytically  !
 ! A27   A(9,10,22)            128.0101         calculate D2E/DX2 analytically  !
 ! A28   A(11,10,22)           121.2392         calculate D2E/DX2 analytically  !
 ! A29   A(10,11,12)           104.8527         calculate D2E/DX2 analytically  !
 ! A30   A(11,12,13)           111.9211         calculate D2E/DX2 analytically  !
 ! A31   A(11,12,23)           126.0866         calculate D2E/DX2 analytically  !
 ! A32   A(13,12,23)           121.9891         calculate D2E/DX2 analytically  !
 ! A33   A(9,13,12)            107.4082         calculate D2E/DX2 analytically  !
 ! A34   A(9,13,24)            126.5521         calculate D2E/DX2 analytically  !
 ! A35   A(12,13,24)           125.9817         calculate D2E/DX2 analytically  !
 ! A36   A(2,14,15)            111.7551         calculate D2E/DX2 analytically  !
 ! A37   A(2,14,25)            109.8128         calculate D2E/DX2 analytically  !
 ! A38   A(2,14,26)            107.4722         calculate D2E/DX2 analytically  !
 ! A39   A(15,14,25)           110.5913         calculate D2E/DX2 analytically  !
 ! A40   A(15,14,26)           109.3721         calculate D2E/DX2 analytically  !
 ! A41   A(25,14,26)           107.7021         calculate D2E/DX2 analytically  !
 ! A42   A(14,15,16)           110.6653         calculate D2E/DX2 analytically  !
 ! A43   A(14,15,27)           110.0394         calculate D2E/DX2 analytically  !
 ! A44   A(14,15,28)           109.4941         calculate D2E/DX2 analytically  !
 ! A45   A(16,15,27)           109.8828         calculate D2E/DX2 analytically  !
 ! A46   A(16,15,28)           109.2605         calculate D2E/DX2 analytically  !
 ! A47   A(27,15,28)           107.4348         calculate D2E/DX2 analytically  !
 ! A48   A(15,16,29)           106.8291         calculate D2E/DX2 analytically  !
 ! A49   A(15,16,30)           112.6713         calculate D2E/DX2 analytically  !
 ! A50   A(15,16,31)           111.1517         calculate D2E/DX2 analytically  !
 ! A51   A(29,16,30)           109.4498         calculate D2E/DX2 analytically  !
 ! A52   A(29,16,31)           107.287          calculate D2E/DX2 analytically  !
 ! A53   A(30,16,31)           109.2757         calculate D2E/DX2 analytically  !
 ! D1    D(1,2,3,4)             -8.8925         calculate D2E/DX2 analytically  !
 ! D2    D(1,2,3,17)          -171.0822         calculate D2E/DX2 analytically  !
 ! D3    D(14,2,3,4)           173.3831         calculate D2E/DX2 analytically  !
 ! D4    D(14,2,3,17)           11.1934         calculate D2E/DX2 analytically  !
 ! D5    D(1,2,14,15)           44.9129         calculate D2E/DX2 analytically  !
 ! D6    D(1,2,14,25)          168.0241         calculate D2E/DX2 analytically  !
 ! D7    D(1,2,14,26)          -75.0887         calculate D2E/DX2 analytically  !
 ! D8    D(3,2,14,15)         -137.3777         calculate D2E/DX2 analytically  !
 ! D9    D(3,2,14,25)          -14.2664         calculate D2E/DX2 analytically  !
 ! D10   D(3,2,14,26)          102.6207         calculate D2E/DX2 analytically  !
 ! D11   D(2,3,4,5)            -88.0776         calculate D2E/DX2 analytically  !
 ! D12   D(2,3,4,8)            147.6811         calculate D2E/DX2 analytically  !
 ! D13   D(2,3,4,18)            29.379          calculate D2E/DX2 analytically  !
 ! D14   D(17,3,4,5)            74.7538         calculate D2E/DX2 analytically  !
 ! D15   D(17,3,4,8)           -49.4875         calculate D2E/DX2 analytically  !
 ! D16   D(17,3,4,18)         -167.7896         calculate D2E/DX2 analytically  !
 ! D17   D(3,4,5,6)            156.7686         calculate D2E/DX2 analytically  !
 ! D18   D(3,4,5,7)            -26.3232         calculate D2E/DX2 analytically  !
 ! D19   D(8,4,5,6)            -78.9439         calculate D2E/DX2 analytically  !
 ! D20   D(8,4,5,7)             97.9644         calculate D2E/DX2 analytically  !
 ! D21   D(18,4,5,6)            40.3419         calculate D2E/DX2 analytically  !
 ! D22   D(18,4,5,7)          -142.7499         calculate D2E/DX2 analytically  !
 ! D23   D(3,4,8,9)             47.6667         calculate D2E/DX2 analytically  !
 ! D24   D(3,4,8,20)           171.9589         calculate D2E/DX2 analytically  !
 ! D25   D(3,4,8,21)           -72.3392         calculate D2E/DX2 analytically  !
 ! D26   D(5,4,8,9)            -77.4741         calculate D2E/DX2 analytically  !
 ! D27   D(5,4,8,20)            46.8182         calculate D2E/DX2 analytically  !
 ! D28   D(5,4,8,21)           162.5201         calculate D2E/DX2 analytically  !
 ! D29   D(18,4,8,9)           164.0713         calculate D2E/DX2 analytically  !
 ! D30   D(18,4,8,20)          -71.6365         calculate D2E/DX2 analytically  !
 ! D31   D(18,4,8,21)           44.0654         calculate D2E/DX2 analytically  !
 ! D32   D(4,5,6,19)            -3.3164         calculate D2E/DX2 analytically  !
 ! D33   D(7,5,6,19)           179.6299         calculate D2E/DX2 analytically  !
 ! D34   D(4,8,9,10)          -143.0645         calculate D2E/DX2 analytically  !
 ! D35   D(4,8,9,13)            35.4293         calculate D2E/DX2 analytically  !
 ! D36   D(20,8,9,10)           93.8599         calculate D2E/DX2 analytically  !
 ! D37   D(20,8,9,13)          -87.6463         calculate D2E/DX2 analytically  !
 ! D38   D(21,8,9,10)          -22.7823         calculate D2E/DX2 analytically  !
 ! D39   D(21,8,9,13)          155.7115         calculate D2E/DX2 analytically  !
 ! D40   D(8,9,10,11)          179.0039         calculate D2E/DX2 analytically  !
 ! D41   D(8,9,10,22)           -0.8137         calculate D2E/DX2 analytically  !
 ! D42   D(13,9,10,11)           0.299          calculate D2E/DX2 analytically  !
 ! D43   D(13,9,10,22)        -179.5186         calculate D2E/DX2 analytically  !
 ! D44   D(8,9,13,12)         -179.4715         calculate D2E/DX2 analytically  !
 ! D45   D(8,9,13,24)            3.1788         calculate D2E/DX2 analytically  !
 ! D46   D(10,9,13,12)          -0.6475         calculate D2E/DX2 analytically  !
 ! D47   D(10,9,13,24)        -177.9972         calculate D2E/DX2 analytically  !
 ! D48   D(9,10,11,12)           0.1762         calculate D2E/DX2 analytically  !
 ! D49   D(22,10,11,12)       -179.9919         calculate D2E/DX2 analytically  !
 ! D50   D(10,11,12,13)         -0.6066         calculate D2E/DX2 analytically  !
 ! D51   D(10,11,12,23)       -179.9715         calculate D2E/DX2 analytically  !
 ! D52   D(11,12,13,9)           0.8136         calculate D2E/DX2 analytically  !
 ! D53   D(11,12,13,24)        178.1827         calculate D2E/DX2 analytically  !
 ! D54   D(23,12,13,9)        -179.7915         calculate D2E/DX2 analytically  !
 ! D55   D(23,12,13,24)         -2.4224         calculate D2E/DX2 analytically  !
 ! D56   D(2,14,15,16)         -61.657          calculate D2E/DX2 analytically  !
 ! D57   D(2,14,15,27)         176.7094         calculate D2E/DX2 analytically  !
 ! D58   D(2,14,15,28)          58.8408         calculate D2E/DX2 analytically  !
 ! D59   D(25,14,15,16)        175.6747         calculate D2E/DX2 analytically  !
 ! D60   D(25,14,15,27)         54.0411         calculate D2E/DX2 analytically  !
 ! D61   D(25,14,15,28)        -63.8274         calculate D2E/DX2 analytically  !
 ! D62   D(26,14,15,16)         57.2232         calculate D2E/DX2 analytically  !
 ! D63   D(26,14,15,27)        -64.4103         calculate D2E/DX2 analytically  !
 ! D64   D(26,14,15,28)        177.7211         calculate D2E/DX2 analytically  !
 ! D65   D(14,15,16,29)         45.9451         calculate D2E/DX2 analytically  !
 ! D66   D(14,15,16,30)        166.1675         calculate D2E/DX2 analytically  !
 ! D67   D(14,15,16,31)        -70.7928         calculate D2E/DX2 analytically  !
 ! D68   D(27,15,16,29)        167.6708         calculate D2E/DX2 analytically  !
 ! D69   D(27,15,16,30)        -72.1068         calculate D2E/DX2 analytically  !
 ! D70   D(27,15,16,31)         50.9329         calculate D2E/DX2 analytically  !
 ! D71   D(28,15,16,29)        -74.6919         calculate D2E/DX2 analytically  !
 ! D72   D(28,15,16,30)         45.5305         calculate D2E/DX2 analytically  !
 ! D73   D(28,15,16,31)        168.5702         calculate D2E/DX2 analytically  !
 --------------------------------------------------------------------------------
 Trust Radius=3.00D-01 FncErr=1.00D-07 GrdErr=1.00D-06
 Number of steps in this run=    167 maximum allowed number of steps=    186.
 GradGradGradGradGradGradGradGradGradGradGradGradGradGradGradGradGradGrad

                          Input orientation:                          
 ---------------------------------------------------------------------
 Center     Atomic      Atomic             Coordinates (Angstroms)
 Number     Number       Type             X           Y           Z
 ---------------------------------------------------------------------
      1          8           0       -2.088503    1.182001   -0.218250
      2          6           0       -1.467191    0.205474    0.199256
      3          7           0       -0.121320    0.207573    0.286237
      4          6           0        0.637831    1.294657   -0.291983
      5          6           0        0.980290    1.044701   -1.755619
      6          8           0        1.232437    2.149894   -2.483347
      7          8           0        1.085624   -0.047571   -2.256015
      8          6           0        1.915465    1.564801    0.527178
      9          6           0        2.701962    0.331315    0.856973
     10          6           0        3.404279   -0.011806    1.976126
     11          7           0        3.956873   -1.269812    1.840347
     12          6           0        3.589197   -1.671656    0.646407
     13          7           0        2.821779   -0.748170    0.015291
     14          6           0       -2.167146   -1.049439    0.696276
     15          6           0       -3.291419   -1.476156   -0.237902
     16          7           0       -4.330544   -0.423485   -0.320382
     17          1           0        0.381180   -0.637395    0.501180
     18          1           0       -0.009331    2.172793   -0.246272
     19          1           0        1.098213    2.935276   -1.943309
     20          1           0        2.533171    2.289324   -0.015180
     21          1           0        1.625897    2.037598    1.467968
     22          1           0        3.545970    0.568313    2.876746
     23          1           0        3.835878   -2.614765    0.191386
     24          1           0        2.445311   -0.827160   -0.922414
     25          1           0       -1.440857   -1.855343    0.816045
     26          1           0       -2.580910   -0.825509    1.683004
     27          1           0       -3.735367   -2.409192    0.113052
     28          1           0       -2.886078   -1.661376   -1.235420
     29          1           0       -3.838156    0.472280   -0.448030
     30          1           0       -4.976697   -0.569074   -1.095267
     31          1           0       -4.857675   -0.358075    0.549529
 ---------------------------------------------------------------------
                    Distance matrix (angstroms):
                    1          2          3          4          5
     1  O    0.000000
     2  C    1.230425   0.000000
     3  N    2.252516   1.348680   0.000000
     4  C    2.729657   2.420487   1.446514   0.000000
     5  C    3.435090   3.242838   2.466476   1.523806   0.000000
     6  O    4.134746   4.273771   3.643606   2.426327   1.347078
     7  O    3.967293   3.550951   2.825749   2.420644   1.206047
     8  C    4.090716   3.660281   2.459393   1.541541   2.521154
     9  C    4.982803   4.222590   2.883049   2.551228   3.209160
    10  C    6.034163   5.189961   3.915827   3.808464   4.573604
    11  N    6.840744   5.855776   4.607557   4.705249   5.210372
    12  C    6.413055   5.412081   4.174825   4.288374   4.467071
    13  N    5.281191   4.397561   3.106234   3.006192   3.121152
    14  C    2.412854   1.520451   2.435901   3.786732   4.505947
    15  C    2.917737   2.519285   3.627560   4.808258   5.187069
    16  N    2.759486   2.977315   4.299277   5.257145   5.693894
    17  H    3.150733   2.053792   1.006318   2.104234   2.877762
    18  H    2.303348   2.488814   2.039166   1.091802   2.128396
    19  H    4.025538   4.315518   3.728069   2.372858   1.903525
    20  H    4.756814   4.515674   3.386867   2.158308   2.643796
    21  H    4.167990   3.812283   2.792534   2.150735   3.434263
    22  H    6.457778   5.694944   4.504430   4.361845   5.316809
    23  H    7.048512   6.006359   4.861481   5.073926   5.033577
    24  H    5.008797   4.199066   3.019786   2.857715   2.518805
    25  H    3.273327   2.151299   2.505493   3.933341   4.570083
    26  H    2.808439   2.122452   3.011279   4.330817   5.291877
    27  H    3.964668   3.462446   4.465287   5.745208   6.136671
    28  H    3.123388   2.748939   3.667737   4.695333   4.747869
    29  H    1.902049   2.472174   3.797906   4.553584   5.025423
    30  H    3.489568   3.819993   5.107486   5.970066   6.206933
    31  H    3.260311   3.454802   4.777273   5.800022   6.431432
                    6          7          8          9         10
     6  O    0.000000
     7  O    2.214066   0.000000
     8  C    3.141993   3.321828   0.000000
     9  C    4.077311   3.528002   1.499610   0.000000
    10  C    5.410799   4.825812   2.608008   1.365095   0.000000
    11  N    6.149086   5.149575   3.731861   2.259520   1.380715
    12  C    5.473018   4.162882   3.645580   2.200777   2.134819
    13  N    4.143425   2.943451   2.536388   1.374071   2.174032
    14  C    5.648265   4.505582   4.850830   5.063647   5.809947
    15  C    6.217358   5.027140   6.078191   6.355023   7.202682
    16  N    6.499804   5.763927   6.609407   7.170218   8.079042
    17  H    4.171452   2.906245   2.684095   2.539885   3.421397
    18  H    2.558714   3.188732   2.161647   3.458222   4.622149
    19  H    0.962539   2.999219   2.940987   4.146589   5.418967
    20  H    2.793420   3.546522   1.095741   2.150103   3.165332
    21  H    3.972443   4.302078   1.092004   2.107755   2.760602
    22  H    6.048506   5.725195   3.028532   2.201818   1.080615
    23  H    6.052609   4.488224   4.611888   3.226168   3.185431
    24  H    3.573573   2.057912   2.846670   2.138727   3.160057
    25  H    5.837329   4.369061   4.800596   4.684666   5.312228
    26  H    6.383817   5.437328   5.221772   5.470769   6.047357
    27  H    7.225346   5.867852   6.920695   7.035837   7.758418
    28  H    5.748501   4.406858   6.047295   6.290876   7.252842
    29  H    5.715577   5.270926   5.937069   6.670536   7.652696
    30  H    6.919024   6.194435   7.395109   7.973941   8.943420
    31  H    7.251048   6.579535   7.040835   7.597229   8.391362
                   11         12         13         14         15
    11  N    0.000000
    12  C    1.312310   0.000000
    13  N    2.211646   1.356490   0.000000
    14  C    6.233865   5.790089   5.044193   0.000000
    15  C    7.543171   6.939965   6.161596   1.522749   0.000000
    16  N    8.606177   8.075575   7.167553   2.470972   1.481452
    17  H    3.870258   3.373746   2.490960   2.588785   3.838978
    18  H    5.651219   5.340980   4.076227   3.990907   4.907851
    19  H    6.338039   5.842555   4.513819   5.788603   6.452752
    20  H    4.258797   4.152379   3.051326   5.809173   6.939330
    21  H    4.063382   4.276456   3.361682   4.951008   6.279845
    22  H    2.149806   3.161288   3.231951   6.325446   7.786577
    23  H    2.131340   1.075802   2.131568   6.224263   7.230427
    24  H    3.180189   2.117274   1.013537   4.893295   5.813762
    25  H    5.525172   5.036265   4.476282   1.091478   2.163139
    26  H    6.554752   6.313535   5.654759   1.093151   2.148964
    27  H    7.965694   7.380899   6.764962   2.156014   1.091245
    28  H    7.512632   6.743187   5.914208   2.150065   1.092543
    29  H    8.308672   7.807678   6.786671   2.533247   2.034570
    30  H    9.429609   8.810429   7.879190   3.366593   2.097148
    31  H    8.955094   8.548949   7.707892   2.781809   2.079257
                   16         17         18         19         20
    16  N    0.000000
    17  H    4.787595   0.000000
    18  H    5.041729   2.933997   0.000000
    19  H    6.586847   4.387896   2.165172   0.000000
    20  H    7.386682   3.669247   2.555641   2.488782   0.000000
    21  H    6.688371   3.104768   2.372944   3.566663   1.756770
    22  H    8.558315   4.136779   4.996775   5.901436   3.514382
    23  H    8.470776   3.992606   6.156126   6.546348   5.078366
    24  H    6.814515   2.514611   3.934737   4.124660   3.247040
    25  H    3.419353   2.214127   4.404959   6.083661   5.801905
    26  H    2.690055   3.194695   4.396014   6.389804   6.224134
    27  H    2.117814   4.498430   5.916675   7.493694   7.834990
    28  H    2.110960   3.839179   4.894379   6.124123   6.816545
    29  H    1.030113   4.464883   4.194324   5.715763   6.639490
    30  H    1.019390   5.591078   5.737015   7.064288   8.107721
    31  H    1.019260   5.246519   5.526755   7.247965   7.870973
                   21         22         23         24         25
    21  H    0.000000
    22  H    2.798238   0.000000
    23  H    5.306426   4.174589   0.000000
    24  H    3.819974   4.194331   2.523838   0.000000
    25  H    4.998497   5.915153   5.367573   4.379692   0.000000
    26  H    5.093216   6.395813   6.826531   5.661370   1.764058
    27  H    7.095977   8.337950   7.574440   6.463420   2.462869
    28  H    6.430290   7.953155   6.937537   5.405331   2.516903
    29  H    5.998095   8.098684   8.296354   6.433938   3.572501
    30  H    7.547128   9.471345   9.137931   7.428505   4.220162
    31  H    6.972767   8.769001   8.988813   7.464601   3.739985
                   26         27         28         29         30
    26  H    0.000000
    27  H    2.511090   0.000000
    28  H    3.051066   1.760369   0.000000
    29  H    2.793963   2.937390   2.465547   0.000000
    30  H    3.677545   2.527246   2.362933   1.673202   0.000000
    31  H    2.585907   2.378481   2.961728   1.650464   1.662540
                   31
    31  H    0.000000
 Symmetry turned off by external request.
 Stoichiometry    C9H15N4O3(1+)
 Framework group  C1[X(C9H15N4O3)]
 Deg. of freedom    87
 Full point group                 C1      NOp   1
 Rotational constants (GHZ):      0.7862783      0.3062208      0.2589168
 Standard basis: 6-31G(d) (6D, 7F)
   270 basis functions,   508 primitive gaussians,   270 cartesian basis functions
    60 alpha electrons       60 beta electrons
       nuclear repulsion energy      1154.5710476958 Hartrees.
 NAtoms=   31 NActive=   31 NUniq=   31 SFac= 1.00D+00 NAtFMM=   60 NAOKFM=F Big=F
 Integral buffers will be    131072 words long.
 Raffenetti 2 integral format.
 Two-electron integral symmetry is turned off.
 Nuclear repulsion after empirical dispersion term =     1154.5137904666 Hartrees.
 One-electron integrals computed using PRISM.
 NBasis=   270 RedAO= T EigKep=  1.22D-03  NBF=   270
 NBsUse=   270 1.00D-06 EigRej= -1.00D+00 NBFU=   270
 ExpMin= 1.61D-01 ExpMax= 5.48D+03 ExpMxC= 8.25D+02 IAcc=3 IRadAn=         5 AccDes= 0.00D+00
 Harris functional with IExCor=  402 and IRadAn=       5 diagonalized for initial guess.
 HarFok:  IExCor=  402 AccDes= 0.00D+00 IRadAn=         5 IDoV= 1 UseB2=F ITyADJ=14
 ICtDFT=  3500011 ScaDFX=  1.000000  1.000000  1.000000  1.000000
 FoFCou: FMM=F IPFlag=           0 FMFlag=      100000 FMFlg1=           0
         NFxFlg=           0 DoJE=T BraDBF=F KetDBF=T FulRan=T
         wScrn=  0.000000 ICntrl=     500 IOpCl=  0 I1Cent=   200000004 NGrid=           0
         NMat0=    1 NMatS0=      1 NMatT0=    0 NMatD0=    1 NMtDS0=    0 NMtDT0=    0
 Symmetry not used in FoFCou.
 Requested convergence on RMS density matrix=1.00D-08 within 128 cycles.
 Requested convergence on MAX density matrix=1.00D-06.
 Requested convergence on             energy=1.00D-06.
 No special actions if energy rises.
 Integral accuracy reduced to 1.0D-05 until final iterations.
 Initial convergence to 1.0D-05 achieved.  Increase integral accuracy.
 SCF Done:  E(RB3LYP) =  -796.508003405     A.U. after   14 cycles
            NFock= 14  Conv=0.98D-08     -V/T= 2.0088
 DoSCS=F DFT=T ScalE2(SS,OS)=  1.000000  1.000000
 Range of M.O.s used for correlation:     1   270
 NBasis=   270 NAE=    60 NBE=    60 NFC=     0 NFV=     0
 NROrb=    270 NOA=    60 NOB=    60 NVA=   210 NVB=   210
 Symmetrizing basis deriv contribution to polar:
 IMax=3 JMax=2 DiffMx= 0.00D+00
 G2DrvN: will do    32 centers at a time, making    1 passes.
 Calling FoFCou, ICntrl=  3107 FMM=F I1Cent=   0 AccDes= 0.00D+00.
 End of G2Drv F.D. properties file   721 does not exist.
 End of G2Drv F.D. properties file   722 does not exist.
 End of G2Drv F.D. properties file   788 does not exist.
          IDoAtm=1111111111111111111111111111111
          Differentiating once with respect to nuclear coordinates.
          There are    96 degrees of freedom in the 1st order CPHF.  IDoFFX=6 NUNeed=     0.
     90 vectors produced by pass  0 Test12= 1.31D-14 1.04D-09 XBig12= 1.86D-01 8.74D-02.
 AX will form    90 AO Fock derivatives at one time.
     90 vectors produced by pass  1 Test12= 1.31D-14 1.04D-09 XBig12= 3.03D-02 3.11D-02.
     90 vectors produced by pass  2 Test12= 1.31D-14 1.04D-09 XBig12= 2.50D-04 3.19D-03.
     90 vectors produced by pass  3 Test12= 1.31D-14 1.04D-09 XBig12= 9.95D-07 1.33D-04.
     90 vectors produced by pass  4 Test12= 1.31D-14 1.04D-09 XBig12= 1.35D-09 4.63D-06.
     68 vectors produced by pass  5 Test12= 1.31D-14 1.04D-09 XBig12= 1.16D-12 8.83D-08.
     10 vectors produced by pass  6 Test12= 1.31D-14 1.04D-09 XBig12= 8.51D-16 2.32D-09.
 InvSVY:  IOpt=1 It=  1 EMax= 5.55D-16
 Solved reduced A of dimension   528 with    96 vectors.
 End of Minotr F.D. properties file   721 does not exist.
 End of Minotr F.D. properties file   722 does not exist.
 End of Minotr F.D. properties file   788 does not exist.

 **********************************************************************

            Population analysis using the SCF density.

 **********************************************************************

 Alpha  occ. eigenvalues --  -19.32043 -19.28944 -19.26488 -14.64420 -14.51822
 Alpha  occ. eigenvalues --  -14.47713 -14.39318 -10.45756 -10.44807 -10.43632
 Alpha  occ. eigenvalues --  -10.38147 -10.37824 -10.32703 -10.32102 -10.31171
 Alpha  occ. eigenvalues --  -10.28205  -1.23165  -1.21474  -1.19483  -1.15024
 Alpha  occ. eigenvalues --   -1.10638  -1.08630  -0.97608  -0.95752  -0.92433
 Alpha  occ. eigenvalues --   -0.86243  -0.83870  -0.78635  -0.78044  -0.77807
 Alpha  occ. eigenvalues --   -0.75287  -0.74027  -0.70758  -0.69593  -0.68901
 Alpha  occ. eigenvalues --   -0.67906  -0.65632  -0.64516  -0.61857  -0.60719
 Alpha  occ. eigenvalues --   -0.59065  -0.58167  -0.57730  -0.57055  -0.56025
 Alpha  occ. eigenvalues --   -0.54832  -0.54339  -0.53431  -0.51803  -0.50606
 Alpha  occ. eigenvalues --   -0.49834  -0.49411  -0.48934  -0.44256  -0.43301
 Alpha  occ. eigenvalues --   -0.42301  -0.39757  -0.36624  -0.34662  -0.31506
 Alpha virt. eigenvalues --   -0.15176  -0.13837  -0.12411  -0.09232  -0.07091
 Alpha virt. eigenvalues --   -0.06566  -0.05448  -0.04846  -0.03501  -0.02641
 Alpha virt. eigenvalues --   -0.01923  -0.01804  -0.00267   0.00441   0.02120
 Alpha virt. eigenvalues --    0.03539   0.04165   0.04440   0.05741   0.06353
 Alpha virt. eigenvalues --    0.07797   0.08619   0.09519   0.10056   0.11546
 Alpha virt. eigenvalues --    0.13303   0.15884   0.18667   0.19632   0.22527
 Alpha virt. eigenvalues --    0.24311   0.24517   0.26496   0.29510   0.31434
 Alpha virt. eigenvalues --    0.33008   0.35096   0.36178   0.37407   0.38820
 Alpha virt. eigenvalues --    0.40026   0.40766   0.42420   0.43817   0.44741
 Alpha virt. eigenvalues --    0.45397   0.46451   0.47797   0.49155   0.49541
 Alpha virt. eigenvalues --    0.50446   0.52436   0.53391   0.54278   0.54778
 Alpha virt. eigenvalues --    0.55620   0.56643   0.57773   0.59091   0.61106
 Alpha virt. eigenvalues --    0.61728   0.62193   0.62956   0.63327   0.63818
 Alpha virt. eigenvalues --    0.66578   0.67769   0.68545   0.68843   0.69409
 Alpha virt. eigenvalues --    0.70739   0.71926   0.73039   0.74254   0.74833
 Alpha virt. eigenvalues --    0.75223   0.75848   0.76790   0.77722   0.79003
 Alpha virt. eigenvalues --    0.79304   0.80298   0.81521   0.83038   0.84289
 Alpha virt. eigenvalues --    0.84565   0.85804   0.86969   0.88941   0.89608
 Alpha virt. eigenvalues --    0.91387   0.92672   0.95010   0.97688   1.01048
 Alpha virt. eigenvalues --    1.02108   1.03323   1.04188   1.05348   1.12121
 Alpha virt. eigenvalues --    1.14820   1.15040   1.17435   1.19668   1.20955
 Alpha virt. eigenvalues --    1.23894   1.24644   1.26422   1.27730   1.28927
 Alpha virt. eigenvalues --    1.30957   1.32914   1.35742   1.37240   1.38360
 Alpha virt. eigenvalues --    1.40874   1.42071   1.42774   1.47038   1.47398
 Alpha virt. eigenvalues --    1.47824   1.48937   1.55461   1.58865   1.59826
 Alpha virt. eigenvalues --    1.61417   1.62368   1.63421   1.65555   1.66247
 Alpha virt. eigenvalues --    1.67720   1.69179   1.70077   1.71414   1.72932
 Alpha virt. eigenvalues --    1.74431   1.76801   1.76891   1.79728   1.80644
 Alpha virt. eigenvalues --    1.82553   1.84318   1.85415   1.86490   1.88752
 Alpha virt. eigenvalues --    1.90272   1.91200   1.93541   1.94665   1.97578
 Alpha virt. eigenvalues --    2.00915   2.01385   2.04707   2.05819   2.09505
 Alpha virt. eigenvalues --    2.12257   2.12879   2.13776   2.15268   2.16185
 Alpha virt. eigenvalues --    2.16976   2.20114   2.22525   2.25114   2.25241
 Alpha virt. eigenvalues --    2.27551   2.30592   2.32388   2.32815   2.33905
 Alpha virt. eigenvalues --    2.34568   2.38053   2.42936   2.43719   2.47647
 Alpha virt. eigenvalues --    2.48971   2.50110   2.51720   2.53754   2.55097
 Alpha virt. eigenvalues --    2.58309   2.60872   2.66900   2.68721   2.72731
 Alpha virt. eigenvalues --    2.76178   2.78654   2.85860   2.89496   2.92418
 Alpha virt. eigenvalues --    2.96060   2.98085   3.00690   3.04977   3.58834
 Alpha virt. eigenvalues --    3.70777   3.84232   3.93670   3.97129   3.97347
 Alpha virt. eigenvalues --    4.01805   4.05040   4.13629   4.15604   4.20944
 Alpha virt. eigenvalues --    4.24966   4.26453   4.38048   4.47350   4.53700
          Condensed to atoms (all electrons):
               1          2          3          4          5          6
     1  O    8.136175   0.508871  -0.094022  -0.003272   0.001556  -0.000062
     2  C    0.508871   4.324760   0.327144  -0.038088   0.001364   0.000056
     3  N   -0.094022   0.327144   7.062142   0.220663  -0.051642   0.003142
     4  C   -0.003272  -0.038088   0.220663   5.325947   0.287461  -0.091389
     5  C    0.001556   0.001364  -0.051642   0.287461   4.398018   0.281949
     6  O   -0.000062   0.000056   0.003142  -0.091389   0.281949   8.178633
     7  O   -0.000106   0.002710   0.002846  -0.090144   0.550472  -0.075542
     8  C    0.000462   0.005435  -0.045576   0.298795  -0.036299  -0.001947
     9  C   -0.000025   0.000293  -0.002760  -0.035839  -0.007675  -0.000177
    10  C    0.000000  -0.000014   0.000215   0.000853   0.000049  -0.000004
    11  N    0.000000  -0.000001   0.000018  -0.000156  -0.000006   0.000000
    12  C    0.000000  -0.000011  -0.000051   0.000187   0.000088  -0.000001
    13  N   -0.000001   0.000199  -0.008131   0.001658   0.001747  -0.000042
    14  C   -0.084075   0.320038  -0.097423   0.007003  -0.000368  -0.000001
    15  C    0.002316  -0.028263  -0.000137  -0.000082   0.000045   0.000000
    16  N   -0.035474  -0.002006  -0.000145   0.000009  -0.000001   0.000000
    17  H    0.002434  -0.016226   0.290686  -0.026911  -0.002262   0.000025
    18  H    0.017485  -0.003788  -0.044271   0.355979  -0.034443   0.002488
    19  H   -0.000039  -0.000047   0.000353   0.007914  -0.021557   0.230050
    20  H   -0.000007  -0.000034   0.004738  -0.049871  -0.004431   0.004694
    21  H    0.000018   0.000019  -0.000299  -0.027568   0.004077  -0.000031
    22  H    0.000000   0.000000  -0.000014   0.000010   0.000001   0.000000
    23  H    0.000000   0.000000  -0.000002  -0.000001   0.000002   0.000000
    24  H    0.000000   0.000011   0.000901  -0.002252  -0.001010   0.000126
    25  H    0.002618  -0.025044   0.004233  -0.000082   0.000007   0.000000
    26  H    0.000901  -0.028073  -0.001068  -0.000203  -0.000005   0.000000
    27  H    0.000007   0.003402  -0.000097   0.000003   0.000000   0.000000
    28  H    0.000667  -0.003220   0.000563  -0.000055   0.000017   0.000000
    29  H    0.083260   0.001173   0.001586  -0.000016   0.000002   0.000000
    30  H    0.000722   0.000044   0.000009  -0.000001   0.000000   0.000000
    31  H    0.000953  -0.000242   0.000009  -0.000001   0.000000   0.000000
               7          8          9         10         11         12
     1  O   -0.000106   0.000462  -0.000025   0.000000   0.000000   0.000000
     2  C    0.002710   0.005435   0.000293  -0.000014  -0.000001  -0.000011
     3  N    0.002846  -0.045576  -0.002760   0.000215   0.000018  -0.000051
     4  C   -0.090144   0.298795  -0.035839   0.000853  -0.000156   0.000187
     5  C    0.550472  -0.036299  -0.007675   0.000049  -0.000006   0.000088
     6  O   -0.075542  -0.001947  -0.000177  -0.000004   0.000000  -0.000001
     7  O    8.029832  -0.002073   0.000674   0.000044  -0.000007   0.000327
     8  C   -0.002073   5.208019   0.344326  -0.049967   0.006654   0.006297
     9  C    0.000674   0.344326   4.788102   0.561429  -0.042050  -0.099631
    10  C    0.000044  -0.049967   0.561429   4.929147   0.425535  -0.113616
    11  N   -0.000007   0.006654  -0.042050   0.425535   6.642366   0.532691
    12  C    0.000327   0.006297  -0.099631  -0.113616   0.532691   4.748817
    13  N   -0.013661  -0.078495   0.348026  -0.076493  -0.082351   0.345298
    14  C   -0.000040  -0.000152  -0.000043  -0.000001   0.000000   0.000000
    15  C   -0.000003   0.000000   0.000000   0.000000   0.000000   0.000000
    16  N    0.000000   0.000000   0.000000   0.000000   0.000000   0.000000
    17  H    0.003174  -0.006545   0.008999  -0.000414  -0.000339   0.000106
    18  H    0.002663  -0.026530   0.003861  -0.000026   0.000001   0.000009
    19  H    0.004556  -0.000349   0.000084   0.000002   0.000000   0.000000
    20  H   -0.000130   0.359816  -0.031431  -0.002599  -0.000034   0.000127
    21  H   -0.000084   0.369071  -0.033242  -0.003270   0.000062  -0.000040
    22  H    0.000000  -0.001371  -0.061503   0.385408  -0.041091   0.007777
    23  H   -0.000004  -0.000185   0.002682   0.007769  -0.037527   0.384697
    24  H    0.039471  -0.002230  -0.026388   0.008158   0.003739  -0.015674
    25  H    0.000011  -0.000020  -0.000005   0.000002   0.000000   0.000002
    26  H    0.000000   0.000014  -0.000001   0.000000   0.000000   0.000000
    27  H    0.000000   0.000000   0.000000   0.000000   0.000000   0.000000
    28  H    0.000020   0.000001   0.000000   0.000000   0.000000   0.000000
    29  H    0.000000   0.000000   0.000000   0.000000   0.000000   0.000000
    30  H    0.000000   0.000000   0.000000   0.000000   0.000000   0.000000
    31  H    0.000000   0.000000   0.000000   0.000000   0.000000   0.000000
              13         14         15         16         17         18
     1  O   -0.000001  -0.084075   0.002316  -0.035474   0.002434   0.017485
     2  C    0.000199   0.320038  -0.028263  -0.002006  -0.016226  -0.003788
     3  N   -0.008131  -0.097423  -0.000137  -0.000145   0.290686  -0.044271
     4  C    0.001658   0.007003  -0.000082   0.000009  -0.026911   0.355979
     5  C    0.001747  -0.000368   0.000045  -0.000001  -0.002262  -0.034443
     6  O   -0.000042  -0.000001   0.000000   0.000000   0.000025   0.002488
     7  O   -0.013661  -0.000040  -0.000003   0.000000   0.003174   0.002663
     8  C   -0.078495  -0.000152   0.000000   0.000000  -0.006545  -0.026530
     9  C    0.348026  -0.000043   0.000000   0.000000   0.008999   0.003861
    10  C   -0.076493  -0.000001   0.000000   0.000000  -0.000414  -0.000026
    11  N   -0.082351   0.000000   0.000000   0.000000  -0.000339   0.000001
    12  C    0.345298   0.000000   0.000000   0.000000   0.000106   0.000009
    13  N    6.967182  -0.000015   0.000000   0.000000   0.014982   0.000035
    14  C   -0.000015   5.320699   0.328414  -0.042397  -0.001210   0.000995
    15  C    0.000000   0.328414   5.066602   0.209076  -0.000031  -0.000035
    16  N    0.000000  -0.042397   0.209076   6.838294   0.000017   0.000008
    17  H    0.014982  -0.001210  -0.000031   0.000017   0.355658   0.004524
    18  H    0.000035   0.000995  -0.000035   0.000008   0.004524   0.522451
    19  H    0.000013   0.000000   0.000000   0.000000   0.000001   0.002796
    20  H   -0.000024   0.000004   0.000000   0.000000   0.000245  -0.000279
    21  H    0.003310   0.000004   0.000000   0.000000  -0.000561  -0.007917
    22  H    0.004577   0.000000   0.000000   0.000000   0.000013   0.000004
    23  H   -0.058046   0.000000   0.000000   0.000000   0.000014   0.000000
    24  H    0.267471  -0.000001  -0.000001   0.000000   0.000502   0.000127
    25  H   -0.000023   0.361236  -0.027885   0.003180   0.003658  -0.000028
    26  H    0.000000   0.367064  -0.041014  -0.003452   0.000077   0.000009
    27  H    0.000000  -0.032813   0.390190  -0.033720  -0.000004   0.000000
    28  H    0.000000  -0.033700   0.382803  -0.032766   0.000010  -0.000001
    29  H    0.000000  -0.015473  -0.020771   0.219672  -0.000054  -0.000059
    30  H    0.000000   0.003680  -0.020045   0.303394   0.000000   0.000000
    31  H    0.000000  -0.000400  -0.021479   0.301922   0.000000   0.000000
              19         20         21         22         23         24
     1  O   -0.000039  -0.000007   0.000018   0.000000   0.000000   0.000000
     2  C   -0.000047  -0.000034   0.000019   0.000000   0.000000   0.000011
     3  N    0.000353   0.004738  -0.000299  -0.000014  -0.000002   0.000901
     4  C    0.007914  -0.049871  -0.027568   0.000010  -0.000001  -0.002252
     5  C   -0.021557  -0.004431   0.004077   0.000001   0.000002  -0.001010
     6  O    0.230050   0.004694  -0.000031   0.000000   0.000000   0.000126
     7  O    0.004556  -0.000130  -0.000084   0.000000  -0.000004   0.039471
     8  C   -0.000349   0.359816   0.369071  -0.001371  -0.000185  -0.002230
     9  C    0.000084  -0.031431  -0.033242  -0.061503   0.002682  -0.026388
    10  C    0.000002  -0.002599  -0.003270   0.385408   0.007769   0.008158
    11  N    0.000000  -0.000034   0.000062  -0.041091  -0.037527   0.003739
    12  C    0.000000   0.000127  -0.000040   0.007777   0.384697  -0.015674
    13  N    0.000013  -0.000024   0.003310   0.004577  -0.058046   0.267471
    14  C    0.000000   0.000004   0.000004   0.000000   0.000000  -0.000001
    15  C    0.000000   0.000000   0.000000   0.000000   0.000000  -0.000001
    16  N    0.000000   0.000000   0.000000   0.000000   0.000000   0.000000
    17  H    0.000001   0.000245  -0.000561   0.000013   0.000014   0.000502
    18  H    0.002796  -0.000279  -0.007917   0.000004   0.000000   0.000127
    19  H    0.343902   0.002623  -0.000179   0.000000   0.000000  -0.000063
    20  H    0.002623   0.560241  -0.028352   0.000021   0.000001   0.000126
    21  H   -0.000179  -0.028352   0.527796   0.002307   0.000004  -0.000061
    22  H    0.000000   0.000021   0.002307   0.553005  -0.000139  -0.000082
    23  H    0.000000   0.000001   0.000004  -0.000139   0.525486   0.000628
    24  H   -0.000063   0.000126  -0.000061  -0.000082   0.000628   0.358667
    25  H    0.000000   0.000000  -0.000001   0.000000   0.000000   0.000001
    26  H    0.000000   0.000000  -0.000002   0.000000   0.000000   0.000000
    27  H    0.000000   0.000000   0.000000   0.000000   0.000000   0.000000
    28  H    0.000000   0.000000   0.000000   0.000000   0.000000   0.000000
    29  H    0.000000   0.000000   0.000000   0.000000   0.000000   0.000000
    30  H    0.000000   0.000000   0.000000   0.000000   0.000000   0.000000
    31  H    0.000000   0.000000   0.000000   0.000000   0.000000   0.000000
              25         26         27         28         29         30
     1  O    0.002618   0.000901   0.000007   0.000667   0.083260   0.000722
     2  C   -0.025044  -0.028073   0.003402  -0.003220   0.001173   0.000044
     3  N    0.004233  -0.001068  -0.000097   0.000563   0.001586   0.000009
     4  C   -0.000082  -0.000203   0.000003  -0.000055  -0.000016  -0.000001
     5  C    0.000007  -0.000005   0.000000   0.000017   0.000002   0.000000
     6  O    0.000000   0.000000   0.000000   0.000000   0.000000   0.000000
     7  O    0.000011   0.000000   0.000000   0.000020   0.000000   0.000000
     8  C   -0.000020   0.000014   0.000000   0.000001   0.000000   0.000000
     9  C   -0.000005  -0.000001   0.000000   0.000000   0.000000   0.000000
    10  C    0.000002   0.000000   0.000000   0.000000   0.000000   0.000000
    11  N    0.000000   0.000000   0.000000   0.000000   0.000000   0.000000
    12  C    0.000002   0.000000   0.000000   0.000000   0.000000   0.000000
    13  N   -0.000023   0.000000   0.000000   0.000000   0.000000   0.000000
    14  C    0.361236   0.367064  -0.032813  -0.033700  -0.015473   0.003680
    15  C   -0.027885  -0.041014   0.390190   0.382803  -0.020771  -0.020045
    16  N    0.003180  -0.003452  -0.033720  -0.032766   0.219672   0.303394
    17  H    0.003658   0.000077  -0.000004   0.000010  -0.000054   0.000000
    18  H   -0.000028   0.000009   0.000000  -0.000001  -0.000059   0.000000
    19  H    0.000000   0.000000   0.000000   0.000000   0.000000   0.000000
    20  H    0.000000   0.000000   0.000000   0.000000   0.000000   0.000000
    21  H   -0.000001  -0.000002   0.000000   0.000000   0.000000   0.000000
    22  H    0.000000   0.000000   0.000000   0.000000   0.000000   0.000000
    23  H    0.000000   0.000000   0.000000   0.000000   0.000000   0.000000
    24  H    0.000001   0.000000   0.000000   0.000000   0.000000   0.000000
    25  H    0.480572  -0.016649  -0.002961  -0.000839   0.000272  -0.000068
    26  H   -0.016649   0.500635  -0.003202   0.004240   0.000791   0.000013
    27  H   -0.002961  -0.003202   0.467881  -0.024792   0.002832  -0.001208
    28  H   -0.000839   0.004240  -0.024792   0.462326  -0.000406  -0.002712
    29  H    0.000272   0.000791   0.002832  -0.000406   0.300590  -0.005561
    30  H   -0.000068   0.000013  -0.001208  -0.002712  -0.005561   0.303762
    31  H   -0.000029   0.003761  -0.003926   0.003573  -0.007905  -0.012632
              31
     1  O    0.000953
     2  C   -0.000242
     3  N    0.000009
     4  C   -0.000001
     5  C    0.000000
     6  O    0.000000
     7  O    0.000000
     8  C    0.000000
     9  C    0.000000
    10  C    0.000000
    11  N    0.000000
    12  C    0.000000
    13  N    0.000000
    14  C   -0.000400
    15  C   -0.021479
    16  N    0.301922
    17  H    0.000000
    18  H    0.000000
    19  H    0.000000
    20  H    0.000000
    21  H    0.000000
    22  H    0.000000
    23  H    0.000000
    24  H    0.000000
    25  H   -0.000029
    26  H    0.003761
    27  H   -0.003926
    28  H    0.003573
    29  H   -0.007905
    30  H   -0.012632
    31  H    0.314466
 Mulliken charges:
               1
     1  O   -0.541363
     2  C    0.649539
     3  N   -0.573608
     4  C   -0.140550
     5  C    0.632843
     6  O   -0.531968
     7  O   -0.455008
     8  C   -0.347149
     9  C    0.282294
    10  C   -0.072210
    11  N   -0.407504
    12  C    0.202602
    13  N   -0.637217
    14  C   -0.401024
    15  C   -0.219701
    16  N   -0.725611
    17  H    0.369434
    18  H    0.203943
    19  H    0.429940
    20  H    0.184557
    21  H    0.194940
    22  H    0.151076
    23  H    0.174621
    24  H    0.367835
    25  H    0.217841
    26  H    0.216162
    27  H    0.238410
    28  H    0.244272
    29  H    0.440068
    30  H    0.430603
    31  H    0.421932
 Sum of Mulliken charges =   1.00000
 Mulliken charges with hydrogens summed into heavy atoms:
               1
     1  O   -0.541363
     2  C    0.649539
     3  N   -0.204174
     4  C    0.063393
     5  C    0.632843
     6  O   -0.102028
     7  O   -0.455008
     8  C    0.032349
     9  C    0.282294
    10  C    0.078867
    11  N   -0.407504
    12  C    0.377223
    13  N   -0.269382
    14  C    0.032979
    15  C    0.262982
    16  N    0.566992
 APT charges:
               1
     1  O   -0.220454
     2  C    0.112413
     3  N   -0.540444
     4  C   -0.508267
     5  C   -0.013951
     6  O   -0.257280
     7  O   -0.241769
     8  C   -1.120087
     9  C   -0.422166
    10  C   -0.303007
    11  N    0.275529
    12  C   -0.524857
    13  N   -0.710160
    14  C   -0.688025
    15  C   -0.778335
    16  N   -1.558848
    17  H    0.452104
    18  H    0.457233
    19  H    0.646454
    20  H    0.615337
    21  H    0.457637
    22  H    0.721738
    23  H    0.736722
    24  H    0.329271
    25  H    0.278278
    26  H    0.538432
    27  H    0.759681
    28  H    0.266959
    29  H    0.249576
    30  H    1.100914
    31  H    0.889373
 Sum of APT charges =   1.00000
 APT charges with hydrogens summed into heavy atoms:
               1
     1  O   -0.220454
     2  C    0.112413
     3  N   -0.088339
     4  C   -0.051033
     5  C   -0.013951
     6  O    0.389174
     7  O   -0.241769
     8  C   -0.047114
     9  C   -0.422166
    10  C    0.418731
    11  N    0.275529
    12  C    0.211865
    13  N   -0.380889
    14  C    0.128684
    15  C    0.248305
    16  N    0.681015
 Electronic spatial extent (au):  <R**2>=           4388.9951
 Charge=              1.0000 electrons
 Dipole moment (field-independent basis, Debye):
    X=            -16.4050    Y=             -0.6534    Z=             -0.4568  Tot=             16.4244
 Quadrupole moment (field-independent basis, Debye-Ang):
   XX=            -25.5978   YY=            -73.9895   ZZ=            -97.7855
   XY=             21.2558   XZ=             -2.9096   YZ=              3.2400
 Traceless Quadrupole moment (field-independent basis, Debye-Ang):
   XX=             40.1931   YY=             -8.1985   ZZ=            -31.9946
   XY=             21.2558   XZ=             -2.9096   YZ=              3.2400
 Octapole moment (field-independent basis, Debye-Ang**2):
  XXX=           -535.7716  YYY=              0.3682  ZZZ=             22.8459  XYY=            -39.1557
  XXY=            -39.4959  XXZ=            -55.3410  XZZ=            -85.5679  YZZ=              4.8633
  YYZ=            -17.0296  XYZ=             18.0592
 Hexadecapole moment (field-independent basis, Debye-Ang**3):
 XXXX=          -2400.3788 YYYY=           -702.1518 ZZZZ=           -995.2632 XXXY=            216.4691
 XXXZ=           -295.7773 YYYX=              2.3867 YYYZ=            129.6555 ZZZX=           -208.0407
 ZZZY=            218.6839 XXYY=           -697.6793 XXZZ=           -785.7778 YYZZ=           -299.3753
 XXYZ=            161.4465 YYXZ=           -112.7875 ZZXY=             42.2263
 N-N= 1.154513790467D+03 E-N=-4.149632000089D+03  KE= 7.895267325793D+02
  Exact polarizability:   0.000   0.000   0.000   0.000   0.000   0.000
 Approx polarizability: 166.828 -22.888 195.120  21.189   0.130 166.707
 Calling FoFJK, ICntrl=    100147 FMM=F ISym2X=0 I1Cent= 0 IOpClX= 0 NMat=1 NMatS=1 NMatT=0.
 -------------------------------------------------------------------
 Center     Atomic                   Forces (Hartrees/Bohr)
 Number     Number              X              Y              Z
 -------------------------------------------------------------------
      1        8          -0.021710199    0.005187695   -0.008081532
      2        6           0.018282195   -0.007382371    0.005854010
      3        7          -0.007719806    0.001539436   -0.006894652
      4        6           0.000506440    0.007841574    0.007382696
      5        6           0.001756961    0.005037875   -0.009826264
      6        8          -0.000043156   -0.009567756    0.000281393
      7        8          -0.001939040   -0.008502834    0.000566680
      8        6           0.005863855   -0.001980155    0.003247488
      9        6          -0.008800045    0.013826601   -0.000231680
     10        6           0.004969150   -0.005661131    0.008945240
     11        7           0.001036174    0.003462963    0.003043630
     12        6           0.004791174   -0.006810063    0.004231550
     13        7          -0.003619070   -0.005794624   -0.014314844
     14        6           0.001666031    0.006845599    0.003234761
     15        6           0.017743622   -0.020591009   -0.000629471
     16        7          -0.004993674    0.001579802   -0.000938686
     17        1           0.003297545   -0.004467243    0.002768020
     18        1          -0.000236545    0.001150601    0.000883980
     19        1          -0.001041788    0.010761288    0.002736612
     20        1          -0.000109577    0.002108193   -0.001688076
     21        1          -0.000211549    0.001561597    0.000612605
     22        1          -0.000169420    0.000562101    0.000821148
     23        1           0.001464423   -0.003959261   -0.001456410
     24        1           0.000389635    0.000992734   -0.001626038
     25        1          -0.003708116   -0.004149525   -0.000089097
     26        1           0.000700749   -0.001098094    0.004794965
     27        1          -0.004135321    0.001202457   -0.000476834
     28        1          -0.004105067    0.003420338   -0.002659293
     29        1           0.010647913    0.013595491   -0.001512592
     30        1          -0.005096854   -0.001139390   -0.002709036
     31        1          -0.005476639    0.000427110    0.003729725
 -------------------------------------------------------------------
 Cartesian Forces:  Max     0.021710199 RMS     0.006423764
 FormGI is forming the generalized inverse of G from B-inverse, IUseBI=4.
 GSVD:  received Info=                   1 from GESDD.

 GradGradGradGradGradGradGradGradGradGradGradGradGradGradGradGradGradGrad
 Berny optimization.
 Internal  Forces:  Max     0.021572826 RMS     0.005097314
 Search for a local minimum.
 Step number   1 out of a maximum of  167
 All quantities printed in internal units (Hartrees-Bohrs-Radians)
 Mixed Optimization -- RFO/linear search
 Second derivative matrix not updated -- analytic derivatives used.
 ITU=  0
     Eigenvalues ---   -0.00333   0.00121   0.00270   0.00310   0.00350
     Eigenvalues ---    0.00522   0.00663   0.00827   0.01051   0.01203
     Eigenvalues ---    0.01595   0.01788   0.02065   0.02725   0.03353
     Eigenvalues ---    0.03941   0.04076   0.04178   0.04307   0.04476
     Eigenvalues ---    0.04941   0.04998   0.05288   0.05297   0.05579
     Eigenvalues ---    0.05672   0.05943   0.06209   0.06215   0.07887
     Eigenvalues ---    0.08373   0.08395   0.10959   0.11193   0.11503
     Eigenvalues ---    0.11968   0.12439   0.12793   0.13364   0.13633
     Eigenvalues ---    0.14722   0.15830   0.16871   0.17355   0.18055
     Eigenvalues ---    0.20467   0.20974   0.22325   0.22617   0.23140
     Eigenvalues ---    0.23594   0.23780   0.24967   0.25423   0.26844
     Eigenvalues ---    0.27492   0.29795   0.32332   0.32768   0.33231
     Eigenvalues ---    0.33651   0.34532   0.34632   0.34755   0.34833
     Eigenvalues ---    0.35154   0.35588   0.35668   0.37460   0.37909
     Eigenvalues ---    0.38752   0.40687   0.42535   0.43631   0.44802
     Eigenvalues ---    0.45057   0.45731   0.46563   0.47843   0.48351
     Eigenvalues ---    0.49747   0.53734   0.56539   0.57114   0.60646
     Eigenvalues ---    0.82988   0.91536
 RFO step:  Lambda=-1.46019653D-02 EMin=-3.33395759D-03
 Linear search not attempted -- first point.
 Iteration  1 RMS(Cart)=  0.16966711 RMS(Int)=  0.02482022
 Iteration  2 RMS(Cart)=  0.10806770 RMS(Int)=  0.00244306
 Iteration  3 RMS(Cart)=  0.00661171 RMS(Int)=  0.00037224
 Iteration  4 RMS(Cart)=  0.00001135 RMS(Int)=  0.00037222
 Iteration  5 RMS(Cart)=  0.00000000 RMS(Int)=  0.00037222
 Variable       Old X    -DE/DX   Delta X   Delta X   Delta X     New X
                                 (Linear)    (Quad)   (Total)
    R1        2.32517   0.01782   0.00000   0.03461   0.03461   2.35977
    R2        2.54864   0.00015   0.00000  -0.02643  -0.02643   2.52221
    R3        2.87324  -0.00067   0.00000   0.00695   0.00695   2.88018
    R4        2.73352   0.00475   0.00000   0.01224   0.01224   2.74576
    R5        1.90167   0.00599   0.00000   0.01473   0.01473   1.91640
    R6        2.87958   0.00608   0.00000   0.02957   0.02957   2.90915
    R7        2.91309   0.00519   0.00000   0.00916   0.00916   2.92225
    R8        2.06321   0.00110   0.00000   0.00455   0.00455   2.06776
    R9        2.54561  -0.00085   0.00000  -0.01494  -0.01494   2.53067
   R10        2.27910   0.00730   0.00000   0.00791   0.00791   2.28701
   R11        1.81893   0.01046   0.00000   0.01894   0.01894   1.83787
   R12        2.83385   0.00268   0.00000   0.00017   0.00017   2.83402
   R13        2.07065   0.00217   0.00000   0.00584   0.00584   2.07649
   R14        2.06359   0.00126   0.00000   0.00321   0.00321   2.06679
   R15        2.57966   0.01120   0.00000   0.02099   0.02101   2.60066
   R16        2.59662   0.01591   0.00000   0.03486   0.03489   2.63151
   R17        2.60917  -0.00019   0.00000  -0.01070  -0.01073   2.59845
   R18        2.04207   0.00096   0.00000   0.00284   0.00284   2.04491
   R19        2.47991   0.00459   0.00000   0.00544   0.00540   2.48531
   R20        2.56339   0.01227   0.00000   0.02127   0.02128   2.58467
   R21        2.03297   0.00442   0.00000   0.01042   0.01042   2.04339
   R22        1.91531   0.00128   0.00000   0.00022   0.00022   1.91553
   R23        2.87758   0.00023   0.00000   0.01800   0.01800   2.89558
   R24        2.06259   0.00059   0.00000   0.00278   0.00278   2.06538
   R25        2.06576   0.00384   0.00000   0.00845   0.00845   2.07420
   R26        2.79954   0.01381   0.00000   0.05147   0.05147   2.85100
   R27        2.06215   0.00050   0.00000  -0.00055  -0.00055   2.06160
   R28        2.06461   0.00033   0.00000   0.00006   0.00006   2.06467
   R29        1.94663   0.01710   0.00000   0.06418   0.06418   2.01081
   R30        1.92637   0.00545   0.00000   0.00927   0.00927   1.93564
   R31        1.92612   0.00604   0.00000   0.01043   0.01043   1.93655
    A1        2.12299   0.01403   0.00000   0.01064   0.01031   2.13330
    A2        2.13353  -0.02071   0.00000  -0.05003  -0.05036   2.08317
    A3        2.02595   0.00674   0.00000   0.04107   0.04074   2.06669
    A4        2.09337   0.00843   0.00000   0.00877   0.00762   2.10099
    A5        2.10688  -0.00429   0.00000  -0.01971  -0.02087   2.08601
    A6        2.04243  -0.00372   0.00000  -0.01325  -0.01449   2.02793
    A7        1.95910  -0.00557   0.00000  -0.04908  -0.04896   1.91014
    A8        1.93291  -0.00012   0.00000  -0.01340  -0.01340   1.91951
    A9        1.85108   0.00197   0.00000   0.02770   0.02769   1.87877
   A10        1.93145   0.00410   0.00000   0.02410   0.02341   1.95486
   A11        1.88111   0.00047   0.00000  -0.00252  -0.00260   1.87851
   A12        1.90506  -0.00086   0.00000   0.01517   0.01503   1.92009
   A13        2.01129   0.00251   0.00000   0.01570   0.01565   2.02694
   A14        2.17330  -0.00641   0.00000  -0.03095  -0.03101   2.14230
   A15        2.09734   0.00394   0.00000   0.01615   0.01610   2.11344
   A16        1.91796   0.00696   0.00000   0.03310   0.03310   1.95106
   A17        1.99040   0.00091   0.00000   0.00117   0.00118   1.99158
   A18        1.89661  -0.00024   0.00000  -0.00839  -0.00842   1.88818
   A19        1.89010  -0.00157   0.00000  -0.00551  -0.00553   1.88458
   A20        1.93593   0.00052   0.00000   0.01310   0.01311   1.94903
   A21        1.88151   0.00040   0.00000   0.00268   0.00268   1.88418
   A22        1.86464  -0.00014   0.00000  -0.00369  -0.00377   1.86087
   A23        2.28746  -0.00181   0.00000  -0.00913  -0.00923   2.27823
   A24        2.16183   0.00459   0.00000   0.01825   0.01815   2.17998
   A25        1.83367  -0.00277   0.00000  -0.00870  -0.00870   1.82498
   A26        1.93296   0.00185   0.00000   0.00672   0.00672   1.93968
   A27        2.23420  -0.00112   0.00000  -0.00837  -0.00838   2.22582
   A28        2.11602  -0.00073   0.00000   0.00166   0.00166   2.11768
   A29        1.83003   0.00398   0.00000   0.00875   0.00869   1.83872
   A30        1.95339  -0.00061   0.00000  -0.00030  -0.00030   1.95309
   A31        2.20063  -0.00029   0.00000  -0.00230  -0.00230   2.19833
   A32        2.12911   0.00091   0.00000   0.00261   0.00261   2.13172
   A33        1.87463  -0.00245   0.00000  -0.00649  -0.00644   1.86819
   A34        2.20875   0.00064   0.00000  -0.00211  -0.00215   2.20660
   A35        2.19879   0.00178   0.00000   0.00892   0.00888   2.20768
   A36        1.95049  -0.02157   0.00000  -0.05670  -0.05650   1.89399
   A37        1.91659   0.01272   0.00000   0.04903   0.04833   1.96492
   A38        1.87574   0.00420   0.00000   0.01642   0.01623   1.89197
   A39        1.93018   0.00252   0.00000  -0.01483  -0.01420   1.91598
   A40        1.90890   0.00647   0.00000   0.01665   0.01689   1.92580
   A41        1.87976  -0.00370   0.00000  -0.00808  -0.00861   1.87115
   A42        1.93147  -0.01468   0.00000  -0.04113  -0.04124   1.89024
   A43        1.92055   0.00664   0.00000   0.04467   0.04417   1.96472
   A44        1.91103   0.00716   0.00000   0.02063   0.01847   1.92950
   A45        1.91782   0.00417   0.00000  -0.00301  -0.00223   1.91559
   A46        1.90696  -0.00146   0.00000  -0.04348  -0.04354   1.86341
   A47        1.87509  -0.00141   0.00000   0.02377   0.02261   1.89770
   A48        1.86452  -0.00403   0.00000  -0.05209  -0.05204   1.81248
   A49        1.96649   0.00117   0.00000   0.00458   0.00456   1.97105
   A50        1.93996   0.00263   0.00000   0.01469   0.01474   1.95470
   A51        1.91026   0.00177   0.00000   0.03252   0.03250   1.94276
   A52        1.87251   0.00095   0.00000   0.01671   0.01684   1.88935
   A53        1.90722  -0.00247   0.00000  -0.01548  -0.01549   1.89173
    D1       -0.15520   0.00194   0.00000  -0.00254  -0.00182  -0.15703
    D2       -2.98595   0.00101   0.00000   0.09010   0.09043  -2.89552
    D3        3.02611   0.00094   0.00000  -0.04807  -0.04840   2.97770
    D4        0.19536   0.00001   0.00000   0.04456   0.04385   0.23921
    D5        0.78388  -0.00196   0.00000  -0.01464  -0.01392   0.76996
    D6        2.93257  -0.00458   0.00000  -0.03788  -0.03820   2.89438
    D7       -1.31055   0.00019   0.00000  -0.01199  -0.01131  -1.32185
    D8       -2.39769  -0.00008   0.00000   0.03272   0.03272  -2.36497
    D9       -0.24900  -0.00270   0.00000   0.00948   0.00844  -0.24055
   D10        1.79107   0.00208   0.00000   0.03537   0.03533   1.82640
   D11       -1.53724   0.00173   0.00000   0.34932   0.34982  -1.18743
   D12        2.57752   0.00057   0.00000   0.36405   0.36372   2.94124
   D13        0.51276   0.00051   0.00000   0.33684   0.33664   0.84940
   D14        1.30470   0.00242   0.00000   0.25870   0.25922   1.56392
   D15       -0.86372   0.00126   0.00000   0.27343   0.27312  -0.59060
   D16       -2.92848   0.00120   0.00000   0.24622   0.24604  -2.68244
   D17        2.73613   0.00010   0.00000   0.04582   0.04609   2.78221
   D18       -0.45943   0.00099   0.00000   0.06590   0.06602  -0.39340
   D19       -1.37783  -0.00107   0.00000   0.01034   0.01036  -1.36747
   D20        1.70980  -0.00018   0.00000   0.03042   0.03030   1.74010
   D21        0.70410   0.00054   0.00000   0.04120   0.04112   0.74522
   D22       -2.49146   0.00143   0.00000   0.06128   0.06106  -2.43040
   D23        0.83194  -0.00226   0.00000  -0.02152  -0.02160   0.81034
   D24        3.00125  -0.00112   0.00000  -0.01003  -0.01013   2.99112
   D25       -1.26256  -0.00225   0.00000  -0.02178  -0.02184  -1.28439
   D26       -1.35218   0.00205   0.00000   0.03416   0.03437  -1.31780
   D27        0.81713   0.00319   0.00000   0.04565   0.04584   0.86297
   D28        2.83651   0.00206   0.00000   0.03390   0.03413   2.87064
   D29        2.86358  -0.00045   0.00000   0.01344   0.01331   2.87690
   D30       -1.25029   0.00069   0.00000   0.02493   0.02478  -1.22552
   D31        0.76909  -0.00044   0.00000   0.01318   0.01307   0.78216
   D32       -0.05788  -0.00023   0.00000  -0.00715  -0.00693  -0.06481
   D33        3.13513  -0.00073   0.00000  -0.02471  -0.02493   3.11020
   D34       -2.49695   0.00192   0.00000   0.04446   0.04443  -2.45252
   D35        0.61836   0.00238   0.00000   0.06958   0.06962   0.68798
   D36        1.63816   0.00115   0.00000   0.04447   0.04443   1.68259
   D37       -1.52972   0.00161   0.00000   0.06959   0.06963  -1.46009
   D38       -0.39763   0.00080   0.00000   0.04012   0.04007  -0.35756
   D39        2.71768   0.00126   0.00000   0.06524   0.06527   2.78294
   D40        3.12421   0.00069   0.00000   0.02731   0.02709  -3.13189
   D41       -0.01420   0.00042   0.00000   0.02104   0.02088   0.00668
   D42        0.00522   0.00021   0.00000   0.00538   0.00541   0.01063
   D43       -3.13319  -0.00007   0.00000  -0.00089  -0.00080  -3.13399
   D44       -3.13237  -0.00037   0.00000  -0.02267  -0.02283   3.12799
   D45        0.05548   0.00029   0.00000  -0.03034  -0.03043   0.02505
   D46       -0.01130  -0.00003   0.00000  -0.00317  -0.00316  -0.01446
   D47       -3.10664   0.00063   0.00000  -0.01084  -0.01076  -3.11740
   D48        0.00308  -0.00027   0.00000  -0.00541  -0.00547  -0.00239
   D49       -3.14145  -0.00002   0.00000   0.00035   0.00028  -3.14117
   D50       -0.01059   0.00023   0.00000   0.00323   0.00325  -0.00734
   D51       -3.14110  -0.00029   0.00000   0.00235   0.00237  -3.13872
   D52        0.01420  -0.00014   0.00000  -0.00009  -0.00008   0.01412
   D53        3.10987  -0.00084   0.00000   0.00716   0.00715   3.11703
   D54       -3.13795   0.00034   0.00000   0.00071   0.00073  -3.13722
   D55       -0.04228  -0.00035   0.00000   0.00796   0.00796  -0.03432
   D56       -1.07612   0.00599   0.00000   0.05278   0.05302  -1.02310
   D57        3.08416   0.00602   0.00000   0.05391   0.05474   3.13890
   D58        1.02697  -0.00049   0.00000  -0.01393  -0.01419   1.01278
   D59        3.06610   0.00299   0.00000   0.04019   0.03988   3.10598
   D60        0.94320   0.00302   0.00000   0.04132   0.04160   0.98479
   D61       -1.11400  -0.00350   0.00000  -0.02653  -0.02733  -1.14133
   D62        0.99873   0.00200   0.00000   0.04876   0.04874   1.04747
   D63       -1.12417   0.00203   0.00000   0.04989   0.05046  -1.07372
   D64        3.10182  -0.00448   0.00000  -0.01795  -0.01847   3.08335
   D65        0.80189  -0.00104   0.00000  -0.04303  -0.04263   0.75926
   D66        2.90017  -0.00082   0.00000  -0.03450  -0.03407   2.86610
   D67       -1.23557  -0.00122   0.00000  -0.04038  -0.03990  -1.27547
   D68        2.92641   0.00040   0.00000  -0.01604  -0.01598   2.91042
   D69       -1.25850   0.00062   0.00000  -0.00751  -0.00742  -1.26592
   D70        0.88895   0.00022   0.00000  -0.01339  -0.01325   0.87570
   D71       -1.30362   0.00026   0.00000  -0.01466  -0.01524  -1.31886
   D72        0.79466   0.00048   0.00000  -0.00614  -0.00667   0.78799
   D73        2.94211   0.00008   0.00000  -0.01201  -0.01250   2.92960
         Item               Value     Threshold  Converged?
 Maximum Force            0.021573     0.000450     NO 
 RMS     Force            0.005097     0.000300     NO 
 Maximum Displacement     0.996449     0.001800     NO 
 RMS     Displacement     0.264886     0.001200     NO 
 Predicted change in Energy=-1.043221D-02
 GradGradGradGradGradGradGradGradGradGradGradGradGradGradGradGradGradGrad

                          Input orientation:                          
 ---------------------------------------------------------------------
 Center     Atomic      Atomic             Coordinates (Angstroms)
 Number     Number       Type             X           Y           Z
 ---------------------------------------------------------------------
      1          8           0       -2.129644    1.077724   -0.347234
      2          6           0       -1.476393    0.254306    0.327001
      3          7           0       -0.171869    0.405088    0.565527
      4          6           0        0.584988    1.440741   -0.116954
      5          6           0        0.684121    1.100054   -1.614963
      6          8           0        0.960610    2.121846   -2.435256
      7          8           0        0.558325   -0.026124   -2.039888
      8          6           0        1.978425    1.593919    0.535871
      9          6           0        2.683235    0.294293    0.787503
     10          6           0        3.452095   -0.114473    1.853207
     11          7           0        3.919632   -1.393880    1.665433
     12          6           0        3.442597   -1.771252    0.499372
     13          7           0        2.676143   -0.796598   -0.077982
     14          6           0       -2.180283   -0.972741    0.894323
     15          6           0       -3.082501   -1.563048   -0.194442
     16          7           0       -4.067951   -0.502700   -0.619513
     17          1           0        0.363859   -0.376937    0.925886
     18          1           0        0.024069    2.375847   -0.026156
     19          1           0        1.004586    2.967321   -1.956600
     20          1           0        2.579222    2.266423   -0.091991
     21          1           0        1.847091    2.097971    1.497568
     22          1           0        3.695008    0.448197    2.745045
     23          1           0        3.606047   -2.729946    0.026686
     24          1           0        2.219653   -0.844993   -0.981735
     25          1           0       -1.479024   -1.733625    1.246220
     26          1           0       -2.780146   -0.659473    1.758497
     27          1           0       -3.618979   -2.451253    0.142398
     28          1           0       -2.496537   -1.821721   -1.079572
     29          1           0       -3.476039    0.377992   -0.698752
     30          1           0       -4.531191   -0.720969   -1.506616
     31          1           0       -4.788988   -0.341976    0.090728
 ---------------------------------------------------------------------
                    Distance matrix (angstroms):
                    1          2          3          4          5
     1  O    0.000000
     2  C    1.248737   0.000000
     3  N    2.262400   1.334696   0.000000
     4  C    2.748460   2.419507   1.452993   0.000000
     5  C    3.086245   3.025613   2.443407   1.539457   0.000000
     6  O    3.872945   4.129983   3.637921   2.445306   1.339174
     7  O    3.362846   3.133829   2.739948   2.418693   1.210232
     8  C    4.233505   3.711329   2.457227   1.546387   2.558362
     9  C    5.006515   4.185232   2.865862   2.556370   3.227623
    10  C    6.117113   5.172552   3.880873   3.810581   4.600539
    11  N    6.837645   5.798707   4.602875   4.725657   5.239202
    12  C    6.315320   5.322505   4.219620   4.343120   4.508215
    13  N    5.165381   4.302553   3.157424   3.062700   3.150833
    14  C    2.397589   1.524126   2.457692   3.807138   4.335644
    15  C    2.811576   2.480779   3.594843   4.741227   4.826742
    16  N    2.515732   2.860965   4.172272   5.067481   5.112918
    17  H    3.155064   2.035598   1.014114   2.107218   2.956347
    18  H    2.535092   2.622411   2.066971   1.094210   2.141874
    19  H    3.998003   4.327879   3.782884   2.427098   1.925123
    20  H    4.863288   4.546667   3.386060   2.158552   2.696530
    21  H    4.500957   3.976792   2.794772   2.152101   3.469322
    22  H    6.624579   5.712085   4.439019   4.341475   5.338541
    23  H    6.894658   5.901453   4.938769   5.151899   5.089358
    24  H    4.797480   4.072101   3.110643   2.940163   2.557742
    25  H    3.296374   2.190170   2.597324   4.024300   4.571138
    26  H    2.806262   2.141015   3.059343   4.387749   5.145612
    27  H    3.861546   3.456126   4.496698   5.734825   5.849511
    28  H    3.012924   2.707218   3.615122   4.589780   4.352011
    29  H    1.557553   2.250789   3.537892   4.237908   4.320619
    30  H    3.216659   3.693928   4.956356   5.725332   5.525156
    31  H    3.046222   3.374116   4.701205   5.665759   5.911324
                    6          7          8          9         10
     6  O    0.000000
     7  O    2.220794   0.000000
     8  C    3.184690   3.357939   0.000000
     9  C    4.085776   3.551344   1.499701   0.000000
    10  C    5.440545   4.851586   2.612600   1.376212   0.000000
    11  N    6.158879   5.186380   3.737798   2.269221   1.375039
    12  C    5.470696   4.220466   3.670082   2.219487   2.139597
    13  N    4.125180   2.987951   2.564799   1.392536   2.190180
    14  C    5.525195   4.123791   4.900111   5.026986   5.777522
    15  C    5.911552   4.361585   6.009391   6.136582   6.999442
    16  N    5.955803   4.862820   6.503029   6.942146   7.925664
    17  H    4.230521   2.992775   2.577442   2.418512   3.235121
    18  H    2.597189   3.179624   2.178714   3.473625   4.635198
    19  H    0.972560   3.027672   3.007824   4.182469   5.477443
    20  H    2.851614   3.624100   1.098831   2.161857   3.195992
    21  H    4.031567   4.322764   1.093700   2.111062   2.756342
    22  H    6.092089   5.741022   3.023207   2.208923   1.082117
    23  H    6.049742   4.568368   4.648035   3.252144   3.193835
    24  H    3.535541   2.133129   2.882640   2.154782   3.176393
    25  H    5.862572   4.226684   4.850887   4.652662   5.225516
    26  H    6.270292   5.096494   5.405238   5.630367   6.256742
    27  H    6.966361   5.300330   6.917310   6.904497   7.641171
    28  H    5.416777   3.671316   5.856752   5.898603   6.848511
    29  H    5.073493   4.270603   5.723107   6.336609   7.399598
    30  H    6.253307   5.164336   7.204552   7.638172   8.682689
    31  H    6.746028   5.764811   7.052923   7.531563   8.430512
                   11         12         13         14         15
    11  N    0.000000
    12  C    1.315169   0.000000
    13  N    2.223175   1.367750   0.000000
    14  C    6.162867   5.693012   4.955934   0.000000
    15  C    7.246904   6.565183   5.810593   1.532276   0.000000
    16  N    8.355636   7.698666   6.772180   2.464939   1.508686
    17  H    3.771554   3.406560   2.555489   2.613167   3.813056
    18  H    5.678708   5.400087   4.135285   4.113331   5.019362
    19  H    6.374691   5.867688   4.526631   5.813367   6.350884
    20  H    4.275869   4.171084   3.064586   5.841052   6.835968
    21  H    4.064065   4.302664   3.398266   5.100286   6.369211
    22  H    2.146920   3.167445   3.249166   6.321652   7.656391
    23  H    2.137498   1.081315   2.147909   6.109188   6.793175
    24  H    3.193541   2.132423   1.013654   4.784909   5.408167
    25  H    5.425555   4.978107   4.460599   1.092951   2.162347
    26  H    6.740552   6.445462   5.758693   1.097620   2.172979
    27  H    7.763268   7.103217   6.512681   2.195731   1.090953
    28  H    6.991804   6.145643   5.367558   2.171875   1.092575
    29  H    7.963972   7.343179   6.293994   2.457916   2.043732
    30  H    9.051580   8.289051   7.347950   3.369668   2.128285
    31  H    8.912141   8.364736   7.480863   2.801601   2.117648
                   16         17         18         19         20
    16  N    0.000000
    17  H    4.695212   0.000000
    18  H    5.038127   2.932517   0.000000
    19  H    6.289632   4.461313   2.244520   0.000000
[...]
 06943,-0.00287472,0.00121052,0.00032958,-0.00016113,-0.00005653,-0.000
 10028,0.00009630,-0.00001928,0.00002922,-0.00003228,-0.00001994,-0.000
 01363,0.00000070,0.00001198,-0.00000232,-0.00000031,0.00003886,0.00001
 751,0.00002950,0.00000468,-0.00000162,-0.00000028,-0.00000113,0.000008
 73,-0.00001790,0.11562291,-0.08805664,0.21724662,0.00324451,0.00103744
 ,-0.00196340,-0.01787629,0.00471502,0.00368618,-0.00035445,-0.00276678
 ,0.00245542,-0.00032077,-0.00038094,-0.00073325,-0.00012768,-0.0000890
 2,-0.00026609,0.00001295,0.00000705,0.00012051,0.00018080,0.00012169,0
 .00012800,-0.00004011,-0.00016691,0.00022598,0.00000560,-0.00000204,-0
 .00006497,-0.00004973,-0.00002419,0.00004365,-0.00002152,0.00001101,0.
 00000150,0.00000816,0.00001091,-0.00000189,0.00000230,0.00000342,0.000
 01163,-0.26838898,0.07253114,0.08399921,0.00714538,-0.00280893,-0.0035
 3327,0.00051724,-0.00030072,0.00065822,0.00085264,0.00006743,0.0002179
 6,-0.00018900,-0.00010911,0.00015361,-0.00000605,0.00003472,-0.0000453
 3,-0.00009924,0.00002040,-0.00001525,0.00001592,0.00001013,0.00000093,
 0.00002538,0.00001017,0.00001970,-0.00000172,0.00000016,0.00000137,0.0
 0000205,-0.00000476,-0.00001343,-0.01309364,0.00358794,0.00562644,0.28
 680497,0.00150220,0.00061193,-0.00258394,-0.02830546,0.00900267,0.0108
 4409,-0.00162149,-0.00445612,0.00237900,-0.00094639,-0.00043682,-0.001
 01324,-0.00010202,-0.00018433,-0.00041984,0.00003042,0.00005099,0.0001
 2947,0.00018089,0.00027501,0.00019803,-0.00004883,-0.00031541,0.000356
 15,-0.00000826,0.00000516,-0.00003264,-0.00001120,-0.00004952,0.000048
 64,0.00000558,0.00007184,0.00001525,-0.00000865,0.00004709,0.00001261,
 0.00001076,-0.00001689,-0.00004418,0.07276835,-0.07007002,-0.02423062,
 0.02219601,-0.01081309,-0.00941864,-0.00054422,0.00049267,0.00084348,0
 .00038909,-0.00011241,0.00051619,-0.00011625,-0.00008438,0.00010979,0.
 00000071,0.00003670,-0.00005993,-0.00016754,0.00004088,-0.00002504,0.0
 0001858,0.00001262,0.00000189,-0.00000177,-0.00000643,0.00000648,-0.00
 000890,0.00000211,0.00000051,-0.00000463,-0.00001673,-0.00001058,0.010
 59422,-0.00333821,-0.00478402,-0.07448848,0.08049523,-0.00127866,-0.00
 004716,0.00106604,0.01191821,-0.00390931,-0.00433330,-0.00000174,0.001
 69976,-0.00044387,0.00036579,-0.00010570,0.00032710,0.00004827,-0.0000
 0080,0.00005493,-0.00000445,0.00000141,-0.00001175,-0.00013330,0.00000
 950,-0.00002878,0.00001899,0.00013563,-0.00011163,-0.00001418,0.000001
 62,-0.00004412,-0.00004577,-0.00000242,-0.00000211,-0.00001369,-0.0000
 2866,-0.00000371,0.00000655,-0.00001644,0.00000068,0.00000302,0.000017
 18,0.00005441,0.08059601,-0.02394119,-0.08340795,0.02133587,-0.0093435
 3,-0.01019744,0.00046729,-0.00049068,0.00121688,0.00028562,-0.00000191
 ,-0.00021718,0.00000717,0.00000119,0.00003853,0.00001477,0.00000055,0.
 00000196,0.00004306,-0.00001584,0.00000936,-0.00001096,0.00000042,0.00
 000170,0.00003417,0.00001867,0.00001835,-0.00000344,-0.00000061,0.0000
 0311,-0.00000052,0.00000091,-0.00000325,-0.02260554,0.00635863,0.01100
 595,-0.09002093,0.03088850,0.08687905,0.00007032,-0.00018599,0.0003221
 4,0.00047621,0.00082014,-0.00057757,0.00028559,-0.00019348,-0.00024665
 ,0.00010225,0.00011989,-0.00002993,0.00005262,0.00002579,-0.00012992,-
 0.00002227,-0.00004160,0.00009673,0.00042664,-0.00006628,0.00027941,0.
 00002498,0.00001076,0.00001403,-0.00002046,0.00002838,-0.00002679,-0.0
 0003511,-0.00002014,0.00004087,-0.00001419,0.00000888,-0.00001143,0.00
 002941,-0.00003549,0.00000232,-0.00003141,0.00001221,-0.00002506,-0.00
 027747,-0.00000044,0.00073068,-0.21008688,-0.13315355,0.05306150,0.009
 92294,0.01041650,-0.00733842,0.00013055,0.00009146,0.00018917,-0.00001
 690,-0.00002072,0.00002301,-0.00001029,0.00001369,-0.00001834,-0.00000
 685,-0.00000054,0.00000401,0.00000547,0.00000306,-0.00000126,0.0000086
 1,-0.00000145,0.00000646,0.00000291,-0.00000538,0.00000128,0.00001990,
 0.00000377,-0.00001326,-0.00006910,-0.00015570,-0.00014567,0.00119146,
 0.00037584,-0.00022478,0.21466465,0.00020112,0.00016894,0.00063081,0.0
 0007426,-0.00082834,-0.00453670,-0.00064469,-0.00042242,0.00063683,-0.
 00000864,0.00036371,0.00012987,-0.00018885,-0.00029004,-0.00017753,0.0
 0003505,0.00008806,0.00008842,-0.00020322,0.00025011,-0.00000666,0.000
 02638,-0.00005372,0.00006674,-0.00000729,-0.00002374,-0.00000522,0.000
 00499,-0.00002492,0.00000059,0.00001519,0.00003996,0.00000809,-0.00002
 026,0.00003776,0.00002082,0.00001755,-0.00000517,-0.00001110,-0.015336
 75,-0.01563830,0.00266069,-0.12726174,-0.16209220,0.04479566,-0.008638
 40,-0.00895436,0.00562086,-0.00000569,-0.00021031,-0.00013777,0.000023
 45,0.00001427,-0.00000818,0.00002601,0.00002014,-0.00003315,-0.0000329
 8,0.00001062,-0.00000670,0.00000549,0.00001045,-0.00000084,0.00000218,
 -0.00000391,0.00000705,-0.00000589,0.00000381,0.00000062,-0.00000642,-
 0.00001194,0.00000074,-0.00004433,0.00005341,-0.00026829,0.00020814,0.
 00091063,0.00097874,0.13913770,0.17298110,0.00043902,-0.00046577,0.001
 99631,0.00019563,-0.00055356,-0.00634763,-0.00089439,-0.00082481,0.000
 92984,0.00001779,0.00063903,-0.00004303,-0.00041948,-0.00093305,-0.000
 34532,0.00016775,0.00023059,0.00009997,0.00100443,0.00072248,0.0003908
 5,0.00000378,-0.00004998,0.00013747,-0.00002516,-0.00001323,-0.0000633
 4,-0.00004060,-0.00004277,0.00004215,-0.00000887,0.00002680,0.00001022
 ,0.00000070,0.00003709,0.00000908,0.00001011,-0.00000181,-0.00000366,-
 0.01690851,-0.01887576,0.00717450,0.04301585,0.03839242,-0.06291762,0.
 02292883,0.02259693,-0.01791851,0.00013496,-0.00014315,0.00001453,0.00
 002108,-0.00001021,0.00005901,-0.00001076,0.00003500,-0.00006956,-0.00
 006804,0.00000458,-0.00000562,0.00003017,0.00001105,0.00000357,0.00001
 693,-0.00000333,0.00001633,0.00000031,0.00000067,0.00000109,-0.0000112
 8,-0.00000257,-0.00001326,0.00006046,0.00082072,0.00016240,0.00017668,
 0.00047417,0.00124045,-0.05079314,-0.04706723,0.07867255,-0.00003129,-
 0.00011397,0.00030044,0.00093382,0.00033959,-0.00035701,0.00002935,0.0
 0010339,0.00000041,-0.00002636,0.00006161,0.00001182,-0.00003210,-0.00
 021759,-0.00002548,0.00005981,0.00012498,-0.00007495,0.00018133,0.0002
 0016,0.00025593,0.,-0.00003450,0.00000749,-0.00000156,-0.00002227,0.00
 002055,0.00005293,-0.00005583,-0.00006571,0.00009268,0.00005188,-0.000
 01522,-0.00000671,0.00006565,0.00010522,0.00002847,-0.00001989,-0.0000
 0180,0.00675423,-0.00387282,-0.00033624,-0.25609317,0.11757657,0.03982
 161,-0.00407828,0.00325089,-0.00126163,-0.00004081,-0.00010672,-0.0001
 6888,0.00001030,0.00001746,-0.00001409,-0.00000342,-0.00001333,-0.0000
 0069,-0.00000462,0.00000889,-0.00000800,0.00000060,0.00000227,0.000003
 28,-0.00000675,0.00000229,-0.00000119,-0.00001272,0.00000681,0.0000003
 5,-0.00002483,-0.00000335,0.00001834,0.00084205,0.00029274,0.00048510,
 0.00083825,-0.00144473,-0.00108983,-0.01741129,0.01202484,0.00360767,0
 .26774135,-0.00043030,-0.00015654,0.00017852,0.00285928,0.00080786,-0.
 00035494,-0.00085983,0.00028647,0.00034419,-0.00007995,0.00002284,-0.0
 0001991,-0.00057226,-0.00116131,-0.00006515,0.00033632,0.00048694,-0.0
 0031416,0.00017106,0.00114360,-0.00008946,-0.00009160,0.00002054,0.000
 01505,0.00005099,-0.00007424,0.00001971,0.00007576,0.00005287,-0.00007
 235,-0.00000282,-0.00004055,0.00004108,-0.00005781,0.00010516,-0.00003
 711,0.00007106,-0.00003006,0.00007320,0.01786552,-0.01074416,-0.005047
 86,0.11280720,-0.12022449,-0.02294058,0.01348571,-0.01054280,0.0026214
 5,-0.00038044,-0.00035151,-0.00047159,0.00006018,0.00005204,0.00000178
 ,0.00001105,-0.00002558,-0.00001177,-0.00000042,-0.00000547,-0.0000062
 3,0.00002334,-0.00001013,0.00001006,-0.00001579,-0.00000359,-0.0000123
 9,0.00001365,0.00000733,-0.00000690,-0.00006081,0.00000708,0.00002058,
 -0.00022333,0.00149536,0.00067131,-0.00128644,-0.00228241,-0.00266094,
 -0.01834093,0.01370855,0.00253217,-0.12748394,0.12791405,0.00030938,-0
 .00025323,0.00110489,0.00093495,0.00181046,-0.00116609,-0.00036460,-0.
 00020670,0.00025204,-0.00013631,-0.00000631,-0.00003191,0.00022211,0.0
 0029600,0.00014133,-0.00011180,-0.00017400,0.00007382,0.00013842,-0.00
 050134,-0.00024267,0.00002960,-0.00007616,-0.00000079,0.00001328,0.000
 00257,0.00010493,0.00010783,-0.00004611,-0.00005565,0.00008239,0.00011
 592,-0.00003092,-0.00002274,-0.00003421,0.00012164,-0.00007250,0.00002
 247,-0.00013557,0.01971743,-0.01235738,-0.00605519,0.04985178,-0.02850
 513,-0.05709969,-0.02999924,0.02485671,-0.00387425,-0.00008929,-0.0002
 9973,-0.00010847,-0.00000757,0.00000784,-0.00003669,-0.00001907,0.0000
 0586,0.00001111,-0.00001222,0.00002035,-0.00000342,-0.00000837,0.00000
 582,-0.00000169,-0.00002477,-0.00002309,-0.00000858,0.00001486,-0.0000
 0339,0.00000046,0.00003727,0.00001089,0.00001272,0.00023993,0.00006114
 ,0.00082130,-0.00158190,-0.00388850,-0.00243193,0.00600921,-0.00472853
 ,0.00002632,-0.04067857,0.02262327,0.07256952,0.00128036,0.00042982,0.
 00510555,-0.00670653,0.00317228,-0.00567330,0.00276648,-0.00042964,0.0
 0053430,-0.00036630,-0.00070795,0.00026440,-0.00081763,-0.00085916,0.0
 0057070,0.00019425,0.00030819,-0.00059321,0.00049722,-0.00045718,-0.00
 034663,-0.00021096,0.00010263,-0.00006853,0.00009467,-0.00001413,0.000
 07155,0.00008532,0.00010252,-0.00010196,0.00003386,-0.00010280,-0.0000
 0447,-0.00001755,-0.00001540,-0.00002634,0.00004838,-0.00000442,0.0000
 7317,0.00116980,-0.00045410,-0.00068117,-0.00499786,0.00525116,-0.0002
 9332,-0.14705374,0.13970739,0.02746172,-0.00008824,0.00010509,-0.00042
 526,-0.00005779,0.00003267,-0.00004453,-0.00008049,-0.00011411,0.00010
 777,0.00006154,-0.00002761,-0.00001679,0.00000473,-0.00003745,0.000007
 17,-0.00003549,0.00000262,-0.00003208,-0.00000316,0.00000025,-0.000001
 94,-0.00006557,0.00002440,0.00003447,-0.00018800,-0.00004437,0.0004265
 0,-0.00019075,-0.00018031,0.00012157,0.00028185,-0.00069239,0.00037324
 ,0.00042587,0.00067893,-0.00191767,0.15293378,0.00723643,-0.00614401,0
 .00811094,-0.00788840,0.01153225,-0.00904403,0.00533846,-0.00204284,0.
 00190870,-0.00087027,-0.00104634,0.00074931,0.00031586,0.00227245,0.00
 103387,-0.00032789,-0.00082043,-0.00011498,-0.00228591,-0.00266690,-0.
 00095603,-0.00016889,0.00003005,-0.00017860,0.00015627,-0.00000445,0.0
 0018625,0.00011620,0.00016104,-0.00012306,0.00001069,-0.00013770,-0.00
 007061,0.00000859,-0.00012601,-0.00001121,-0.00004612,0.00001763,0.000
 00223,-0.00145953,-0.00009709,-0.00116535,0.00819841,-0.01059219,0.006
 82478,0.13918107,-0.28410606,-0.04598126,0.00026669,0.00039281,-0.0005
 6751,-0.00012932,-0.00002645,-0.00018755,-0.00007683,-0.00007714,0.000
 18437,0.00010898,-0.00002197,-0.00000603,-0.00006296,-0.00003200,-0.00
 002307,-0.00004210,0.00000677,-0.00004695,0.00002594,-0.00000284,-0.00
 000396,0.00004239,0.00004300,0.00004344,-0.00029167,-0.00108425,-0.000
 20305,0.00019761,0.00029556,0.00035354,0.00004690,-0.00061969,-0.00057
 546,-0.00112186,-0.00027616,0.00049640,-0.15464989,0.29467814,0.006133
 53,0.00047101,0.00147737,-0.00773102,0.00317027,-0.00583642,0.00309573
 ,-0.00044190,0.00062678,-0.00045049,-0.00067296,0.00064400,0.00053232,
 0.00119107,0.00114142,-0.00022075,-0.00011247,-0.00044309,-0.00089970,
 -0.00055330,-0.00075016,-0.00010789,0.00002142,-0.00016674,0.00009996,
 -0.00000859,0.00014449,0.00010040,0.00011368,-0.00007329,0.00001766,-0
 .00007008,-0.00005289,-0.00000013,-0.00008383,-0.00001270,-0.00001265,
 0.00000882,-0.00002034,-0.00156046,-0.00012947,0.00131303,-0.01889799,
 0.02665130,0.00818472,0.02397077,-0.04071438,-0.06867084,-0.00003272,0
 .00026141,-0.00015728,-0.00004970,-0.00002873,-0.00011606,0.00002187,-
 0.00007110,0.00014606,0.00010370,-0.00001106,-0.00001198,-0.00005275,-
 0.00002306,-0.00001369,-0.00004627,-0.00000268,-0.00003696,0.00000858,
 -0.00000166,-0.00000338,0.00001648,0.00001129,0.00004070,0.00048934,-0
 .00006102,0.00024712,0.00056302,-0.00045121,-0.00090382,-0.00028956,0.
 00046131,-0.00080866,-0.00066054,0.00274679,-0.00581890,-0.02761174,0.
 04081571,0.07510582,-0.00463051,-0.00149855,-0.00225749,0.00870137,-0.
 00068348,-0.00045621,-0.00471048,-0.00009090,0.00136876,0.00214963,0.0
 0190648,-0.00171729,-0.00611459,-0.02025743,-0.00382369,0.00413209,0.0
 0830025,-0.00329440,0.00457087,0.01337001,0.00880758,-0.00104766,0.000
 63728,0.00079476,-0.00008835,-0.00017163,-0.00067414,-0.00018408,0.000
 03451,-0.00009255,-0.00004081,-0.00049320,0.00029457,-0.00008109,0.000
 57577,-0.00026721,0.00056846,-0.00019164,0.00075827,-0.00083771,0.0006
 5697,-0.00048667,0.01508205,0.00179003,0.00101287,-0.26141122,-0.06352
 709,0.10950979,0.00008935,-0.00017322,-0.00013954,0.00016688,0.0000001
 0,0.00078564,-0.00056110,0.00007621,-0.00068106,-0.00027756,-0.0001539
 6,-0.00004932,0.00052224,-0.00011156,0.00015310,0.00008305,0.00004686,
 0.00002250,-0.00001830,0.00001156,0.00000479,-0.00066346,0.00015315,0.
 00003667,-0.00013202,-0.00049813,-0.00044244,-0.00011532,-0.00011410,0
 .00026651,-0.00106169,0.00158961,-0.00419460,0.00040329,0.00136671,-0.
 00204586,-0.01462982,-0.00117793,0.00961458,0.27012409,-0.00091809,-0.
 00115771,0.00219009,0.00030470,0.00198784,-0.00349150,-0.00020910,-0.0
 0050879,0.00085561,0.00054955,0.00033523,-0.00068696,-0.00523934,-0.01
 128532,-0.00067604,0.00157732,0.00289363,-0.00189524,0.00607604,0.0030
 7870,0.00283029,-0.00063044,0.00038474,0.00027841,-0.00002335,-0.00002
 265,-0.00020403,-0.00004092,0.00010248,-0.00007108,-0.00004845,-0.0003
 3119,0.00005082,0.00001609,0.00012463,-0.00008582,0.00012969,-0.000100
 30,0.00025343,0.00030885,0.00014973,-0.00084229,-0.01085947,-0.0071306
 4,0.01199134,-0.06398273,-0.08439774,0.02849396,0.00001563,0.00019905,
 -0.00005001,0.00004582,-0.00003957,0.00025889,-0.00057484,-0.00014721,
 -0.00016843,-0.00007317,-0.00009809,-0.00001656,0.00022715,-0.00006722
 ,0.00005334,0.00001842,0.00001961,-0.00001990,0.00005038,-0.00001137,0
 .00000121,-0.00020823,0.00016603,0.00004630,-0.00015257,-0.00034069,-0
 .00010510,-0.00009957,-0.00019926,0.00009151,0.00118722,-0.00057146,0.
 00235511,-0.00028476,0.00021354,0.00027743,0.03030199,0.01287937,-0.01
 680925,0.06078623,0.08893174,0.00130361,0.00032182,0.00115833,-0.00279
 376,-0.00116122,-0.00315770,0.00153659,0.00045307,0.00015634,-0.000122
 02,-0.00206911,0.00067345,0.00078114,0.00378982,-0.00098147,-0.0010855
 2,-0.00014698,0.00029440,-0.00079246,-0.00325140,-0.00245740,0.0001386
 5,0.00003086,-0.00007294,0.00005400,0.00003181,0.00025965,0.00013699,0
 .00006337,-0.00007911,0.00006069,0.00007833,-0.00011258,-0.00002682,-0
 .00014487,0.00010706,-0.00008569,0.00005421,-0.00017706,0.00022770,0.0
 0062847,-0.00044313,0.02272833,0.00999828,-0.01688044,0.11587661,0.030
 82773,-0.12799861,-0.00025357,0.00008865,-0.00031608,-0.00008896,0.000
 02422,-0.00044816,0.00011323,0.00022422,0.00003202,0.00011226,0.000031
 07,-0.00000987,-0.00007868,0.00000139,-0.00002750,-0.00005044,-0.00001
 634,-0.00003088,0.00000930,-0.00000620,0.00000446,0.00013117,-0.000015
 12,0.00006834,-0.00019335,-0.00003213,0.00018832,0.00005940,0.00011719
 ,0.00016896,-0.00196082,0.00111777,-0.00354999,0.00030453,-0.00002212,
 0.00202436,0.00469064,0.00039405,-0.00218991,-0.11768588,-0.03686459,0
 .13756353,0.00125377,0.00111759,0.00096964,-0.00095643,0.00046545,-0.0
 0025421,0.00058537,-0.00000835,0.00004915,-0.00011439,-0.00009531,0.00
 010256,-0.00001418,0.00025301,0.00032706,0.00001496,-0.00008120,-0.000
 09783,-0.00158586,-0.00027062,0.00044602,-0.00004162,-0.00002177,-0.00
 003876,0.00002989,-0.00002073,0.00000956,0.00002763,0.00000855,-0.0000
 3078,0.00003354,0.00000766,0.00002404,-0.00001366,0.00002065,-0.000020
 43,0.00004952,-0.00000449,0.00003834,0.00016134,0.00067434,0.00061849,
 -0.00289571,-0.00162558,-0.00180437,-0.16350857,-0.11608973,-0.1089071
 9,-0.00002375,-0.00000017,-0.00008267,-0.00000359,0.00000349,-0.000005
 94,0.00003202,-0.00007509,0.00005394,0.00001491,-0.00000018,-0.0000093
 6,-0.00001328,-0.00000522,0.00000442,-0.00001456,0.00000057,-0.0000054
 6,-0.00002837,0.00000586,-0.00000175,-0.00004938,-0.00002643,-0.000002
 47,0.00019273,-0.00004461,0.00004601,0.00002765,0.00005057,-0.00008507
 ,0.00136755,-0.00029441,0.00116943,-0.00062041,0.00000992,-0.00061594,
 0.01563179,0.00934907,0.01385642,-0.00998758,-0.01825005,-0.02304688,0
 .16044867,-0.00160827,-0.00100498,-0.00247718,0.00114193,-0.00270586,0
 .00110036,-0.00052208,0.00037804,-0.00014890,0.00007416,0.00008472,-0.
 00006262,-0.00014113,-0.00025148,-0.00008848,0.00009586,0.00009463,-0.
 00003316,0.00033975,0.00019464,0.00011860,-0.00004803,0.00004207,-0.00
 000235,-0.00000224,-0.00001891,0.00000160,0.00001371,0.00001620,-0.000
 00405,0.00000414,-0.00003406,-0.00000374,-0.00001372,0.00003324,0.0000
 0120,0.00001311,-0.00001654,0.00000149,0.00141506,-0.00194692,0.002741
 60,0.00902842,0.01434167,0.00855659,-0.11153709,-0.19765688,-0.1274581
 7,-0.00015450,0.00000197,0.00006688,0.00003788,0.00000267,0.00000961,-
 0.00002983,-0.00000180,-0.00001156,-0.00000049,-0.00000812,0.00000040,
 0.00001094,-0.00000721,0.00000648,-0.00000940,-0.00000361,-0.00000762,
 0.00001272,0.00000297,-0.00000152,-0.00001742,0.00001990,0.00000635,-0
 .00000133,0.00080732,0.00080815,-0.00004649,0.00003095,0.00000742,-0.0
 0008052,0.00108899,0.00068390,0.00066555,-0.00039524,0.00049069,-0.021
 42903,-0.01238452,-0.01567733,-0.00215892,-0.00505710,-0.00454625,0.12
 494725,0.20435326,0.00035894,0.00022885,0.00072497,-0.00027808,0.00103
 067,-0.00043610,0.00015493,-0.00006007,0.00010935,0.00006023,-0.000124
 98,-0.00004129,-0.00045563,-0.00120929,0.00012279,0.00021584,0.0005946
 8,-0.00042826,0.00230385,0.00102723,-0.00039410,-0.00009229,0.00005642
 ,0.00002658,0.00000938,0.00000258,0.00000616,0.00002261,0.00001856,-0.
 00003839,0.00002493,-0.00003238,-0.00001623,-0.00001314,0.00000944,0.0
 0002441,0.00003230,-0.00000698,0.00001911,-0.00226811,0.00375706,-0.00
 375501,-0.01282415,-0.01868864,-0.01546754,-0.10834565,-0.13146172,-0.
 18010940,-0.00000286,0.00003885,-0.00009667,-0.00000772,0.00000624,0.0
 0001655,-0.00006277,0.00000028,-0.00000534,0.00000744,-0.00000855,-0.0
 0000750,0.00002707,-0.00001222,0.00000765,-0.00000664,-0.00000097,-0.0
 0000742,0.00000088,-0.00000292,0.00000517,-0.00003617,0.00002192,0.000
 03352,0.00004747,-0.00123745,-0.00083581,0.00009028,0.00002097,0.00005
 336,0.00105176,-0.00023772,0.00109954,-0.00018291,0.00023431,-0.000162
 03,-0.00200382,-0.00184486,-0.00298439,0.00487796,0.01195906,0.0162336
 2,0.11729406,0.13592161,0.18630270\\-0.00000191,-0.00000472,0.00001150
 ,-0.00000142,-0.00000081,-0.00001432,0.00000717,-0.00000014,0.00000365
 ,-0.00000123,0.00000010,-0.00000061,-0.00000374,0.00000472,0.00000456,
 -0.00000312,-0.00000590,0.00000393,-0.00000382,0.00000560,-0.00001804,
 -0.00001081,-0.00000166,-0.00000068,0.00001081,0.00000349,-0.00000121,
 0.00000272,-0.00000328,-0.00000090,-0.00000018,0.00000226,0.00000652,-
 0.00000110,0.00000573,0.00000168,0.00000032,-0.00001064,0.00000240,-0.
 00000633,0.00000256,-0.00000107,-0.00000071,0.00000001,0.00000966,-0.0
 0000605,0.00001313,0.00001196,-0.00000042,0.00000595,0.00000040,0.0000
 0175,0.00000130,0.00000019,0.00000129,0.00000014,-0.00000031,-0.000001
 49,0.00000174,-0.00000173,-0.00000019,-0.00000265,0.00000099,-0.000001
 70,0.00000037,-0.00000008,0.00000086,-0.00000015,0.00000086,0.00000596
 ,-0.00000293,-0.00000129,-0.00000038,-0.00000094,0.00000030,0.00000138
 ,0.00000235,0.00000047,0.00000017,-0.00000135,-0.00000058,-0.00000298,
 0.00000210,-0.00000270,0.00001348,-0.00001471,-0.00000477,0.00000152,-
 0.00000164,-0.00000584,0.00000017,-0.00000004,-0.00000492\\\@


 THOSE WHO ASPIRE NOT TO GUESS AND DIVINE,
 BUT TO DISCOVER AND KNOW, WHO PROPOSE NOT TO DEVISE 
 MIMIC AND FABULOUS WORLDS OF THEIR OWN, BUT TO 
 EXAMINE AND DISSECT THE NATURE OF THIS VERY WORLD 
 ITSELF, MUST GO TO THE FACTS THEMSELVES FOR EVERYTHING.

                               -- FRANCIS BACON, 1620
 Job cpu time:       0 days  1 hours 15 minutes 39.4 seconds.
 File lengths (MBytes):  RWF=    277 Int=      0 D2E=      0 Chk=      8 Scr=      1
 Normal termination of Gaussian 09 at Tue Jul 27 02:52:24 2021.
