 Entering Gaussian System, Link 0=g09
 Input=opt_freq-conf-318.com
 Output=opt_freq-conf-318.log
 Initial command:
 /aerosol/software/g09/l1.exe "/scratch/nicole/10528/Gau-551758.inp" -scrdir="/scratch/nicole/10528/"
 Entering Link 1 = /aerosol/software/g09/l1.exe PID=    551766.
  
 Copyright (c) 1988,1990,1992,1993,1995,1998,2003,2009,2013,
            Gaussian, Inc.  All Rights Reserved.
  
 This is part of the Gaussian(R) 09 program.  It is based on
 the Gaussian(R) 03 system (copyright 2003, Gaussian, Inc.),
 the Gaussian(R) 98 system (copyright 1998, Gaussian, Inc.),
 the Gaussian(R) 94 system (copyright 1995, Gaussian, Inc.),
 the Gaussian 92(TM) system (copyright 1992, Gaussian, Inc.),
 the Gaussian 90(TM) system (copyright 1990, Gaussian, Inc.),
 the Gaussian 88(TM) system (copyright 1988, Gaussian, Inc.),
 the Gaussian 86(TM) system (copyright 1986, Carnegie Mellon
 University), and the Gaussian 82(TM) system (copyright 1983,
 Carnegie Mellon University). Gaussian is a federally registered
 trademark of Gaussian, Inc.
  
 This software contains proprietary and confidential information,
 including trade secrets, belonging to Gaussian, Inc.
  
 This software is provided under written license and may be
 used, copied, transmitted, or stored only in accord with that
 written license.
  
 The following legend is applicable only to US Government
 contracts under FAR:
  
                    RESTRICTED RIGHTS LEGEND
  
 Use, reproduction and disclosure by the US Government is
 subject to restrictions as set forth in subparagraphs (a)
 and (c) of the Commercial Computer Software - Restricted
 Rights clause in FAR 52.227-19.
  
 Gaussian, Inc.
 340 Quinnipiac St., Bldg. 40, Wallingford CT 06492
  
  
 ---------------------------------------------------------------
 Warning -- This program may not be used in any manner that
 competes with the business of Gaussian, Inc. or will provide
 assistance to any competitor of Gaussian, Inc.  The licensee
 of this program is prohibited from giving any competitor of
 Gaussian, Inc. access to this program.  By using this program,
 the user acknowledges that Gaussian, Inc. is engaged in the
 business of creating and licensing software in the field of
 computational chemistry and represents and warrants to the
 licensee that it is not a competitor of Gaussian, Inc. and that
 it will not use this program in any manner prohibited above.
 ---------------------------------------------------------------
  

 Cite this work as:
 Gaussian 09, Revision D.01,
 M. J. Frisch, G. W. Trucks, H. B. Schlegel, G. E. Scuseria, 
 M. A. Robb, J. R. Cheeseman, G. Scalmani, V. Barone, B. Mennucci, 
 G. A. Petersson, H. Nakatsuji, M. Caricato, X. Li, H. P. Hratchian, 
 A. F. Izmaylov, J. Bloino, G. Zheng, J. L. Sonnenberg, M. Hada, 
 M. Ehara, K. Toyota, R. Fukuda, J. Hasegawa, M. Ishida, T. Nakajima, 
 Y. Honda, O. Kitao, H. Nakai, T. Vreven, J. A. Montgomery, Jr., 
 J. E. Peralta, F. Ogliaro, M. Bearpark, J. J. Heyd, E. Brothers, 
 K. N. Kudin, V. N. Staroverov, T. Keith, R. Kobayashi, J. Normand, 
 K. Raghavachari, A. Rendell, J. C. Burant, S. S. Iyengar, J. Tomasi, 
 M. Cossi, N. Rega, J. M. Millam, M. Klene, J. E. Knox, J. B. Cross, 
 V. Bakken, C. Adamo, J. Jaramillo, R. Gomperts, R. E. Stratmann, 
 O. Yazyev, A. J. Austin, R. Cammi, C. Pomelli, J. W. Ochterski, 
 R. L. Martin, K. Morokuma, V. G. Zakrzewski, G. A. Voth, 
 P. Salvador, J. J. Dannenberg, S. Dapprich, A. D. Daniels, 
 O. Farkas, J. B. Foresman, J. V. Ortiz, J. Cioslowski, 
 and D. J. Fox, Gaussian, Inc., Wallingford CT, 2013.
 
 ******************************************
 Gaussian 09:  ES64L-G09RevD.01 24-Apr-2013
                27-Jul-2021 
 ******************************************
 %mem=2gb
 %nproc=4
 Will use up to    4 processors via shared memory.
 %chk=conf-318.chk
 ----------------------------------------------------------------------
 # B3LYP/6-31G(d) EmpiricalDispersion=GD3BJ opt=calcfc freq=noraman nos
 ymm integral(ultrafinegrid)
 ----------------------------------------------------------------------
 1/10=4,14=-1,18=20,19=15,26=4,38=1/1,3;
 2/9=110,12=2,15=1,17=6,18=5,40=1/2;
 3/5=1,6=6,7=1,11=2,16=1,25=1,30=1,71=2,74=-5,75=-5,124=41,140=1/1,2,3;
 4//1;
 5/5=2,38=5/2;
 8/6=4,10=90,11=11/1;
 11/6=1,8=1,9=11,15=111,16=1,31=1/1,2,10;
 10/6=1,13=1,31=1/2;
 6/7=2,8=2,9=2,10=2,28=1/1;
 7/10=1,18=20,25=1,30=1/1,2,3,16;
 1/10=4,14=-1,18=20,19=15,26=4/3(2);
 2/9=110,15=1/2;
 99//99;
 2/9=110,15=1/2;
 3/5=1,6=6,7=1,11=2,16=1,25=1,30=1,71=1,74=-5,75=-5,124=41/1,2,3;
 4/5=5,16=3,69=1/1;
 5/5=2,38=5/2;
 7/30=1/1,2,3,16;
 1/14=-1,18=20,19=15,26=4/3(-5);
 2/9=110,15=1/2;
 6/7=2,8=2,9=2,10=2,19=2,28=1/1;
 99/9=1/99;
 ------------------------------------------------------------
 Candidate Structure: Conf:318 OPT and FREQ calc in gas phase
 ------------------------------------------------------------
 Symbolic Z-matrix:
 Charge =  1 Multiplicity = 1
 O                     1.13479   0.36017   1.71301 
 C                     1.16226  -0.2433    0.64574 
 N                     0.11396  -1.00733   0.23996 
 C                    -1.06936  -1.15699   1.0577 
 C                    -1.84054  -2.36383   0.54088 
 O                    -2.80523  -2.83052   1.35604 
 O                    -1.63337  -2.87104  -0.528 
 C                    -1.9416    0.10927   1.09446 
 C                    -2.42059   0.64013  -0.22615 
 C                    -2.81335   0.0844   -1.40888 
 N                    -3.21509   1.05471  -2.30737 
 C                    -3.07245   2.19143  -1.6678 
 N                    -2.59722   2.00042  -0.41027 
 C                     2.34258  -0.20625  -0.31324 
 C                     3.52376   0.56524   0.25722 
 N                     4.66863   0.61098  -0.69028 
 H                     0.14741  -1.55596  -0.606 
 H                    -0.76096  -1.33802   2.09037 
 H                    -2.82173  -2.33987   2.18352 
 H                    -2.80031  -0.07852   1.7472 
 H                    -1.35361   0.88582   1.58118 
 H                    -2.82341  -0.96002  -1.66902 
 H                    -3.29495   3.16978  -2.05629 
 H                    -2.40028   2.71256   0.27365 
 H                     2.02064   0.25342  -1.25462 
 H                     2.64528  -1.23191  -0.54929 
 H                     3.83569   0.10072   1.19197 
 H                     3.20224   1.57712   0.49941 
 H                     5.00063  -0.32667  -0.91571 
 H                     5.45977   1.12826  -0.30455 
 H                     4.40638   1.06602  -1.56461 
 

 GradGradGradGradGradGradGradGradGradGradGradGradGradGradGradGradGradGrad
 Berny optimization.
 Initialization pass.
                           ----------------------------
                           !    Initial Parameters    !
                           ! (Angstroms and Degrees)  !
 --------------------------                            --------------------------
 ! Name  Definition              Value          Derivative Info.                !
 --------------------------------------------------------------------------------
 ! R1    R(1,2)                  1.2264         calculate D2E/DX2 analytically  !
 ! R2    R(2,3)                  1.3592         calculate D2E/DX2 analytically  !
 ! R3    R(2,14)                 1.5212         calculate D2E/DX2 analytically  !
 ! R4    R(3,4)                  1.4461         calculate D2E/DX2 analytically  !
 ! R5    R(3,17)                 1.0088         calculate D2E/DX2 analytically  !
 ! R6    R(4,5)                  1.5226         calculate D2E/DX2 analytically  !
 ! R7    R(4,8)                  1.538          calculate D2E/DX2 analytically  !
 ! R8    R(4,18)                 1.0928         calculate D2E/DX2 analytically  !
 ! R9    R(5,6)                  1.3464         calculate D2E/DX2 analytically  !
 ! R10   R(5,7)                  1.2011         calculate D2E/DX2 analytically  !
 ! R11   R(6,19)                 0.9622         calculate D2E/DX2 analytically  !
 ! R12   R(8,9)                  1.5018         calculate D2E/DX2 analytically  !
 ! R13   R(8,20)                 1.0949         calculate D2E/DX2 analytically  !
 ! R14   R(8,21)                 1.0889         calculate D2E/DX2 analytically  !
 ! R15   R(9,10)                 1.3645         calculate D2E/DX2 analytically  !
 ! R16   R(9,13)                 1.384          calculate D2E/DX2 analytically  !
 ! R17   R(10,11)                1.3821         calculate D2E/DX2 analytically  !
 ! R18   R(10,22)                1.0764         calculate D2E/DX2 analytically  !
 ! R19   R(11,12)                1.3121         calculate D2E/DX2 analytically  !
 ! R20   R(12,13)                1.3578         calculate D2E/DX2 analytically  !
 ! R21   R(12,23)                1.0759         calculate D2E/DX2 analytically  !
 ! R22   R(13,24)                1.0068         calculate D2E/DX2 analytically  !
 ! R23   R(14,15)                1.5218         calculate D2E/DX2 analytically  !
 ! R24   R(14,25)                1.096          calculate D2E/DX2 analytically  !
 ! R25   R(14,26)                1.0951         calculate D2E/DX2 analytically  !
 ! R26   R(15,16)                1.4868         calculate D2E/DX2 analytically  !
 ! R27   R(15,27)                1.0894         calculate D2E/DX2 analytically  !
 ! R28   R(15,28)                1.089          calculate D2E/DX2 analytically  !
 ! R29   R(16,29)                1.0199         calculate D2E/DX2 analytically  !
 ! R30   R(16,30)                1.0209         calculate D2E/DX2 analytically  !
 ! R31   R(16,31)                1.0199         calculate D2E/DX2 analytically  !
 ! A1    A(1,2,3)              121.2758         calculate D2E/DX2 analytically  !
 ! A2    A(1,2,14)             123.6419         calculate D2E/DX2 analytically  !
 ! A3    A(3,2,14)             115.0822         calculate D2E/DX2 analytically  !
 ! A4    A(2,3,4)              121.3636         calculate D2E/DX2 analytically  !
 ! A5    A(2,3,17)             122.0375         calculate D2E/DX2 analytically  !
 ! A6    A(4,3,17)             116.424          calculate D2E/DX2 analytically  !
 ! A7    A(3,4,5)              107.7302         calculate D2E/DX2 analytically  !
 ! A8    A(3,4,8)              113.1007         calculate D2E/DX2 analytically  !
 ! A9    A(3,4,18)             108.6967         calculate D2E/DX2 analytically  !
 ! A10   A(5,4,8)              111.928          calculate D2E/DX2 analytically  !
 ! A11   A(5,4,18)             109.4136         calculate D2E/DX2 analytically  !
 ! A12   A(8,4,18)             105.8923         calculate D2E/DX2 analytically  !
 ! A13   A(4,5,6)              115.6021         calculate D2E/DX2 analytically  !
 ! A14   A(4,5,7)              123.327          calculate D2E/DX2 analytically  !
 ! A15   A(6,5,7)              121.0623         calculate D2E/DX2 analytically  !
 ! A16   A(5,6,19)             110.8675         calculate D2E/DX2 analytically  !
 ! A17   A(4,8,9)              116.8014         calculate D2E/DX2 analytically  !
 ! A18   A(4,8,20)             108.5318         calculate D2E/DX2 analytically  !
 ! A19   A(4,8,21)             106.9537         calculate D2E/DX2 analytically  !
 ! A20   A(9,8,20)             109.5565         calculate D2E/DX2 analytically  !
 ! A21   A(9,8,21)             108.2526         calculate D2E/DX2 analytically  !
 ! A22   A(20,8,21)            106.2217         calculate D2E/DX2 analytically  !
 ! A23   A(8,9,10)             135.2394         calculate D2E/DX2 analytically  !
 ! A24   A(8,9,13)             120.3403         calculate D2E/DX2 analytically  !
 ! A25   A(10,9,13)            104.3734         calculate D2E/DX2 analytically  !
 ! A26   A(9,10,11)            111.1751         calculate D2E/DX2 analytically  !
 ! A27   A(9,10,22)            127.3977         calculate D2E/DX2 analytically  !
 ! A28   A(11,10,22)           121.4253         calculate D2E/DX2 analytically  !
 ! A29   A(10,11,12)           105.055          calculate D2E/DX2 analytically  !
 ! A30   A(11,12,13)           111.5691         calculate D2E/DX2 analytically  !
 ! A31   A(11,12,23)           126.1078         calculate D2E/DX2 analytically  !
 ! A32   A(13,12,23)           122.323          calculate D2E/DX2 analytically  !
 ! A33   A(9,13,12)            107.8264         calculate D2E/DX2 analytically  !
 ! A34   A(9,13,24)            125.441          calculate D2E/DX2 analytically  !
 ! A35   A(12,13,24)           126.7321         calculate D2E/DX2 analytically  !
 ! A36   A(2,14,15)            112.2264         calculate D2E/DX2 analytically  !
 ! A37   A(2,14,25)            108.8913         calculate D2E/DX2 analytically  !
 ! A38   A(2,14,26)            109.1188         calculate D2E/DX2 analytically  !
 ! A39   A(15,14,25)           109.7159         calculate D2E/DX2 analytically  !
 ! A40   A(15,14,26)           109.9419         calculate D2E/DX2 analytically  !
 ! A41   A(25,14,26)           106.7903         calculate D2E/DX2 analytically  !
 ! A42   A(14,15,16)           111.9861         calculate D2E/DX2 analytically  !
 ! A43   A(14,15,27)           109.1305         calculate D2E/DX2 analytically  !
 ! A44   A(14,15,28)           108.9821         calculate D2E/DX2 analytically  !
 ! A45   A(16,15,27)           109.8421         calculate D2E/DX2 analytically  !
 ! A46   A(16,15,28)           109.9065         calculate D2E/DX2 analytically  !
 ! A47   A(27,15,28)           106.8527         calculate D2E/DX2 analytically  !
 ! A48   A(15,16,29)           111.299          calculate D2E/DX2 analytically  !
 ! A49   A(15,16,30)           111.8094         calculate D2E/DX2 analytically  !
 ! A50   A(15,16,31)           111.2249         calculate D2E/DX2 analytically  !
 ! A51   A(29,16,30)           107.2818         calculate D2E/DX2 analytically  !
 ! A52   A(29,16,31)           107.7209         calculate D2E/DX2 analytically  !
 ! A53   A(30,16,31)           107.2822         calculate D2E/DX2 analytically  !
 ! D1    D(1,2,3,4)             -0.927          calculate D2E/DX2 analytically  !
 ! D2    D(1,2,3,17)          -175.9471         calculate D2E/DX2 analytically  !
 ! D3    D(14,2,3,4)           178.9339         calculate D2E/DX2 analytically  !
 ! D4    D(14,2,3,17)            3.9138         calculate D2E/DX2 analytically  !
 ! D5    D(1,2,14,15)            4.8672         calculate D2E/DX2 analytically  !
 ! D6    D(1,2,14,25)         -116.8023         calculate D2E/DX2 analytically  !
 ! D7    D(1,2,14,26)          126.9811         calculate D2E/DX2 analytically  !
 ! D8    D(3,2,14,15)         -174.99           calculate D2E/DX2 analytically  !
 ! D9    D(3,2,14,25)           63.3405         calculate D2E/DX2 analytically  !
 ! D10   D(3,2,14,26)          -52.8761         calculate D2E/DX2 analytically  !
 ! D11   D(2,3,4,5)           -163.3057         calculate D2E/DX2 analytically  !
 ! D12   D(2,3,4,8)             72.4572         calculate D2E/DX2 analytically  !
 ! D13   D(2,3,4,18)           -44.8421         calculate D2E/DX2 analytically  !
 ! D14   D(17,3,4,5)            11.981          calculate D2E/DX2 analytically  !
 ! D15   D(17,3,4,8)          -112.2561         calculate D2E/DX2 analytically  !
 ! D16   D(17,3,4,18)          130.4447         calculate D2E/DX2 analytically  !
 ! D17   D(3,4,5,6)            165.8373         calculate D2E/DX2 analytically  !
 ! D18   D(3,4,5,7)            -15.219          calculate D2E/DX2 analytically  !
 ! D19   D(8,4,5,6)            -69.2207         calculate D2E/DX2 analytically  !
 ! D20   D(8,4,5,7)            109.7231         calculate D2E/DX2 analytically  !
 ! D21   D(18,4,5,6)            47.8348         calculate D2E/DX2 analytically  !
 ! D22   D(18,4,5,7)          -133.2214         calculate D2E/DX2 analytically  !
 ! D23   D(3,4,8,9)             56.7831         calculate D2E/DX2 analytically  !
 ! D24   D(3,4,8,20)          -178.8236         calculate D2E/DX2 analytically  !
 ! D25   D(3,4,8,21)           -64.6058         calculate D2E/DX2 analytically  !
 ! D26   D(5,4,8,9)            -65.1291         calculate D2E/DX2 analytically  !
 ! D27   D(5,4,8,20)            59.2642         calculate D2E/DX2 analytically  !
 ! D28   D(5,4,8,21)           173.4821         calculate D2E/DX2 analytically  !
 ! D29   D(18,4,8,9)           175.7167         calculate D2E/DX2 analytically  !
 ! D30   D(18,4,8,20)          -59.89           calculate D2E/DX2 analytically  !
 ! D31   D(18,4,8,21)           54.3278         calculate D2E/DX2 analytically  !
 ! D32   D(4,5,6,19)            -3.1825         calculate D2E/DX2 analytically  !
 ! D33   D(7,5,6,19)           177.8478         calculate D2E/DX2 analytically  !
 ! D34   D(4,8,9,10)            35.2995         calculate D2E/DX2 analytically  !
 ! D35   D(4,8,9,13)          -147.6284         calculate D2E/DX2 analytically  !
 ! D36   D(20,8,9,10)          -88.572          calculate D2E/DX2 analytically  !
 ! D37   D(20,8,9,13)           88.5001         calculate D2E/DX2 analytically  !
 ! D38   D(21,8,9,10)          156.0038         calculate D2E/DX2 analytically  !
 ! D39   D(21,8,9,13)          -26.9241         calculate D2E/DX2 analytically  !
 ! D40   D(8,9,10,11)          177.7149         calculate D2E/DX2 analytically  !
 ! D41   D(8,9,10,22)           -2.7787         calculate D2E/DX2 analytically  !
 ! D42   D(13,9,10,11)           0.3232         calculate D2E/DX2 analytically  !
 ! D43   D(13,9,10,22)         179.8295         calculate D2E/DX2 analytically  !
 ! D44   D(8,9,13,12)         -178.07           calculate D2E/DX2 analytically  !
 ! D45   D(8,9,13,24)            2.1942         calculate D2E/DX2 analytically  !
 ! D46   D(10,9,13,12)          -0.1978         calculate D2E/DX2 analytically  !
 ! D47   D(10,9,13,24)        -179.9336         calculate D2E/DX2 analytically  !
 ! D48   D(9,10,11,12)          -0.3247         calculate D2E/DX2 analytically  !
 ! D49   D(22,10,11,12)       -179.8651         calculate D2E/DX2 analytically  !
 ! D50   D(10,11,12,13)          0.191          calculate D2E/DX2 analytically  !
 ! D51   D(10,11,12,23)       -179.6929         calculate D2E/DX2 analytically  !
 ! D52   D(11,12,13,9)           0.0032         calculate D2E/DX2 analytically  !
 ! D53   D(11,12,13,24)        179.7346         calculate D2E/DX2 analytically  !
 ! D54   D(23,12,13,9)         179.8922         calculate D2E/DX2 analytically  !
 ! D55   D(23,12,13,24)         -0.3764         calculate D2E/DX2 analytically  !
 ! D56   D(2,14,15,16)        -179.3655         calculate D2E/DX2 analytically  !
 ! D57   D(2,14,15,27)          58.798          calculate D2E/DX2 analytically  !
 ! D58   D(2,14,15,28)         -57.5501         calculate D2E/DX2 analytically  !
 ! D59   D(25,14,15,16)        -58.1686         calculate D2E/DX2 analytically  !
 ! D60   D(25,14,15,27)        179.995          calculate D2E/DX2 analytically  !
 ! D61   D(25,14,15,28)         63.6469         calculate D2E/DX2 analytically  !
 ! D62   D(26,14,15,16)         58.99           calculate D2E/DX2 analytically  !
 ! D63   D(26,14,15,27)        -62.8465         calculate D2E/DX2 analytically  !
 ! D64   D(26,14,15,28)       -179.1945         calculate D2E/DX2 analytically  !
 ! D65   D(14,15,16,29)        -59.978          calculate D2E/DX2 analytically  !
 ! D66   D(14,15,16,30)       -179.9408         calculate D2E/DX2 analytically  !
 ! D67   D(14,15,16,31)         60.1466         calculate D2E/DX2 analytically  !
 ! D68   D(27,15,16,29)         61.4498         calculate D2E/DX2 analytically  !
 ! D69   D(27,15,16,30)        -58.5131         calculate D2E/DX2 analytically  !
 ! D70   D(27,15,16,31)       -178.4257         calculate D2E/DX2 analytically  !
 ! D71   D(28,15,16,29)        178.7381         calculate D2E/DX2 analytically  !
 ! D72   D(28,15,16,30)         58.7752         calculate D2E/DX2 analytically  !
 ! D73   D(28,15,16,31)        -61.1374         calculate D2E/DX2 analytically  !
 --------------------------------------------------------------------------------
 Trust Radius=3.00D-01 FncErr=1.00D-07 GrdErr=1.00D-06
 Number of steps in this run=    167 maximum allowed number of steps=    186.
 GradGradGradGradGradGradGradGradGradGradGradGradGradGradGradGradGradGrad

                          Input orientation:                          
 ---------------------------------------------------------------------
 Center     Atomic      Atomic             Coordinates (Angstroms)
 Number     Number       Type             X           Y           Z
 ---------------------------------------------------------------------
      1          8           0        1.134793    0.360172    1.713014
      2          6           0        1.162257   -0.243302    0.645742
      3          7           0        0.113957   -1.007325    0.239961
      4          6           0       -1.069364   -1.156993    1.057696
      5          6           0       -1.840539   -2.363826    0.540876
      6          8           0       -2.805228   -2.830522    1.356037
      7          8           0       -1.633368   -2.871040   -0.528005
      8          6           0       -1.941597    0.109268    1.094457
      9          6           0       -2.420593    0.640134   -0.226148
     10          6           0       -2.813354    0.084404   -1.408885
     11          7           0       -3.215093    1.054711   -2.307369
     12          6           0       -3.072450    2.191426   -1.667803
     13          7           0       -2.597217    2.000422   -0.410274
     14          6           0        2.342582   -0.206253   -0.313243
     15          6           0        3.523756    0.565241    0.257219
     16          7           0        4.668626    0.610979   -0.690278
     17          1           0        0.147411   -1.555964   -0.605997
     18          1           0       -0.760965   -1.338020    2.090369
     19          1           0       -2.821728   -2.339868    2.183521
     20          1           0       -2.800315   -0.078519    1.747195
     21          1           0       -1.353609    0.885824    1.581179
     22          1           0       -2.823414   -0.960017   -1.669022
     23          1           0       -3.294949    3.169775   -2.056286
     24          1           0       -2.400277    2.712564    0.273645
     25          1           0        2.020644    0.253423   -1.254621
     26          1           0        2.645282   -1.231912   -0.549292
     27          1           0        3.835693    0.100720    1.191966
     28          1           0        3.202235    1.577124    0.499409
     29          1           0        5.000631   -0.326669   -0.915711
     30          1           0        5.459766    1.128265   -0.304546
     31          1           0        4.406382    1.066022   -1.564605
 ---------------------------------------------------------------------
                    Distance matrix (angstroms):
                    1          2          3          4          5
     1  O    0.000000
     2  C    1.226379   0.000000
     3  N    2.254339   1.359162   0.000000
     4  C    2.754913   2.446359   1.446147   0.000000
     5  C    4.200795   3.677554   2.398061   1.522583   0.000000
     6  O    5.082493   4.789485   3.618192   2.429595   1.346447
     7  O    4.808910   4.012257   2.667649   2.402187   1.201121
     8  C    3.147974   3.155877   2.490431   1.538037   2.536308
     9  C    4.059495   3.791763   3.058647   2.589158   3.154134
    10  C    5.040850   4.487133   3.532664   3.265974   3.277463
    11  N    5.963838   5.437544   4.671558   4.562833   4.657068
    12  C    5.699501   5.404917   4.901506   4.759476   5.210200
    13  N    4.596376   4.503677   4.101196   3.802439   4.530331
    14  C    2.425966   1.521247   2.431979   3.797994   4.783633
    15  C    2.805091   2.526138   3.754996   4.970273   6.118461
    16  N    4.280969   3.848295   4.922323   6.253453   7.261848
    17  H    3.166120   2.078424   1.008845   2.099427   2.433085
    18  H    2.572966   2.642751   2.073368   1.092838   2.149113
    19  H    4.813071   4.757362   3.764485   2.395298   1.913528
    20  H    3.959633   4.116106   3.409900   2.152836   2.756628
    21  H    2.546731   2.911967   2.745293   2.127894   3.446673
    22  H    5.371077   4.664481   3.503513   3.248150   2.796492
    23  H    6.459421   6.230308   5.860167   5.776767   6.283414
    24  H    4.483554   4.644055   4.489998   4.166478   5.114142
    25  H    3.098868   2.143581   2.731065   4.109043   4.998253
    26  H    3.151878   2.145884   2.661008   4.048039   4.753135
    27  H    2.762909   2.750268   3.998175   5.065517   6.222341
    28  H    2.688517   2.738042   4.035363   5.102317   6.400186
    29  H    4.725109   4.144660   5.067392   6.436507   7.285140
    30  H    4.833829   4.610079   5.782292   7.050365   8.136577
    31  H    4.684475   4.138153   5.097071   6.465451   7.431078
                    6          7          8          9         10
     6  O    0.000000
     7  O    2.219124   0.000000
     8  C    3.075167   3.407290   0.000000
     9  C    3.833628   3.610981   1.501750   0.000000
    10  C    4.017668   3.301964   2.650905   1.364538   0.000000
    11  N    5.355705   4.591243   3.753408   2.265962   1.382087
    12  C    5.868133   5.385041   3.639271   2.215806   2.138624
    13  N    5.147926   4.967294   2.504100   1.384009   2.171420
    14  C    6.014419   4.791179   4.520549   4.838574   5.279071
    15  C    7.265993   6.246642   5.547879   5.964440   6.570089
    16  N    8.478788   7.201800   6.865278   7.104456   7.534833
    17  H    3.767247   2.215103   3.166779   3.400261   3.478730
    18  H    2.635492   3.157074   2.116689   3.468964   4.298880
    19  H    0.962156   3.007776   2.821163   3.853287   4.333883
    20  H    2.779667   3.786353   1.094864   2.134182   3.160309
    21  H    3.996138   4.317517   1.088884   2.113114   3.422515
    22  H    3.556699   2.523914   3.091567   2.191947   1.076377
    23  H    6.920069   6.448872   4.596243   3.242374   3.189135
    24  H    5.662276   5.692752   2.767900   2.131941   3.147819
    25  H    6.294068   4.862309   4.608502   4.575138   4.839411
    26  H    5.991152   4.581926   5.053724   5.410367   5.680519
    27  H    7.260919   6.457577   5.778119   6.437635   7.139645
    28  H    7.500052   6.650173   5.382164   5.746354   6.485146
    29  H    8.506560   7.115764   7.240535   7.515636   7.840317
    30  H    9.313413   8.145976   7.601035   7.895852   8.411523
    31  H    8.701754   7.283789   6.948584   6.969967   7.287826
                   11         12         13         14         15
    11  N    0.000000
    12  C    1.312064   0.000000
    13  N    2.207964   1.357832   0.000000
    14  C    6.037741   6.075053   5.411140   0.000000
    15  C    7.226948   7.061170   6.322310   1.521776   0.000000
    16  N    8.060081   7.961007   7.402798   2.494094   1.486798
    17  H    4.584400   5.053501   4.496573   2.593492   4.079750
    18  H    5.575661   5.650116   4.557437   4.085370   5.034052
    19  H    5.643225   5.952158   5.061254   6.120151   7.239853
    20  H    4.230336   4.109614   3.002985   5.541760   6.529037
    21  H    4.314446   3.900627   2.598995   4.294566   5.064024
    22  H    2.149425   3.161268   3.224873   5.393868   6.806128
    23  H    2.131411   1.075914   2.136252   6.798347   7.657065
    24  H    3.173961   2.119581   1.006816   5.599879   6.301225
    25  H    5.400303   5.464996   5.008948   1.095964   2.154585
    26  H    6.531728   6.757423   6.160446   1.095135   2.156834
    27  H    7.928999   7.763490   6.896258   2.142259   1.089421
    28  H    7.023746   6.666772   5.885605   2.140056   1.089008
    29  H    8.446481   8.490059   7.962293   2.728130   2.086247
    30  H    8.903363   8.705601   8.104740   3.390848   2.093014
    31  H    7.657591   7.563737   7.159328   2.728344   2.085390
                   16         17         18         19         20
    16  N    0.000000
    17  H    5.014393   0.000000
    18  H    6.403987   2.853600   0.000000
    19  H    8.548194   4.148699   2.293278   0.000000
    20  H    7.886809   4.050857   2.421375   2.303158   0.000000
    21  H    6.442234   3.605431   2.357113   3.594896   1.746561
    22  H    7.717294   3.211071   4.304603   4.092198   3.528188
    23  H    8.475373   6.023769   6.628427   6.968219   5.026187
    24  H    7.437419   5.048249   4.732342   5.417778   3.181435
    25  H    2.730960   2.683952   4.632385   6.480320   5.688825
    26  H    2.740446   2.519442   4.310636   6.211605   6.021519
    27  H    2.120610   4.425009   4.899629   7.159673   6.661607
    28  H    2.121107   4.513327   5.170703   7.380189   6.350491
    29  H    1.019918   5.016058   6.576879   8.651446   8.246660
    30  H    1.020919   5.959620   7.107437   9.316736   8.596214
    31  H    1.019943   5.092404   6.770504   8.825764   8.013393
                   21         22         23         24         25
    21  H    0.000000
    22  H    4.016374   0.000000
    23  H    4.713426   4.174626   0.000000
    24  H    2.478333   4.176224   2.537334   0.000000
    25  H    4.452783   5.010894   6.115824   5.284649   0.000000
    26  H    5.001484   5.588771   7.545345   6.457072   1.758943
    27  H    5.262769   7.324898   8.415243   6.822930   3.050166
    28  H    4.733270   6.888224   7.161112   5.720869   2.494988
    29  H    6.934045   7.885702   9.074288   8.088570   3.054782
    30  H    7.073671   8.650652   9.158679   8.038942   3.673629
    31  H    6.565510   7.509040   7.998627   7.240226   2.539321
                   26         27         28         29         30
    26  H    0.000000
    27  H    2.494989   0.000000
    28  H    3.049697   1.749478   0.000000
    29  H    2.549784   2.445822   2.976780   0.000000
    30  H    3.681257   2.435777   2.438086   1.643521   0.000000
    31  H    3.068034   2.975934   2.443635   1.647357   1.643545
                   31
    31  H    0.000000
 Symmetry turned off by external request.
 Stoichiometry    C9H15N4O3(1+)
 Framework group  C1[X(C9H15N4O3)]
 Deg. of freedom    87
 Full point group                 C1      NOp   1
 Rotational constants (GHZ):      0.6292239      0.3107285      0.2460042
 Standard basis: 6-31G(d) (6D, 7F)
   270 basis functions,   508 primitive gaussians,   270 cartesian basis functions
    60 alpha electrons       60 beta electrons
       nuclear repulsion energy      1133.0540732988 Hartrees.
 NAtoms=   31 NActive=   31 NUniq=   31 SFac= 1.00D+00 NAtFMM=   60 NAOKFM=F Big=F
 Integral buffers will be    131072 words long.
 Raffenetti 2 integral format.
 Two-electron integral symmetry is turned off.
 Nuclear repulsion after empirical dispersion term =     1132.9986854905 Hartrees.
 One-electron integrals computed using PRISM.
 NBasis=   270 RedAO= T EigKep=  1.19D-03  NBF=   270
 NBsUse=   270 1.00D-06 EigRej= -1.00D+00 NBFU=   270
 ExpMin= 1.61D-01 ExpMax= 5.48D+03 ExpMxC= 8.25D+02 IAcc=3 IRadAn=         5 AccDes= 0.00D+00
 Harris functional with IExCor=  402 and IRadAn=       5 diagonalized for initial guess.
 HarFok:  IExCor=  402 AccDes= 0.00D+00 IRadAn=         5 IDoV= 1 UseB2=F ITyADJ=14
 ICtDFT=  3500011 ScaDFX=  1.000000  1.000000  1.000000  1.000000
 FoFCou: FMM=F IPFlag=           0 FMFlag=      100000 FMFlg1=           0
         NFxFlg=           0 DoJE=T BraDBF=F KetDBF=T FulRan=T
         wScrn=  0.000000 ICntrl=     500 IOpCl=  0 I1Cent=   200000004 NGrid=           0
         NMat0=    1 NMatS0=      1 NMatT0=    0 NMatD0=    1 NMtDS0=    0 NMtDT0=    0
 Symmetry not used in FoFCou.
 Requested convergence on RMS density matrix=1.00D-08 within 128 cycles.
 Requested convergence on MAX density matrix=1.00D-06.
 Requested convergence on             energy=1.00D-06.
 No special actions if energy rises.
 Integral accuracy reduced to 1.0D-05 until final iterations.
 Initial convergence to 1.0D-05 achieved.  Increase integral accuracy.
 SCF Done:  E(RB3LYP) =  -796.484783064     A.U. after   15 cycles
            NFock= 15  Conv=0.56D-08     -V/T= 2.0090
 DoSCS=F DFT=T ScalE2(SS,OS)=  1.000000  1.000000
 Range of M.O.s used for correlation:     1   270
 NBasis=   270 NAE=    60 NBE=    60 NFC=     0 NFV=     0
 NROrb=    270 NOA=    60 NOB=    60 NVA=   210 NVB=   210
 Symmetrizing basis deriv contribution to polar:
 IMax=3 JMax=2 DiffMx= 0.00D+00
 G2DrvN: will do    32 centers at a time, making    1 passes.
 Calling FoFCou, ICntrl=  3107 FMM=F I1Cent=   0 AccDes= 0.00D+00.
 End of G2Drv F.D. properties file   721 does not exist.
 End of G2Drv F.D. properties file   722 does not exist.
 End of G2Drv F.D. properties file   788 does not exist.
          IDoAtm=1111111111111111111111111111111
          Differentiating once with respect to nuclear coordinates.
          There are    96 degrees of freedom in the 1st order CPHF.  IDoFFX=6 NUNeed=     0.
     90 vectors produced by pass  0 Test12= 1.31D-14 1.04D-09 XBig12= 1.63D-01 1.08D-01.
 AX will form    90 AO Fock derivatives at one time.
     90 vectors produced by pass  1 Test12= 1.31D-14 1.04D-09 XBig12= 1.07D-02 2.39D-02.
     90 vectors produced by pass  2 Test12= 1.31D-14 1.04D-09 XBig12= 1.13D-04 2.12D-03.
     90 vectors produced by pass  3 Test12= 1.31D-14 1.04D-09 XBig12= 4.84D-07 8.60D-05.
     90 vectors produced by pass  4 Test12= 1.31D-14 1.04D-09 XBig12= 6.23D-10 3.38D-06.
     70 vectors produced by pass  5 Test12= 1.31D-14 1.04D-09 XBig12= 4.69D-13 5.90D-08.
     11 vectors produced by pass  6 Test12= 1.31D-14 1.04D-09 XBig12= 3.64D-16 2.53D-09.
 InvSVY:  IOpt=1 It=  1 EMax= 7.22D-16
 Solved reduced A of dimension   531 with    96 vectors.
 End of Minotr F.D. properties file   721 does not exist.
 End of Minotr F.D. properties file   722 does not exist.
 End of Minotr F.D. properties file   788 does not exist.

 **********************************************************************

            Population analysis using the SCF density.

 **********************************************************************

 Alpha  occ. eigenvalues --  -19.29978 -19.25306 -19.24455 -14.67658 -14.48717
 Alpha  occ. eigenvalues --  -14.46871 -14.38261 -10.43641 -10.43268 -10.42776
 Alpha  occ. eigenvalues --  -10.37679 -10.35980 -10.31188 -10.30978 -10.30020
 Alpha  occ. eigenvalues --  -10.26870  -1.22435  -1.21127  -1.17432  -1.13181
 Alpha  occ. eigenvalues --   -1.09195  -1.05453  -0.97415  -0.94547  -0.90894
 Alpha  occ. eigenvalues --   -0.85937  -0.82781  -0.80646  -0.79852  -0.77154
 Alpha  occ. eigenvalues --   -0.73065  -0.70950  -0.70422  -0.69211  -0.67693
 Alpha  occ. eigenvalues --   -0.66513  -0.65084  -0.62755  -0.61026  -0.59339
 Alpha  occ. eigenvalues --   -0.58132  -0.56649  -0.56343  -0.54656  -0.54123
 Alpha  occ. eigenvalues --   -0.52902  -0.52861  -0.51066  -0.49844  -0.48879
 Alpha  occ. eigenvalues --   -0.48530  -0.47990  -0.47613  -0.42069  -0.39674
 Alpha  occ. eigenvalues --   -0.38612  -0.37973  -0.35331  -0.33640  -0.30349
 Alpha virt. eigenvalues --   -0.17289  -0.12226  -0.10810  -0.10300  -0.09634
 Alpha virt. eigenvalues --   -0.07013  -0.05828  -0.03559  -0.03292  -0.02498
 Alpha virt. eigenvalues --   -0.02052  -0.00655  -0.00197   0.01071   0.02146
 Alpha virt. eigenvalues --    0.02796   0.03585   0.05779   0.06170   0.07554
 Alpha virt. eigenvalues --    0.08577   0.10042   0.11719   0.12319   0.13350
 Alpha virt. eigenvalues --    0.15330   0.17256   0.18838   0.20735   0.23241
 Alpha virt. eigenvalues --    0.24439   0.27854   0.28262   0.31639   0.33898
 Alpha virt. eigenvalues --    0.34339   0.34976   0.36801   0.38893   0.39302
 Alpha virt. eigenvalues --    0.40629   0.42077   0.42912   0.46031   0.47741
 Alpha virt. eigenvalues --    0.47932   0.49335   0.49737   0.49905   0.50216
 Alpha virt. eigenvalues --    0.51788   0.53557   0.54390   0.55465   0.56849
 Alpha virt. eigenvalues --    0.57259   0.58401   0.59374   0.60258   0.60885
 Alpha virt. eigenvalues --    0.61475   0.61525   0.63993   0.64493   0.65641
 Alpha virt. eigenvalues --    0.65869   0.68382   0.68631   0.69640   0.71167
 Alpha virt. eigenvalues --    0.71485   0.73086   0.74136   0.74788   0.75116
 Alpha virt. eigenvalues --    0.75385   0.76267   0.76742   0.77574   0.78120
 Alpha virt. eigenvalues --    0.78337   0.79758   0.79997   0.82234   0.83637
 Alpha virt. eigenvalues --    0.84545   0.85859   0.86418   0.89067   0.89654
 Alpha virt. eigenvalues --    0.92768   0.94775   0.96603   0.98613   0.99247
 Alpha virt. eigenvalues --    1.02268   1.04237   1.06247   1.11005   1.12117
 Alpha virt. eigenvalues --    1.14821   1.16882   1.17584   1.21021   1.22595
 Alpha virt. eigenvalues --    1.25163   1.27436   1.28383   1.28861   1.29763
 Alpha virt. eigenvalues --    1.30857   1.31632   1.33774   1.36589   1.41014
 Alpha virt. eigenvalues --    1.42345   1.44077   1.44465   1.48832   1.49356
 Alpha virt. eigenvalues --    1.51294   1.53941   1.54561   1.60857   1.63080
 Alpha virt. eigenvalues --    1.64063   1.65442   1.66418   1.67327   1.68266
 Alpha virt. eigenvalues --    1.69319   1.70176   1.71152   1.72350   1.74250
 Alpha virt. eigenvalues --    1.74282   1.76020   1.76467   1.77309   1.80621
 Alpha virt. eigenvalues --    1.82329   1.82941   1.84841   1.86097   1.87871
 Alpha virt. eigenvalues --    1.89588   1.94219   1.95295   1.98816   2.00062
 Alpha virt. eigenvalues --    2.02180   2.02647   2.04902   2.06919   2.10114
 Alpha virt. eigenvalues --    2.11130   2.13313   2.14616   2.15951   2.16659
 Alpha virt. eigenvalues --    2.17782   2.19466   2.21621   2.26726   2.28038
 Alpha virt. eigenvalues --    2.30073   2.30366   2.33196   2.33883   2.35177
 Alpha virt. eigenvalues --    2.37343   2.40343   2.41696   2.46431   2.49044
 Alpha virt. eigenvalues --    2.50055   2.51647   2.52331   2.56226   2.57921
 Alpha virt. eigenvalues --    2.59771   2.62320   2.65895   2.71003   2.74073
 Alpha virt. eigenvalues --    2.78713   2.81601   2.87196   2.90202   2.92624
 Alpha virt. eigenvalues --    2.96836   2.98885   3.05971   3.09597   3.53301
 Alpha virt. eigenvalues --    3.79491   3.84366   3.88152   3.92742   3.95423
 Alpha virt. eigenvalues --    4.01213   4.05740   4.13576   4.20923   4.21144
 Alpha virt. eigenvalues --    4.23650   4.31997   4.37844   4.47422   4.54180
          Condensed to atoms (all electrons):
               1          2          3          4          5          6
     1  O    8.092976   0.567762  -0.097992   0.006984   0.000504   0.000000
     2  C    0.567762   4.276832   0.313513  -0.024789   0.004679  -0.000032
     3  N   -0.097992   0.313513   7.144013   0.220488  -0.024691   0.002826
     4  C    0.006984  -0.024789   0.220488   5.212054   0.283022  -0.096537
     5  C    0.000504   0.004679  -0.024691   0.283022   4.361551   0.290187
     6  O    0.000000  -0.000032   0.002826  -0.096537   0.290187   8.185141
     7  O   -0.000005   0.000916  -0.009373  -0.088024   0.550385  -0.072514
     8  C   -0.007320  -0.004449  -0.051424   0.317813  -0.033520   0.002303
     9  C   -0.000081   0.001433  -0.001789  -0.033797  -0.006052  -0.001060
    10  C    0.000001   0.000207   0.000514  -0.003175   0.003290   0.000178
    11  N    0.000000  -0.000002  -0.000025   0.000042  -0.000017   0.000000
    12  C   -0.000001  -0.000006   0.000044  -0.000065  -0.000003   0.000000
    13  N   -0.000008   0.000034  -0.000214   0.001958   0.000034  -0.000002
    14  C   -0.096034   0.283940  -0.129994   0.007071  -0.000084   0.000000
    15  C    0.010008  -0.020133   0.004335  -0.000137   0.000000   0.000000
    16  N    0.000353   0.002211  -0.000012   0.000000   0.000000   0.000000
    17  H    0.002663  -0.018056   0.289615  -0.046548  -0.003398   0.000825
    18  H    0.008227  -0.001424  -0.049565   0.366443  -0.033977   0.001157
    19  H    0.000002  -0.000016   0.000198   0.007186  -0.021346   0.228988
    20  H    0.000075   0.000246   0.004933  -0.043195  -0.007365   0.004098
    21  H    0.011927   0.002823  -0.008490  -0.022091   0.004144   0.000016
    22  H    0.000000  -0.000009  -0.000072   0.001049   0.001496  -0.000507
    23  H    0.000000   0.000000   0.000000   0.000002   0.000000   0.000000
    24  H   -0.000012  -0.000001   0.000000  -0.000025  -0.000001   0.000000
    25  H    0.000580  -0.014635  -0.000013  -0.000014  -0.000007   0.000000
    26  H    0.001125  -0.015066   0.001377  -0.000105  -0.000014   0.000000
    27  H    0.004498   0.000763   0.000272  -0.000003   0.000000   0.000000
    28  H    0.007053   0.001224   0.000338  -0.000007   0.000000   0.000000
    29  H    0.000007  -0.000021   0.000000   0.000000   0.000000   0.000000
    30  H    0.000014   0.000035   0.000001   0.000000   0.000000   0.000000
    31  H    0.000009  -0.000006   0.000001   0.000000   0.000000   0.000000
               7          8          9         10         11         12
     1  O   -0.000005  -0.007320  -0.000081   0.000001   0.000000  -0.000001
     2  C    0.000916  -0.004449   0.001433   0.000207  -0.000002  -0.000006
     3  N   -0.009373  -0.051424  -0.001789   0.000514  -0.000025   0.000044
     4  C   -0.088024   0.317813  -0.033797  -0.003175   0.000042  -0.000065
     5  C    0.550385  -0.033520  -0.006052   0.003290  -0.000017  -0.000003
     6  O   -0.072514   0.002303  -0.001060   0.000178   0.000000   0.000000
     7  O    8.016272  -0.002729   0.000745  -0.003228   0.000063  -0.000003
     8  C   -0.002729   5.294511   0.313146  -0.068964   0.007197   0.006937
     9  C    0.000745   0.313146   4.761447   0.574174  -0.045034  -0.089743
    10  C   -0.003228  -0.068964   0.574174   4.982327   0.414932  -0.120570
    11  N    0.000063   0.007197  -0.045034   0.414932   6.657531   0.536469
    12  C   -0.000003   0.006937  -0.089743  -0.120570   0.536469   4.739484
    13  N    0.000002  -0.054030   0.343386  -0.074636  -0.081920   0.348583
    14  C   -0.000081  -0.000620  -0.000011  -0.000009   0.000000   0.000001
    15  C    0.000000   0.000009  -0.000001   0.000000   0.000000   0.000000
    16  N    0.000000   0.000000   0.000000   0.000000   0.000000   0.000000
    17  H    0.034438   0.003152   0.000797   0.000766   0.000005  -0.000004
    18  H    0.002110  -0.044254   0.005405   0.000136   0.000001   0.000001
    19  H    0.004537  -0.000515  -0.000020  -0.000023   0.000000   0.000000
    20  H    0.000017   0.350167  -0.029849  -0.000667  -0.000022   0.000226
    21  H   -0.000103   0.353500  -0.032018   0.003120  -0.000157   0.000007
    22  H    0.010251  -0.001508  -0.057506   0.376945  -0.037232   0.007152
    23  H    0.000000  -0.000125   0.003344   0.007251  -0.037413   0.383544
    24  H    0.000000  -0.002582  -0.029106   0.009265   0.005191  -0.022693
    25  H   -0.000001   0.000037   0.000072   0.000024  -0.000001  -0.000003
    26  H   -0.000003   0.000004   0.000000   0.000000   0.000000   0.000000
    27  H    0.000000   0.000001   0.000000   0.000000   0.000000   0.000000
    28  H    0.000000   0.000001   0.000000   0.000000   0.000000   0.000000
    29  H    0.000000   0.000000   0.000000   0.000000   0.000000   0.000000
    30  H    0.000000   0.000000   0.000000   0.000000   0.000000   0.000000
    31  H    0.000000   0.000000   0.000000   0.000000   0.000000   0.000000
              13         14         15         16         17         18
     1  O   -0.000008  -0.096034   0.010008   0.000353   0.002663   0.008227
     2  C    0.000034   0.283940  -0.020133   0.002211  -0.018056  -0.001424
     3  N   -0.000214  -0.129994   0.004335  -0.000012   0.289615  -0.049565
     4  C    0.001958   0.007071  -0.000137   0.000000  -0.046548   0.366443
     5  C    0.000034  -0.000084   0.000000   0.000000  -0.003398  -0.033977
     6  O   -0.000002   0.000000   0.000000   0.000000   0.000825   0.001157
     7  O    0.000002  -0.000081   0.000000   0.000000   0.034438   0.002110
     8  C   -0.054030  -0.000620   0.000009   0.000000   0.003152  -0.044254
     9  C    0.343386  -0.000011  -0.000001   0.000000   0.000797   0.005405
    10  C   -0.074636  -0.000009   0.000000   0.000000   0.000766   0.000136
    11  N   -0.081920   0.000000   0.000000   0.000000   0.000005   0.000001
    12  C    0.348583   0.000001   0.000000   0.000000  -0.000004   0.000001
    13  N    6.880012  -0.000001   0.000000   0.000000  -0.000014  -0.000103
    14  C   -0.000001   5.418984   0.320560  -0.042511   0.000582   0.000547
    15  C    0.000000   0.320560   5.120021   0.155825  -0.000052   0.000007
    16  N    0.000000  -0.042511   0.155825   6.755517  -0.000008   0.000000
    17  H   -0.000014   0.000582  -0.000052  -0.000008   0.368785   0.004250
    18  H   -0.000103   0.000547   0.000007   0.000000   0.004250   0.555971
    19  H    0.000000   0.000000   0.000000   0.000000  -0.000081   0.002000
    20  H   -0.001190   0.000005   0.000000   0.000000  -0.000049   0.001192
    21  H   -0.004000   0.000349  -0.000007   0.000000  -0.000349  -0.008654
    22  H    0.004522   0.000000   0.000000   0.000000   0.000266   0.000022
    23  H   -0.058255   0.000000   0.000000   0.000000   0.000000   0.000000
    24  H    0.300531  -0.000001   0.000000   0.000000  -0.000001   0.000000
    25  H    0.000000   0.358782  -0.037760  -0.001905   0.000483  -0.000010
    26  H    0.000000   0.355506  -0.037860  -0.001883   0.001130  -0.000019
    27  H    0.000000  -0.036741   0.384353  -0.031065  -0.000009  -0.000004
    28  H    0.000000  -0.038164   0.382504  -0.030669  -0.000008  -0.000001
    29  H    0.000000  -0.000934  -0.018330   0.301901   0.000000   0.000000
    30  H    0.000000   0.003515  -0.022271   0.309302   0.000000   0.000000
    31  H    0.000000  -0.000565  -0.019160   0.301926   0.000000   0.000000
              19         20         21         22         23         24
     1  O    0.000002   0.000075   0.011927   0.000000   0.000000  -0.000012
     2  C   -0.000016   0.000246   0.002823  -0.000009   0.000000  -0.000001
     3  N    0.000198   0.004933  -0.008490  -0.000072   0.000000   0.000000
     4  C    0.007186  -0.043195  -0.022091   0.001049   0.000002  -0.000025
     5  C   -0.021346  -0.007365   0.004144   0.001496   0.000000  -0.000001
     6  O    0.228988   0.004098   0.000016  -0.000507   0.000000   0.000000
     7  O    0.004537   0.000017  -0.000103   0.010251   0.000000   0.000000
     8  C   -0.000515   0.350167   0.353500  -0.001508  -0.000125  -0.002582
     9  C   -0.000020  -0.029849  -0.032018  -0.057506   0.003344  -0.029106
    10  C   -0.000023  -0.000667   0.003120   0.376945   0.007251   0.009265
    11  N    0.000000  -0.000022  -0.000157  -0.037232  -0.037413   0.005191
    12  C    0.000000   0.000226   0.000007   0.007152   0.383544  -0.022693
    13  N    0.000000  -0.001190  -0.004000   0.004522  -0.058255   0.300531
    14  C    0.000000   0.000005   0.000349   0.000000   0.000000  -0.000001
    15  C    0.000000   0.000000  -0.000007   0.000000   0.000000   0.000000
    16  N    0.000000   0.000000   0.000000   0.000000   0.000000   0.000000
    17  H   -0.000081  -0.000049  -0.000349   0.000266   0.000000  -0.000001
    18  H    0.002000   0.001192  -0.008654   0.000022   0.000000   0.000000
    19  H    0.347855   0.005541  -0.000193  -0.000003   0.000000   0.000000
    20  H    0.005541   0.577054  -0.030876   0.000089   0.000004   0.000037
    21  H   -0.000193  -0.030876   0.540454  -0.000022  -0.000011   0.003549
    22  H   -0.000003   0.000089  -0.000022   0.529660  -0.000139  -0.000085
    23  H    0.000000   0.000004  -0.000011  -0.000139   0.531631   0.000471
    24  H    0.000000   0.000037   0.003549  -0.000085   0.000471   0.402288
    25  H    0.000000   0.000000  -0.000026   0.000000   0.000000   0.000000
    26  H    0.000000   0.000000  -0.000003   0.000000   0.000000   0.000000
    27  H    0.000000   0.000000  -0.000001   0.000000   0.000000   0.000000
    28  H    0.000000   0.000000  -0.000003   0.000000   0.000000   0.000000
    29  H    0.000000   0.000000   0.000000   0.000000   0.000000   0.000000
    30  H    0.000000   0.000000   0.000000   0.000000   0.000000   0.000000
    31  H    0.000000   0.000000   0.000000   0.000000   0.000000   0.000000
              25         26         27         28         29         30
     1  O    0.000580   0.001125   0.004498   0.007053   0.000007   0.000014
     2  C   -0.014635  -0.015066   0.000763   0.001224  -0.000021   0.000035
     3  N   -0.000013   0.001377   0.000272   0.000338   0.000000   0.000001
     4  C   -0.000014  -0.000105  -0.000003  -0.000007   0.000000   0.000000
     5  C   -0.000007  -0.000014   0.000000   0.000000   0.000000   0.000000
     6  O    0.000000   0.000000   0.000000   0.000000   0.000000   0.000000
     7  O   -0.000001  -0.000003   0.000000   0.000000   0.000000   0.000000
     8  C    0.000037   0.000004   0.000001   0.000001   0.000000   0.000000
     9  C    0.000072   0.000000   0.000000   0.000000   0.000000   0.000000
    10  C    0.000024   0.000000   0.000000   0.000000   0.000000   0.000000
    11  N   -0.000001   0.000000   0.000000   0.000000   0.000000   0.000000
    12  C   -0.000003   0.000000   0.000000   0.000000   0.000000   0.000000
    13  N    0.000000   0.000000   0.000000   0.000000   0.000000   0.000000
    14  C    0.358782   0.355506  -0.036741  -0.038164  -0.000934   0.003515
    15  C   -0.037760  -0.037860   0.384353   0.382504  -0.018330  -0.022271
    16  N   -0.001905  -0.001883  -0.031065  -0.030669   0.301901   0.309302
    17  H    0.000483   0.001130  -0.000009  -0.000008   0.000000   0.000000
    18  H   -0.000010  -0.000019  -0.000004  -0.000001   0.000000   0.000000
    19  H    0.000000   0.000000   0.000000   0.000000   0.000000   0.000000
    20  H    0.000000   0.000000   0.000000   0.000000   0.000000   0.000000
    21  H   -0.000026  -0.000003  -0.000001  -0.000003   0.000000   0.000000
    22  H    0.000000   0.000000   0.000000   0.000000   0.000000   0.000000
    23  H    0.000000   0.000000   0.000000   0.000000   0.000000   0.000000
    24  H    0.000000   0.000000   0.000000   0.000000   0.000000   0.000000
    25  H    0.513414  -0.029563   0.004283  -0.004207  -0.000345  -0.000026
    26  H   -0.029563   0.524729  -0.004334   0.004414   0.004447  -0.000029
    27  H    0.004283  -0.004334   0.449799  -0.022616  -0.002842  -0.001689
    28  H   -0.004207   0.004414  -0.022616   0.447548   0.003456  -0.001571
    29  H   -0.000345   0.004447  -0.002842   0.003456   0.307881  -0.013464
    30  H   -0.000026  -0.000029  -0.001689  -0.001571  -0.013464   0.297928
    31  H    0.004613  -0.000317   0.003518  -0.002807  -0.014904  -0.013306
              31
     1  O    0.000009
     2  C   -0.000006
     3  N    0.000001
     4  C    0.000000
     5  C    0.000000
     6  O    0.000000
     7  O    0.000000
     8  C    0.000000
     9  C    0.000000
    10  C    0.000000
    11  N    0.000000
    12  C    0.000000
    13  N    0.000000
    14  C   -0.000565
    15  C   -0.019160
    16  N    0.301926
    17  H    0.000000
    18  H    0.000000
    19  H    0.000000
    20  H    0.000000
    21  H    0.000000
    22  H    0.000000
    23  H    0.000000
    24  H    0.000000
    25  H    0.004613
    26  H   -0.000317
    27  H    0.003518
    28  H   -0.002807
    29  H   -0.014904
    30  H   -0.013306
    31  H    0.307754
 Mulliken charges:
               1
     1  O   -0.513315
     2  C    0.642029
     3  N   -0.608815
     4  C   -0.065605
     5  C    0.631181
     6  O   -0.545068
     7  O   -0.443673
     8  C   -0.376739
     9  C    0.322118
    10  C   -0.101858
    11  N   -0.419607
    12  C    0.210642
    13  N   -0.604691
    14  C   -0.404091
    15  C   -0.221910
    16  N   -0.718979
    17  H    0.360820
    18  H    0.190542
    19  H    0.425891
    20  H    0.169529
    21  H    0.187115
    22  H    0.165631
    23  H    0.169697
    24  H    0.333176
    25  H    0.206227
    26  H    0.196464
    27  H    0.251819
    28  H    0.253516
    29  H    0.433149
    30  H    0.441560
    31  H    0.433243
 Sum of Mulliken charges =   1.00000
 Mulliken charges with hydrogens summed into heavy atoms:
               1
     1  O   -0.513315
     2  C    0.642029
     3  N   -0.247995
     4  C    0.124937
     5  C    0.631181
     6  O   -0.119177
     7  O   -0.443673
     8  C   -0.020095
     9  C    0.322118
    10  C    0.063774
    11  N   -0.419607
    12  C    0.380339
    13  N   -0.271515
    14  C   -0.001401
    15  C    0.283425
    16  N    0.588974
 APT charges:
               1
     1  O   -0.221436
     2  C   -0.007849
     3  N   -0.579133
     4  C   -0.575831
     5  C   -0.154921
     6  O   -0.126696
     7  O   -0.078996
     8  C   -0.951969
     9  C   -0.297723
    10  C   -0.305291
    11  N   -0.047658
    12  C   -0.411867
    13  N   -0.789304
    14  C   -0.611235
    15  C   -0.467025
    16  N   -1.833660
    17  H    0.520148
    18  H    0.471105
    19  H    0.600134
    20  H    0.609836
    21  H    0.295646
    22  H    0.421728
    23  H    0.913894
    24  H    0.600161
    25  H    0.291457
    26  H    0.470318
    27  H    0.504641
    28  H    0.286834
    29  H    0.756305
    30  H    1.216838
    31  H    0.501551
 Sum of APT charges =   1.00000
 APT charges with hydrogens summed into heavy atoms:
               1
     1  O   -0.221436
     2  C   -0.007849
     3  N   -0.058985
     4  C   -0.104726
     5  C   -0.154921
     6  O    0.473438
     7  O   -0.078996
     8  C   -0.046487
     9  C   -0.297723
    10  C    0.116437
    11  N   -0.047658
    12  C    0.502027
    13  N   -0.189144
    14  C    0.150540
    15  C    0.324450
    16  N    0.641033
 Electronic spatial extent (au):  <R**2>=           4668.5952
 Charge=              1.0000 electrons
 Dipole moment (field-independent basis, Debye):
    X=             19.5334    Y=              4.2896    Z=              1.0645  Tot=             20.0271
 Quadrupole moment (field-independent basis, Debye-Ang):
   XX=              2.6796   YY=            -82.8791   ZZ=            -90.7413
   XY=              2.7389   XZ=            -33.0721   YZ=             -7.5555
 Traceless Quadrupole moment (field-independent basis, Debye-Ang):
   XX=             59.6598   YY=            -25.8988   ZZ=            -33.7610
   XY=              2.7389   XZ=            -33.0721   YZ=             -7.5555
 Octapole moment (field-independent basis, Debye-Ang**2):
  XXX=            657.7173  YYY=            117.9035  ZZZ=             38.1226  XYY=             64.2768
  XXY=             90.3150  XXZ=            -15.2841  XZZ=             74.3360  YZZ=             -1.4562
  YYZ=              7.4373  XYZ=              0.0066
 Hexadecapole moment (field-independent basis, Debye-Ang**3):
 XXXX=          -1470.5455 YYYY=          -1315.9767 ZZZZ=           -837.3401 XXXY=            170.6336
 XXXZ=           -603.6034 YYYX=           -246.4364 YYYZ=            152.0593 ZZZX=           -324.2928
 ZZZY=            169.5396 XXYY=           -702.3119 XXZZ=           -695.6172 YYZZ=           -307.6480
 XXYZ=             12.7420 YYXZ=            -65.2666 ZZXY=             25.8545
 N-N= 1.132998685491D+03 E-N=-4.108093297974D+03  KE= 7.894147557983D+02
  Exact polarizability:   0.000   0.000   0.000   0.000   0.000   0.000
 Approx polarizability: 144.992   7.073 178.846   9.154  17.490 202.860
 Calling FoFJK, ICntrl=    100147 FMM=F ISym2X=0 I1Cent= 0 IOpClX= 0 NMat=1 NMatS=1 NMatT=0.
 -------------------------------------------------------------------
 Center     Atomic                   Forces (Hartrees/Bohr)
 Number     Number              X              Y              Z
 -------------------------------------------------------------------
      1        8           0.013041744    0.007220917   -0.000431032
      2        6          -0.022532377   -0.008542983    0.007329914
      3        7           0.013647270    0.005370871   -0.000768983
      4        6          -0.000302629    0.002837584   -0.000381623
      5        6          -0.005586372   -0.001892366    0.008411631
      6        8           0.001440090   -0.003069854   -0.009063459
      7        8           0.005160957   -0.003720083   -0.009612412
      8        6          -0.006634026    0.007583879   -0.005386796
      9        6           0.005215818   -0.000275749    0.009800897
     10        6          -0.002352768   -0.004666416   -0.009633844
     11        7           0.000836244   -0.003974633   -0.000798516
     12        6          -0.002157753    0.000502232   -0.004471440
     13        7           0.004341442    0.001189292    0.006755023
     14        6           0.008451954   -0.002076984   -0.013226582
     15        6          -0.025959327   -0.001402697    0.021251512
     16        7           0.003378909    0.001121947   -0.000757287
     17        1          -0.003481543   -0.002729376   -0.004816562
     18        1           0.002325925   -0.002075282    0.002183778
     19        1          -0.001607688    0.004475168    0.009027636
     20        1          -0.001468157   -0.001729544    0.003641781
     21        1           0.002740811    0.000961564    0.003905078
     22        1          -0.000700953   -0.002492959   -0.002199817
     23        1          -0.001212381    0.003734778   -0.001797570
     24        1          -0.000482722    0.002893577    0.002047128
     25        1          -0.002453988   -0.000070094   -0.001736119
     26        1          -0.000694591   -0.002624438   -0.000836292
     27        1           0.006658905    0.000257297   -0.000083584
     28        1           0.004694058    0.003900713   -0.001579120
     29        1           0.002291167   -0.006200256   -0.002734764
     30        1           0.004731571    0.003275077    0.002703872
     31        1          -0.001329591    0.002218820   -0.006742447
 -------------------------------------------------------------------
 Cartesian Forces:  Max     0.025959327 RMS     0.006373410
 FormGI is forming the generalized inverse of G from B-inverse, IUseBI=4.

 GradGradGradGradGradGradGradGradGradGradGradGradGradGradGradGradGradGrad
 Berny optimization.
 Internal  Forces:  Max     0.018860522 RMS     0.003973553
 Search for a local minimum.
 Step number   1 out of a maximum of  167
 All quantities printed in internal units (Hartrees-Bohrs-Radians)
 Mixed Optimization -- RFO/linear search
 Second derivative matrix not updated -- analytic derivatives used.
 ITU=  0
     Eigenvalues ---   -0.00088  -0.00025   0.00021   0.00159   0.00208
     Eigenvalues ---    0.00340   0.00470   0.00477   0.00826   0.00866
     Eigenvalues ---    0.01100   0.01968   0.02053   0.02578   0.03211
     Eigenvalues ---    0.03758   0.03892   0.03921   0.04248   0.04326
     Eigenvalues ---    0.04370   0.04764   0.05151   0.05189   0.05264
     Eigenvalues ---    0.05301   0.05360   0.06039   0.06185   0.07547
     Eigenvalues ---    0.08434   0.08870   0.10585   0.10812   0.11320
     Eigenvalues ---    0.11798   0.12078   0.12387   0.13525   0.13566
     Eigenvalues ---    0.14052   0.15956   0.16141   0.16363   0.16904
     Eigenvalues ---    0.17356   0.19233   0.19438   0.20488   0.22613
     Eigenvalues ---    0.23328   0.23517   0.24212   0.24733   0.24862
     Eigenvalues ---    0.25716   0.29874   0.30266   0.32061   0.33356
     Eigenvalues ---    0.33506   0.33754   0.33951   0.34338   0.34785
     Eigenvalues ---    0.35100   0.35377   0.35531   0.36118   0.36185
     Eigenvalues ---    0.38653   0.38740   0.39529   0.42899   0.44328
     Eigenvalues ---    0.44510   0.45054   0.45191   0.46248   0.47187
     Eigenvalues ---    0.47973   0.48483   0.49934   0.53818   0.60399
     Eigenvalues ---    0.83276   0.94162
 RFO step:  Lambda=-1.15658588D-02 EMin=-8.84599158D-04
 Linear search not attempted -- first point.
 Iteration  1 RMS(Cart)=  0.25387271 RMS(Int)=  0.02619361
 Iteration  2 RMS(Cart)=  0.07558970 RMS(Int)=  0.00204716
 Iteration  3 RMS(Cart)=  0.00298826 RMS(Int)=  0.00055449
 Iteration  4 RMS(Cart)=  0.00000713 RMS(Int)=  0.00055448
 Iteration  5 RMS(Cart)=  0.00000000 RMS(Int)=  0.00055448
 Variable       Old X    -DE/DX   Delta X   Delta X   Delta X     New X
                                 (Linear)    (Quad)   (Total)
    R1        2.31752   0.00289   0.00000   0.00500   0.00500   2.32252
    R2        2.56844  -0.00820   0.00000  -0.03651  -0.03651   2.53194
    R3        2.87474   0.00214   0.00000   0.02830   0.02830   2.90304
    R4        2.73282   0.00171   0.00000   0.00617   0.00617   2.73899
    R5        1.90644   0.00541   0.00000   0.01318   0.01318   1.91962
    R6        2.87726   0.00405   0.00000   0.02357   0.02357   2.90084
    R7        2.90647   0.00417   0.00000   0.01779   0.01779   2.92425
    R8        2.06516   0.00306   0.00000   0.00930   0.00930   2.07446
    R9        2.54442  -0.00039   0.00000  -0.01288  -0.01288   2.53153
   R10        2.26979   0.01101   0.00000   0.01417   0.01417   2.28396
   R11        1.81821   0.01007   0.00000   0.01864   0.01864   1.83685
   R12        2.83790  -0.00194   0.00000  -0.01092  -0.01092   2.82698
   R13        2.06899   0.00362   0.00000   0.01046   0.01046   2.07946
   R14        2.05769   0.00391   0.00000   0.01102   0.01102   2.06872
   R15        2.57860   0.01280   0.00000   0.02432   0.02435   2.60295
   R16        2.61540   0.00405   0.00000   0.00461   0.00466   2.62006
   R17        2.61177  -0.00092   0.00000  -0.00536  -0.00539   2.60638
   R18        2.03406   0.00296   0.00000   0.00696   0.00696   2.04102
   R19        2.47944   0.00445   0.00000   0.00440   0.00435   2.48379
   R20        2.56593   0.00880   0.00000   0.01850   0.01849   2.58442
   R21        2.03318   0.00430   0.00000   0.01023   0.01023   2.04341
   R22        1.90261   0.00334   0.00000   0.00682   0.00682   1.90943
   R23        2.87574   0.00183   0.00000  -0.00172  -0.00172   2.87402
   R24        2.07107   0.00218   0.00000   0.00142   0.00142   2.07249
   R25        2.06951   0.00245   0.00000   0.00712   0.00712   2.07663
   R26        2.80964   0.01180   0.00000   0.06007   0.06007   2.86971
   R27        2.05871   0.00172   0.00000   0.00145   0.00145   2.06016
   R28        2.05793   0.00189   0.00000   0.00188   0.00188   2.05981
   R29        1.92737   0.00705   0.00000   0.01383   0.01383   1.94120
   R30        1.92926   0.00635   0.00000   0.01219   0.01219   1.94145
   R31        1.92741   0.00711   0.00000   0.01396   0.01396   1.94137
    A1        2.11666   0.01886   0.00000   0.06530   0.06530   2.18196
    A2        2.15796  -0.01501   0.00000  -0.06283  -0.06283   2.09513
    A3        2.00856  -0.00385   0.00000  -0.00247  -0.00247   2.00609
    A4        2.11819   0.00560   0.00000   0.04153   0.03891   2.15710
    A5        2.12996   0.00028   0.00000   0.00838   0.00569   2.13565
    A6        2.03198  -0.00580   0.00000  -0.04005  -0.04263   1.98935
    A7        1.88025  -0.00481   0.00000  -0.03591  -0.03590   1.84435
    A8        1.97398   0.00006   0.00000  -0.00459  -0.00455   1.96943
    A9        1.89711   0.00179   0.00000   0.01867   0.01836   1.91548
   A10        1.95351   0.00326   0.00000   0.01834   0.01814   1.97165
   A11        1.90963  -0.00035   0.00000  -0.01430  -0.01442   1.89521
   A12        1.84817   0.00017   0.00000   0.01878   0.01872   1.86689
   A13        2.01764   0.00253   0.00000   0.01555   0.01552   2.03316
   A14        2.15246  -0.00459   0.00000  -0.01999  -0.02002   2.13244
   A15        2.11294   0.00207   0.00000   0.00467   0.00464   2.11757
   A16        1.93500   0.00288   0.00000   0.01359   0.01359   1.94859
   A17        2.03857  -0.00867   0.00000  -0.04609  -0.04604   1.99253
   A18        1.89424   0.00068   0.00000  -0.00359  -0.00312   1.89111
   A19        1.86669   0.00111   0.00000  -0.00676  -0.00672   1.85998
   A20        1.91212   0.00510   0.00000   0.03950   0.03922   1.95134
   A21        1.88936   0.00359   0.00000   0.01868   0.01799   1.90735
   A22        1.85392  -0.00137   0.00000   0.00096   0.00044   1.85436
   A23        2.36037  -0.00117   0.00000  -0.00705  -0.00735   2.35303
   A24        2.10033   0.00064   0.00000   0.00716   0.00687   2.10720
   A25        1.82166   0.00054   0.00000   0.00139   0.00129   1.82295
   A26        1.94037  -0.00131   0.00000  -0.00394  -0.00388   1.93649
   A27        2.22351   0.00235   0.00000   0.01092   0.01089   2.23439
   A28        2.11927  -0.00104   0.00000  -0.00696  -0.00699   2.11228
   A29        1.83356   0.00230   0.00000   0.00737   0.00734   1.84090
   A30        1.94725   0.00053   0.00000  -0.00104  -0.00104   1.94621
   A31        2.20100  -0.00065   0.00000  -0.00031  -0.00031   2.20068
   A32        2.13494   0.00012   0.00000   0.00135   0.00135   2.13629
   A33        1.88193  -0.00205   0.00000  -0.00379  -0.00376   1.87817
   A34        2.18936   0.00184   0.00000   0.00830   0.00821   2.19756
   A35        2.21189   0.00022   0.00000  -0.00443  -0.00452   2.20737
   A36        1.95872  -0.01597   0.00000  -0.08583  -0.08588   1.87284
   A37        1.90051   0.00351   0.00000   0.02329   0.02385   1.92436
   A38        1.90448   0.00442   0.00000   0.00383   0.00345   1.90794
   A39        1.91490   0.00585   0.00000   0.03198   0.03191   1.94681
   A40        1.91885   0.00540   0.00000   0.02096   0.01980   1.93865
   A41        1.86384  -0.00257   0.00000   0.01046   0.00964   1.87349
   A42        1.95453  -0.00413   0.00000  -0.02086  -0.02037   1.93415
   A43        1.90469   0.00487   0.00000   0.03684   0.03577   1.94046
   A44        1.90210   0.00454   0.00000   0.05118   0.05007   1.95217
   A45        1.91711  -0.00264   0.00000  -0.03483  -0.03461   1.88249
   A46        1.91823  -0.00241   0.00000  -0.04844  -0.04807   1.87016
   A47        1.86493   0.00008   0.00000   0.01913   0.01630   1.88123
   A48        1.94253   0.00089   0.00000   0.00120   0.00121   1.94374
   A49        1.95144  -0.00067   0.00000  -0.00377  -0.00377   1.94767
   A50        1.94124   0.00092   0.00000   0.00401   0.00401   1.94525
   A51        1.87242   0.00003   0.00000   0.00341   0.00341   1.87583
   A52        1.88008  -0.00129   0.00000  -0.00866  -0.00866   1.87143
   A53        1.87243   0.00003   0.00000   0.00367   0.00367   1.87610
    D1       -0.01618   0.00011   0.00000   0.05380   0.05471   0.03853
    D2       -3.07086  -0.00070   0.00000  -0.08428  -0.08525   3.12708
    D3        3.12299   0.00064   0.00000   0.05501   0.05598  -3.10422
    D4        0.06831  -0.00017   0.00000  -0.08307  -0.08398  -0.01567
    D5        0.08495   0.00029   0.00000  -0.25273  -0.25309  -0.16814
    D6       -2.03859   0.00092   0.00000  -0.25307  -0.25305  -2.29163
    D7        2.21624  -0.00040   0.00000  -0.28059  -0.28032   1.93592
    D8       -3.05415  -0.00031   0.00000  -0.25417  -0.25449   2.97454
    D9        1.10550   0.00032   0.00000  -0.25451  -0.25444   0.85106
   D10       -0.92286  -0.00100   0.00000  -0.28203  -0.28172  -1.20458
   D11       -2.85022   0.00069   0.00000  -0.13459  -0.13363  -2.98386
   D12        1.26462  -0.00001   0.00000  -0.12862  -0.12798   1.13664
   D13       -0.78264  -0.00143   0.00000  -0.16142  -0.16087  -0.94351
   D14        0.20911   0.00171   0.00000  -0.00186  -0.00234   0.20677
   D15       -1.95924   0.00102   0.00000   0.00411   0.00332  -1.95592
   D16        2.27669  -0.00041   0.00000  -0.02869  -0.02957   2.24712
   D17        2.89441   0.00102   0.00000   0.06000   0.06025   2.95466
   D18       -0.26562   0.00126   0.00000   0.07399   0.07418  -0.19144
   D19       -1.20813  -0.00015   0.00000   0.04083   0.04089  -1.16724
   D20        1.91503   0.00010   0.00000   0.05481   0.05482   1.96985
   D21        0.83488   0.00181   0.00000   0.06601   0.06578   0.90065
   D22       -2.32515   0.00206   0.00000   0.07999   0.07971  -2.24545
   D23        0.99105  -0.00323   0.00000  -0.12477  -0.12475   0.86630
   D24       -3.12106  -0.00230   0.00000  -0.10915  -0.10906   3.05306
   D25       -1.12758  -0.00300   0.00000  -0.11319  -0.11340  -1.24098
   D26       -1.13672   0.00058   0.00000  -0.08796  -0.08778  -1.22449
   D27        1.03436   0.00152   0.00000  -0.07234  -0.07208   0.96227
   D28        3.02783   0.00082   0.00000  -0.07638  -0.07642   2.95141
   D29        3.06684  -0.00090   0.00000  -0.09239  -0.09245   2.97439
   D30       -1.04528   0.00004   0.00000  -0.07678  -0.07675  -1.12203
   D31        0.94820  -0.00066   0.00000  -0.08082  -0.08109   0.86710
   D32       -0.05555   0.00038   0.00000   0.01970   0.01978  -0.03577
   D33        3.10403   0.00022   0.00000   0.00634   0.00626   3.11029
   D34        0.61609  -0.00061   0.00000  -0.17998  -0.18009   0.43600
   D35       -2.57660  -0.00016   0.00000  -0.13274  -0.13288  -2.70948
   D36       -1.54587   0.00079   0.00000  -0.17320  -0.17270  -1.71857
   D37        1.54462   0.00124   0.00000  -0.12596  -0.12548   1.41913
   D38        2.72278  -0.00227   0.00000  -0.20572  -0.20607   2.51671
   D39       -0.46991  -0.00182   0.00000  -0.15847  -0.15885  -0.62877
   D40        3.10171   0.00044   0.00000   0.04173   0.04151  -3.13997
   D41       -0.04850   0.00024   0.00000   0.04365   0.04353  -0.00497
   D42        0.00564   0.00002   0.00000  -0.00052  -0.00057   0.00507
   D43        3.13862  -0.00017   0.00000   0.00140   0.00145   3.14007
   D44       -3.10791  -0.00007   0.00000  -0.02928  -0.02950  -3.13741
   D45        0.03830  -0.00064   0.00000  -0.04710  -0.04735  -0.00905
   D46       -0.00345   0.00021   0.00000   0.00476   0.00479   0.00134
   D47       -3.14043  -0.00035   0.00000  -0.01306  -0.01306   3.12970
   D48       -0.00567  -0.00024   0.00000  -0.00399  -0.00399  -0.00966
   D49       -3.13924  -0.00008   0.00000  -0.00589  -0.00596   3.13799
   D50        0.00333   0.00038   0.00000   0.00715   0.00718   0.01052
   D51       -3.13623   0.00032   0.00000   0.00867   0.00863  -3.12760
   D52        0.00006  -0.00037   0.00000  -0.00772  -0.00774  -0.00768
   D53        3.13696   0.00021   0.00000   0.01044   0.01028  -3.13594
   D54        3.13971  -0.00032   0.00000  -0.00918  -0.00913   3.13058
   D55       -0.00657   0.00026   0.00000   0.00898   0.00889   0.00232
   D56       -3.13052   0.00029   0.00000  -0.11441  -0.11419   3.03848
   D57        1.02622   0.00299   0.00000  -0.08209  -0.08121   0.94501
   D58       -1.00444  -0.00234   0.00000  -0.15396  -0.15461  -1.15905
   D59       -1.01523  -0.00183   0.00000  -0.11983  -0.12011  -1.13534
   D60        3.14150   0.00087   0.00000  -0.08751  -0.08713   3.05437
   D61        1.11085  -0.00446   0.00000  -0.15938  -0.16053   0.95032
   D62        1.02957   0.00169   0.00000  -0.07585  -0.07558   0.95399
   D63       -1.09688   0.00438   0.00000  -0.04353  -0.04260  -1.13948
   D64       -3.12753  -0.00094   0.00000  -0.11541  -0.11600   3.03965
   D65       -1.04681   0.00010   0.00000   0.00315   0.00320  -1.04361
   D66       -3.14056  -0.00009   0.00000   0.00055   0.00060  -3.13996
   D67        1.04976  -0.00031   0.00000  -0.00431  -0.00426   1.04550
   D68        1.07250   0.00169   0.00000   0.01179   0.01166   1.08416
   D69       -1.02125   0.00150   0.00000   0.00919   0.00906  -1.01219
   D70       -3.11412   0.00128   0.00000   0.00433   0.00420  -3.10992
   D71        3.11957  -0.00122   0.00000  -0.01430  -0.01422   3.10535
   D72        1.02582  -0.00141   0.00000  -0.01690  -0.01682   1.00900
   D73       -1.06705  -0.00163   0.00000  -0.02176  -0.02168  -1.08873
         Item               Value     Threshold  Converged?
 Maximum Force            0.018861     0.000450     NO 
 RMS     Force            0.003974     0.000300     NO 
 Maximum Displacement     1.280333     0.001800     NO 
 RMS     Displacement     0.316246     0.001200     NO 
 Predicted change in Energy=-7.628437D-03
 GradGradGradGradGradGradGradGradGradGradGradGradGradGradGradGradGradGrad

                          Input orientation:                          
 ---------------------------------------------------------------------
 Center     Atomic      Atomic             Coordinates (Angstroms)
 Number     Number       Type             X           Y           Z
 ---------------------------------------------------------------------
      1          8           0        1.169610    0.329316    1.684189
      2          6           0        1.095866   -0.365577    0.673153
      3          7           0        0.061822   -1.157186    0.358049
      4          6           0       -1.141128   -1.262265    1.159713
      5          6           0       -1.937176   -2.430697    0.561825
      6          8           0       -2.987186   -2.863832    1.272091
      7          8           0       -1.642240   -2.936185   -0.495653
      8          6           0       -1.948589    0.056967    1.206967
      9          6           0       -2.200906    0.668889   -0.134606
     10          6           0       -2.276576    0.187054   -1.422784
     11          7           0       -2.537569    1.205319   -2.315706
     12          6           0       -2.633220    2.294931   -1.586903
     13          7           0       -2.432398    2.030112   -0.260285
     14          6           0        2.247683   -0.369098   -0.343353
     15          6           0        3.202363    0.747255    0.050823
     16          7           0        4.448052    0.723832   -0.817398
     17          1           0        0.037871   -1.706151   -0.496324
     18          1           0       -0.876156   -1.512894    2.195110
     19          1           0       -3.078665   -2.378318    2.109189
     20          1           0       -2.885109   -0.129417    1.753845
     21          1           0       -1.369839    0.755432    1.819831
     22          1           0       -2.153112   -0.831410   -1.760444
     23          1           0       -2.845526    3.289826   -1.953478
     24          1           0       -2.459274    2.699053    0.496519
     25          1           0        1.858497   -0.226418   -1.358716
     26          1           0        2.750535   -1.345909   -0.319540
     27          1           0        3.517101    0.647842    1.089847
     28          1           0        2.747161    1.730677   -0.066558
     29          1           0        4.949631   -0.168189   -0.728335
     30          1           0        5.102459    1.472818   -0.559992
     31          1           0        4.215968    0.844467   -1.810873
 ---------------------------------------------------------------------
                    Distance matrix (angstroms):
                    1          2          3          4          5
     1  O    0.000000
     2  C    1.229027   0.000000
     3  N    2.279370   1.339844   0.000000
     4  C    2.854420   2.458645   1.449412   0.000000
     5  C    4.304590   3.671030   2.378939   1.535056   0.000000
     6  O    5.257849   4.824036   3.611726   2.446544   1.339628
     7  O    4.829255   3.933365   2.607196   2.406940   1.208621
     8  C    3.166241   3.119649   2.497315   1.547449   2.569982
     9  C    3.844958   3.548422   2.949101   2.554945   3.187790
    10  C    4.642168   4.008955   3.232097   3.171602   3.302497
    11  N    5.523561   4.960126   4.414434   4.485260   4.675604
    12  C    5.387505   5.108056   4.791993   4.735387   5.237659
    13  N    4.432623   4.365693   4.094183   3.810974   4.562886
    14  C    2.400198   1.536222   2.427146   3.813266   4.752114
    15  C    2.640955   2.462320   3.685686   4.912609   6.064270
    16  N    4.142676   3.826970   4.915172   6.252398   7.254271
    17  H    3.190391   2.069824   1.015820   2.080753   2.354880
    18  H    2.799989   2.742547   2.093114   1.097757   2.153078
    19  H    5.055665   4.851807   3.797409   2.429224   1.923558
    20  H    4.081181   4.131807   3.418912   2.162824   2.759597
    21  H    2.578522   2.941298   2.800815   2.135220   3.472156
    22  H    4.924760   4.085983   3.082219   3.120427   2.827947
    23  H    6.174023   5.982953   5.794112   5.772214   6.314763
    24  H    4.493886   4.697039   4.609303   4.227219   5.156665
    25  H    3.169018   2.174733   2.653611   4.051322   4.791081
    26  H    3.052971   2.164352   2.779194   4.164160   4.891646
    27  H    2.442419   2.657636   3.966435   5.035125   6.285328
    28  H    2.741823   2.769156   3.966244   5.057690   6.297215
    29  H    4.511800   4.105439   5.103824   6.469858   7.362850
    30  H    4.670251   4.577458   5.759144   7.029967   8.127260
    31  H    4.664883   4.167688   5.095857   6.477744   7.363258
                    6          7          8          9         10
     6  O    0.000000
     7  O    2.222394   0.000000
     8  C    3.100643   3.457126   0.000000
     9  C    3.882930   3.665927   1.495971   0.000000
    10  C    4.132217   3.319122   2.653316   1.377423   0.000000
    11  N    5.443567   4.611535   3.751644   2.271189   1.379236
    12  C    5.908636   5.434836   3.644574   2.222629   2.144126
    13  N    5.158163   5.034267   2.506033   1.386475   2.184616
    14  C    6.019735   4.663114   4.493742   4.572848   4.684379
    15  C    7.269248   6.110364   5.324047   5.407018   5.701239
    16  N    8.515871   7.112728   6.742387   6.684150   6.773127
    17  H    3.690323   2.082248   3.155283   3.283866   3.130371
    18  H    2.670851   3.138924   2.142662   3.455823   4.235582
    19  H    0.972021   3.026505   2.832258   3.884655   4.438390
    20  H    2.778404   3.805642   1.100402   2.161405   3.249836
    21  H    4.001862   4.366200   1.094718   2.125555   3.414641
    22  H    3.744688   2.508139   3.104283   2.212811   1.080059
    23  H    6.949234   6.506639   4.609152   3.254710   3.198833
    24  H    5.641444   5.779953   2.783192   2.141644   3.166582
    25  H    6.112098   4.510307   4.599667   4.333448   4.156188
    26  H    6.144821   4.675090   5.136151   5.348867   5.370193
    27  H    7.393971   6.479032   5.498783   5.847677   6.331851
    28  H    7.468884   6.421103   5.145215   5.061165   5.427712
    29  H    8.617497   7.153230   7.168090   7.223807   7.268186
    30  H    9.359776   8.058188   7.405677   7.359782   7.539745
    31  H    8.668424   7.095190   6.908637   6.634528   6.537273
                   11         12         13         14         15
    11  N    0.000000
    12  C    1.314366   0.000000
    13  N    2.217228   1.367616   0.000000
    14  C    5.409955   5.697954   5.259873   0.000000
    15  C    6.225520   6.255515   5.787317   1.520866   0.000000
    16  N    7.160703   7.294169   7.025477   2.502166   1.518584
    17  H    4.291818   4.932824   4.485265   2.587350   4.041359
    18  H    5.522358   5.647161   4.582984   4.184547   5.132306
    19  H    5.719697   5.974845   5.046417   6.198541   7.311456
    20  H    4.296923   4.135397   2.987513   5.549886   6.381705
    21  H    4.320724   3.946141   2.660963   4.362385   4.902499
    22  H    2.145784   3.167748   3.242959   4.646383   5.869752
    23  H    2.138040   1.081326   2.150454   6.474643   6.859945
    24  H    3.185276   2.129371   1.010424   5.681054   6.005188
    25  H    4.721345   5.156044   4.970941   1.096716   2.177342
    26  H    6.201411   6.621687   6.185776   1.098903   2.173167
    27  H    6.969046   6.906832   6.255402   2.167867   1.090190
    28  H    5.767412   5.619460   5.191822   2.176040   1.090003
    29  H    7.775888   8.018960   7.716602   2.736621   2.120865
    30  H    7.843731   7.846728   7.561380   3.404310   2.123652
    31  H    6.781986   7.004668   6.928985   2.738704   2.121969
                   16         17         18         19         20
    16  N    0.000000
    17  H    5.045553   0.000000
    18  H    6.513474   2.848967   0.000000
    19  H    8.650995   4.117439   2.367992   0.000000
    20  H    7.817581   4.011628   2.478833   2.285014   0.000000
[...]
 56,-0.00002211,0.00002567,-0.00003546,-0.00007338,-0.00002702,-0.00000
 022,0.00004662,0.00000886,0.00002408,-0.00004660,0.00004439,0.00006773
 ,0.00004167,-0.01324821,-0.12932414,-0.18222161,0.00212998,0.01363045,
 0.01178085,-0.00068655,-0.00023211,0.00172726,0.00155816,0.00057584,0.
 00051826,-0.00016151,-0.00003521,0.00004279,-0.00000155,-0.00002830,0.
 00000181,0.00002893,0.00004173,0.00005277,-0.00016973,0.00007979,0.000
 08215,0.00001480,0.00000829,0.00003135,0.00000757,-0.00000539,0.000005
 77,-0.00004131,0.00003250,-0.00002735,0.01354284,0.14047774,0.19406272
 ,0.00344384,-0.00140657,0.00151471,-0.02342856,0.00229549,-0.01564024,
 -0.00204954,0.00003929,0.00275617,0.00011241,-0.00105832,0.00094214,0.
 00018481,0.00022722,0.00021467,-0.00024562,-0.00012485,-0.00004912,-0.
 00011729,-0.00013763,-0.00007579,0.00019592,-0.00017824,-0.00009895,0.
 00002208,-0.00005589,0.00002169,-0.00005027,-0.00001180,0.00000969,-0.
 00000186,0.00004690,-0.00002049,0.00003202,0.00005010,-0.00000825,-0.0
 0001119,0.00003045,-0.00002068,-0.22818231,0.03473672,-0.12030074,0.00
 192935,-0.00052362,0.00274379,0.00184500,0.00010044,0.00001952,-0.0001
 0438,0.00095651,-0.00008668,-0.00047429,-0.00006971,0.00000355,0.00007
 876,0.00001986,-0.00003201,-0.00000488,0.00004280,0.00002351,-0.000010
 72,0.00003404,0.00003539,0.00002906,0.00001152,0.00004146,0.00000136,0
 .00000446,-0.00000123,-0.00001179,-0.00001594,-0.00001750,-0.00011740,
 -0.00040987,0.00006205,0.24562339,0.00031832,0.00018285,-0.00035657,-0
 .00285778,-0.00007719,-0.00294911,-0.00099464,-0.00066494,0.00097624,0
 .00032687,-0.00043450,0.00053462,0.00022276,0.00011513,-0.00002429,-0.
 00018601,-0.00007001,0.00001586,-0.00015165,-0.00006587,0.00003147,0.0
 0007414,-0.00008167,-0.00000991,-0.00006729,-0.00004482,-0.00007628,-0
 .00010135,-0.00024030,0.00006651,0.00048099,-0.00015567,-0.00004951,0.
 00010008,0.00031889,0.00032634,-0.00000813,0.00004932,-0.00009393,0.03
 094406,-0.05520015,0.01801066,0.02926580,-0.00771828,0.01973237,0.0005
 4115,0.00179766,-0.00100796,-0.00001336,0.00086224,-0.00018373,-0.0003
 1369,0.00000495,0.00006960,0.00004354,0.00000533,-0.00000914,0.0000044
 4,0.00003936,-0.00001493,0.00000582,0.00003225,0.00000092,0.00007525,0
 .00002707,0.00005298,-0.00001926,0.00001872,-0.00001087,-0.00000723,0.
 00000996,0.00000458,-0.02010450,0.00480809,-0.01144526,-0.03487021,0.0
 6029870,-0.00152687,0.00145046,-0.00111788,0.01786494,-0.00495246,0.01
 333249,0.00120711,0.00088744,-0.00154471,-0.00008472,0.00067256,-0.000
 47847,-0.00002650,-0.00008862,-0.00020774,0.00008300,0.00004923,0.0000
 6262,0.00003296,0.00005996,0.00011279,-0.00009046,0.00011327,0.0000194
 0,-0.00001568,-0.00000751,-0.00011146,-0.00002089,0.00003275,-0.000032
 46,-0.00019961,0.00006800,0.00003193,-0.00005396,-0.00011794,-0.000108
 61,0.00002401,0.00005876,0.00009186,-0.11813571,0.01783355,-0.12668164
 ,-0.01146682,0.00350053,-0.00879797,-0.00063749,-0.00107802,0.00057030
 ,0.00031907,-0.00016327,-0.00005657,0.00023775,0.00003865,-0.00000587,
 -0.00003785,-0.00000142,0.00000949,0.00000163,-0.00003272,0.00001213,-
 0.00001690,-0.00001309,0.00000501,0.00004481,0.00001272,-0.00000269,0.
 00000027,-0.00000193,0.00001081,0.00000456,0.00000725,-0.00000794,-0.0
 1825091,0.00415204,-0.01138087,0.12858337,-0.02546464,0.13551860,-0.00
 098640,0.00154450,0.00083993,0.00056949,-0.00236271,-0.00225249,0.0002
 5863,0.00063030,0.00077203,-0.00008415,-0.00004297,0.00006581,0.000000
 04,-0.00004924,-0.00006883,-0.00000874,0.00002064,0.00001577,0.0000065
 4,0.00003930,0.00007429,-0.00000021,-0.00001509,-0.00001623,-0.0000476
 8,-0.00029493,-0.00019996,-0.00031564,0.00032123,-0.00017623,-0.000597
 08,0.00003550,0.00014384,0.00024639,0.00000779,-0.00048096,0.00014091,
 0.00021293,0.00074694,0.00051573,0.00135367,-0.00049214,-0.05654444,-0
 .02820854,-0.03374065,-0.00372254,0.02126005,0.02832605,0.00019835,0.0
 0002036,-0.00004928,-0.00001109,-0.00001462,-0.00001017,-0.00000712,-0
 .00001138,0.00000118,0.00001109,0.00000761,0.00002025,-0.00003703,0.00
 000354,0.00003691,0.00012194,0.00004411,0.00004324,-0.00010836,0.00007
 742,-0.00005821,-0.00020618,0.00000257,-0.00001830,0.00066216,-0.00007
 648,0.00059150,0.00034550,0.00014924,0.00090712,0.06020112,0.00125426,
 0.00308643,0.00082091,0.00075839,-0.00311048,-0.00401930,0.00013299,0.
 00080895,0.00056849,-0.00016958,0.00003655,0.00007859,-0.00001030,-0.0
 0008226,-0.00008547,0.00001303,0.00002792,0.00002152,0.00001478,0.0000
 6495,0.00008314,-0.00001179,-0.00001846,-0.00002033,-0.00000228,0.0000
 1179,0.00001940,0.00008125,-0.00004461,-0.00005493,-0.00003146,-0.0000
 3551,0.00001738,-0.00009421,0.00003455,-0.00001728,0.00010087,-0.00000
 256,-0.00008129,-0.00479607,-0.02301136,-0.01963292,-0.02155910,-0.189
 34556,-0.14277399,-0.00026183,0.00543305,0.00797465,0.00035463,0.00005
 441,0.00000710,-0.00000812,-0.00002304,-0.00000571,-0.00001500,-0.0000
 0831,0.00000158,0.00001217,0.00000525,0.00002586,-0.00005874,0.0000332
 9,0.00002688,0.00001088,-0.00000771,0.00000191,0.00005182,-0.00002846,
 0.00004150,0.00003386,0.00004698,-0.00000492,-0.00012919,-0.00428633,0
 .00347513,0.00047377,0.00148351,-0.00025609,0.02477768,0.20222403,0.00
 016360,-0.00061300,-0.00188313,0.00002735,0.00167362,0.00232575,-0.000
 21936,-0.00090029,-0.00072685,0.00019980,-0.00001889,-0.00011728,0.000
 00340,0.00006136,0.00007011,-0.00001810,-0.00002268,-0.00002056,-0.000
 02528,-0.00004150,-0.00007308,-0.00000191,-0.00000066,0.00007200,-0.00
 005423,0.00004086,0.00000259,-0.00009574,0.00005826,-0.00010579,-0.000
 09745,-0.00004951,-0.00005262,0.00017572,0.00009397,0.00000504,0.00003
 325,-0.00009740,0.00020581,0.00106564,0.00990856,0.01220374,-0.0240898
 9,-0.13858665,-0.18880328,0.00144159,-0.01218274,-0.01797096,-0.000392
 69,-0.00003269,0.00015817,-0.00000207,0.00002594,0.00000728,0.00001314
 ,-0.00000006,0.00000380,0.00000157,0.00001531,-0.00004071,0.00005162,-
 0.00001411,-0.00003623,0.00001335,0.00001603,0.00000950,-0.00010218,0.
 00006857,-0.00004422,0.00000066,-0.00001284,0.00005140,0.00095878,0.00
 348915,-0.00131040,-0.00033166,-0.00044692,0.00088130,0.01972930,0.147
 73946,0.20486657,-0.00116305,-0.00013928,0.00026558,0.00361912,0.00045
 859,-0.00046526,-0.00136687,-0.00033642,-0.00019767,0.00060566,-0.0001
 3545,-0.00024175,-0.00005273,-0.00011678,-0.00000093,-0.00008973,0.000
 03704,-0.00002470,-0.00016919,0.00015469,-0.00003514,-0.00008219,-0.00
 038365,0.00041008,-0.00051956,0.00008489,0.00023034,-0.00288905,-0.002
 50921,0.00087462,-0.00082761,0.00001853,-0.00123810,-0.00232145,0.0029
 4117,0.00215829,0.00040418,-0.00032768,-0.00196430,0.00535511,0.001089
 94,0.00214678,-0.22957734,0.03871873,-0.12004998,-0.02750687,0.0024033
 3,-0.00778870,0.00024284,0.00000619,0.00017285,-0.00010974,0.00011785,
 0.00003555,0.00000736,-0.00010609,0.00005396,0.00006318,0.00024124,-0.
 00023910,0.00010564,0.00005888,-0.00013790,0.00020052,0.00009157,0.000
 06899,0.00036794,-0.00018439,0.00002794,0.00008791,0.00018011,0.000168
 70,-0.00001201,-0.00015038,-0.00000587,0.00080197,-0.00199690,0.000983
 37,0.00176601,-0.00021532,-0.00086710,0.25452409,-0.00002402,0.0003894
 9,0.00013082,0.00156326,0.00040472,-0.00047050,-0.00023433,-0.00010620
 ,-0.00012701,-0.00005020,-0.00013180,0.00006659,-0.00011217,0.00001562
 ,0.00013660,0.00009223,0.00000471,-0.00003598,0.00007964,0.00000904,-0
 .00011180,0.00005958,0.00012632,-0.00000740,-0.00023257,0.00059985,0.0
 0158287,0.00062983,-0.00006094,-0.00011440,-0.00039976,0.00116263,0.00
 006193,0.00060762,-0.00162037,-0.00187288,0.00007832,-0.00090634,-0.00
 035181,0.02403269,-0.00513555,0.01791788,0.03954221,-0.06269853,0.0245
 8270,-0.00499806,0.00037775,-0.00234866,0.00000296,-0.00018941,0.00012
 915,0.00004105,0.00000310,-0.00001679,-0.00000890,0.00000956,0.0000007
 6,-0.00000323,-0.00007038,0.00001036,-0.00003637,-0.00002400,0.0000157
 0,-0.00053885,-0.00020854,-0.00019796,0.00025177,-0.00014139,0.0001177
 4,-0.00002811,-0.00003637,0.00001805,0.00027016,0.00127163,-0.00089436
 ,-0.00086731,-0.00515551,0.00241416,-0.01974903,0.00567735,-0.01094485
 ,-0.03942783,0.06584620,0.00055621,-0.00070817,-0.00010153,-0.00122937
 ,0.00127027,0.00050053,0.00017687,-0.00005998,-0.00016229,0.00013219,0
 .00007426,-0.00006248,0.00000421,-0.00001064,0.00001949,-0.00000779,0.
 00001025,-0.00001231,-0.00002801,0.00001223,-0.00003068,-0.00005467,-0
 .00007178,-0.00007957,0.00038731,-0.00073702,-0.00113473,-0.00150261,-
 0.00081268,0.00101591,0.00046927,-0.00079653,-0.00019293,-0.00080827,0
 .00100186,0.00195592,0.00072564,0.00057676,-0.00223593,-0.00825939,0.0
 0264283,-0.00678080,-0.13328152,0.02458952,-0.14255388,0.03149382,-0.0
 0394163,0.01043381,-0.00002699,0.00002853,0.00003273,-0.00002669,0.000
 00725,0.00001034,0.00000025,-0.00001689,0.00001033,-0.00000386,0.00002
 925,0.00002007,0.00005714,0.00002947,-0.00003312,0.00013148,0.00007561
 ,0.00009634,0.00028317,-0.00014106,0.00009742,-0.00001060,0.00014262,-
 0.00006131,0.00063239,-0.00008977,0.00068493,0.00058036,0.00208360,0.0
 0058223,-0.01780845,0.00503576,-0.00897078,0.12299922,-0.03029113,0.14
 794097,0.00038619,-0.00012114,-0.00033641,-0.00083205,0.00053421,0.000
 55909,0.00066436,0.00021120,-0.00024078,-0.00017598,0.00008020,0.00013
 960,-0.00016193,-0.00014071,-0.00004312,0.00017103,0.00009147,-0.00000
 980,0.00011171,0.00006556,0.00001187,0.00002320,0.00002522,-0.00001675
 ,0.00002223,-0.00000872,-0.00007921,-0.00004744,0.00008757,-0.00006043
 ,-0.00007173,-0.00004464,-0.00003092,-0.00000412,-0.00005815,-0.000030
 74,0.00008822,0.00000571,0.00001185,0.00233003,-0.00062867,-0.00098184
 ,-0.02344279,0.00369351,-0.00962482,-0.32055270,0.04521713,-0.14723798
 ,-0.00007156,-0.00012001,-0.00004559,0.00005403,-0.00000200,-0.0000265
 2,-0.00004701,-0.00002238,0.00002029,0.00002424,-0.00001591,0.00001125
 ,-0.00003086,0.00000398,0.00001530,-0.00002172,-0.00001127,-0.00000795
 ,-0.00002472,0.00001466,0.00000334,-0.00003996,0.00002248,-0.00000219,
 -0.00008119,-0.00011844,0.00006330,0.00004897,-0.00091582,0.00048940,0
 .00127129,0.00068252,-0.00031677,-0.00142483,-0.00068456,0.00497217,0.
 33711383,0.00029012,-0.00048418,-0.00052606,-0.00066890,0.00005695,0.0
 0123524,0.00041562,0.00006285,-0.00015682,-0.00015853,0.00008254,0.000
 02588,-0.00010261,-0.00004745,-0.00000448,0.00010883,0.00003758,-0.000
 00560,0.00008521,-0.00000042,0.00000251,0.00001457,0.00003746,-0.00002
 586,0.00002232,0.00002547,-0.00001792,0.00003556,0.00003949,-0.0000348
 7,-0.00009148,-0.00000505,0.00002495,-0.00003444,-0.00005323,-0.000040
 70,0.00000123,-0.00000573,0.00002597,-0.00092685,0.00067016,-0.0017579
 4,-0.00272124,0.00110852,-0.00326065,0.04215165,-0.07479695,0.02270373
 ,-0.00008138,-0.00005002,-0.00005665,0.00005040,-0.00000400,-0.0000124
 1,-0.00003026,0.00000306,0.00000498,0.00000897,-0.00002050,0.00001850,
 -0.00001953,-0.00000145,0.00001375,-0.00000660,0.00000073,-0.00001909,
 0.00000969,-0.00000232,0.00001135,0.00001568,0.00002488,0.00000005,-0.
 00017967,-0.00024752,-0.00002429,0.00056451,0.00007258,0.00083067,0.00
 093177,-0.00014313,-0.00014028,-0.00073732,0.00035217,0.00065478,-0.04
 740185,0.06784749,-0.00032201,0.00013895,-0.00003339,0.00027623,-0.000
 09589,-0.00055403,-0.00036775,-0.00014931,0.00009002,0.00012706,-0.000
 08771,0.00000161,0.00001383,0.00003357,0.00005603,-0.00003443,-0.00001
 345,-0.00001759,-0.00003430,-0.00000818,-0.00004635,-0.00000543,-0.000
 04832,0.00005128,-0.00004912,0.00005051,0.00011295,0.00010731,-0.00022
 915,0.00009391,0.00038393,-0.00002216,-0.00005330,0.00001298,0.0002358
 6,0.00020552,-0.00004565,-0.00005938,-0.00012238,0.00049019,-0.0009770
 9,0.00182258,0.01993765,-0.00442480,0.01700221,-0.13530890,0.02191504,
 -0.13587246,0.00002761,0.00004104,0.00005655,-0.00003918,0.00001363,0.
 00000658,0.00001369,-0.00000975,0.00000701,0.00000313,0.00003064,-0.00
 003049,0.00001663,0.00000506,-0.00001750,-0.00001133,0.00000107,0.0000
 0676,-0.00000340,0.00000126,-0.00000540,0.00000494,0.00001247,0.000025
 99,-0.00031216,-0.00000788,-0.00019258,-0.00079455,0.00057979,-0.00072
 882,0.00012739,-0.00048712,0.00046037,0.00358828,0.00101814,-0.0040753
 4,0.15001175,-0.02489273,0.14018014,-0.00036177,0.00060539,0.00008785,
 0.00152058,-0.00193511,-0.00006133,-0.00071885,0.00004435,0.00022926,0
 .00015062,-0.00007296,-0.00018262,-0.00005674,0.00001278,0.00007716,-0
 .00002963,-0.00000689,-0.00002784,-0.00003449,0.00002683,-0.00005321,-
 0.00007114,-0.00010850,0.00008821,-0.00000095,0.00011727,-0.00001904,0
 .00002028,-0.00025510,0.00000271,0.00058273,-0.00002711,-0.00022639,0.
 00002030,0.00033407,0.00046697,0.00004571,-0.00004019,-0.00020625,-0.0
 0531171,0.00126357,0.00368101,0.00260007,-0.02588320,0.00878443,-0.061
 84070,-0.00543721,-0.00211767,0.00006557,0.00000456,0.00009332,-0.0000
 2686,0.00002884,0.00001087,0.00000717,-0.00002837,0.00001371,0.0000079
 4,0.00006966,-0.00005605,0.00003233,0.00001425,-0.00004172,0.00000468,
 0.00001344,0.00002882,-0.00012059,0.00007878,-0.00000335,-0.00003091,0
 .00001282,0.00003146,0.00006025,0.00038007,-0.00031879,0.00018958,0.00
 023052,0.00009522,0.00116678,0.00040261,-0.00018101,-0.00026382,-0.000
 65034,-0.00045469,0.00404757,0.03451480,-0.01200790,0.05888992,0.00019
 652,0.00031123,-0.00006303,0.00006627,-0.00020748,-0.00026952,0.000227
 01,0.00009809,-0.00000959,-0.00008676,-0.00002599,0.00005916,-0.000141
 79,-0.00004309,0.00005019,0.00011818,0.00003947,-0.00002426,0.00009049
 ,0.00001129,-0.00003649,0.00000430,0.00001714,0.00000742,-0.00001535,-
 0.00003836,0.00005834,0.00004432,-0.00013713,0.00012429,0.00027806,-0.
 00012138,-0.00000439,-0.00005904,0.00025863,0.00003929,0.00002247,-0.0
 0007739,-0.00014441,-0.00053611,0.00031542,0.00018552,-0.00339458,0.00
 207878,0.00172994,0.00287283,-0.35254946,0.12008824,-0.00007944,-0.000
 05733,-0.00002247,0.00002739,-0.00000183,-0.00001489,-0.00002881,-0.00
 000412,0.00000877,0.00001469,-0.00001078,0.00000020,-0.00002199,-0.000
 00110,-0.00000079,-0.00004783,-0.00002694,-0.00000764,0.00009872,-0.00
 004157,-0.00000475,-0.00000139,0.00005397,-0.00000892,0.00009526,0.000
 19686,-0.00004592,0.00007703,-0.00001707,0.00003901,0.00052696,0.00076
 087,-0.00048375,-0.00031585,0.00032904,-0.00056818,-0.00025640,-0.0011
 0256,-0.00028842,-0.00042382,0.37056511,-0.00008925,-0.00072659,-0.000
 12399,-0.00053486,0.00208593,0.00079760,0.00037276,-0.00021439,-0.0003
 6116,0.00000449,0.00007713,0.00008032,0.00006150,-0.00000476,-0.000028
 66,-0.00000371,0.00000657,0.00000830,-0.00002194,-0.00000549,-0.000001
 87,0.00002703,0.00001577,-0.00002558,0.00003430,0.00001369,-0.00008592
 ,-0.00005396,-0.00000851,0.00000564,-0.00001352,0.00003789,-0.00013749
 ,-0.00008674,-0.00003097,0.00011992,-0.00000949,0.00003800,-0.00014524
 ,0.00439569,-0.00121710,-0.00284909,-0.00077340,0.01894487,-0.00806691
 ,-0.00573606,0.12695110,-0.11665514,0.00000042,0.00000125,-0.00002402,
 0.00000070,0.,0.00000020,0.00000221,0.00000321,0.00000338,-0.00000296,
 -0.00001184,0.00001155,0.00000866,0.00000411,0.00000043,0.00001486,-0.
 00000259,0.00001568,0.00003499,-0.00002155,0.00006344,0.00007054,0.000
 00958,-0.00000021,0.00005088,0.00001539,0.00029545,-0.00010241,-0.0004
 3624,0.00028569,-0.00058794,-0.00004743,-0.00056214,-0.00041605,-0.000
 45062,0.00135534,0.00216699,0.01669674,-0.00664704,0.00061802,-0.13225
 684,0.11594245,-0.00006954,-0.00084350,-0.00020233,-0.00040130,0.00085
 980,0.00055045,-0.00004608,-0.00012986,-0.00021409,0.00003271,-0.00001
 274,0.00002346,-0.00014052,-0.00003967,0.00009872,0.00010620,0.0000434
 0,-0.00004445,0.00005638,0.00003630,-0.00010379,0.00000060,-0.00004096
 ,0.00003716,0.00000079,0.00006127,0.00006048,0.00003218,-0.00016088,0.
 00014447,0.00045754,-0.00016355,-0.00021101,-0.00003762,0.00023772,0.0
 0025912,0.00001590,-0.00014763,-0.00038047,0.00100391,0.00108530,-0.00
 059468,0.00433331,0.02033508,0.02147975,-0.06311161,-0.01166594,-0.019
 28448,-0.00003314,-0.00009730,0.00008845,0.00000602,0.00001367,-0.0000
 0950,-0.00001850,-0.00002527,0.00002083,0.00001551,0.00002498,-0.00002
 636,0.00001189,0.00000894,-0.00001977,-0.00010510,-0.00005191,0.000024
 09,0.00002141,-0.00001900,0.00001087,0.00001408,0.00002848,0.00001038,
 0.00007859,-0.00104053,-0.00005487,-0.00007394,-0.00017513,-0.00031422
 ,-0.00480534,-0.00179253,0.00291665,0.00022448,0.00079431,-0.00009881,
 0.00067370,-0.02606029,-0.02580648,-0.00054392,0.00064866,0.00056827,0
 .06230141,0.00016154,-0.00065492,-0.00031889,-0.00046926,-0.00007448,0
 .00052698,0.00002824,-0.00013770,-0.00003448,-0.00008596,0.00001111,-0
 .00002468,-0.00010329,0.00007427,0.00014490,0.00009019,-0.00000874,-0.
 00004275,0.00009001,-0.00007414,-0.00010986,0.00000497,0.00004839,-0.0
 0003505,0.00001426,-0.00000921,0.00003713,0.00002843,0.00019681,-0.000
 01450,-0.00030465,-0.00001810,0.00006660,0.00001700,-0.00016109,-0.000
 19131,-0.00002646,-0.00004994,0.00006583,0.00029697,0.00283525,0.00177
 020,0.00420369,0.00590642,0.00300768,-0.01758188,-0.21242220,-0.164490
 96,-0.00014375,0.00000733,0.00004847,0.00002599,-0.00001125,-0.0000077
 8,-0.00000844,0.00001906,-0.00000283,-0.00000688,-0.00002249,0.0000214
 7,-0.00000645,-0.00001484,0.00001096,-0.00004802,-0.00001336,-0.000004
 81,0.00002863,-0.00002298,-0.00000731,0.00002188,-0.00000035,-0.000003
 71,-0.00040141,-0.00076676,-0.00080354,0.00001884,-0.00020065,-0.00004
 331,-0.00114220,0.00035791,0.00139774,0.00047980,-0.00009385,-0.000019
 38,-0.00018475,0.00654256,0.00772430,-0.00328582,-0.02057233,-0.029466
 31,0.01828877,0.21933027,-0.00057648,0.00065565,0.00064195,0.00181953,
 -0.00034855,-0.00093628,-0.00076957,-0.00026073,0.00018841,0.00024779,
 -0.00007094,-0.00017605,0.00014748,0.00019884,0.00015104,-0.00016333,-
 0.00010147,-0.00002364,-0.00012034,-0.00008972,-0.00011308,-0.00005638
 ,-0.00003921,0.00003045,0.00000977,-0.00004986,-0.00001710,-0.00010695
 ,0.00003709,0.00003031,-0.00003953,-0.00001627,-0.00015924,-0.00002137
 ,0.00003213,0.00003190,0.00002720,-0.00001685,-0.00014633,-0.00208281,
 -0.00035745,0.00109451,0.00104992,-0.01279827,-0.01634875,-0.02627440,
 -0.17097802,-0.25485463,0.00011764,0.00014944,0.00012306,-0.00006249,0
 .00000602,0.00002844,0.00005563,0.00001921,-0.00001216,-0.00003000,0.0
 0002857,-0.00001639,0.00004323,-0.00000904,-0.00002847,0.00001535,-0.0
 0000437,0.00006948,0.00002297,-0.00000880,0.00002189,0.00003513,-0.000
 02164,0.00000187,0.00034086,0.00097993,-0.00000770,0.00002826,0.000093
 75,-0.00026295,0.00351830,0.00154752,-0.00060542,-0.00051198,0.0000327
 0,0.00173129,0.00061562,-0.01127274,-0.01178283,0.00164882,0.01186388,
 0.01672907,0.02107215,0.18079921,0.26461733\\0.00001212,0.00000457,-0.
 00000953,-0.00001441,0.00000341,0.00000286,0.00000663,-0.00000559,0.00
 000134,-0.00000197,-0.00000515,-0.00000121,0.00000054,0.00000255,-0.00
 000190,-0.00000414,-0.00000131,0.,0.00000011,-0.00000145,-0.00000124,0
 .00000470,0.00000100,0.00000127,-0.00000425,0.00000733,0.00000341,0.00
 000926,-0.00000027,-0.00000152,-0.00000053,-0.00000269,-0.00000221,0.0
 0000116,-0.00000159,0.00000279,-0.00000136,0.00000008,-0.00000046,0.00
 000048,-0.00000421,0.00000078,-0.00001138,-0.00001223,0.00000397,0.000
 00174,0.00000268,-0.00000492,-0.00000584,0.00000649,-0.00000296,0.0000
 0150,0.00000025,-0.00000127,-0.00000042,-0.00000013,0.00000181,0.00000
 128,0.00000012,0.00000176,0.00000345,0.00000107,0.00000154,0.00000021,
 -0.00000077,0.00000118,0.00000025,0.00000093,0.00000033,0.00000106,0.0
 0000019,0.00000033,0.00000184,-0.00000080,0.00000084,-0.00000262,-0.00
 000082,0.00000276,0.00000109,0.00000312,0.00000322,-0.00000167,0.00000
 381,-0.00000182,0.00000127,-0.00000121,0.00000026,-0.00000028,0.000001
 69,-0.00000120,0.00000019,-0.00000106,-0.00000022\\\@


 ONLY THE DAY DAWNS TO WHICH YOU ARE AWAKE.

                                 -- THOREAU
 Job cpu time:       0 days  1 hours 15 minutes 38.3 seconds.
 File lengths (MBytes):  RWF=    277 Int=      0 D2E=      0 Chk=      8 Scr=      1
 Normal termination of Gaussian 09 at Tue Jul 27 02:45:17 2021.
