 Entering Gaussian System, Link 0=g09
 Input=opt_freq-conf-342.com
 Output=opt_freq-conf-342.log
 Initial command:
 /aerosol/software/g09/l1.exe "/scratch/nicole/10533/Gau-96467.inp" -scrdir="/scratch/nicole/10533/"
 Entering Link 1 = /aerosol/software/g09/l1.exe PID=     96473.
  
 Copyright (c) 1988,1990,1992,1993,1995,1998,2003,2009,2013,
            Gaussian, Inc.  All Rights Reserved.
  
 This is part of the Gaussian(R) 09 program.  It is based on
 the Gaussian(R) 03 system (copyright 2003, Gaussian, Inc.),
 the Gaussian(R) 98 system (copyright 1998, Gaussian, Inc.),
 the Gaussian(R) 94 system (copyright 1995, Gaussian, Inc.),
 the Gaussian 92(TM) system (copyright 1992, Gaussian, Inc.),
 the Gaussian 90(TM) system (copyright 1990, Gaussian, Inc.),
 the Gaussian 88(TM) system (copyright 1988, Gaussian, Inc.),
 the Gaussian 86(TM) system (copyright 1986, Carnegie Mellon
 University), and the Gaussian 82(TM) system (copyright 1983,
 Carnegie Mellon University). Gaussian is a federally registered
 trademark of Gaussian, Inc.
  
 This software contains proprietary and confidential information,
 including trade secrets, belonging to Gaussian, Inc.
  
 This software is provided under written license and may be
 used, copied, transmitted, or stored only in accord with that
 written license.
  
 The following legend is applicable only to US Government
 contracts under FAR:
  
                    RESTRICTED RIGHTS LEGEND
  
 Use, reproduction and disclosure by the US Government is
 subject to restrictions as set forth in subparagraphs (a)
 and (c) of the Commercial Computer Software - Restricted
 Rights clause in FAR 52.227-19.
  
 Gaussian, Inc.
 340 Quinnipiac St., Bldg. 40, Wallingford CT 06492
  
  
 ---------------------------------------------------------------
 Warning -- This program may not be used in any manner that
 competes with the business of Gaussian, Inc. or will provide
 assistance to any competitor of Gaussian, Inc.  The licensee
 of this program is prohibited from giving any competitor of
 Gaussian, Inc. access to this program.  By using this program,
 the user acknowledges that Gaussian, Inc. is engaged in the
 business of creating and licensing software in the field of
 computational chemistry and represents and warrants to the
 licensee that it is not a competitor of Gaussian, Inc. and that
 it will not use this program in any manner prohibited above.
 ---------------------------------------------------------------
  

 Cite this work as:
 Gaussian 09, Revision D.01,
 M. J. Frisch, G. W. Trucks, H. B. Schlegel, G. E. Scuseria, 
 M. A. Robb, J. R. Cheeseman, G. Scalmani, V. Barone, B. Mennucci, 
 G. A. Petersson, H. Nakatsuji, M. Caricato, X. Li, H. P. Hratchian, 
 A. F. Izmaylov, J. Bloino, G. Zheng, J. L. Sonnenberg, M. Hada, 
 M. Ehara, K. Toyota, R. Fukuda, J. Hasegawa, M. Ishida, T. Nakajima, 
 Y. Honda, O. Kitao, H. Nakai, T. Vreven, J. A. Montgomery, Jr., 
 J. E. Peralta, F. Ogliaro, M. Bearpark, J. J. Heyd, E. Brothers, 
 K. N. Kudin, V. N. Staroverov, T. Keith, R. Kobayashi, J. Normand, 
 K. Raghavachari, A. Rendell, J. C. Burant, S. S. Iyengar, J. Tomasi, 
 M. Cossi, N. Rega, J. M. Millam, M. Klene, J. E. Knox, J. B. Cross, 
 V. Bakken, C. Adamo, J. Jaramillo, R. Gomperts, R. E. Stratmann, 
 O. Yazyev, A. J. Austin, R. Cammi, C. Pomelli, J. W. Ochterski, 
 R. L. Martin, K. Morokuma, V. G. Zakrzewski, G. A. Voth, 
 P. Salvador, J. J. Dannenberg, S. Dapprich, A. D. Daniels, 
 O. Farkas, J. B. Foresman, J. V. Ortiz, J. Cioslowski, 
 and D. J. Fox, Gaussian, Inc., Wallingford CT, 2013.
 
 ******************************************
 Gaussian 09:  ES64L-G09RevD.01 24-Apr-2013
                27-Jul-2021 
 ******************************************
 %mem=2gb
 %nproc=4
 Will use up to    4 processors via shared memory.
 %chk=conf-342.chk
 ----------------------------------------------------------------------
 # B3LYP/6-31G(d) EmpiricalDispersion=GD3BJ opt=calcfc freq=noraman nos
 ymm integral(ultrafinegrid)
 ----------------------------------------------------------------------
 1/10=4,14=-1,18=20,19=15,26=4,38=1/1,3;
 2/9=110,12=2,15=1,17=6,18=5,40=1/2;
 3/5=1,6=6,7=1,11=2,16=1,25=1,30=1,71=2,74=-5,75=-5,124=41,140=1/1,2,3;
 4//1;
 5/5=2,38=5/2;
 8/6=4,10=90,11=11/1;
 11/6=1,8=1,9=11,15=111,16=1,31=1/1,2,10;
 10/6=1,13=1,31=1/2;
 6/7=2,8=2,9=2,10=2,28=1/1;
 7/10=1,18=20,25=1,30=1/1,2,3,16;
 1/10=4,14=-1,18=20,19=15,26=4/3(2);
 2/9=110,15=1/2;
 99//99;
 2/9=110,15=1/2;
 3/5=1,6=6,7=1,11=2,16=1,25=1,30=1,71=1,74=-5,75=-5,124=41/1,2,3;
 4/5=5,16=3,69=1/1;
 5/5=2,38=5/2;
 7/30=1/1,2,3,16;
 1/14=-1,18=20,19=15,26=4/3(-5);
 2/9=110,15=1/2;
 6/7=2,8=2,9=2,10=2,19=2,28=1/1;
 99/9=1/99;
 ------------------------------------------------------------
 Candidate Structure: Conf:342 OPT and FREQ calc in gas phase
 ------------------------------------------------------------
 Symbolic Z-matrix:
 Charge =  1 Multiplicity = 1
 O                     0.48802  -1.04421  -0.1281 
 C                     1.12385  -0.01749  -0.37361 
 N                     0.49047   1.13594  -0.6784 
 C                    -0.95233   1.1798   -0.7779 
 C                    -1.31346   2.46054  -1.51699 
 O                    -2.62801   2.61896  -1.77297 
 O                    -0.51      3.28466  -1.8519 
 C                    -1.63884   1.09438   0.62074 
 C                    -2.6427   -0.01018   0.70235 
 C                    -3.98987  -0.02168   0.90501 
 N                    -4.47679  -1.31734   0.86655 
 C                    -3.42519  -2.06674   0.63906 
 N                    -2.29364  -1.32744   0.53059 
 C                     2.63954   0.02136  -0.38261 
 C                     3.23439  -0.9979    0.57318 
 N                     4.72017  -1.02743   0.50222 
 H                     0.98137   1.94095  -1.03734 
 H                    -1.27896   0.34084  -1.40351 
 H                    -3.11555   1.84612  -1.4643 
 H                    -2.13152   2.03418   0.87054 
 H                    -0.86367   0.94257   1.36936 
 H                    -4.64492   0.82058   1.07669 
 H                    -3.41306  -3.13835   0.54534 
 H                    -1.35254  -1.64532   0.35214 
 H                     2.98248   1.02797  -0.1359 
 H                     2.97543  -0.20079  -1.39969 
 H                     2.83034  -1.97896   0.32785 
 H                     2.92493  -0.76764   1.59206 
 H                     5.03857  -1.26512  -0.43712 
 H                     5.12401  -0.12292   0.74615 
 H                     5.11721  -1.71841   1.14051 
 

 GradGradGradGradGradGradGradGradGradGradGradGradGradGradGradGradGradGrad
 Berny optimization.
 Initialization pass.
                           ----------------------------
                           !    Initial Parameters    !
                           ! (Angstroms and Degrees)  !
 --------------------------                            --------------------------
 ! Name  Definition              Value          Derivative Info.                !
 --------------------------------------------------------------------------------
 ! R1    R(1,2)                  1.2324         calculate D2E/DX2 analytically  !
 ! R2    R(2,3)                  1.3507         calculate D2E/DX2 analytically  !
 ! R3    R(2,14)                 1.5162         calculate D2E/DX2 analytically  !
 ! R4    R(3,4)                  1.4469         calculate D2E/DX2 analytically  !
 ! R5    R(3,17)                 1.0089         calculate D2E/DX2 analytically  !
 ! R6    R(4,5)                  1.5222         calculate D2E/DX2 analytically  !
 ! R7    R(4,8)                  1.5604         calculate D2E/DX2 analytically  !
 ! R8    R(4,18)                 1.0963         calculate D2E/DX2 analytically  !
 ! R9    R(5,6)                  1.3486         calculate D2E/DX2 analytically  !
 ! R10   R(5,7)                  1.1987         calculate D2E/DX2 analytically  !
 ! R11   R(6,19)                 0.9645         calculate D2E/DX2 analytically  !
 ! R12   R(8,9)                  1.4948         calculate D2E/DX2 analytically  !
 ! R13   R(8,20)                 1.0901         calculate D2E/DX2 analytically  !
 ! R14   R(8,21)                 1.0883         calculate D2E/DX2 analytically  !
 ! R15   R(9,10)                 1.3624         calculate D2E/DX2 analytically  !
 ! R16   R(9,13)                 1.3735         calculate D2E/DX2 analytically  !
 ! R17   R(10,11)                1.3847         calculate D2E/DX2 analytically  !
 ! R18   R(10,22)                1.0807         calculate D2E/DX2 analytically  !
 ! R19   R(11,12)                1.3112         calculate D2E/DX2 analytically  !
 ! R20   R(12,13)                1.356          calculate D2E/DX2 analytically  !
 ! R21   R(12,23)                1.0758         calculate D2E/DX2 analytically  !
 ! R22   R(13,24)                1.0092         calculate D2E/DX2 analytically  !
 ! R23   R(14,15)                1.5186         calculate D2E/DX2 analytically  !
 ! R24   R(14,25)                1.0917         calculate D2E/DX2 analytically  !
 ! R25   R(14,26)                1.0939         calculate D2E/DX2 analytically  !
 ! R26   R(15,16)                1.4878         calculate D2E/DX2 analytically  !
 ! R27   R(15,27)                1.089          calculate D2E/DX2 analytically  !
 ! R28   R(15,28)                1.0895         calculate D2E/DX2 analytically  !
 ! R29   R(16,29)                1.0199         calculate D2E/DX2 analytically  !
 ! R30   R(16,30)                1.0202         calculate D2E/DX2 analytically  !
 ! R31   R(16,31)                1.021          calculate D2E/DX2 analytically  !
 ! A1    A(1,2,3)              120.9619         calculate D2E/DX2 analytically  !
 ! A2    A(1,2,14)             122.5677         calculate D2E/DX2 analytically  !
 ! A3    A(3,2,14)             116.457          calculate D2E/DX2 analytically  !
 ! A4    A(2,3,4)              120.5963         calculate D2E/DX2 analytically  !
 ! A5    A(2,3,17)             122.2413         calculate D2E/DX2 analytically  !
 ! A6    A(4,3,17)             115.884          calculate D2E/DX2 analytically  !
 ! A7    A(3,4,5)              107.1857         calculate D2E/DX2 analytically  !
 ! A8    A(3,4,8)              112.0505         calculate D2E/DX2 analytically  !
 ! A9    A(3,4,18)             108.2482         calculate D2E/DX2 analytically  !
 ! A10   A(5,4,8)              112.142          calculate D2E/DX2 analytically  !
 ! A11   A(5,4,18)             107.2244         calculate D2E/DX2 analytically  !
 ! A12   A(8,4,18)             109.7869         calculate D2E/DX2 analytically  !
 ! A13   A(4,5,6)              114.9777         calculate D2E/DX2 analytically  !
 ! A14   A(4,5,7)              123.7188         calculate D2E/DX2 analytically  !
 ! A15   A(6,5,7)              121.3027         calculate D2E/DX2 analytically  !
 ! A16   A(5,6,19)             109.7462         calculate D2E/DX2 analytically  !
 ! A17   A(4,8,9)              112.6345         calculate D2E/DX2 analytically  !
 ! A18   A(4,8,20)             110.9184         calculate D2E/DX2 analytically  !
 ! A19   A(4,8,21)             108.1098         calculate D2E/DX2 analytically  !
 ! A20   A(9,8,20)             108.7249         calculate D2E/DX2 analytically  !
 ! A21   A(9,8,21)             109.7374         calculate D2E/DX2 analytically  !
 ! A22   A(20,8,21)            106.5321         calculate D2E/DX2 analytically  !
 ! A23   A(8,9,10)             132.7209         calculate D2E/DX2 analytically  !
 ! A24   A(8,9,13)             122.0847         calculate D2E/DX2 analytically  !
 ! A25   A(10,9,13)            105.1775         calculate D2E/DX2 analytically  !
 ! A26   A(9,10,11)            110.5788         calculate D2E/DX2 analytically  !
 ! A27   A(9,10,22)            128.0541         calculate D2E/DX2 analytically  !
 ! A28   A(11,10,22)           121.3671         calculate D2E/DX2 analytically  !
 ! A29   A(10,11,12)           104.9269         calculate D2E/DX2 analytically  !
 ! A30   A(11,12,13)           111.8108         calculate D2E/DX2 analytically  !
 ! A31   A(11,12,23)           126.4054         calculate D2E/DX2 analytically  !
 ! A32   A(13,12,23)           121.7836         calculate D2E/DX2 analytically  !
 ! A33   A(9,13,12)            107.5055         calculate D2E/DX2 analytically  !
 ! A34   A(9,13,24)            124.1364         calculate D2E/DX2 analytically  !
 ! A35   A(12,13,24)           128.3572         calculate D2E/DX2 analytically  !
 ! A36   A(2,14,15)            111.7542         calculate D2E/DX2 analytically  !
 ! A37   A(2,14,25)            109.6529         calculate D2E/DX2 analytically  !
 ! A38   A(2,14,26)            107.8944         calculate D2E/DX2 analytically  !
 ! A39   A(15,14,25)           110.7074         calculate D2E/DX2 analytically  !
 ! A40   A(15,14,26)           109.1835         calculate D2E/DX2 analytically  !
 ! A41   A(25,14,26)           107.513          calculate D2E/DX2 analytically  !
 ! A42   A(14,15,16)           111.9921         calculate D2E/DX2 analytically  !
 ! A43   A(14,15,27)           108.5138         calculate D2E/DX2 analytically  !
 ! A44   A(14,15,28)           109.6021         calculate D2E/DX2 analytically  !
 ! A45   A(16,15,27)           109.9929         calculate D2E/DX2 analytically  !
 ! A46   A(16,15,28)           109.4185         calculate D2E/DX2 analytically  !
 ! A47   A(27,15,28)           107.1997         calculate D2E/DX2 analytically  !
 ! A48   A(15,16,29)           111.1194         calculate D2E/DX2 analytically  !
 ! A49   A(15,16,30)           111.4892         calculate D2E/DX2 analytically  !
 ! A50   A(15,16,31)           111.8363         calculate D2E/DX2 analytically  !
 ! A51   A(29,16,30)           107.6538         calculate D2E/DX2 analytically  !
 ! A52   A(29,16,31)           107.2566         calculate D2E/DX2 analytically  !
 ! A53   A(30,16,31)           107.2547         calculate D2E/DX2 analytically  !
 ! D1    D(1,2,3,4)             -2.5603         calculate D2E/DX2 analytically  !
 ! D2    D(1,2,3,17)          -169.1118         calculate D2E/DX2 analytically  !
 ! D3    D(14,2,3,4)           176.1388         calculate D2E/DX2 analytically  !
 ! D4    D(14,2,3,17)            9.5873         calculate D2E/DX2 analytically  !
 ! D5    D(1,2,14,15)          -29.3941         calculate D2E/DX2 analytically  !
 ! D6    D(1,2,14,25)         -152.5395         calculate D2E/DX2 analytically  !
 ! D7    D(1,2,14,26)           90.647          calculate D2E/DX2 analytically  !
 ! D8    D(3,2,14,15)          151.9296         calculate D2E/DX2 analytically  !
 ! D9    D(3,2,14,25)           28.7842         calculate D2E/DX2 analytically  !
 ! D10   D(3,2,14,26)          -88.0293         calculate D2E/DX2 analytically  !
 ! D11   D(2,3,4,5)           -163.6093         calculate D2E/DX2 analytically  !
 ! D12   D(2,3,4,8)             72.96           calculate D2E/DX2 analytically  !
 ! D13   D(2,3,4,18)           -48.247          calculate D2E/DX2 analytically  !
 ! D14   D(17,3,4,5)             3.7612         calculate D2E/DX2 analytically  !
 ! D15   D(17,3,4,8)          -119.6694         calculate D2E/DX2 analytically  !
 ! D16   D(17,3,4,18)          119.1235         calculate D2E/DX2 analytically  !
 ! D17   D(3,4,5,6)            175.9687         calculate D2E/DX2 analytically  !
 ! D18   D(3,4,5,7)             -4.3549         calculate D2E/DX2 analytically  !
 ! D19   D(8,4,5,6)            -60.6569         calculate D2E/DX2 analytically  !
 ! D20   D(8,4,5,7)            119.0194         calculate D2E/DX2 analytically  !
 ! D21   D(18,4,5,6)            59.9261         calculate D2E/DX2 analytically  !
 ! D22   D(18,4,5,7)          -120.3976         calculate D2E/DX2 analytically  !
 ! D23   D(3,4,8,9)           -125.686          calculate D2E/DX2 analytically  !
 ! D24   D(3,4,8,20)           112.1914         calculate D2E/DX2 analytically  !
 ! D25   D(3,4,8,21)            -4.2648         calculate D2E/DX2 analytically  !
 ! D26   D(5,4,8,9)            113.7174         calculate D2E/DX2 analytically  !
 ! D27   D(5,4,8,20)            -8.4053         calculate D2E/DX2 analytically  !
 ! D28   D(5,4,8,21)          -124.8614         calculate D2E/DX2 analytically  !
 ! D29   D(18,4,8,9)            -5.37           calculate D2E/DX2 analytically  !
 ! D30   D(18,4,8,20)         -127.4926         calculate D2E/DX2 analytically  !
 ! D31   D(18,4,8,21)          116.0512         calculate D2E/DX2 analytically  !
 ! D32   D(4,5,6,19)            -2.5335         calculate D2E/DX2 analytically  !
 ! D33   D(7,5,6,19)           177.7816         calculate D2E/DX2 analytically  !
 ! D34   D(4,8,9,10)          -116.9921         calculate D2E/DX2 analytically  !
 ! D35   D(4,8,9,13)            61.2759         calculate D2E/DX2 analytically  !
 ! D36   D(20,8,9,10)            6.3605         calculate D2E/DX2 analytically  !
 ! D37   D(20,8,9,13)         -175.3716         calculate D2E/DX2 analytically  !
 ! D38   D(21,8,9,10)          122.517          calculate D2E/DX2 analytically  !
 ! D39   D(21,8,9,13)          -59.215          calculate D2E/DX2 analytically  !
 ! D40   D(8,9,10,11)          178.6945         calculate D2E/DX2 analytically  !
 ! D41   D(8,9,10,22)           -1.2916         calculate D2E/DX2 analytically  !
 ! D42   D(13,9,10,11)           0.2149         calculate D2E/DX2 analytically  !
 ! D43   D(13,9,10,22)        -179.7711         calculate D2E/DX2 analytically  !
 ! D44   D(8,9,13,12)         -178.8625         calculate D2E/DX2 analytically  !
 ! D45   D(8,9,13,24)            0.8159         calculate D2E/DX2 analytically  !
 ! D46   D(10,9,13,12)          -0.1809         calculate D2E/DX2 analytically  !
 ! D47   D(10,9,13,24)         179.4975         calculate D2E/DX2 analytically  !
 ! D48   D(9,10,11,12)          -0.1645         calculate D2E/DX2 analytically  !
 ! D49   D(22,10,11,12)        179.8226         calculate D2E/DX2 analytically  !
 ! D50   D(10,11,12,13)          0.0452         calculate D2E/DX2 analytically  !
 ! D51   D(10,11,12,23)        179.8721         calculate D2E/DX2 analytically  !
 ! D52   D(11,12,13,9)           0.0867         calculate D2E/DX2 analytically  !
 ! D53   D(11,12,13,24)       -179.5738         calculate D2E/DX2 analytically  !
 ! D54   D(23,12,13,9)        -179.7494         calculate D2E/DX2 analytically  !
 ! D55   D(23,12,13,24)          0.5901         calculate D2E/DX2 analytically  !
 ! D56   D(2,14,15,16)         176.1956         calculate D2E/DX2 analytically  !
 ! D57   D(2,14,15,27)          54.588          calculate D2E/DX2 analytically  !
 ! D58   D(2,14,15,28)         -62.1737         calculate D2E/DX2 analytically  !
 ! D59   D(25,14,15,16)        -61.2594         calculate D2E/DX2 analytically  !
 ! D60   D(25,14,15,27)        177.133          calculate D2E/DX2 analytically  !
 ! D61   D(25,14,15,28)         60.3713         calculate D2E/DX2 analytically  !
 ! D62   D(26,14,15,16)         56.9136         calculate D2E/DX2 analytically  !
 ! D63   D(26,14,15,27)        -64.694          calculate D2E/DX2 analytically  !
 ! D64   D(26,14,15,28)        178.5443         calculate D2E/DX2 analytically  !
 ! D65   D(14,15,16,29)        -59.739          calculate D2E/DX2 analytically  !
 ! D66   D(14,15,16,30)         60.3573         calculate D2E/DX2 analytically  !
 ! D67   D(14,15,16,31)       -179.565          calculate D2E/DX2 analytically  !
 ! D68   D(27,15,16,29)         61.0149         calculate D2E/DX2 analytically  !
 ! D69   D(27,15,16,30)       -178.8888         calculate D2E/DX2 analytically  !
 ! D70   D(27,15,16,31)        -58.8111         calculate D2E/DX2 analytically  !
 ! D71   D(28,15,16,29)        178.5249         calculate D2E/DX2 analytically  !
 ! D72   D(28,15,16,30)        -61.3788         calculate D2E/DX2 analytically  !
 ! D73   D(28,15,16,31)         58.6989         calculate D2E/DX2 analytically  !
 --------------------------------------------------------------------------------
 Trust Radius=3.00D-01 FncErr=1.00D-07 GrdErr=1.00D-06
 Number of steps in this run=    167 maximum allowed number of steps=    186.
 GradGradGradGradGradGradGradGradGradGradGradGradGradGradGradGradGradGrad

                          Input orientation:                          
 ---------------------------------------------------------------------
 Center     Atomic      Atomic             Coordinates (Angstroms)
 Number     Number       Type             X           Y           Z
 ---------------------------------------------------------------------
      1          8           0        0.488024   -1.044212   -0.128100
      2          6           0        1.123845   -0.017492   -0.373609
      3          7           0        0.490472    1.135943   -0.678403
      4          6           0       -0.952331    1.179802   -0.777899
      5          6           0       -1.313456    2.460537   -1.516985
      6          8           0       -2.628012    2.618957   -1.772967
      7          8           0       -0.510003    3.284664   -1.851898
      8          6           0       -1.638845    1.094382    0.620743
      9          6           0       -2.642701   -0.010178    0.702351
     10          6           0       -3.989868   -0.021681    0.905013
     11          7           0       -4.476793   -1.317343    0.866546
     12          6           0       -3.425194   -2.066739    0.639055
     13          7           0       -2.293636   -1.327439    0.530588
     14          6           0        2.639540    0.021364   -0.382610
     15          6           0        3.234388   -0.997902    0.573178
     16          7           0        4.720173   -1.027433    0.502220
     17          1           0        0.981373    1.940946   -1.037338
     18          1           0       -1.278962    0.340841   -1.403513
     19          1           0       -3.115548    1.846115   -1.464303
     20          1           0       -2.131516    2.034185    0.870539
     21          1           0       -0.863674    0.942566    1.369359
     22          1           0       -4.644919    0.820583    1.076687
     23          1           0       -3.413057   -3.138350    0.545338
     24          1           0       -1.352539   -1.645316    0.352137
     25          1           0        2.982476    1.027973   -0.135904
     26          1           0        2.975428   -0.200789   -1.399690
     27          1           0        2.830344   -1.978956    0.327855
     28          1           0        2.924933   -0.767636    1.592065
     29          1           0        5.038567   -1.265120   -0.437119
     30          1           0        5.124010   -0.122922    0.746146
     31          1           0        5.117207   -1.718407    1.140508
 ---------------------------------------------------------------------
                    Distance matrix (angstroms):
                    1          2          3          4          5
     1  O    0.000000
     2  C    1.232354   0.000000
     3  N    2.248537   1.350731   0.000000
     4  C    2.728204   2.430528   1.446894   0.000000
     5  C    4.178230   3.659013   2.389964   1.522151   0.000000
     6  O    5.082723   4.794319   3.622478   2.422651   1.348584
     7  O    4.765156   3.969765   2.644815   2.404075   1.198704
     8  C    3.107719   3.139658   2.494694   1.560384   2.557761
     9  C    3.400046   3.917220   3.610658   2.542547   3.577259
    10  C    4.707909   5.271143   4.890884   3.674559   4.380715
    11  N    5.070831   5.881729   5.751453   4.621879   5.473600
    12  C    4.116718   5.091037   5.227362   4.320050   5.440972
    13  N    2.872580   3.769975   3.909114   3.130095   4.416115
    14  C    2.414384   1.516220   2.438908   3.794702   4.781480
    15  C    2.834863   2.512369   3.694431   4.908809   6.083787
    16  N    4.278863   3.836747   4.895348   6.219959   7.255881
    17  H    3.159316   2.072755   1.008884   2.094244   2.401308
    18  H    2.582110   2.638672   2.070959   1.096328   2.123011
    19  H    4.808863   4.757636   3.758373   2.365298   1.904685
    20  H    4.163628   4.044089   3.175040   2.199499   2.559545
    21  H    2.831388   2.812451   2.462608   2.162142   3.292040
    22  H    5.592502   6.007027   5.436179   4.147739   4.529374
    23  H    4.478545   5.582804   5.916475   5.143206   6.325270
    24  H    1.994900   3.051065   3.492006   3.068947   4.511449
    25  H    3.242885   2.145696   2.552655   3.989726   4.734413
    26  H    2.918130   2.124806   2.912407   4.209506   5.048856
    27  H    2.562831   2.692866   4.023699   5.050650   6.346938
    28  H    2.995661   2.769568   3.834741   4.943927   6.168569
    29  H    4.566370   4.109216   5.148639   6.479555   7.442771
    30  H    4.806813   4.155272   5.008368   6.398572   7.296369
    31  H    4.846983   4.597021   5.732576   6.994225   8.116605
                    6          7          8          9         10
     6  O    0.000000
     7  O    2.221567   0.000000
     8  C    3.005433   3.490785   0.000000
     9  C    3.611062   4.682796   1.494804   0.000000
    10  C    3.999900   5.535516   2.617960   1.362374   0.000000
    11  N    5.087188   6.656113   3.732397   2.258215   1.384672
    12  C    5.330018   6.583366   3.630986   2.201305   2.138189
    13  N    4.581727   5.488997   2.510398   1.373509   2.173109
    14  C    6.035535   4.767343   4.523567   5.392607   6.753434
    15  C    7.276935   6.183997   5.303612   5.960910   7.297465
    16  N    8.512841   7.175709   6.704718   7.435508   8.777163
    17  H    3.745465   2.166400   3.214256   4.468480   5.686639
    18  H    2.673246   3.075458   2.189737   2.533310   3.579067
    19  H    0.964495   3.001420   2.663301   2.892023   3.141139
    20  H    2.752561   3.406562   1.090116   2.114005   2.771506
    21  H    3.974593   3.998376   1.088285   2.125455   3.304312
    22  H    3.927161   5.634345   3.052759   2.199811   1.080728
    23  H    6.255991   7.445105   4.590156   3.225455   3.189938
    24  H    4.932232   5.465559   2.767681   2.112070   3.146007
    25  H    6.057127   4.498300   4.683325   5.781267   7.127332
    26  H    6.284015   4.949859   5.201070   6.001524   7.338875
    27  H    7.439617   6.604161   5.431835   5.828426   7.118941
    28  H    7.323090   6.330940   5.023807   5.688926   6.988774
    29  H    8.697527   7.313601   7.160597   7.866076   9.211954
    30  H    8.599865   7.078388   6.872682   7.767653   9.115825
    31  H    9.342884   8.102513   7.336632   7.957776   9.266777
                   11         12         13         14         15
    11  N    0.000000
    12  C    1.311184   0.000000
    13  N    2.208878   1.356006   0.000000
    14  C    7.348110   6.494996   5.195135   0.000000
    15  C    7.723368   6.745130   5.538001   1.518643   0.000000
    16  N    9.208744   8.212544   7.020279   2.492375   1.487772
    17  H    6.635721   6.187864   4.885327   2.619729   4.038151
    18  H    4.257800   3.817700   2.748357   4.061892   5.105866
    19  H    4.158523   4.453136   3.837522   6.133581   7.249927
    20  H    4.090609   4.306363   3.382657   5.327739   6.170486
    21  H    4.291228   4.018786   2.810917   4.023744   4.603632
    22  H    2.154798   3.164787   3.231216   7.472058   8.102091
    23  H    2.133254   1.075771   2.129019   6.890487   6.983611
    24  H    3.183259   2.134436   1.009234   4.387980   4.637662
    25  H    7.883280   7.157936   5.816316   1.091664   2.161117
    26  H    7.868807   6.971816   5.723491   1.093903   2.143515
    27  H    7.356776   6.263889   5.169211   2.131302   1.088992
    28  H    7.457486   6.551336   5.354771   2.145533   1.089456
    29  H    9.604392   8.569481   7.396049   2.722746   2.084987
    30  H    9.675565   8.768055   7.517899   2.732673   2.089541
    31  H    9.606287   8.564194   7.446170   3.389031   2.094278
                   16         17         18         19         20
    16  N    0.000000
    17  H    5.015988   0.000000
    18  H    6.441554   2.793480   0.000000
    19  H    8.574556   4.120201   2.375414   0.000000
    20  H    7.513641   3.652227   2.960670   2.540704   0.000000
    21  H    5.984327   3.192671   2.867639   3.730547   1.745817
    22  H    9.562956   6.113876   4.208469   3.138044   2.798664
    23  H    8.402813   6.900372   4.522959   5.382570   5.338841
    24  H    6.105910   4.498784   2.651893   4.312510   3.796613
    25  H    2.766132   2.377082   4.498760   6.294434   5.308324
    26  H    2.710118   2.948658   4.288731   6.426040   6.019130
    27  H    2.123030   4.544015   5.026479   7.293602   6.404675
    28  H    2.116163   4.245892   5.279672   7.256755   5.825674
    29  H    1.019915   5.205761   6.589705   8.787746   8.000342
    30  H    1.020159   4.960021   6.770093   8.755199   7.570419
    31  H    1.021026   5.936245   7.184952   9.341794   8.166934
                   21         22         23         24         25
    21  H    0.000000
    22  H    3.794517   0.000000
    23  H    4.881828   4.180068   0.000000
    24  H    2.823271   4.176768   2.551904   0.000000
    25  H    4.131099   7.725966   7.663236   5.116348   0.000000
    26  H    4.869661   8.077459   7.295557   4.887418   1.762686
    27  H    4.823462   8.017339   6.353861   4.196238   3.046283
    28  H    4.162683   7.751820   6.847338   4.539219   2.492670
    29  H    6.555432  10.020563   8.712300   6.450869   3.094595
    30  H    6.113593   9.819951   9.056194   6.664730   2.586260
    31  H    6.550121  10.087104   8.668095   6.518013   3.705254
                   26         27         28         29         30
    26  H    0.000000
    27  H    2.483413   0.000000
    28  H    3.045401   1.753416   0.000000
    29  H    2.513143   2.443562   2.971957   0.000000
    30  H    3.037611   2.980057   2.442781   1.646825   0.000000
    31  H    3.652806   2.440909   2.431858   1.643339   1.643515
                   31
    31  H    0.000000
 Symmetry turned off by external request.
 Stoichiometry    C9H15N4O3(1+)
 Framework group  C1[X(C9H15N4O3)]
 Deg. of freedom    87
 Full point group                 C1      NOp   1
 Rotational constants (GHZ):      0.6579548      0.3092405      0.2195217
 Standard basis: 6-31G(d) (6D, 7F)
   270 basis functions,   508 primitive gaussians,   270 cartesian basis functions
    60 alpha electrons       60 beta electrons
       nuclear repulsion energy      1130.0178159133 Hartrees.
 NAtoms=   31 NActive=   31 NUniq=   31 SFac= 1.00D+00 NAtFMM=   60 NAOKFM=F Big=F
 Integral buffers will be    131072 words long.
 Raffenetti 2 integral format.
 Two-electron integral symmetry is turned off.
 Nuclear repulsion after empirical dispersion term =     1129.9621763981 Hartrees.
 One-electron integrals computed using PRISM.
 NBasis=   270 RedAO= T EigKep=  1.23D-03  NBF=   270
 NBsUse=   270 1.00D-06 EigRej= -1.00D+00 NBFU=   270
 ExpMin= 1.61D-01 ExpMax= 5.48D+03 ExpMxC= 8.25D+02 IAcc=3 IRadAn=         5 AccDes= 0.00D+00
 Harris functional with IExCor=  402 and IRadAn=       5 diagonalized for initial guess.
 HarFok:  IExCor=  402 AccDes= 0.00D+00 IRadAn=         5 IDoV= 1 UseB2=F ITyADJ=14
 ICtDFT=  3500011 ScaDFX=  1.000000  1.000000  1.000000  1.000000
 FoFCou: FMM=F IPFlag=           0 FMFlag=      100000 FMFlg1=           0
         NFxFlg=           0 DoJE=T BraDBF=F KetDBF=T FulRan=T
         wScrn=  0.000000 ICntrl=     500 IOpCl=  0 I1Cent=   200000004 NGrid=           0
         NMat0=    1 NMatS0=      1 NMatT0=    0 NMatD0=    1 NMtDS0=    0 NMtDT0=    0
 Symmetry not used in FoFCou.
 Requested convergence on RMS density matrix=1.00D-08 within 128 cycles.
 Requested convergence on MAX density matrix=1.00D-06.
 Requested convergence on             energy=1.00D-06.
 No special actions if energy rises.
 Integral accuracy reduced to 1.0D-05 until final iterations.
 EnCoef did     2 forward-backward iterations
 Initial convergence to 1.0D-05 achieved.  Increase integral accuracy.
 SCF Done:  E(RB3LYP) =  -796.489062477     A.U. after   17 cycles
            NFock= 17  Conv=0.57D-08     -V/T= 2.0089
 DoSCS=F DFT=T ScalE2(SS,OS)=  1.000000  1.000000
 Range of M.O.s used for correlation:     1   270
 NBasis=   270 NAE=    60 NBE=    60 NFC=     0 NFV=     0
 NROrb=    270 NOA=    60 NOB=    60 NVA=   210 NVB=   210
 Symmetrizing basis deriv contribution to polar:
 IMax=3 JMax=2 DiffMx= 0.00D+00
 G2DrvN: will do    32 centers at a time, making    1 passes.
 Calling FoFCou, ICntrl=  3107 FMM=F I1Cent=   0 AccDes= 0.00D+00.
 End of G2Drv F.D. properties file   721 does not exist.
 End of G2Drv F.D. properties file   722 does not exist.
 End of G2Drv F.D. properties file   788 does not exist.
          IDoAtm=1111111111111111111111111111111
          Differentiating once with respect to nuclear coordinates.
          There are    96 degrees of freedom in the 1st order CPHF.  IDoFFX=6 NUNeed=     0.
     90 vectors produced by pass  0 Test12= 1.31D-14 1.04D-09 XBig12= 1.75D-01 1.08D-01.
 AX will form    90 AO Fock derivatives at one time.
     90 vectors produced by pass  1 Test12= 1.31D-14 1.04D-09 XBig12= 3.53D-02 4.96D-02.
     90 vectors produced by pass  2 Test12= 1.31D-14 1.04D-09 XBig12= 2.50D-04 2.28D-03.
     90 vectors produced by pass  3 Test12= 1.31D-14 1.04D-09 XBig12= 9.98D-07 9.83D-05.
     90 vectors produced by pass  4 Test12= 1.31D-14 1.04D-09 XBig12= 1.32D-09 3.10D-06.
     69 vectors produced by pass  5 Test12= 1.31D-14 1.04D-09 XBig12= 1.12D-12 8.76D-08.
     10 vectors produced by pass  6 Test12= 1.31D-14 1.04D-09 XBig12= 8.50D-16 2.81D-09.
 InvSVY:  IOpt=1 It=  1 EMax= 6.11D-16
 Solved reduced A of dimension   529 with    96 vectors.
 End of Minotr F.D. properties file   721 does not exist.
 End of Minotr F.D. properties file   722 does not exist.
 End of Minotr F.D. properties file   788 does not exist.

 **********************************************************************

            Population analysis using the SCF density.

 **********************************************************************

 Alpha  occ. eigenvalues --  -19.29750 -19.26922 -19.24769 -14.68375 -14.50127
 Alpha  occ. eigenvalues --  -14.45875 -14.38062 -10.44693 -10.44593 -10.42937
 Alpha  occ. eigenvalues --  -10.38705 -10.36160 -10.31089 -10.31002 -10.29797
 Alpha  occ. eigenvalues --  -10.27247  -1.23160  -1.21117  -1.18940  -1.13373
 Alpha  occ. eigenvalues --   -1.09085  -1.06772  -0.98545  -0.94387  -0.90968
 Alpha  occ. eigenvalues --   -0.86804  -0.83257  -0.81356  -0.80490  -0.77218
 Alpha  occ. eigenvalues --   -0.73340  -0.71587  -0.71382  -0.69300  -0.67854
 Alpha  occ. eigenvalues --   -0.66738  -0.66080  -0.63716  -0.61471  -0.59912
 Alpha  occ. eigenvalues --   -0.58803  -0.58072  -0.56695  -0.55705  -0.54475
 Alpha  occ. eigenvalues --   -0.54135  -0.52470  -0.50621  -0.49752  -0.49032
 Alpha  occ. eigenvalues --   -0.48726  -0.48211  -0.47843  -0.42276  -0.41403
 Alpha  occ. eigenvalues --   -0.39957  -0.38633  -0.35054  -0.33426  -0.30566
 Alpha virt. eigenvalues --   -0.17935  -0.13693  -0.11408  -0.11150  -0.09692
 Alpha virt. eigenvalues --   -0.07730  -0.05528  -0.04054  -0.03434  -0.02836
 Alpha virt. eigenvalues --   -0.01885  -0.00667  -0.00319   0.00734   0.01430
 Alpha virt. eigenvalues --    0.02349   0.04101   0.04688   0.05622   0.07047
 Alpha virt. eigenvalues --    0.08682   0.09805   0.11760   0.12356   0.13646
 Alpha virt. eigenvalues --    0.15348   0.15837   0.19997   0.20726   0.22596
 Alpha virt. eigenvalues --    0.24222   0.26514   0.27437   0.30922   0.32866
 Alpha virt. eigenvalues --    0.33525   0.34028   0.36590   0.36938   0.40736
 Alpha virt. eigenvalues --    0.42427   0.43244   0.44771   0.46067   0.46301
 Alpha virt. eigenvalues --    0.47412   0.47618   0.48357   0.49870   0.49887
 Alpha virt. eigenvalues --    0.52086   0.52253   0.54913   0.55204   0.56212
 Alpha virt. eigenvalues --    0.57055   0.58438   0.59003   0.59987   0.60167
 Alpha virt. eigenvalues --    0.60733   0.61055   0.63268   0.63471   0.64900
 Alpha virt. eigenvalues --    0.65670   0.67597   0.68178   0.68561   0.69822
 Alpha virt. eigenvalues --    0.70687   0.71975   0.73107   0.73332   0.74367
 Alpha virt. eigenvalues --    0.75075   0.75566   0.75894   0.76348   0.77620
 Alpha virt. eigenvalues --    0.78441   0.79634   0.80518   0.81000   0.83038
 Alpha virt. eigenvalues --    0.86626   0.87833   0.88513   0.90020   0.92352
 Alpha virt. eigenvalues --    0.93513   0.94521   0.95839   0.98163   0.99144
 Alpha virt. eigenvalues --    1.00810   1.03701   1.08162   1.08936   1.12023
 Alpha virt. eigenvalues --    1.13665   1.16186   1.19630   1.21189   1.23725
 Alpha virt. eigenvalues --    1.25438   1.27395   1.28563   1.28795   1.29593
 Alpha virt. eigenvalues --    1.30012   1.34153   1.34593   1.36277   1.40284
 Alpha virt. eigenvalues --    1.41564   1.44009   1.45995   1.47163   1.48897
 Alpha virt. eigenvalues --    1.50345   1.54003   1.56124   1.58349   1.60835
 Alpha virt. eigenvalues --    1.62648   1.63858   1.65716   1.67201   1.68088
 Alpha virt. eigenvalues --    1.68572   1.70734   1.71481   1.72136   1.73905
 Alpha virt. eigenvalues --    1.75135   1.75736   1.76259   1.78180   1.78929
 Alpha virt. eigenvalues --    1.80978   1.81638   1.83486   1.84831   1.86791
 Alpha virt. eigenvalues --    1.88892   1.92947   1.94115   1.96738   1.98943
 Alpha virt. eigenvalues --    2.02836   2.03405   2.05781   2.07211   2.08981
 Alpha virt. eigenvalues --    2.12813   2.13369   2.14381   2.16556   2.17808
 Alpha virt. eigenvalues --    2.18627   2.19160   2.23690   2.25546   2.28238
 Alpha virt. eigenvalues --    2.30312   2.30900   2.32792   2.34072   2.35573
 Alpha virt. eigenvalues --    2.38048   2.40519   2.41557   2.45176   2.47857
 Alpha virt. eigenvalues --    2.51293   2.51613   2.53468   2.54483   2.57775
 Alpha virt. eigenvalues --    2.59905   2.61701   2.66851   2.70656   2.72267
 Alpha virt. eigenvalues --    2.77525   2.81460   2.87683   2.91042   2.92657
 Alpha virt. eigenvalues --    2.96009   2.99111   3.06729   3.07956   3.52680
 Alpha virt. eigenvalues --    3.79628   3.85506   3.90483   3.94980   3.98959
 Alpha virt. eigenvalues --    4.01693   4.05727   4.08097   4.17260   4.18867
 Alpha virt. eigenvalues --    4.24272   4.29516   4.37487   4.50860   4.53584
          Condensed to atoms (all electrons):
               1          2          3          4          5          6
     1  O    8.131358   0.532015  -0.097083   0.005440   0.000516  -0.000001
     2  C    0.532015   4.287382   0.323726  -0.026532   0.005175  -0.000044
     3  N   -0.097083   0.323726   7.144319   0.191378  -0.018444   0.002776
     4  C    0.005440  -0.026532   0.191378   5.333281   0.274666  -0.098484
     5  C    0.000516   0.005175  -0.018444   0.274666   4.318215   0.295114
     6  O   -0.000001  -0.000044   0.002776  -0.098484   0.295114   8.194702
     7  O   -0.000006   0.000846  -0.012916  -0.093026   0.591206  -0.074399
     8  C    0.003166  -0.004019  -0.042717   0.273395  -0.018780   0.003640
     9  C   -0.003459  -0.000015   0.002599  -0.031724  -0.001315  -0.002256
    10  C    0.000027   0.000007  -0.000046  -0.000431  -0.000145  -0.000502
    11  N   -0.000008   0.000000   0.000001  -0.000081  -0.000001   0.000001
    12  C    0.000340   0.000017  -0.000011   0.000216   0.000005   0.000005
    13  N   -0.012599   0.000868   0.000253  -0.003728   0.000214   0.000026
    14  C   -0.089608   0.298813  -0.116881   0.006556  -0.000115   0.000000
    15  C    0.002936  -0.018860   0.002630  -0.000101  -0.000001   0.000000
    16  N    0.000274   0.001890  -0.000024   0.000000   0.000000   0.000000
    17  H    0.002529  -0.017349   0.280932  -0.046908  -0.003217   0.000943
    18  H    0.005706  -0.001143  -0.048648   0.376805  -0.027834   0.001382
    19  H    0.000002  -0.000004   0.000388   0.001314  -0.019952   0.221336
    20  H    0.000095   0.000224   0.002554  -0.044937  -0.001784   0.003002
    21  H    0.000370   0.003789  -0.005876  -0.051099   0.001106   0.000144
    22  H    0.000000   0.000000   0.000000  -0.000034  -0.000006  -0.000021
    23  H   -0.000010   0.000001   0.000000   0.000000   0.000000   0.000000
    24  H    0.034863  -0.002204  -0.000277   0.000499   0.000018   0.000000
    25  H    0.001975  -0.020434   0.005844   0.000145  -0.000019   0.000000
    26  H    0.000223  -0.015231  -0.002143  -0.000134   0.000000   0.000000
    27  H    0.013737   0.001236   0.000612  -0.000007   0.000000   0.000000
    28  H    0.001207  -0.000264   0.000313  -0.000017   0.000000   0.000000
    29  H    0.000018  -0.000006   0.000001   0.000000   0.000000   0.000000
    30  H    0.000002  -0.000041   0.000001   0.000000   0.000000   0.000000
    31  H    0.000012   0.000020   0.000001   0.000000   0.000000   0.000000
               7          8          9         10         11         12
     1  O   -0.000006   0.003166  -0.003459   0.000027  -0.000008   0.000340
     2  C    0.000846  -0.004019  -0.000015   0.000007   0.000000   0.000017
     3  N   -0.012916  -0.042717   0.002599  -0.000046   0.000001  -0.000011
     4  C   -0.093026   0.273395  -0.031724  -0.000431  -0.000081   0.000216
     5  C    0.591206  -0.018780  -0.001315  -0.000145  -0.000001   0.000005
     6  O   -0.074399   0.003640  -0.002256  -0.000502   0.000001   0.000005
     7  O    7.981602   0.000239   0.000035   0.000000   0.000000   0.000000
     8  C    0.000239   5.288939   0.318306  -0.056768   0.007161   0.006521
     9  C    0.000035   0.318306   4.761971   0.560906  -0.045214  -0.094059
    10  C    0.000000  -0.056768   0.560906   4.954217   0.423612  -0.117786
    11  N    0.000000   0.007161  -0.045214   0.423612   6.651079   0.535148
    12  C    0.000000   0.006521  -0.094059  -0.117786   0.535148   4.729860
    13  N   -0.000001  -0.074286   0.371122  -0.075911  -0.083372   0.354545
    14  C   -0.000077  -0.000294   0.000002   0.000000   0.000000   0.000001
    15  C    0.000000   0.000041  -0.000002   0.000000   0.000000   0.000000
    16  N    0.000000   0.000000   0.000000   0.000000   0.000000   0.000000
    17  H    0.040729   0.003521  -0.000121   0.000001   0.000000   0.000000
    18  H    0.000937  -0.056375   0.001933   0.000422  -0.000126  -0.000090
    19  H    0.004060  -0.000454   0.010669   0.005813  -0.000079  -0.000173
    20  H    0.000079   0.372101  -0.029762  -0.001744   0.000010  -0.000029
    21  H   -0.000128   0.364109  -0.026597   0.000677  -0.000146   0.000176
    22  H    0.000000  -0.000971  -0.061673   0.383437  -0.040259   0.007597
    23  H    0.000000  -0.000188   0.003100   0.007745  -0.037867   0.383192
    24  H    0.000000  -0.002696  -0.025358   0.008257   0.004181  -0.018930
    25  H   -0.000010  -0.000007   0.000001   0.000000   0.000000   0.000000
    26  H    0.000000  -0.000012   0.000000   0.000000   0.000000   0.000000
    27  H    0.000000   0.000000   0.000001   0.000000   0.000000   0.000000
    28  H    0.000000  -0.000003   0.000000   0.000000   0.000000   0.000000
    29  H    0.000000   0.000000   0.000000   0.000000   0.000000   0.000000
    30  H    0.000000   0.000000   0.000000   0.000000   0.000000   0.000000
    31  H    0.000000   0.000000   0.000000   0.000000   0.000000   0.000000
              13         14         15         16         17         18
     1  O   -0.012599  -0.089608   0.002936   0.000274   0.002529   0.005706
     2  C    0.000868   0.298813  -0.018860   0.001890  -0.017349  -0.001143
     3  N    0.000253  -0.116881   0.002630  -0.000024   0.280932  -0.048648
     4  C   -0.003728   0.006556  -0.000101   0.000000  -0.046908   0.376805
     5  C    0.000214  -0.000115  -0.000001   0.000000  -0.003217  -0.027834
     6  O    0.000026   0.000000   0.000000   0.000000   0.000943   0.001382
     7  O   -0.000001  -0.000077   0.000000   0.000000   0.040729   0.000937
     8  C   -0.074286  -0.000294   0.000041   0.000000   0.003521  -0.056375
     9  C    0.371122   0.000002  -0.000002   0.000000  -0.000121   0.001933
    10  C   -0.075911   0.000000   0.000000   0.000000   0.000001   0.000422
    11  N   -0.083372   0.000000   0.000000   0.000000   0.000000  -0.000126
    12  C    0.354545   0.000001   0.000000   0.000000   0.000000  -0.000090
    13  N    6.904168  -0.000027  -0.000001   0.000000  -0.000002   0.004927
    14  C   -0.000027   5.383807   0.320734  -0.043819   0.000137   0.000254
    15  C   -0.000001   0.320734   5.130596   0.165201  -0.000007  -0.000023
    16  N    0.000000  -0.043819   0.165201   6.749865  -0.000005   0.000000
    17  H   -0.000002   0.000137  -0.000007  -0.000005   0.371057   0.003912
    18  H    0.004927   0.000254  -0.000023   0.000000   0.003912   0.520260
    19  H   -0.000298   0.000000   0.000000   0.000000  -0.000122   0.000973
    20  H    0.003484   0.000010   0.000000   0.000000   0.000069   0.003565
    21  H   -0.002659  -0.000290   0.000002   0.000000   0.000031   0.002360
    22  H    0.004685   0.000000   0.000000   0.000000   0.000000   0.000032
    23  H   -0.058483   0.000000   0.000000   0.000000   0.000000   0.000013
    24  H    0.274727   0.000331   0.000005   0.000000  -0.000014   0.000127
    25  H    0.000000   0.354565  -0.038621  -0.002180   0.001116   0.000008
    26  H    0.000000   0.361729  -0.040216  -0.002511   0.000253   0.000057
    27  H    0.000000  -0.040825   0.374978  -0.029901  -0.000016  -0.000002
    28  H    0.000000  -0.034931   0.383705  -0.031869  -0.000007   0.000002
    29  H    0.000000  -0.000253  -0.020929   0.302441   0.000000   0.000000
    30  H    0.000000  -0.001289  -0.017009   0.301873   0.000001   0.000000
    31  H    0.000000   0.003471  -0.020604   0.308042   0.000000   0.000000
              19         20         21         22         23         24
     1  O    0.000002   0.000095   0.000370   0.000000  -0.000010   0.034863
     2  C   -0.000004   0.000224   0.003789   0.000000   0.000001  -0.002204
     3  N    0.000388   0.002554  -0.005876   0.000000   0.000000  -0.000277
     4  C    0.001314  -0.044937  -0.051099  -0.000034   0.000000   0.000499
     5  C   -0.019952  -0.001784   0.001106  -0.000006   0.000000   0.000018
     6  O    0.221336   0.003002   0.000144  -0.000021   0.000000   0.000000
     7  O    0.004060   0.000079  -0.000128   0.000000   0.000000   0.000000
     8  C   -0.000454   0.372101   0.364109  -0.000971  -0.000188  -0.002696
     9  C    0.010669  -0.029762  -0.026597  -0.061673   0.003100  -0.025358
    10  C    0.005813  -0.001744   0.000677   0.383437   0.007745   0.008257
    11  N   -0.000079   0.000010  -0.000146  -0.040259  -0.037867   0.004181
    12  C   -0.000173  -0.000029   0.000176   0.007597   0.383192  -0.018930
    13  N   -0.000298   0.003484  -0.002659   0.004685  -0.058483   0.274727
    14  C    0.000000   0.000010  -0.000290   0.000000   0.000000   0.000331
    15  C    0.000000   0.000000   0.000002   0.000000   0.000000   0.000005
    16  N    0.000000   0.000000   0.000000   0.000000   0.000000   0.000000
    17  H   -0.000122   0.000069   0.000031   0.000000   0.000000  -0.000014
    18  H    0.000973   0.003565   0.002360   0.000032   0.000013   0.000127
    19  H    0.348835   0.000004   0.000375   0.000314   0.000000  -0.000001
    20  H    0.000004   0.513402  -0.023084   0.002642   0.000004  -0.000042
    21  H    0.000375  -0.023084   0.559104  -0.000039  -0.000003   0.000733
    22  H    0.000314   0.002642  -0.000039   0.556030  -0.000140  -0.000099
    23  H    0.000000   0.000004  -0.000003  -0.000140   0.535194   0.000454
    24  H   -0.000001  -0.000042   0.000733  -0.000099   0.000454   0.358790
    25  H    0.000000  -0.000002   0.000009   0.000000   0.000000  -0.000006
    26  H    0.000000   0.000000   0.000006   0.000000   0.000000  -0.000004
    27  H    0.000000   0.000000   0.000001   0.000000   0.000000  -0.000003
    28  H    0.000000   0.000000   0.000038   0.000000   0.000000  -0.000001
    29  H    0.000000   0.000000   0.000000   0.000000   0.000000   0.000000
    30  H    0.000000   0.000000   0.000000   0.000000   0.000000   0.000000
    31  H    0.000000   0.000000   0.000000   0.000000   0.000000   0.000000
              25         26         27         28         29         30
     1  O    0.001975   0.000223   0.013737   0.001207   0.000018   0.000002
     2  C   -0.020434  -0.015231   0.001236  -0.000264  -0.000006  -0.000041
     3  N    0.005844  -0.002143   0.000612   0.000313   0.000001   0.000001
     4  C    0.000145  -0.000134  -0.000007  -0.000017   0.000000   0.000000
     5  C   -0.000019   0.000000   0.000000   0.000000   0.000000   0.000000
     6  O    0.000000   0.000000   0.000000   0.000000   0.000000   0.000000
     7  O   -0.000010   0.000000   0.000000   0.000000   0.000000   0.000000
     8  C   -0.000007  -0.000012   0.000000  -0.000003   0.000000   0.000000
     9  C    0.000001   0.000000   0.000001   0.000000   0.000000   0.000000
    10  C    0.000000   0.000000   0.000000   0.000000   0.000000   0.000000
    11  N    0.000000   0.000000   0.000000   0.000000   0.000000   0.000000
    12  C    0.000000   0.000000   0.000000   0.000000   0.000000   0.000000
    13  N    0.000000   0.000000   0.000000   0.000000   0.000000   0.000000
    14  C    0.354565   0.361729  -0.040825  -0.034931  -0.000253  -0.001289
    15  C   -0.038621  -0.040216   0.374978   0.383705  -0.020929  -0.017009
    16  N   -0.002180  -0.002511  -0.029901  -0.031869   0.302441   0.301873
    17  H    0.001116   0.000253  -0.000016  -0.000007   0.000000   0.000001
    18  H    0.000008   0.000057  -0.000002   0.000002   0.000000   0.000000
    19  H    0.000000   0.000000   0.000000   0.000000   0.000000   0.000000
    20  H   -0.000002   0.000000   0.000000   0.000000   0.000000   0.000000
    21  H    0.000009   0.000006   0.000001   0.000038   0.000000   0.000000
    22  H    0.000000   0.000000   0.000000   0.000000   0.000000   0.000000
    23  H    0.000000   0.000000   0.000000   0.000000   0.000000   0.000000
    24  H   -0.000006  -0.000004  -0.000003  -0.000001   0.000000   0.000000
    25  H    0.526415  -0.026619   0.004482  -0.003803  -0.000244   0.003849
    26  H   -0.026619   0.508483  -0.003557   0.004275   0.004959  -0.000391
    27  H    0.004482  -0.003557   0.439791  -0.021794  -0.002516   0.003250
    28  H   -0.003803   0.004275  -0.021794   0.458601   0.003620  -0.002873
    29  H   -0.000244   0.004959  -0.002516   0.003620   0.306257  -0.014695
    30  H    0.003849  -0.000391   0.003250  -0.002873  -0.014695   0.306384
    31  H   -0.000027  -0.000027  -0.001308  -0.001776  -0.012834  -0.013632
              31
     1  O    0.000012
     2  C    0.000020
     3  N    0.000001
     4  C    0.000000
     5  C    0.000000
     6  O    0.000000
     7  O    0.000000
     8  C    0.000000
     9  C    0.000000
    10  C    0.000000
    11  N    0.000000
    12  C    0.000000
    13  N    0.000000
    14  C    0.003471
    15  C   -0.020604
    16  N    0.308042
    17  H    0.000000
    18  H    0.000000
    19  H    0.000000
    20  H    0.000000
    21  H    0.000000
    22  H    0.000000
    23  H    0.000000
    24  H    0.000000
    25  H   -0.000027
    26  H   -0.000027
    27  H   -0.001308
    28  H   -0.001776
    29  H   -0.012834
    30  H   -0.013632
    31  H    0.295327
 Mulliken charges:
               1
     1  O   -0.534036
     2  C    0.650138
     3  N   -0.613262
     4  C   -0.066455
     5  C    0.605379
     6  O   -0.547367
     7  O   -0.439172
     8  C   -0.383573
     9  C    0.290908
    10  C   -0.091787
    11  N   -0.414042
    12  C    0.213457
    13  N   -0.607654
    14  C   -0.401999
    15  C   -0.224455
    16  N   -0.719279
    17  H    0.362536
    18  H    0.210566
    19  H    0.426997
    20  H    0.200141
    21  H    0.176892
    22  H    0.148505
    23  H    0.166989
    24  H    0.366649
    25  H    0.193562
    26  H    0.210859
    27  H    0.261842
    28  H    0.245576
    29  H    0.434181
    30  H    0.434570
    31  H    0.443337
 Sum of Mulliken charges =   1.00000
 Mulliken charges with hydrogens summed into heavy atoms:
               1
     1  O   -0.534036
     2  C    0.650138
     3  N   -0.250726
     4  C    0.144111
     5  C    0.605379
     6  O   -0.120369
     7  O   -0.439172
     8  C   -0.006540
     9  C    0.290908
    10  C    0.056718
    11  N   -0.414042
    12  C    0.380445
    13  N   -0.241005
    14  C    0.002422
    15  C    0.282962
    16  N    0.592808
 APT charges:
               1
     1  O   -0.550186
     2  C    0.303868
     3  N   -0.740678
     4  C   -0.360960
     5  C   -0.454342
     6  O   -0.024434
     7  O    0.258840
     8  C   -0.941305
     9  C   -0.597687
    10  C   -0.276450
    11  N    0.464860
    12  C   -0.602656
    13  N   -0.618254
    14  C   -0.848815
    15  C   -0.174826
    16  N   -1.963386
    17  H    0.675452
    18  H    0.355073
    19  H    0.413825
    20  H    0.620905
    21  H    0.250708
    22  H    0.795603
    23  H    0.716918
    24  H    0.193843
    25  H    0.439003
    26  H    0.517527
    27  H    0.299686
    28  H    0.257856
    29  H    0.775301
    30  H    0.744109
    31  H    1.070599
 Sum of APT charges =   1.00000
 APT charges with hydrogens summed into heavy atoms:
               1
     1  O   -0.550186
     2  C    0.303868
     3  N   -0.065226
     4  C   -0.005887
     5  C   -0.454342
     6  O    0.389391
     7  O    0.258840
     8  C   -0.069692
     9  C   -0.597687
    10  C    0.519153
    11  N    0.464860
    12  C    0.114262
    13  N   -0.424411
    14  C    0.107716
    15  C    0.382716
    16  N    0.626624
 Electronic spatial extent (au):  <R**2>=           4905.7715
 Charge=              1.0000 electrons
 Dipole moment (field-independent basis, Debye):
    X=             22.4428    Y=             -4.2922    Z=              1.9030  Tot=             22.9286
 Quadrupole moment (field-independent basis, Debye-Ang):
   XX=             -2.2178   YY=            -91.4041   ZZ=            -90.5018
   XY=            -24.4396   XZ=             13.0961   YZ=              5.5655
 Traceless Quadrupole moment (field-independent basis, Debye-Ang):
   XX=             59.1568   YY=            -30.0295   ZZ=            -29.1273
   XY=            -24.4396   XZ=             13.0961   YZ=              5.5655
 Octapole moment (field-independent basis, Debye-Ang**2):
  XXX=            751.7374  YYY=           -137.0517  ZZZ=             35.8305  XYY=             94.0196
  XXY=            -79.2314  XXZ=             34.4467  XZZ=             86.3548  YZZ=            -37.3905
  YYZ=             46.5623  XYZ=            -26.3800
 Hexadecapole moment (field-independent basis, Debye-Ang**3):
 XXXX=          -2237.3666 YYYY=          -1517.3000 ZZZZ=           -591.1690 XXXY=           -611.8200
 XXXZ=            407.7840 YYYX=            165.9087 YYYZ=            419.8010 ZZZX=             75.2021
 ZZZY=            353.4572 XXYY=           -765.7364 XXZZ=           -728.7542 YYZZ=           -394.3809
 XXYZ=            107.7276 YYXZ=              1.4919 ZZXY=             22.1060
 N-N= 1.129962176398D+03 E-N=-4.101535351605D+03  KE= 7.894866236739D+02
  Exact polarizability:   0.000   0.000   0.000   0.000   0.000   0.000
 Approx polarizability: 209.236  12.103 202.915 -10.772 -13.303 120.142
 Calling FoFJK, ICntrl=    100147 FMM=F ISym2X=0 I1Cent= 0 IOpClX= 0 NMat=1 NMatS=1 NMatT=0.
 -------------------------------------------------------------------
 Center     Atomic                   Forces (Hartrees/Bohr)
 Number     Number              X              Y              Z
 -------------------------------------------------------------------
      1        8           0.013589025   -0.008761351    0.005201247
      2        6          -0.023629581    0.006049184   -0.004104899
      3        7           0.012292521   -0.007372967    0.001518313
      4        6           0.001575772   -0.000441882   -0.002128208
      5        6          -0.016589640   -0.002663351   -0.000548587
      6        8           0.010119588    0.003317214   -0.000153867
      7        8           0.013784825    0.008706293   -0.002617109
      8        6          -0.007492335   -0.007225142    0.000791416
      9        6           0.010602587    0.011953865   -0.002980370
     10        6          -0.015263739   -0.003893578    0.000151531
     11        7          -0.005298559    0.005981090    0.000989584
     12        6          -0.002572644   -0.002620388    0.000647713
     13        7           0.008232802   -0.003949119   -0.001006895
     14        6           0.011799635    0.004987165   -0.004044756
     15        6          -0.030090401   -0.000251065    0.002087157
     16        7           0.003082683   -0.001451699    0.001203572
     17        1           0.001712702    0.007787234   -0.001170112
     18        1          -0.000867068   -0.001772537    0.002229550
     19        1          -0.008968067   -0.007646495    0.003642099
     20        1          -0.000616939    0.002737432    0.000177141
     21        1           0.004830594    0.001059756    0.002033500
     22        1          -0.000928999    0.000707968    0.001055596
     23        1          -0.001534943   -0.004543209   -0.000180825
     24        1           0.002872781   -0.000514519   -0.000998960
     25        1           0.001238569    0.003448717   -0.000123788
     26        1           0.000044825    0.000715459   -0.004390882
     27        1           0.004031079   -0.004105268    0.000335887
     28        1           0.005503543   -0.000856137    0.004117494
     29        1           0.003091964   -0.000970840   -0.006671483
     30        1           0.003298649    0.006079179    0.000842140
     31        1           0.002148772   -0.004491010    0.004096803
 -------------------------------------------------------------------
 Cartesian Forces:  Max     0.030090401 RMS     0.006743241
 FormGI is forming the generalized inverse of G from B-inverse, IUseBI=4.

 GradGradGradGradGradGradGradGradGradGradGradGradGradGradGradGradGradGrad
 Berny optimization.
 Internal  Forces:  Max     0.022930776 RMS     0.004713348
 Search for a local minimum.
 Step number   1 out of a maximum of  167
 All quantities printed in internal units (Hartrees-Bohrs-Radians)
 Mixed Optimization -- RFO/linear search
 Second derivative matrix not updated -- analytic derivatives used.
 ITU=  0
     Eigenvalues ---    0.00038   0.00129   0.00176   0.00208   0.00367
     Eigenvalues ---    0.00478   0.00569   0.00807   0.01010   0.01243
     Eigenvalues ---    0.01675   0.02076   0.02356   0.02728   0.03366
     Eigenvalues ---    0.03847   0.04030   0.04156   0.04203   0.04303
     Eigenvalues ---    0.04440   0.04581   0.05161   0.05260   0.05297
     Eigenvalues ---    0.05407   0.06079   0.06219   0.06334   0.07563
     Eigenvalues ---    0.08091   0.08518   0.10721   0.10820   0.11193
     Eigenvalues ---    0.11631   0.11932   0.12699   0.13555   0.13595
     Eigenvalues ---    0.14072   0.15628   0.16135   0.17039   0.17315
     Eigenvalues ---    0.18429   0.19503   0.19978   0.20307   0.22471
     Eigenvalues ---    0.23297   0.23449   0.24124   0.24390   0.25599
     Eigenvalues ---    0.27489   0.29986   0.30519   0.32191   0.32886
     Eigenvalues ---    0.33547   0.34195   0.34791   0.34911   0.35205
     Eigenvalues ---    0.35335   0.35618   0.36053   0.36136   0.37544
     Eigenvalues ---    0.37851   0.38742   0.43139   0.44309   0.44482
     Eigenvalues ---    0.45029   0.45477   0.46108   0.47317   0.47540
     Eigenvalues ---    0.48835   0.50287   0.52605   0.61024   0.71634
     Eigenvalues ---    0.82176   0.95692
 RFO step:  Lambda=-1.15753344D-02 EMin= 3.80309825D-04
 Linear search not attempted -- first point.
 Iteration  1 RMS(Cart)=  0.09218401 RMS(Int)=  0.00252618
 Iteration  2 RMS(Cart)=  0.00421576 RMS(Int)=  0.00029091
 Iteration  3 RMS(Cart)=  0.00001170 RMS(Int)=  0.00029086
 Iteration  4 RMS(Cart)=  0.00000000 RMS(Int)=  0.00029086
 Variable       Old X    -DE/DX   Delta X   Delta X   Delta X     New X
                                 (Linear)    (Quad)   (Total)
    R1        2.32881   0.00132   0.00000   0.00458   0.00458   2.33339
    R2        2.55251  -0.00342   0.00000  -0.02281  -0.02281   2.52970
    R3        2.86524   0.00424   0.00000   0.03328   0.03328   2.89852
    R4        2.73423   0.00799   0.00000   0.00867   0.00867   2.74290
    R5        1.90651   0.00746   0.00000   0.01633   0.01633   1.92285
    R6        2.87645   0.00168   0.00000   0.00658   0.00658   2.88303
    R7        2.94870   0.00378   0.00000   0.01068   0.01068   2.95938
    R8        2.07176   0.00034   0.00000  -0.00035  -0.00035   2.07141
    R9        2.54845  -0.00229   0.00000  -0.01796  -0.01796   2.53049
   R10        2.26522   0.01596   0.00000   0.01862   0.01862   2.28384
   R11        1.82263   0.01183   0.00000   0.02319   0.02319   1.84582
   R12        2.82477   0.00018   0.00000  -0.01340  -0.01340   2.81137
   R13        2.06002   0.00268   0.00000   0.00747   0.00747   2.06750
   R14        2.05656   0.00469   0.00000   0.01242   0.01242   2.06898
   R15        2.57451   0.01562   0.00000   0.02736   0.02737   2.60189
   R16        2.59556   0.00865   0.00000   0.01895   0.01898   2.61453
   R17        2.61665  -0.00302   0.00000  -0.01236  -0.01238   2.60427
   R18        2.04228   0.00128   0.00000   0.00365   0.00365   2.04593
   R19        2.47778   0.00659   0.00000   0.00895   0.00892   2.48670
   R20        2.56248   0.01074   0.00000   0.02091   0.02092   2.58340
   R21        2.03291   0.00452   0.00000   0.01051   0.01051   2.04343
   R22        1.90717   0.00302   0.00000   0.00997   0.00997   1.91714
   R23        2.86982   0.00434   0.00000   0.00635   0.00635   2.87617
   R24        2.06295   0.00354   0.00000   0.00758   0.00758   2.07052
   R25        2.06718   0.00395   0.00000   0.00879   0.00879   2.07597
   R26        2.81148   0.01165   0.00000   0.05701   0.05701   2.86849
   R27        2.05790   0.00213   0.00000   0.00254   0.00254   2.06044
   R28        2.05877   0.00211   0.00000   0.00398   0.00398   2.06276
   R29        1.92736   0.00734   0.00000   0.01455   0.01455   1.94192
   R30        1.92782   0.00690   0.00000   0.01358   0.01358   1.94141
   R31        1.92946   0.00644   0.00000   0.01260   0.01260   1.94206
    A1        2.11118   0.02293   0.00000   0.06294   0.06288   2.17406
    A2        2.13921  -0.01596   0.00000  -0.05689  -0.05696   2.08225
    A3        2.03256  -0.00695   0.00000  -0.00561  -0.00568   2.02688
    A4        2.10480   0.01298   0.00000   0.01198   0.01190   2.11670
    A5        2.13351  -0.00413   0.00000   0.01496   0.01492   2.14843
    A6        2.02256  -0.00863   0.00000  -0.02240  -0.02251   2.00005
    A7        1.87074  -0.00596   0.00000  -0.00118  -0.00110   1.86964
    A8        1.95565   0.00963   0.00000   0.02696   0.02706   1.98271
    A9        1.88929   0.00042   0.00000   0.00473   0.00489   1.89418
   A10        1.95725  -0.00424   0.00000  -0.01457  -0.01470   1.94255
   A11        1.87142   0.00307   0.00000   0.01203   0.01174   1.88316
   A12        1.91614  -0.00305   0.00000  -0.02728  -0.02732   1.88882
   A13        2.00674  -0.00144   0.00000   0.00095   0.00094   2.00768
   A14        2.15930  -0.00409   0.00000  -0.02006  -0.02007   2.13923
   A15        2.11713   0.00552   0.00000   0.01907   0.01906   2.13619
   A16        1.91543   0.00611   0.00000   0.02735   0.02735   1.94278
   A17        1.96584   0.00200   0.00000  -0.03589  -0.03593   1.92991
   A18        1.93589  -0.00127   0.00000  -0.00602  -0.00621   1.92968
   A19        1.88687  -0.00198   0.00000   0.00202   0.00239   1.88926
   A20        1.89761  -0.00299   0.00000   0.00579   0.00526   1.90286
   A21        1.91528   0.00400   0.00000   0.03672   0.03671   1.95199
   A22        1.85934   0.00026   0.00000  -0.00002  -0.00024   1.85909
   A23        2.31642  -0.00339   0.00000   0.01312   0.01301   2.32943
   A24        2.13078   0.00513   0.00000  -0.01064  -0.01072   2.12006
   A25        1.83569  -0.00174   0.00000  -0.00295  -0.00295   1.83274
   A26        1.92996   0.00157   0.00000   0.00207   0.00205   1.93201
   A27        2.23497  -0.00042   0.00000  -0.00230  -0.00234   2.23262
   A28        2.11826  -0.00115   0.00000   0.00023   0.00019   2.11845
   A29        1.83132   0.00143   0.00000   0.00700   0.00697   1.83829
   A30        1.95147   0.00151   0.00000   0.00092   0.00093   1.95239
   A31        2.20619  -0.00238   0.00000  -0.01166  -0.01166   2.19453
   A32        2.12552   0.00087   0.00000   0.01074   0.01074   2.13626
   A33        1.87633  -0.00277   0.00000  -0.00705  -0.00700   1.86932
   A34        2.16659   0.00099   0.00000  -0.00349  -0.00352   2.16307
   A35        2.24026   0.00178   0.00000   0.01056   0.01054   2.25079
   A36        1.95048  -0.01429   0.00000  -0.07711  -0.07706   1.87341
   A37        1.91380   0.00506   0.00000   0.03009   0.03034   1.94414
   A38        1.88311   0.00266   0.00000   0.00183   0.00167   1.88479
   A39        1.93221   0.00445   0.00000   0.02220   0.02235   1.95456
   A40        1.90561   0.00505   0.00000   0.02162   0.02082   1.92643
   A41        1.87646  -0.00255   0.00000   0.00386   0.00328   1.87973
   A42        1.95463  -0.00288   0.00000  -0.01199  -0.01161   1.94302
   A43        1.89392   0.00371   0.00000   0.03134   0.03057   1.92450
   A44        1.91292   0.00454   0.00000   0.04225   0.04155   1.95447
   A45        1.91974  -0.00251   0.00000  -0.03751  -0.03744   1.88230
   A46        1.90971  -0.00298   0.00000  -0.04275  -0.04260   1.86712
   A47        1.87099   0.00034   0.00000   0.02097   0.01868   1.88967
   A48        1.93940   0.00099   0.00000   0.00299   0.00299   1.94239
   A49        1.94585   0.00071   0.00000   0.00335   0.00335   1.94920
   A50        1.95191  -0.00071   0.00000  -0.00560  -0.00560   1.94631
   A51        1.87891  -0.00112   0.00000  -0.00683  -0.00683   1.87208
   A52        1.87198  -0.00005   0.00000   0.00265   0.00265   1.87463
   A53        1.87195   0.00009   0.00000   0.00336   0.00337   1.87531
    D1       -0.04469  -0.00148   0.00000  -0.04704  -0.04736  -0.09204
    D2       -2.95156  -0.00154   0.00000  -0.06765  -0.06827  -3.01982
    D3        3.07420  -0.00085   0.00000  -0.02657  -0.02595   3.04825
    D4        0.16733  -0.00092   0.00000  -0.04718  -0.04686   0.12047
    D5       -0.51302   0.00087   0.00000   0.02880   0.02808  -0.48495
    D6       -2.66232   0.00141   0.00000   0.03207   0.03191  -2.63041
    D7        1.58209   0.00020   0.00000   0.01012   0.01000   1.59209
    D8        2.65167  -0.00032   0.00000   0.00626   0.00620   2.65787
    D9        0.50238   0.00022   0.00000   0.00953   0.01003   0.51241
   D10       -1.53640  -0.00099   0.00000  -0.01242  -0.01187  -1.54827
   D11       -2.85552  -0.00106   0.00000  -0.02778  -0.02761  -2.88314
   D12        1.27339   0.00222   0.00000  -0.02591  -0.02577   1.24762
   D13       -0.84207  -0.00033   0.00000  -0.01201  -0.01201  -0.85408
   D14        0.06565  -0.00064   0.00000  -0.00392  -0.00395   0.06169
   D15       -2.08863   0.00264   0.00000  -0.00204  -0.00211  -2.09074
   D16        2.07910   0.00009   0.00000   0.01185   0.01165   2.09075
   D17        3.07123  -0.00125   0.00000   0.02246   0.02248   3.09371
   D18       -0.07601  -0.00181   0.00000   0.01401   0.01407  -0.06193
   D19       -1.05866   0.00400   0.00000   0.04615   0.04619  -1.01247
   D20        2.07728   0.00344   0.00000   0.03770   0.03779   2.11507
   D21        1.04591  -0.00029   0.00000   0.01160   0.01146   1.05737
   D22       -2.10133  -0.00085   0.00000   0.00314   0.00306  -2.09827
   D23       -2.19363  -0.00776   0.00000  -0.07090  -0.07077  -2.26441
   D24        1.95811  -0.00438   0.00000  -0.04841  -0.04848   1.90963
   D25       -0.07443  -0.00282   0.00000  -0.04624  -0.04615  -0.12058
   D26        1.98474  -0.00390   0.00000  -0.07821  -0.07798   1.90676
   D27       -0.14670  -0.00052   0.00000  -0.05572  -0.05570  -0.20239
   D28       -2.17924   0.00104   0.00000  -0.05355  -0.05336  -2.23260
   D29       -0.09372  -0.00301   0.00000  -0.06584  -0.06596  -0.15968
   D30       -2.22517   0.00037   0.00000  -0.04336  -0.04367  -2.26884
   D31        2.02548   0.00193   0.00000  -0.04118  -0.04134   1.98414
   D32       -0.04422   0.00059   0.00000   0.02485   0.02477  -0.01944
   D33        3.10287   0.00117   0.00000   0.03322   0.03330   3.13617
   D34       -2.04190   0.00148   0.00000   0.04171   0.04157  -2.00033
   D35        1.06947   0.00130   0.00000   0.01750   0.01733   1.08679
   D36        0.11101  -0.00094   0.00000   0.01378   0.01369   0.12470
   D37       -3.06081  -0.00112   0.00000  -0.01043  -0.01055  -3.07136
   D38        2.13833  -0.00011   0.00000   0.03738   0.03767   2.17599
   D39       -1.03350  -0.00029   0.00000   0.01317   0.01342  -1.02007
   D40        3.11881   0.00002   0.00000  -0.02101  -0.02117   3.09764
   D41       -0.02254  -0.00049   0.00000  -0.03659  -0.03668  -0.05922
   D42        0.00375   0.00008   0.00000   0.00040   0.00039   0.00414
   D43       -3.13760  -0.00043   0.00000  -0.01518  -0.01512   3.13046
   D44       -3.12174   0.00007   0.00000   0.01641   0.01623  -3.10551
   D45        0.01424  -0.00007   0.00000   0.01955   0.01937   0.03361
   D46       -0.00316  -0.00013   0.00000  -0.00172  -0.00169  -0.00484
   D47        3.13282  -0.00027   0.00000   0.00142   0.00146   3.13428
   D48       -0.00287   0.00001   0.00000   0.00113   0.00113  -0.00174
   D49        3.13850   0.00048   0.00000   0.01550   0.01546  -3.12923
   D50        0.00079  -0.00010   0.00000  -0.00228  -0.00227  -0.00148
   D51        3.13936   0.00011   0.00000  -0.00139  -0.00143   3.13793
   D52        0.00151   0.00016   0.00000   0.00262   0.00258   0.00409
   D53       -3.13415   0.00031   0.00000  -0.00063  -0.00071  -3.13486
   D54       -3.13722  -0.00004   0.00000   0.00181   0.00181  -3.13540
   D55        0.01030   0.00011   0.00000  -0.00143  -0.00148   0.00882
   D56        3.07519  -0.00091   0.00000  -0.03175  -0.03174   3.04345
   D57        0.95274   0.00156   0.00000   0.00169   0.00222   0.95496
   D58       -1.08514  -0.00346   0.00000  -0.06465  -0.06522  -1.15036
   D59       -1.06918  -0.00126   0.00000  -0.03141  -0.03154  -1.10072
   D60        3.09155   0.00121   0.00000   0.00204   0.00241   3.09397
   D61        1.05368  -0.00382   0.00000  -0.06431  -0.06502   0.98865
   D62        0.99333   0.00138   0.00000  -0.00013   0.00007   0.99340
   D63       -1.12912   0.00385   0.00000   0.03332   0.03403  -1.09510
   D64        3.11619  -0.00117   0.00000  -0.03302  -0.03341   3.08278
   D65       -1.04264   0.00037   0.00000   0.00561   0.00561  -1.03703
   D66        1.05343   0.00011   0.00000   0.00122   0.00123   1.05466
   D67       -3.13400   0.00023   0.00000   0.00398   0.00399  -3.13001
   D68        1.06491   0.00144   0.00000   0.01159   0.01142   1.07634
   D69       -3.12220   0.00117   0.00000   0.00721   0.00704  -3.11515
   D70       -1.02645   0.00130   0.00000   0.00997   0.00980  -1.01665
   D71        3.11585  -0.00139   0.00000  -0.01032  -0.01016   3.10569
   D72       -1.07126  -0.00166   0.00000  -0.01470  -0.01454  -1.08580
   D73        1.02449  -0.00154   0.00000  -0.01195  -0.01178   1.01271
         Item               Value     Threshold  Converged?
 Maximum Force            0.022931     0.000450     NO 
 RMS     Force            0.004713     0.000300     NO 
 Maximum Displacement     0.314862     0.001800     NO 
 RMS     Displacement     0.093653     0.001200     NO 
 Predicted change in Energy=-6.416674D-03
 GradGradGradGradGradGradGradGradGradGradGradGradGradGradGradGradGradGrad

                          Input orientation:                          
 ---------------------------------------------------------------------
 Center     Atomic      Atomic             Coordinates (Angstroms)
 Number     Number       Type             X           Y           Z
 ---------------------------------------------------------------------
      1          8           0        0.634004   -1.057110    0.038518
      2          6           0        1.168572   -0.007203   -0.331088
      3          7           0        0.504773    1.105576   -0.667405
      4          6           0       -0.945191    1.128369   -0.729739
      5          6           0       -1.342470    2.392833   -1.485291
      6          8           0       -2.657895    2.543519   -1.685513
      7          8           0       -0.532678    3.206789   -1.862549
      8          6           0       -1.634225    1.064980    0.675138
      9          6           0       -2.678238    0.005360    0.698110
     10          6           0       -4.048328    0.028334    0.832540
     11          7           0       -4.568965   -1.243696    0.732069
     12          6           0       -3.531730   -2.029663    0.537111
     13          7           0       -2.359549   -1.326953    0.504220
     14          6           0        2.697855    0.063906   -0.425262
     15          6           0        3.261025   -0.923741    0.586607
     16          7           0        4.771230   -1.028049    0.474638
     17          1           0        0.958720    1.924187   -1.066366
     18          1           0       -1.282236    0.265714   -1.316042
     19          1           0       -3.161190    1.790326   -1.320177
     20          1           0       -2.096000    2.026028    0.920375
     21          1           0       -0.859876    0.890257    1.429175
     22          1           0       -4.685335    0.885906    1.008448
     23          1           0       -3.567026   -3.103614    0.416004
     24          1           0       -1.414530   -1.668815    0.365313
     25          1           0        3.062047    1.082455   -0.250845
     26          1           0        2.988826   -0.224910   -1.444449
     27          1           0        2.844003   -1.916867    0.417412
     28          1           0        3.037147   -0.628989    1.613501
     29          1           0        5.055392   -1.336862   -0.463383
     30          1           0        5.228086   -0.124660    0.649609
     31          1           0        5.153513   -1.702464    1.149311
 ---------------------------------------------------------------------
                    Distance matrix (angstroms):
                    1          2          3          4          5
     1  O    0.000000
     2  C    1.234778   0.000000
     3  N    2.278648   1.338662   0.000000
     4  C    2.803639   2.432373   1.451482   0.000000
     5  C    4.257998   3.660285   2.395470   1.525633   0.000000
     6  O    5.174302   4.794006   3.620316   2.418575   1.339080
     7  O    4.812072   3.945804   2.630546   2.402760   1.208558
     8  C    3.170711   3.165081   2.525744   1.566035   2.552600
     9  C    3.540459   3.982130   3.634098   2.510649   3.500220
    10  C    4.871641   5.345216   4.913350   3.644208   4.276079
    11  N    5.252306   5.964776   5.763717   4.571140   5.343341
    12  C    4.306715   5.190082   5.251090   4.274139   5.333051
    13  N    3.041554   3.858383   3.936273   3.090578   4.339286
    14  C    2.394003   1.533829   2.439942   3.807567   4.782446
    15  C    2.686900   2.461822   3.645216   4.861705   6.040248
    16  N    4.160251   3.830205   4.905025   6.227209   7.274688
    17  H    3.195988   2.077243   1.017527   2.090817   2.385498
    18  H    2.693821   2.655386   2.078341   1.096141   2.134692
    19  H    4.935325   4.791267   3.786064   2.386934   1.923023
    20  H    4.211453   4.044455   3.183127   2.202959   2.547465
    21  H    2.820965   2.831707   2.510832   2.173681   3.314324
    22  H    5.745558   6.071262   5.458384   4.131436   4.434445
    23  H    4.688211   5.707170   5.955720   5.108466   6.226917
    24  H    2.162746   3.149340   3.528098   3.040338   4.463956
    25  H    3.249133   2.186102   2.591082   4.036013   4.758227
    26  H    2.904640   2.144829   2.923099   4.221215   5.061064
    27  H    2.401424   2.648422   3.972906   4.994738   6.302408
    28  H    2.904988   2.767601   3.824155   4.943490   6.157513
    29  H    4.458569   4.110093   5.168680   6.492711   7.475798
    30  H    4.727418   4.177944   5.055461   6.448413   7.353079
    31  H    4.698543   4.576597   5.726807   6.981306   8.118521
                    6          7          8          9         10
     6  O    0.000000
     7  O    2.233342   0.000000
     8  C    2.967600   3.498658   0.000000
     9  C    3.481999   4.627045   1.487712   0.000000
    10  C    3.821001   5.452144   2.631977   1.376860   0.000000
    11  N    4.882610   6.544499   3.734425   2.266306   1.378121
    12  C    5.159228   6.494083   3.632684   2.212620   2.142312
    13  N    4.456960   5.430826   2.505325   1.383552   2.190108
    14  C    6.034961   4.730734   4.580386   5.492519   6.862529
    15  C    7.226204   6.119790   5.284536   6.012530   7.375199
    16  N    8.521399   7.178283   6.741722   7.524125   8.889805
    17  H    3.721131   2.122085   3.239511   4.474677   5.680724
    18  H    2.686511   3.083899   2.174286   2.464429   3.510558
    19  H    0.976768   3.034734   2.615155   2.737303   2.919900
    20  H    2.715542   3.403356   1.094071   2.114593   2.794652
    21  H    3.958210   4.038419   1.094859   2.150335   3.356353
    22  H    3.757075   5.556409   3.074482   2.213618   1.082659
    23  H    6.093685   7.363440   4.602178   3.245804   3.195974
    24  H    4.847225   5.432545   2.760053   2.123811   3.167887
    25  H    6.075419   4.475761   4.786723   5.917054   7.269272
    26  H    6.293469   4.934810   5.246814   6.062936   7.400698
    27  H    7.388383   6.546148   5.386311   5.853964   7.173587
    28  H    7.306285   6.288066   5.056853   5.822883   7.158626
    29  H    8.720421   7.336822   7.198336   7.934712   9.296283
    30  H    8.646425   7.113079   6.964711   7.907542   9.279478
    31  H    9.331810   8.093506   7.345540   8.028485   9.368557
                   11         12         13         14         15
    11  N    0.000000
    12  C    1.315906   0.000000
    13  N    2.222694   1.367074   0.000000
    14  C    7.473681   6.642057   5.326890   0.000000
    15  C    7.837875   6.882371   5.635621   1.522002   0.000000
    16  N    9.346231   8.363390   7.137102   2.510194   1.517938
    17  H    6.620057   6.194207   4.903831   2.626071   4.017913
    18  H    4.156400   3.709872   2.647743   4.083545   5.067159
    19  H    3.924134   4.263699   3.699794   6.173313   7.228197
    20  H    4.103914   4.319357   3.388972   5.351794   6.124562
    21  H    4.335557   4.057156   2.832063   4.096247   4.580648
    22  H    2.150611   3.170725   3.249657   7.565890   8.160723
    23  H    2.136136   1.081334   2.149955   7.070335   7.169604
    24  H    3.204013   2.154591   1.014507   4.532002   4.739718
    25  H    8.038000   7.333761   5.980726   1.095673   2.183058
    26  H    7.930660   7.049919   5.798010   1.098554   2.165098
    27  H    7.450118   6.377854   5.237603   2.157527   1.090336
    28  H    7.681649   6.802254   5.553556   2.179858   1.091564
    29  H    9.698765   8.672925   7.477814   2.742551   2.119646
    30  H    9.861098   8.965270   7.683674   2.755535   2.124106
    31  H    9.742235   8.712938   7.550049   3.410220   2.122394
                   16         17         18         19         20
    16  N    0.000000
    17  H    5.062176   0.000000
    18  H    6.443975   2.799063   0.000000
    19  H    8.607432   4.129890   2.419695   0.000000
    20  H    7.528939   3.645384   2.960148   2.492039   0.000000
[...]
 1235,0.00000023,0.00000520,0.00000201,0.00000160,-0.00001718,0.0000092
 2,0.00000340,-0.01502256,-0.06139226,-0.06642761,0.00513766,0.02288939
 ,0.00484750,0.00066725,-0.00038715,0.00032679,-0.00076500,0.00001965,0
 .00019095,-0.00001099,0.00001905,-0.00002017,0.00000721,-0.00001813,0.
 00002585,0.00001204,-0.00000858,0.00000261,0.00001055,0.00003457,-0.00
 002397,0.00000180,-0.00000073,0.00000430,-0.00000069,0.00000008,-0.000
 00052,0.00001128,0.00000927,-0.00000164,0.01574495,0.06289246,0.067853
 23,-0.00175257,-0.00158730,-0.00397548,-0.00887666,0.00530135,0.034029
 80,-0.00106108,-0.00026696,-0.00170142,-0.00002347,-0.00038269,-0.0013
 8080,-0.00012126,-0.00050178,0.00022078,-0.00015782,0.00018570,-0.0000
 7278,0.00003466,0.00019546,-0.00023865,0.00025160,0.00006039,-0.000150
 02,0.00002626,0.00002298,0.00000721,0.00004121,-0.00001961,-0.00000751
 ,-0.00005808,-0.00004905,-0.00001239,-0.00001809,0.00000649,0.00000306
 ,-0.00002369,0.00002254,0.00000625,-0.06449837,0.01255286,0.07101113,0
 .00279056,-0.00232035,-0.02003592,0.00190879,-0.00109732,-0.00066290,-
 0.00047220,0.00032225,0.00063494,-0.00039020,0.00016042,-0.00001631,0.
 00006891,0.00000660,0.00000592,-0.00000369,-0.00000289,0.00001903,0.00
 005119,0.00000497,-0.00003815,0.00000572,-0.00000252,0.00000053,-0.000
 00365,-0.00000121,0.00000116,0.00003726,0.00003946,-0.00000310,0.00176
 102,-0.00077592,-0.00657472,0.07183554,-0.00105769,-0.00051545,-0.0015
 8025,-0.00269745,-0.00047030,0.00662566,0.00120525,0.00040542,0.000235
 21,-0.00022606,0.00000365,0.00004875,0.00004152,0.00022022,-0.00014832
 ,0.00002436,-0.00007398,0.00004065,-0.00004504,-0.00010606,0.00014464,
 0.00004952,-0.00004290,0.00007337,0.00000014,-0.00001078,-0.00002770,-
 0.00002120,0.00000936,0.00000452,0.00002532,0.00002619,0.00000813,0.00
 001452,0.00000414,-0.00000001,0.00001402,-0.00001534,-0.00001081,0.012
 54434,-0.05691055,-0.03841411,-0.00621120,0.00361142,0.02284877,-0.000
 90389,0.00099902,-0.00036211,0.00016796,-0.00006811,-0.00054663,0.0001
 2770,0.00000894,0.00004141,-0.00002472,0.00000507,-0.00000958,-0.00001
 576,0.00000670,-0.00001540,-0.00000200,-0.00002149,0.00001089,-0.00000
 351,0.00000119,-0.00000174,0.00000057,0.00000011,0.00000130,0.00000620
 ,-0.00000900,0.00001056,0.00946911,-0.00317937,-0.03021363,-0.01473721
 ,0.05719480,0.00015986,-0.00034782,0.00066864,0.00257654,0.00026615,-0
 .00084368,-0.00038517,0.00064862,0.00042662,0.00028464,0.00002258,0.00
 011440,0.00002794,-0.00001825,-0.00000502,-0.00001910,0.00000780,0.000
 00020,-0.00001964,0.00000425,-0.00000812,-0.00009153,-0.00002309,-0.00
 003367,-0.00000719,0.00001336,0.00002838,0.00000204,-0.00000743,0.0000
 0087,-0.00000468,-0.00000532,-0.00000212,-0.00000768,-0.00000096,-0.00
 000080,0.00000086,0.00000478,0.00000524,0.06381180,-0.03886096,-0.2798
 2422,0.00488075,-0.00271241,-0.02076924,0.00070019,-0.00103855,0.00185
 469,-0.00000328,-0.00015998,-0.00022760,-0.00001095,-0.00004439,-0.000
 03325,0.00000342,0.00000095,-0.00000117,-0.00000153,0.00000981,-0.0000
 0291,-0.00000137,-0.00000383,-0.00001769,0.00000009,0.00000009,-0.0000
 0088,-0.00000022,0.00000001,-0.00000103,-0.00000272,0.00000021,-0.0000
 0705,0.00174383,-0.00117748,-0.00604705,-0.06996563,0.03971522,0.30507
 082,-0.00260049,-0.00349006,0.00018481,0.00171662,0.00588937,-0.001597
 59,0.00030654,-0.00278119,0.00069147,-0.00045933,-0.00000878,-0.000008
 67,-0.00013159,0.00019566,-0.00015478,0.00010033,-0.00006749,0.0000497
 1,0.00007478,-0.00019197,0.00013357,-0.00001939,0.00000495,-0.00001999
 ,-0.00001259,0.00002864,-0.00001809,-0.00001625,0.00001332,0.00001406,
 0.00007638,0.00000717,-0.00000110,-0.00005168,-0.00001506,-0.00000302,
 0.00004623,-0.00002335,-0.00001946,0.00666343,0.01489133,0.00435715,-0
 .06681042,-0.07092698,-0.01068141,-0.02163291,-0.03362284,-0.00464667,
 0.00055777,0.00007521,0.00012236,-0.00003024,0.00006102,-0.00003506,-0
 .00003326,0.00001008,-0.00001112,0.00003690,-0.00002691,0.00001319,-0.
 00002533,0.00003183,0.00012104,-0.00000270,0.00000065,0.00000048,-0.00
 000115,-0.00000065,0.00000253,-0.00008022,-0.00002827,0.00001381,-0.00
 261568,0.00192782,-0.00277364,0.00045613,-0.00046014,-0.00019369,0.085
 19159,-0.00255021,0.00240134,-0.00116357,-0.00179384,-0.00351960,0.000
 79538,-0.00010278,0.00056583,0.00001497,0.00009354,0.00002789,-0.00001
 356,0.00003821,-0.00006795,0.00006930,-0.00003919,0.00001800,-0.000018
 22,-0.00001250,0.00006308,-0.00003934,0.00001381,0.00000696,-0.0000039
 3,0.00000895,0.00001331,0.00000797,0.00001321,-0.00000789,-0.00000293,
 -0.00001620,-0.00001963,-0.00000146,-0.00000910,0.00000518,0.00000063,
 -0.00000687,-0.00000110,0.00000682,-0.00171529,-0.01998608,-0.00225913
 ,-0.08208407,-0.30528554,-0.04467517,0.00349600,0.00655042,0.00103310,
 -0.00008547,0.00003421,-0.00009596,0.00001999,0.00000563,0.00001233,0.
 00001483,0.00000368,-0.00000233,-0.00001323,0.00000597,-0.00000223,0.0
 0001701,-0.00000886,-0.00004101,0.00000167,-0.00000116,-0.00000074,-0.
 00000282,0.00000010,-0.00000141,0.00001258,0.00003095,-0.00000686,0.00
 146065,-0.00074172,0.00300922,-0.00023768,0.00084981,0.00006009,0.0838
 2630,0.32179112,0.00017830,-0.00121926,-0.00135200,0.00014976,0.001379
 85,0.00047121,0.00019000,-0.00024624,0.00018398,-0.00008793,-0.0000763
 8,0.00001142,-0.00002432,0.00005976,-0.00004411,0.00004825,-0.00002051
 ,0.00001003,0.00002306,-0.00004808,0.00001890,-0.00001030,-0.00002147,
 0.00000422,-0.00000224,-0.00000409,-0.00001112,-0.00001235,0.00000567,
 -0.00000226,0.00001232,0.00001277,-0.00000251,0.00000627,0.00000011,0.
 00000145,0.00000574,-0.00000118,-0.00002281,0.00539066,0.02069426,0.00
 394393,-0.01416627,-0.04698389,-0.06188737,0.00523158,0.00884919,0.000
 00897,0.00019554,0.00008331,0.00014593,-0.00002133,-0.00001415,0.00000
 375,-0.00001978,-0.00000624,0.00001551,0.00000579,-0.00000078,-0.00000
 245,-0.00000859,-0.00000197,0.00003381,-0.00000171,0.00000044,0.000002
 71,0.00000055,-0.00000049,0.00000462,-0.00000835,-0.00001610,0.0000367
 2,-0.00251460,0.00232997,-0.00202008,0.00090971,-0.00017884,0.00072243
 ,0.01348624,0.04382869,0.06172121,-0.00060305,-0.00042845,0.00098187,0
 .00214044,0.00066149,-0.00103787,-0.00063724,0.00023925,0.00024481,0.0
 0016049,0.00001276,-0.00007568,0.00008140,0.00002042,-0.00001085,-0.00
 009490,0.00000482,0.00000643,-0.00007992,-0.00002453,0.00002805,-0.000
 04104,0.00002577,-0.00005334,-0.00001019,-0.00000752,0.00004901,0.0000
 0364,-0.00000458,0.00001707,0.00000496,0.00000374,-0.00000044,-0.00000
 223,-0.00000188,-0.00000305,0.00000512,-0.00000132,0.00001970,0.003604
 48,-0.00488759,-0.01630100,-0.05162289,0.00313997,0.01889276,-0.016060
 44,0.01018354,0.03927114,0.00009823,-0.00010967,-0.00004450,-0.0000184
 4,-0.00000765,-0.00000532,0.00002382,0.00001617,-0.00003664,-0.0000138
 3,0.00001232,0.00000087,-0.00001252,-0.00003153,-0.00001811,-0.0000002
 3,0.00000058,-0.00000581,0.00000063,0.00000039,-0.00000281,0.00000100,
 0.00000233,-0.00003201,0.00039843,-0.00007378,0.00074854,-0.00177300,0
 .00251842,-0.00182719,0.00339745,-0.00123898,-0.01018602,0.06564203,-0
 .00003935,0.00022043,0.00073588,-0.00065852,0.00051431,-0.00008840,0.0
 0002636,-0.00035033,-0.00035018,-0.00001536,-0.00000551,-0.00000251,-0
 .00000012,0.00000746,0.00001352,-0.00001212,-0.00000290,-0.00000287,-0
 .00000070,-0.00001899,-0.00001917,0.00000489,0.00001866,0.00000208,0.0
 0000376,0.00001579,-0.00000496,0.00000909,0.00000001,0.00000138,-0.000
 00008,-0.00001669,-0.00000091,-0.00001873,-0.00000251,-0.00000062,0.00
 000229,-0.00000620,0.00000654,-0.00276753,0.00577264,0.02233676,0.0078
 2235,-0.07008935,-0.06819769,-0.00130442,-0.00018934,0.00266111,-0.000
 01224,0.00005729,0.00012141,-0.00001070,0.00000317,-0.00000308,0.00000
 548,0.00000723,-0.00000185,0.00001392,-0.00001285,0.00000448,0.0000064
 6,0.00002546,-0.00000436,0.00000214,-0.00000068,-0.00000021,-0.0000015
 3,-0.00000036,-0.00000173,-0.00000643,0.00000842,-0.00001502,-0.001056
 34,0.00105776,-0.00025095,0.00289792,-0.00214204,0.00293369,0.00505986
 ,-0.00440099,-0.02909523,-0.00990960,0.06868996,-0.00022095,-0.0006248
 0,0.00077900,0.00089813,0.00111847,-0.00042134,-0.00023325,-0.00010279
 ,0.00012309,-0.00000337,0.00000715,-0.00001663,0.00001424,0.00000676,-
 0.00001435,-0.00002003,-0.00000044,0.00000352,-0.00001748,-0.00000785,
 0.00002231,-0.00000869,0.00000621,-0.00001928,-0.00000285,-0.00000275,
 0.00001300,0.00000053,0.,0.00000390,0.00000561,0.00000130,-0.00000094,
 -0.00000258,-0.00000076,-0.00000050,0.00000333,0.00000038,0.00000182,0
 .00057891,-0.00352501,-0.01652746,0.03099185,-0.06657112,-0.31242989,0
 .00097319,-0.00050125,-0.00155500,0.00004613,-0.00007561,-0.00008438,-
 0.00001490,0.00001720,-0.00000848,0.00000444,0.00000337,-0.00000959,-0
 .00000219,0.00000069,0.00000274,-0.00001367,-0.00000686,0.00001382,-0.
 00000006,-0.00000016,-0.00000083,0.00000024,0.00000018,-0.00000020,-0.
 00000590,-0.00000086,-0.00000418,0.00043342,-0.00006935,0.00112996,-0.
 00205069,0.00226189,-0.00045752,0.00002910,-0.00051868,-0.00258886,-0.
 03194839,0.06836181,0.33065409,0.00051795,0.00029301,-0.00035279,-0.00
 123173,-0.00081524,-0.00007929,0.00074730,-0.00014018,-0.00000466,-0.0
 0024152,-0.00008546,0.00008808,-0.00017744,0.00013733,-0.00010639,0.00
 019741,-0.00005593,0.00004265,0.00012531,-0.00007223,0.00005330,0.0000
 0615,-0.00001091,0.00005389,0.00000078,0.00000544,-0.00004463,-0.00003
 311,0.00001660,-0.00000160,0.00005589,0.00002597,0.00000344,-0.0000133
 2,-0.00000387,0.00000115,0.00003135,-0.00002374,-0.00002229,0.00210909
 ,0.00019905,0.00118084,-0.00500172,0.00976275,0.03491248,-0.07132401,0
 .01865166,0.06601175,-0.00005323,0.00017173,-0.00004058,0.00004057,0.0
 0000435,0.00000352,-0.00005434,-0.00001527,0.00002145,0.00000881,-0.00
 000585,-0.00000583,-0.00000622,0.00000778,0.00003731,-0.00000607,0.000
 00193,0.00000392,-0.00000088,-0.00000034,0.00000307,-0.00003165,-0.000
 02386,0.00002230,0.00006216,-0.00007574,-0.00027592,-0.00028676,0.0005
 2270,-0.00171728,0.00113770,-0.00069213,0.00001797,-0.00722525,-0.0006
 3868,-0.00042673,0.07248358,-0.00046255,-0.00065420,0.00001861,0.00112
 292,0.00059890,0.00019885,-0.00041380,0.00001274,0.00001465,0.00014969
 ,0.00005218,-0.00002811,0.00016536,-0.00001325,0.00003507,-0.00015685,
 0.00000981,-0.00002209,-0.00011661,-0.00001133,-0.00001123,0.00000018,
 0.00000053,-0.00002788,0.00000216,0.00002086,0.00003051,0.00002950,-0.
 00001217,0.00000390,-0.00002849,-0.00003788,-0.00000555,-0.00001775,0.
 00000594,-0.00000046,-0.00001034,0.00000331,0.00000511,-0.00060989,-0.
 00056301,-0.00096334,0.00080857,0.00116446,0.00234424,0.01602705,-0.08
 969783,-0.08244179,0.00007174,-0.00007626,0.00002881,-0.00003394,-0.00
 000586,-0.00000008,0.00003769,0.00002433,-0.00001832,-0.00000110,-0.00
 000054,0.00000092,0.00000514,0.00000195,-0.00001831,0.00000525,-0.0000
 0246,-0.00000340,-0.00000329,-0.00000023,-0.00000078,0.00001108,0.0000
 3313,-0.00000173,0.00018206,-0.00018316,-0.00009148,0.00029457,0.00033
 266,0.00061484,-0.00075571,0.00012862,0.00089295,-0.00069562,0.0005507
 5,0.00020136,-0.01713607,0.08453973,-0.00020576,0.00028103,-0.00026893
 ,-0.00006494,-0.00005041,-0.00023717,-0.00033848,0.00006628,-0.0000790
 2,0.00008281,0.00010918,0.00003013,-0.00000722,-0.00008490,0.00007970,
 -0.00002456,0.00002811,-0.00003834,0.00000058,0.00004592,-0.00006837,-
 0.00001166,-0.00000997,0.00000574,0.00000593,0.00000262,0.00000106,0.0
 0000727,-0.00000077,-0.00000787,-0.00001871,-0.00001122,-0.00000679,0.
 00000229,0.00000312,0.00000242,-0.00000875,0.00000618,-0.00000956,-0.0
 0109059,-0.00054773,0.00299393,0.00597476,0.00023284,-0.00234018,0.055
 11314,-0.08310022,-0.36884802,0.00000635,-0.00003302,0.00008364,-0.000
 00523,-0.00002090,0.00000908,0.00000632,-0.00000278,0.00002130,0.00000
 257,-0.00000178,-0.00000093,0.00000572,0.00000514,-0.00001545,0.000001
 93,-0.00000107,0.00000342,-0.00000059,-0.00000071,0.00000308,0.0000120
 1,0.00000647,0.00001700,0.00005217,0.00002607,-0.00030961,0.00031714,-
 0.00037989,-0.00051237,-0.00029505,0.00046279,0.00039882,-0.00003909,0
 .00069168,0.00149042,-0.06456274,0.08964860,0.38801627,0.00003693,0.00
 140326,-0.00068864,-0.00215375,-0.00146978,0.00087428,0.00075471,0.000
 14100,-0.00000811,-0.00021118,-0.00011686,0.00001646,-0.00017124,0.000
 10561,-0.00009057,0.00018551,-0.00004478,0.00004337,0.00012123,-0.0000
 4483,0.00004994,0.00001491,0.00000042,0.00003217,-0.00000190,-0.000007
 20,-0.00003596,-0.00003509,0.00001630,0.00000090,0.00005237,0.00003335
 ,0.00000488,-0.00000197,-0.00000261,0.00000075,0.00002798,-0.00002084,
 -0.00001354,0.00281510,-0.00084167,-0.00042779,-0.01177338,-0.03272745
 ,-0.00591954,-0.10662943,-0.12193010,-0.02266180,-0.00010007,0.0001499
 2,-0.00010177,0.00004138,0.00001616,0.00000475,-0.00004846,-0.00001624
 ,0.00001326,-0.00000057,0.00000066,-0.00000454,-0.00000493,-0.00000765
 ,0.00002735,-0.00000687,0.00000242,0.00000268,0.00000024,0.00000008,0.
 00000193,-0.00002290,-0.00002626,0.00000972,-0.00047726,0.00117125,-0.
 00014671,-0.00020094,0.00012446,-0.00016198,-0.00591762,0.00233716,0.0
 0204075,0.00148296,0.00001713,0.00044355,0.00334439,0.00889301,0.00021
 513,0.10949158,0.00033710,-0.00048579,0.00025204,-0.00005118,0.0000803
 7,-0.00005195,0.00038136,-0.00030095,0.00002433,-0.00008340,-0.0000661
 9,0.00001255,0.00003907,0.00014595,-0.00007870,-0.00000016,-0.00004921
 ,0.00002562,-0.00002459,-0.00011217,0.00004564,0.00000502,0.00000987,0
 .00000966,0.00000082,0.00001345,-0.00000598,-0.00000177,0.00000577,0.0
 0000713,0.00002139,-0.00000718,-0.00000010,-0.00002013,-0.00000168,-0.
 00000083,0.00001405,-0.00001598,-0.00000532,0.00054776,0.00271340,-0.0
 0030398,-0.00381369,0.00517779,0.00219760,-0.11099179,-0.34941493,-0.0
 4852857,0.00007815,0.00010616,0.00002906,-0.00000308,0.00000315,-0.000
 00399,-0.00000697,0.00001463,-0.00000941,0.00001105,-0.00000679,-0.000
 00239,-0.00000723,0.00000542,0.00002236,0.00000064,-0.00000019,-0.0000
 0134,-0.00000186,-0.00000038,0.00000016,-0.00001899,0.00000188,0.00000
 138,-0.00009456,-0.00066721,-0.00045798,-0.00007701,-0.00002097,-0.000
 06571,0.00129995,0.00101187,0.00016768,0.00033974,0.00030453,0.0002218
 4,-0.00217481,-0.00602929,0.00012722,0.12382434,0.36705561,0.00050098,
 0.00014443,-0.00002651,-0.00075217,0.00022608,-0.00019129,0.00027936,-
 0.00019309,-0.00003596,-0.00012534,-0.00001672,0.00003785,-0.00012306,
 0.00001532,-0.00001725,0.00011547,-0.00001203,0.00000420,0.00008991,-0
 .00000498,-0.00000994,0.00000089,-0.00000022,0.00003016,0.00000496,0.0
 0000197,-0.00002929,-0.00001515,0.00001140,-0.00000623,0.00002251,0.00
 000917,-0.00000288,-0.00000477,-0.00000170,0.00000239,0.00001162,-0.00
 000915,-0.00001668,0.00005217,-0.00053727,-0.00021099,0.00168549,0.007
 57991,0.00207002,-0.02028178,-0.04645158,-0.07500659,-0.00005278,0.000
 06789,0.00002432,0.00001505,0.00000430,-0.00000449,-0.00002886,-0.0000
 1355,0.00002606,0.00001169,-0.00000966,0.00000184,-0.00000446,0.000014
 26,0.00002444,-0.00000177,0.00000026,0.00000561,-0.00000013,-0.0000004
 6,0.00000336,-0.00001638,-0.00001314,0.00001814,-0.00007521,0.00009612
 ,0.00047381,-0.00024761,-0.00027396,-0.00037266,0.00167997,-0.00033722
 ,0.00009752,0.00057427,0.00079606,-0.00022828,-0.01597918,-0.03659092,
 -0.00197724,0.02078408,0.05220635,0.06929975,0.00043242,-0.00092532,0.
 00057073,0.00070649,0.00320458,-0.00166204,-0.00086814,-0.00055732,0.0
 0010855,0.00005343,0.00021473,-0.00000582,-0.00009749,-0.00006104,0.00
 002987,-0.00000692,0.00002315,-0.00001403,0.00002498,0.00001060,-0.000
 00393,-0.00003225,0.00000050,-0.00002944,-0.00000931,0.00002158,0.0000
 2177,0.00000472,-0.00000358,0.00000799,0.00001785,-0.00001061,-0.00000
 311,-0.00002981,-0.00000124,-0.00000158,0.00001742,-0.00000797,0.00000
 395,-0.00715356,-0.00249805,0.00300679,-0.01372540,0.02095382,-0.02040
 083,-0.13820668,0.10872275,-0.10366807,0.00002233,-0.00006453,0.000010
 65,-0.00000435,-0.00000240,-0.00000260,0.00000878,0.00000760,-0.000010
 32,-0.00000353,0.00000107,0.00000283,-0.00000449,0.00000065,0.00000509
 ,-0.00000116,0.,-0.00000165,-0.00000247,-0.00000019,-0.00000081,-0.000
 01705,0.00000693,-0.00000824,0.00014222,0.00006047,0.00023988,0.000452
 68,-0.00045022,0.00022887,0.00067898,-0.00075354,-0.00082867,0.0011500
 9,0.00058081,0.00054907,0.00481881,-0.00736394,0.00486722,0.00938825,-
 0.00952924,0.01188025,0.14224314,-0.00026127,0.00007922,-0.00012694,-0
 .00015614,0.00012906,0.00009033,-0.00027774,0.00001559,-0.00001817,0.0
 0008150,0.00002902,-0.00000014,0.00012585,-0.00000297,0.00002759,-0.00
 010974,0.00000383,-0.00001462,-0.00008073,-0.00000766,-0.00001413,-0.0
 0000070,0.00000554,-0.00002349,0.00000233,0.00001736,0.00002094,0.0000
 2398,-0.00000807,0.00000246,-0.00002118,-0.00003285,-0.00000368,-0.000
 01693,0.00000469,-0.00000048,-0.00000746,0.00000122,0.00000711,-0.0002
 0681,0.00017403,0.00025344,0.00093023,0.00355296,-0.00435148,0.1012206
 0,-0.20517249,0.12976822,0.00005523,-0.00006849,0.00004467,-0.00001741
 ,-0.00000435,-0.00000352,0.00002708,0.00001833,-0.00001382,0.00000309,
 -0.00000416,0.00000267,0.00000861,0.00000538,-0.00001065,0.00000445,-0
 .00000206,-0.00000228,-0.00000283,0.00000001,-0.00000184,0.00000604,0.
 00002722,-0.00000735,-0.00024260,0.00016913,-0.00000043,-0.00001444,-0
 .00009236,0.00016371,-0.00092374,0.00052653,-0.00036978,0.00024102,-0.
 00001515,-0.00020029,-0.00782999,0.00980758,-0.00749788,0.01901975,-0.
 01947098,0.02329212,-0.11158006,0.21031488,0.00025670,-0.00014118,-0.0
 0007410,-0.00007146,-0.00003898,0.00069138,0.00041335,-0.00009734,-0.0
 0002973,-0.00010418,-0.00006860,-0.00003704,-0.00010916,0.00003487,-0.
 00004079,0.00010914,-0.00001705,0.00001240,0.00007679,-0.00001843,0.00
 001090,0.00001950,-0.00000596,0.00004129,0.00000591,-0.00000207,-0.000
 03147,-0.00001864,0.00001136,-0.00000553,0.00002478,0.00001507,-0.0000
 0197,0.00000059,-0.00000050,0.00000259,0.00001197,-0.00000962,-0.00002
 009,0.00163426,0.00069953,-0.00085881,0.00140136,-0.00758338,0.0073770
 9,-0.09567656,0.12831583,-0.18771458,-0.00004428,0.00010367,-0.0000050
 5,0.00000432,0.00000963,-0.00000046,-0.00002908,-0.00001272,0.00002228
 ,0.00000646,-0.00000588,-0.00000120,-0.00000903,0.00000748,0.00002489,
 -0.00000256,0.00000040,0.00000495,0.00000002,-0.00000039,0.00000443,-0
 .00001393,-0.00001386,0.00002378,-0.00017250,0.00012996,-0.00000992,-0
 .00003256,0.00009201,0.00027579,-0.00044015,-0.00011754,0.00009643,0.0
 0079360,-0.00062670,0.00013006,-0.01883723,0.02618704,-0.01843617,0.00
 569496,-0.00583435,0.00601683,0.10510764,-0.14101229,0.19253181\\-0.00
 000111,0.00000127,0.00000007,0.00000101,0.00000065,0.00000164,-0.00000
 108,0.00000024,-0.00000190,-0.00000055,0.00000121,0.00000188,0.0000017
 5,-0.00000006,0.00000083,0.00000053,-0.00000114,-0.00000128,-0.0000005
 3,-0.00000140,0.00000075,0.00000216,0.00000025,-0.00000098,0.00000014,
 0.00000013,-0.00000075,0.00000089,-0.00000014,0.00000010,0.00000058,-0
 .00000086,0.00000058,-0.00000057,0.00000020,-0.00000030,0.00000041,0.0
 0000246,-0.00000002,-0.00000152,-0.00000196,0.00000080,0.00000236,0.00
 000081,-0.00000083,0.00000140,-0.00000044,-0.00000008,-0.00000041,-0.0
 0000086,0.00000069,-0.00000193,-0.00000058,0.00000018,0.00000040,0.000
 00149,0.00000037,0.00000007,0.00000059,-0.00000073,-0.00000033,-0.0000
 0058,-0.00000101,0.00000026,0.00000025,-0.00000062,0.00000018,0.000000
 67,0.00000011,-0.00000129,-0.00000049,0.00000020,0.00000025,-0.0000004
 2,-0.00000032,0.00000001,-0.00000007,0.00000041,-0.00000104,0.00000013
 ,-0.00000035,-0.00000122,-0.00000007,-0.00000001,-0.00000031,-0.000000
 41,0.00000080,-0.00000033,-0.00000094,0.00000007,-0.00000017,0.0000000
 7,-0.00000030\\\@


 TOM, TOM, THE BURGLAR'S SON
 STOLE A MACHINE AND AWAY HE RUN
 THE JOB WAS NEAT, BUT TOM GOT BEAT
 BY THE TIME HE GOT HOME IT WAS OBSOLETE.
 Job cpu time:       0 days  1 hours  1 minutes 60.0 seconds.
 File lengths (MBytes):  RWF=    277 Int=      0 D2E=      0 Chk=      8 Scr=      1
 Normal termination of Gaussian 09 at Tue Jul 27 02:11:57 2021.
