 Entering Gaussian System, Link 0=g09
 Input=opt_freq-conf-599.com
 Output=opt_freq-conf-599.log
 Initial command:
 /aerosol/software/g09/l1.exe "/scratch/nicole/10424/Gau-73174.inp" -scrdir="/scratch/nicole/10424/"
 Entering Link 1 = /aerosol/software/g09/l1.exe PID=     73179.
  
 Copyright (c) 1988,1990,1992,1993,1995,1998,2003,2009,2013,
            Gaussian, Inc.  All Rights Reserved.
  
 This is part of the Gaussian(R) 09 program.  It is based on
 the Gaussian(R) 03 system (copyright 2003, Gaussian, Inc.),
 the Gaussian(R) 98 system (copyright 1998, Gaussian, Inc.),
 the Gaussian(R) 94 system (copyright 1995, Gaussian, Inc.),
 the Gaussian 92(TM) system (copyright 1992, Gaussian, Inc.),
 the Gaussian 90(TM) system (copyright 1990, Gaussian, Inc.),
 the Gaussian 88(TM) system (copyright 1988, Gaussian, Inc.),
 the Gaussian 86(TM) system (copyright 1986, Carnegie Mellon
 University), and the Gaussian 82(TM) system (copyright 1983,
 Carnegie Mellon University). Gaussian is a federally registered
 trademark of Gaussian, Inc.
  
 This software contains proprietary and confidential information,
 including trade secrets, belonging to Gaussian, Inc.
  
 This software is provided under written license and may be
 used, copied, transmitted, or stored only in accord with that
 written license.
  
 The following legend is applicable only to US Government
 contracts under FAR:
  
                    RESTRICTED RIGHTS LEGEND
  
 Use, reproduction and disclosure by the US Government is
 subject to restrictions as set forth in subparagraphs (a)
 and (c) of the Commercial Computer Software - Restricted
 Rights clause in FAR 52.227-19.
  
 Gaussian, Inc.
 340 Quinnipiac St., Bldg. 40, Wallingford CT 06492
  
  
 ---------------------------------------------------------------
 Warning -- This program may not be used in any manner that
 competes with the business of Gaussian, Inc. or will provide
 assistance to any competitor of Gaussian, Inc.  The licensee
 of this program is prohibited from giving any competitor of
 Gaussian, Inc. access to this program.  By using this program,
 the user acknowledges that Gaussian, Inc. is engaged in the
 business of creating and licensing software in the field of
 computational chemistry and represents and warrants to the
 licensee that it is not a competitor of Gaussian, Inc. and that
 it will not use this program in any manner prohibited above.
 ---------------------------------------------------------------
  

 Cite this work as:
 Gaussian 09, Revision D.01,
 M. J. Frisch, G. W. Trucks, H. B. Schlegel, G. E. Scuseria, 
 M. A. Robb, J. R. Cheeseman, G. Scalmani, V. Barone, B. Mennucci, 
 G. A. Petersson, H. Nakatsuji, M. Caricato, X. Li, H. P. Hratchian, 
 A. F. Izmaylov, J. Bloino, G. Zheng, J. L. Sonnenberg, M. Hada, 
 M. Ehara, K. Toyota, R. Fukuda, J. Hasegawa, M. Ishida, T. Nakajima, 
 Y. Honda, O. Kitao, H. Nakai, T. Vreven, J. A. Montgomery, Jr., 
 J. E. Peralta, F. Ogliaro, M. Bearpark, J. J. Heyd, E. Brothers, 
 K. N. Kudin, V. N. Staroverov, T. Keith, R. Kobayashi, J. Normand, 
 K. Raghavachari, A. Rendell, J. C. Burant, S. S. Iyengar, J. Tomasi, 
 M. Cossi, N. Rega, J. M. Millam, M. Klene, J. E. Knox, J. B. Cross, 
 V. Bakken, C. Adamo, J. Jaramillo, R. Gomperts, R. E. Stratmann, 
 O. Yazyev, A. J. Austin, R. Cammi, C. Pomelli, J. W. Ochterski, 
 R. L. Martin, K. Morokuma, V. G. Zakrzewski, G. A. Voth, 
 P. Salvador, J. J. Dannenberg, S. Dapprich, A. D. Daniels, 
 O. Farkas, J. B. Foresman, J. V. Ortiz, J. Cioslowski, 
 and D. J. Fox, Gaussian, Inc., Wallingford CT, 2013.
 
 ******************************************
 Gaussian 09:  ES64L-G09RevD.01 24-Apr-2013
                24-Jul-2021 
 ******************************************
 %mem=2gb
 %nproc=4
 Will use up to    4 processors via shared memory.
 %chk=conf-599.chk
 ----------------------------------------------------------------------
 # B3LYP/6-311++G(d,p) EmpiricalDispersion=GD3BJ opt=calcfc freq=norama
 n nosymm integral(ultrafinegrid)
 ----------------------------------------------------------------------
 1/10=4,14=-1,18=20,19=15,26=4,38=1/1,3;
 2/9=110,12=2,15=1,17=6,18=5,40=1/2;
 3/5=4,6=6,7=1111,11=2,16=1,25=1,30=1,71=2,74=-5,75=-5,124=41,140=1/1,2,3;
 4//1;
 5/5=2,38=5/2;
 8/6=4,10=90,11=11/1;
 11/6=1,8=1,9=11,15=111,16=1,31=1/1,2,10;
 10/6=1,13=1,31=1/2;
 6/7=2,8=2,9=2,10=2,28=1/1;
 7/10=1,18=20,25=1,30=1/1,2,3,16;
 1/10=4,14=-1,18=20,19=15,26=4/3(2);
 2/9=110,15=1/2;
 99//99;
 2/9=110,15=1/2;
 3/5=4,6=6,7=1111,11=2,16=1,25=1,30=1,71=1,74=-5,75=-5,124=41/1,2,3;
 4/5=5,16=3,69=1/1;
 5/5=2,38=5/2;
 7/30=1/1,2,3,16;
 1/14=-1,18=20,19=15,26=4/3(-5);
 2/9=110,15=1/2;
 6/7=2,8=2,9=2,10=2,19=2,28=1/1;
 99/9=1/99;
 ------------------------------------------------------------
 Candidate Structure: Conf:599 OPT and FREQ calc in gas phase
 ------------------------------------------------------------
 Symbolic Z-matrix:
 Charge =  0 Multiplicity = 1
 O                     2.72597   1.58442   0.80496 
 C                     1.89025   0.7942    0.39654 
 N                     1.01823   1.17937  -0.59685 
 C                    -0.22342   0.51242  -0.94559 
 C                    -0.35346   0.36518  -2.47029 
 O                     0.79938   0.38118  -3.14534 
 O                    -1.40833   0.21685  -3.03333 
 C                    -1.43812   1.22132  -0.31345 
 C                    -2.59983   0.32156  -0.04955 
 C                    -3.27608   0.03772   1.09941 
 N                    -4.28908  -0.87107   0.85532 
 C                    -4.21717  -1.12742  -0.42721 
 N                    -3.2084   -0.43415  -1.01823 
 C                     1.79286  -0.63724   0.89213 
 C                     2.89167  -0.97889   1.89448 
 N                     4.25342  -0.88716   1.38912 
 H                     1.0638    2.17973  -0.7571 
 H                    -0.16805  -0.50709  -0.56088 
 H                     1.5207    0.5465   -2.51517 
 H                    -1.72582   2.06197  -0.94728 
 H                    -1.14041   1.63792   0.64684 
 H                    -3.10629   0.4317    2.08936 
 H                    -4.85382  -1.7908   -0.98585 
 H                    -2.91886  -0.4383   -1.98574 
 H                     0.81068  -0.78591   1.35308 
 H                     1.8427   -1.31413   0.03058 
 H                     2.81273  -0.30246   2.7475 
 H                     2.7276   -1.99298   2.26837 
 H                     4.36042  -1.47269   0.5682 
 H                     4.41663   0.06831   1.08825 
 

 GradGradGradGradGradGradGradGradGradGradGradGradGradGradGradGradGradGrad
 Berny optimization.
 Initialization pass.
                           ----------------------------
                           !    Initial Parameters    !
                           ! (Angstroms and Degrees)  !
 --------------------------                            --------------------------
 ! Name  Definition              Value          Derivative Info.                !
 --------------------------------------------------------------------------------
 ! R1    R(1,2)                  1.2205         calculate D2E/DX2 analytically  !
 ! R2    R(2,3)                  1.3768         calculate D2E/DX2 analytically  !
 ! R3    R(2,14)                 1.5179         calculate D2E/DX2 analytically  !
 ! R4    R(3,4)                  1.4519         calculate D2E/DX2 analytically  !
 ! R5    R(3,17)                 1.0141         calculate D2E/DX2 analytically  !
 ! R6    R(4,5)                  1.5373         calculate D2E/DX2 analytically  !
 ! R7    R(4,8)                  1.542          calculate D2E/DX2 analytically  !
 ! R8    R(4,18)                 1.0911         calculate D2E/DX2 analytically  !
 ! R9    R(5,6)                  1.336          calculate D2E/DX2 analytically  !
 ! R10   R(5,7)                  1.2049         calculate D2E/DX2 analytically  !
 ! R11   R(6,19)                 0.972          calculate D2E/DX2 analytically  !
 ! R12   R(8,9)                  1.4929         calculate D2E/DX2 analytically  !
 ! R13   R(8,20)                 1.0914         calculate D2E/DX2 analytically  !
 ! R14   R(8,21)                 1.0883         calculate D2E/DX2 analytically  !
 ! R15   R(9,10)                 1.3631         calculate D2E/DX2 analytically  !
 ! R16   R(9,13)                 1.3711         calculate D2E/DX2 analytically  !
 ! R17   R(10,11)                1.3826         calculate D2E/DX2 analytically  !
 ! R18   R(10,22)                1.0789         calculate D2E/DX2 analytically  !
 ! R19   R(11,12)                1.3099         calculate D2E/DX2 analytically  !
 ! R20   R(12,13)                1.3592         calculate D2E/DX2 analytically  !
 ! R21   R(12,23)                1.0759         calculate D2E/DX2 analytically  !
 ! R22   R(13,24)                1.0099         calculate D2E/DX2 analytically  !
 ! R23   R(14,15)                1.526          calculate D2E/DX2 analytically  !
 ! R24   R(14,25)                1.0951         calculate D2E/DX2 analytically  !
 ! R25   R(14,26)                1.0968         calculate D2E/DX2 analytically  !
 ! R26   R(15,16)                1.4554         calculate D2E/DX2 analytically  !
 ! R27   R(15,27)                1.0915         calculate D2E/DX2 analytically  !
 ! R28   R(15,28)                1.0932         calculate D2E/DX2 analytically  !
 ! R29   R(16,29)                1.014          calculate D2E/DX2 analytically  !
 ! R30   R(16,30)                1.0149         calculate D2E/DX2 analytically  !
 ! A1    A(1,2,3)              119.6035         calculate D2E/DX2 analytically  !
 ! A2    A(1,2,14)             123.04           calculate D2E/DX2 analytically  !
 ! A3    A(3,2,14)             117.3065         calculate D2E/DX2 analytically  !
 ! A4    A(2,3,4)              125.904          calculate D2E/DX2 analytically  !
 ! A5    A(2,3,17)             111.1928         calculate D2E/DX2 analytically  !
 ! A6    A(4,3,17)             116.9738         calculate D2E/DX2 analytically  !
 ! A7    A(3,4,5)              110.7664         calculate D2E/DX2 analytically  !
 ! A8    A(3,4,8)              111.347          calculate D2E/DX2 analytically  !
 ! A9    A(3,4,18)             107.5253         calculate D2E/DX2 analytically  !
 ! A10   A(5,4,8)              112.5815         calculate D2E/DX2 analytically  !
 ! A11   A(5,4,18)             105.3371         calculate D2E/DX2 analytically  !
 ! A12   A(8,4,18)             108.9662         calculate D2E/DX2 analytically  !
 ! A13   A(4,5,6)              115.2759         calculate D2E/DX2 analytically  !
 ! A14   A(4,5,7)              123.32           calculate D2E/DX2 analytically  !
 ! A15   A(6,5,7)              121.3869         calculate D2E/DX2 analytically  !
 ! A16   A(5,6,19)             108.3499         calculate D2E/DX2 analytically  !
 ! A17   A(4,8,9)              114.1036         calculate D2E/DX2 analytically  !
 ! A18   A(4,8,20)             108.8859         calculate D2E/DX2 analytically  !
 ! A19   A(4,8,21)             108.7983         calculate D2E/DX2 analytically  !
 ! A20   A(9,8,20)             111.2071         calculate D2E/DX2 analytically  !
 ! A21   A(9,8,21)             106.7145         calculate D2E/DX2 analytically  !
 ! A22   A(20,8,21)            106.8403         calculate D2E/DX2 analytically  !
 ! A23   A(8,9,10)             131.3425         calculate D2E/DX2 analytically  !
 ! A24   A(8,9,13)             123.5522         calculate D2E/DX2 analytically  !
 ! A25   A(10,9,13)            105.1028         calculate D2E/DX2 analytically  !
 ! A26   A(9,10,11)            110.5822         calculate D2E/DX2 analytically  !
 ! A27   A(9,10,22)            128.2644         calculate D2E/DX2 analytically  !
 ! A28   A(11,10,22)           121.1521         calculate D2E/DX2 analytically  !
 ! A29   A(10,11,12)           105.1456         calculate D2E/DX2 analytically  !
 ! A30   A(11,12,13)           111.5099         calculate D2E/DX2 analytically  !
 ! A31   A(11,12,23)           126.6264         calculate D2E/DX2 analytically  !
 ! A32   A(13,12,23)           121.8634         calculate D2E/DX2 analytically  !
 ! A33   A(9,13,12)            107.6581         calculate D2E/DX2 analytically  !
 ! A34   A(9,13,24)            123.4952         calculate D2E/DX2 analytically  !
 ! A35   A(12,13,24)           128.8467         calculate D2E/DX2 analytically  !
 ! A36   A(2,14,15)            112.2951         calculate D2E/DX2 analytically  !
 ! A37   A(2,14,25)            108.844          calculate D2E/DX2 analytically  !
 ! A38   A(2,14,26)            108.8205         calculate D2E/DX2 analytically  !
 ! A39   A(15,14,25)           109.8114         calculate D2E/DX2 analytically  !
 ! A40   A(15,14,26)           110.1863         calculate D2E/DX2 analytically  !
 ! A41   A(25,14,26)           106.7147         calculate D2E/DX2 analytically  !
 ! A42   A(14,15,16)           115.5643         calculate D2E/DX2 analytically  !
 ! A43   A(14,15,27)           108.8135         calculate D2E/DX2 analytically  !
 ! A44   A(14,15,28)           108.9203         calculate D2E/DX2 analytically  !
 ! A45   A(16,15,27)           107.4558         calculate D2E/DX2 analytically  !
 ! A46   A(16,15,28)           108.521          calculate D2E/DX2 analytically  !
 ! A47   A(27,15,28)           107.2617         calculate D2E/DX2 analytically  !
 ! A48   A(15,16,29)           110.0871         calculate D2E/DX2 analytically  !
 ! A49   A(15,16,30)           108.224          calculate D2E/DX2 analytically  !
 ! A50   A(29,16,30)           106.6573         calculate D2E/DX2 analytically  !
 ! D1    D(1,2,3,4)           -163.0385         calculate D2E/DX2 analytically  !
 ! D2    D(1,2,3,17)           -11.2382         calculate D2E/DX2 analytically  !
 ! D3    D(14,2,3,4)            19.4548         calculate D2E/DX2 analytically  !
 ! D4    D(14,2,3,17)          171.2551         calculate D2E/DX2 analytically  !
 ! D5    D(1,2,14,15)           -2.7675         calculate D2E/DX2 analytically  !
 ! D6    D(1,2,14,25)          119.0351         calculate D2E/DX2 analytically  !
 ! D7    D(1,2,14,26)         -125.0281         calculate D2E/DX2 analytically  !
 ! D8    D(3,2,14,15)          174.6464         calculate D2E/DX2 analytically  !
 ! D9    D(3,2,14,25)          -63.5511         calculate D2E/DX2 analytically  !
 ! D10   D(3,2,14,26)           52.3857         calculate D2E/DX2 analytically  !
 ! D11   D(2,3,4,5)           -134.8834         calculate D2E/DX2 analytically  !
 ! D12   D(2,3,4,8)             99.0215         calculate D2E/DX2 analytically  !
 ! D13   D(2,3,4,18)           -20.2766         calculate D2E/DX2 analytically  !
 ! D14   D(17,3,4,5)            74.7447         calculate D2E/DX2 analytically  !
 ! D15   D(17,3,4,8)           -51.3504         calculate D2E/DX2 analytically  !
 ! D16   D(17,3,4,18)         -170.6486         calculate D2E/DX2 analytically  !
 ! D17   D(3,4,5,6)             23.8293         calculate D2E/DX2 analytically  !
 ! D18   D(3,4,5,7)           -157.6646         calculate D2E/DX2 analytically  !
 ! D19   D(8,4,5,6)            149.2328         calculate D2E/DX2 analytically  !
 ! D20   D(8,4,5,7)            -32.2611         calculate D2E/DX2 analytically  !
 ! D21   D(18,4,5,6)           -92.1433         calculate D2E/DX2 analytically  !
 ! D22   D(18,4,5,7)            86.3628         calculate D2E/DX2 analytically  !
 ! D23   D(3,4,8,9)           -152.0728         calculate D2E/DX2 analytically  !
 ! D24   D(3,4,8,20)            83.0445         calculate D2E/DX2 analytically  !
 ! D25   D(3,4,8,21)           -33.0524         calculate D2E/DX2 analytically  !
 ! D26   D(5,4,8,9)             82.84           calculate D2E/DX2 analytically  !
 ! D27   D(5,4,8,20)           -42.0426         calculate D2E/DX2 analytically  !
 ! D28   D(5,4,8,21)          -158.1396         calculate D2E/DX2 analytically  !
 ! D29   D(18,4,8,9)           -33.6364         calculate D2E/DX2 analytically  !
 ! D30   D(18,4,8,20)         -158.519          calculate D2E/DX2 analytically  !
 ! D31   D(18,4,8,21)           85.384          calculate D2E/DX2 analytically  !
 ! D32   D(4,5,6,19)            -3.6863         calculate D2E/DX2 analytically  !
 ! D33   D(7,5,6,19)           177.776          calculate D2E/DX2 analytically  !
 ! D34   D(4,8,9,10)           122.7649         calculate D2E/DX2 analytically  !
 ! D35   D(4,8,9,13)           -56.5688         calculate D2E/DX2 analytically  !
 ! D36   D(20,8,9,10)         -113.596          calculate D2E/DX2 analytically  !
 ! D37   D(20,8,9,13)           67.0704         calculate D2E/DX2 analytically  !
 ! D38   D(21,8,9,10)            2.5702         calculate D2E/DX2 analytically  !
 ! D39   D(21,8,9,13)         -176.7635         calculate D2E/DX2 analytically  !
 ! D40   D(8,9,10,11)         -179.668          calculate D2E/DX2 analytically  !
 ! D41   D(8,9,10,22)            0.7448         calculate D2E/DX2 analytically  !
 ! D42   D(13,9,10,11)          -0.2431         calculate D2E/DX2 analytically  !
 ! D43   D(13,9,10,22)        -179.8304         calculate D2E/DX2 analytically  !
 ! D44   D(8,9,13,12)          179.8357         calculate D2E/DX2 analytically  !
 ! D45   D(8,9,13,24)           -0.1672         calculate D2E/DX2 analytically  !
 ! D46   D(10,9,13,12)           0.3539         calculate D2E/DX2 analytically  !
 ! D47   D(10,9,13,24)        -179.6491         calculate D2E/DX2 analytically  !
 ! D48   D(9,10,11,12)           0.0335         calculate D2E/DX2 analytically  !
 ! D49   D(22,10,11,12)        179.6548         calculate D2E/DX2 analytically  !
 ! D50   D(10,11,12,13)          0.1996         calculate D2E/DX2 analytically  !
 ! D51   D(10,11,12,23)       -179.6095         calculate D2E/DX2 analytically  !
 ! D52   D(11,12,13,9)          -0.3581         calculate D2E/DX2 analytically  !
 ! D53   D(11,12,13,24)        179.6451         calculate D2E/DX2 analytically  !
 ! D54   D(23,12,13,9)         179.4615         calculate D2E/DX2 analytically  !
 ! D55   D(23,12,13,24)         -0.5354         calculate D2E/DX2 analytically  !
 ! D56   D(2,14,15,16)         -61.6341         calculate D2E/DX2 analytically  !
 ! D57   D(2,14,15,27)          59.314          calculate D2E/DX2 analytically  !
 ! D58   D(2,14,15,28)         175.9403         calculate D2E/DX2 analytically  !
 ! D59   D(25,14,15,16)        177.1165         calculate D2E/DX2 analytically  !
 ! D60   D(25,14,15,27)        -61.9354         calculate D2E/DX2 analytically  !
 ! D61   D(25,14,15,28)         54.6909         calculate D2E/DX2 analytically  !
 ! D62   D(26,14,15,16)         59.8484         calculate D2E/DX2 analytically  !
 ! D63   D(26,14,15,27)       -179.2034         calculate D2E/DX2 analytically  !
 ! D64   D(26,14,15,28)        -62.5771         calculate D2E/DX2 analytically  !
 ! D65   D(14,15,16,29)        -55.923          calculate D2E/DX2 analytically  !
 ! D66   D(14,15,16,30)         60.2916         calculate D2E/DX2 analytically  !
 ! D67   D(27,15,16,29)       -177.6021         calculate D2E/DX2 analytically  !
 ! D68   D(27,15,16,30)        -61.3876         calculate D2E/DX2 analytically  !
 ! D69   D(28,15,16,29)         66.7147         calculate D2E/DX2 analytically  !
 ! D70   D(28,15,16,30)       -177.0708         calculate D2E/DX2 analytically  !
 --------------------------------------------------------------------------------
 Trust Radius=3.00D-01 FncErr=1.00D-07 GrdErr=1.00D-06
 Number of steps in this run=    160 maximum allowed number of steps=    180.
 GradGradGradGradGradGradGradGradGradGradGradGradGradGradGradGradGradGrad

                          Input orientation:                          
 ---------------------------------------------------------------------
 Center     Atomic      Atomic             Coordinates (Angstroms)
 Number     Number       Type             X           Y           Z
 ---------------------------------------------------------------------
      1          8           0        2.725971    1.584423    0.804964
      2          6           0        1.890253    0.794201    0.396535
      3          7           0        1.018228    1.179373   -0.596848
      4          6           0       -0.223423    0.512422   -0.945592
      5          6           0       -0.353465    0.365177   -2.470292
      6          8           0        0.799382    0.381175   -3.145336
      7          8           0       -1.408327    0.216853   -3.033330
      8          6           0       -1.438118    1.221322   -0.313451
      9          6           0       -2.599832    0.321563   -0.049549
     10          6           0       -3.276084    0.037720    1.099414
     11          7           0       -4.289075   -0.871068    0.855325
     12          6           0       -4.217169   -1.127420   -0.427213
     13          7           0       -3.208396   -0.434153   -1.018235
     14          6           0        1.792865   -0.637241    0.892133
     15          6           0        2.891674   -0.978892    1.894484
     16          7           0        4.253425   -0.887160    1.389122
     17          1           0        1.063800    2.179732   -0.757100
     18          1           0       -0.168050   -0.507092   -0.560880
     19          1           0        1.520703    0.546501   -2.515168
     20          1           0       -1.725825    2.061974   -0.947285
     21          1           0       -1.140410    1.637918    0.646836
     22          1           0       -3.106286    0.431698    2.089360
     23          1           0       -4.853822   -1.790798   -0.985847
     24          1           0       -2.918858   -0.438301   -1.985735
     25          1           0        0.810684   -0.785913    1.353080
     26          1           0        1.842697   -1.314126    0.030580
     27          1           0        2.812732   -0.302459    2.747501
     28          1           0        2.727601   -1.992983    2.268367
     29          1           0        4.360421   -1.472691    0.568202
     30          1           0        4.416630    0.068305    1.088249
 ---------------------------------------------------------------------
                    Distance matrix (angstroms):
                    1          2          3          4          5
     1  O    0.000000
     2  C    1.220528   0.000000
     3  N    2.246225   1.376806   0.000000
     4  C    3.593404   2.519590   1.451945   0.000000
     5  C    4.657981   3.665655   2.460538   1.537303   0.000000
     6  O    4.556799   3.729000   2.679516   2.429450   1.336037
     7  O    5.804754   4.793531   3.570863   2.418679   1.204885
     8  C    4.326931   3.429952   2.472997   1.541956   2.561527
     9  C    5.539781   4.536875   3.758421   2.546888   3.302736
    10  C    6.205131   5.268523   4.756237   3.704879   4.625119
    11  N    7.432553   6.416207   5.872017   4.656917   5.298779
    12  C    7.555100   6.455369   5.723588   4.348311   4.618466
    13  N    6.528048   5.432002   4.543719   3.132306   3.301217
    14  C    2.411239   1.517936   2.473300   2.960469   4.113086
    15  C    2.790178   2.527955   3.791391   4.471452   5.602564
    16  N    2.963626   3.065418   4.322167   5.239455   6.138962
    17  H    2.357381   1.983328   1.014138   2.114804   2.869891
    18  H    3.822999   2.616605   2.062211   1.091090   2.107388
    19  H    3.681471   2.945495   2.081576   2.346637   1.883453
    20  H    4.808005   4.060680   2.903725   2.158316   2.661211
    21  H    3.869982   3.155856   2.533126   2.154862   3.457692
    22  H    6.082241   5.287955   4.978589   4.186687   5.326619
    23  H    8.488367   7.353622   6.591981   5.171754   5.206248
    24  H    6.613888   5.506526   4.477335   3.041569   2.731596
    25  H    3.096328   2.139441   2.776264   2.835303   4.159138
    26  H    3.127527   2.140381   2.700176   2.925413   3.727942
    27  H    2.709483   2.753302   4.074401   4.849867   6.139699
    28  H    3.865150   3.460246   4.603830   5.031415   6.124441
    29  H    3.474684   3.357083   4.422786   5.219567   5.901773
    30  H    2.288491   2.718083   3.952614   5.085651   5.958620
                    6          7          8          9         10
     6  O    0.000000
     7  O    2.216648   0.000000
     8  C    3.705648   2.899585   0.000000
     9  C    4.598055   3.214592   1.492913   0.000000
    10  C    5.894513   4.538742   2.602925   1.363084   0.000000
    11  N    6.592859   4.960234   3.724525   2.257146   1.382616
    12  C    5.901681   4.060605   3.640420   2.204078   2.138640
    13  N    4.609946   2.779328   2.524124   1.371061   2.170640
    14  C    4.280810   5.136767   3.917518   4.593675   5.117888
    15  C    5.623812   6.648547   5.335075   5.968843   6.301339
    16  N    5.839554   7.268587   6.303817   7.106188   7.591629
    17  H    3.001399   3.891726   2.715690   4.168407   5.183575
    18  H    2.899026   2.859264   2.159099   2.619482   3.565567
    19  H    0.971981   2.992721   3.749342   4.807149   6.027704
    20  H    3.746089   2.803010   1.091429   2.144493   3.269539
    21  H    4.441031   3.954090   1.088270   2.085103   2.706763
    22  H    6.531373   5.401035   3.029816   2.200808   1.078908
    23  H    6.429586   4.482665   4.603479   3.227877   3.190775
    24  H    3.980141   1.951509   2.782710   2.104279   3.142030
    25  H    4.647362   5.016986   3.444333   3.850388   4.176648
    26  H    3.748199   4.722352   4.160602   4.734761   5.401093
    27  H    6.264700   7.176701   5.455371   6.124438   6.317088
    28  H    6.217945   7.077943   5.860952   6.253911   6.444722
    29  H    5.468838   7.007429   6.454307   7.214297   7.802547
    30  H    5.577241   7.137199   6.129624   7.112627   7.692783
                   11         12         13         14         15
    11  N    0.000000
    12  C    1.309881   0.000000
    13  N    2.206578   1.359246   0.000000
    14  C    6.086545   6.172638   5.357551   0.000000
    15  C    7.256352   7.479839   6.781705   1.526046   0.000000
    16  N    8.559176   8.666473   7.853620   2.522659   1.455393
    17  H    6.368718   6.239769   5.015201   3.344674   4.510978
    18  H    4.372752   4.098541   3.075417   2.444049   3.951370
    19  H    6.864637   6.331251   5.056369   3.617322   4.863273
    20  H    4.292131   4.080381   2.904084   4.801083   6.216415
    21  H    4.031448   4.274006   3.367863   3.720299   4.966088
    22  H    2.149194   3.161969   3.227579   5.155353   6.164679
    23  H    2.134187   1.075857   2.132829   7.002568   8.303506
    24  H    3.183772   2.142309   1.009904   5.524675   7.007898
    25  H    5.124700   5.344659   4.679730   1.095105   2.158908
    26  H    6.202833   6.080001   5.233345   1.096781   2.164919
    27  H    7.371521   7.757505   7.102964   2.143502   1.091527
    28  H    7.244938   7.499679   6.961879   2.146110   1.093201
    29  H    8.675147   8.642055   7.802713   2.719421   2.039627
    30  H    8.759337   8.846970   7.926586   2.724042   2.017951
                   16         17         18         19         20
    16  N    0.000000
    17  H    4.917906   0.000000
    18  H    4.847309   2.962259   0.000000
    19  H    4.976609   2.442745   2.789478   0.000000
    20  H    7.064532   2.798579   3.029203   3.910864   0.000000
    21  H    6.001704   2.668921   2.646720   4.274456   1.750358
    22  H    7.509664   5.342993   4.066734   6.528697   3.712773
    23  H    9.455104   7.129915   4.876982   6.959624   4.962832
    24  H    7.939318   4.921911   3.098691   4.578191   2.958561
    25  H    3.444418   3.648558   2.167696   4.152445   4.453764
    26  H    2.799918   3.665264   2.245938   3.169613   5.008854
    27  H    2.064622   4.637053   4.457839   5.485049   6.311932
    28  H    2.079436   5.416016   4.312460   5.548675   6.827599
    29  H    1.014004   5.095520   4.765949   4.652775   7.199511
    30  H    1.014926   4.370915   4.906119   4.647546   6.771105
                   21         22         23         24         25
    21  H    0.000000
    22  H    2.720388   0.000000
    23  H    5.311419   4.177351   0.000000
    24  H    3.795259   4.171142   2.563808   0.000000
    25  H    3.190690   4.167413   6.210234   5.017769   0.000000
    26  H    4.241846   5.637278   6.789972   5.244522   1.758712
    27  H    4.879056   6.000576   8.656160   7.434589   2.487235
    28  H    5.547460   6.320234   8.252804   7.238572   2.443224
    29  H    6.319906   7.854447   9.349788   7.783346   3.699775
    30  H    5.791306   7.597930   9.679847   7.969656   3.715195
                   26         27         28         29         30
    26  H    0.000000
    27  H    3.057139   0.000000
    28  H    2.500318   1.759173   0.000000
    29  H    2.579363   2.917898   2.413994   0.000000
    30  H    3.107235   2.337322   2.914517   1.627353   0.000000
 Symmetry turned off by external request.
 Stoichiometry    C9H14N4O3
 Framework group  C1[X(C9H14N4O3)]
 Deg. of freedom    84
 Full point group                 C1      NOp   1
 Rotational constants (GHZ):      0.7676288      0.2889335      0.2376474
 Standard basis: 6-311++G(d,p) (5D, 7F)
   450 basis functions,   702 primitive gaussians,   466 cartesian basis functions
    60 alpha electrons       60 beta electrons
       nuclear repulsion energy      1119.2355079682 Hartrees.
 NAtoms=   30 NActive=   30 NUniq=   30 SFac= 1.00D+00 NAtFMM=   60 NAOKFM=F Big=F
 Integral buffers will be    131072 words long.
 Raffenetti 2 integral format.
 Two-electron integral symmetry is turned off.
 Nuclear repulsion after empirical dispersion term =     1119.1802395276 Hartrees.
 One-electron integrals computed using PRISM.
 NBasis=   450 RedAO= T EigKep=  2.10D-06  NBF=   450
 NBsUse=   450 1.00D-06 EigRej= -1.00D+00 NBFU=   450
 ExpMin= 3.60D-02 ExpMax= 8.59D+03 ExpMxC= 1.30D+03 IAcc=3 IRadAn=         5 AccDes= 0.00D+00
 Harris functional with IExCor=  402 and IRadAn=       5 diagonalized for initial guess.
 HarFok:  IExCor=  402 AccDes= 0.00D+00 IRadAn=         5 IDoV= 1 UseB2=F ITyADJ=14
 ICtDFT=  3500011 ScaDFX=  1.000000  1.000000  1.000000  1.000000
 FoFCou: FMM=F IPFlag=           0 FMFlag=      100000 FMFlg1=           0
         NFxFlg=           0 DoJE=T BraDBF=F KetDBF=T FulRan=T
         wScrn=  0.000000 ICntrl=     500 IOpCl=  0 I1Cent=   200000004 NGrid=           0
         NMat0=    1 NMatS0=      1 NMatT0=    0 NMatD0=    1 NMtDS0=    0 NMtDT0=    0
 Symmetry not used in FoFCou.
 Requested convergence on RMS density matrix=1.00D-08 within 128 cycles.
 Requested convergence on MAX density matrix=1.00D-06.
 Requested convergence on             energy=1.00D-06.
 No special actions if energy rises.
 SCF Done:  E(RB3LYP) =  -796.378907933     A.U. after   15 cycles
            NFock= 15  Conv=0.40D-08     -V/T= 2.0036
 DoSCS=F DFT=T ScalE2(SS,OS)=  1.000000  1.000000
 Range of M.O.s used for correlation:     1   450
 NBasis=   450 NAE=    60 NBE=    60 NFC=     0 NFV=     0
 NROrb=    450 NOA=    60 NOB=    60 NVA=   390 NVB=   390

 **** Warning!!: The largest alpha MO coefficient is  0.13861130D+03

 Symmetrizing basis deriv contribution to polar:
 IMax=3 JMax=2 DiffMx= 0.00D+00
 G2DrvN: will do    31 centers at a time, making    1 passes.
 Calling FoFCou, ICntrl=  3107 FMM=F I1Cent=   0 AccDes= 0.00D+00.
 End of G2Drv F.D. properties file   721 does not exist.
 End of G2Drv F.D. properties file   722 does not exist.
 End of G2Drv F.D. properties file   788 does not exist.
          IDoAtm=111111111111111111111111111111
          Differentiating once with respect to nuclear coordinates.
          There are    93 degrees of freedom in the 1st order CPHF.  IDoFFX=6 NUNeed=     0.
     87 vectors produced by pass  0 Test12= 2.52D-14 1.08D-09 XBig12= 2.13D-01 8.74D-02.
 AX will form    87 AO Fock derivatives at one time.
     87 vectors produced by pass  1 Test12= 2.52D-14 1.08D-09 XBig12= 2.24D-02 2.80D-02.
     87 vectors produced by pass  2 Test12= 2.52D-14 1.08D-09 XBig12= 2.29D-04 1.77D-03.
     87 vectors produced by pass  3 Test12= 2.52D-14 1.08D-09 XBig12= 1.06D-06 9.64D-05.
     87 vectors produced by pass  4 Test12= 2.52D-14 1.08D-09 XBig12= 2.63D-09 3.36D-06.
     83 vectors produced by pass  5 Test12= 2.52D-14 1.08D-09 XBig12= 4.52D-12 1.57D-07.
     34 vectors produced by pass  6 Test12= 2.52D-14 1.08D-09 XBig12= 7.25D-15 8.61D-09.
      9 vectors produced by pass  7 Test12= 2.52D-14 1.08D-09 XBig12= 4.54D-16 1.82D-09.
 InvSVY:  IOpt=1 It=  1 EMax= 5.00D-16
 Solved reduced A of dimension   561 with    93 vectors.
 End of Minotr F.D. properties file   721 does not exist.
 End of Minotr F.D. properties file   722 does not exist.
 End of Minotr F.D. properties file   788 does not exist.

 **********************************************************************

            Population analysis using the SCF density.

 **********************************************************************

 Alpha  occ. eigenvalues --  -19.21026 -19.15498 -19.13114 -14.38617 -14.36740
 Alpha  occ. eigenvalues --  -14.29959 -14.29765 -10.34971 -10.31598 -10.27647
 Alpha  occ. eigenvalues --  -10.22810 -10.22182 -10.21566 -10.21168 -10.21134
 Alpha  occ. eigenvalues --  -10.18929  -1.15485  -1.08622  -1.07306  -1.02736
 Alpha  occ. eigenvalues --   -0.98035  -0.90087  -0.88028  -0.83112  -0.79022
 Alpha  occ. eigenvalues --   -0.76432  -0.70336  -0.67381  -0.66058  -0.62112
 Alpha  occ. eigenvalues --   -0.61055  -0.60317  -0.59090  -0.55910  -0.54957
 Alpha  occ. eigenvalues --   -0.52676  -0.50463  -0.50058  -0.49599  -0.48714
 Alpha  occ. eigenvalues --   -0.47171  -0.45634  -0.45152  -0.44713  -0.44345
 Alpha  occ. eigenvalues --   -0.43195  -0.42063  -0.41883  -0.41376  -0.40299
 Alpha  occ. eigenvalues --   -0.39345  -0.37592  -0.36766  -0.33911  -0.31411
 Alpha  occ. eigenvalues --   -0.29736  -0.29074  -0.27699  -0.25538  -0.24130
 Alpha virt. eigenvalues --   -0.04882  -0.03919  -0.02733  -0.01684  -0.00888
 Alpha virt. eigenvalues --   -0.00346   0.00573   0.01011   0.01435   0.01598
 Alpha virt. eigenvalues --    0.02339   0.03047   0.03319   0.03839   0.04146
 Alpha virt. eigenvalues --    0.04825   0.05250   0.05486   0.06454   0.06780
 Alpha virt. eigenvalues --    0.06880   0.07203   0.07867   0.08604   0.08914
 Alpha virt. eigenvalues --    0.09214   0.09373   0.09694   0.10424   0.10637
 Alpha virt. eigenvalues --    0.11198   0.11442   0.11660   0.11940   0.12197
 Alpha virt. eigenvalues --    0.12276   0.12592   0.13232   0.13612   0.13966
 Alpha virt. eigenvalues --    0.14172   0.14367   0.14759   0.15062   0.15348
 Alpha virt. eigenvalues --    0.15699   0.16150   0.16421   0.16859   0.17217
 Alpha virt. eigenvalues --    0.17545   0.18335   0.18731   0.18994   0.19329
 Alpha virt. eigenvalues --    0.19893   0.20037   0.20221   0.20629   0.21330
 Alpha virt. eigenvalues --    0.21409   0.21871   0.22293   0.22654   0.23214
 Alpha virt. eigenvalues --    0.23467   0.23896   0.24240   0.24724   0.25065
 Alpha virt. eigenvalues --    0.25118   0.25669   0.26393   0.26548   0.26649
 Alpha virt. eigenvalues --    0.27188   0.27608   0.28054   0.28578   0.28823
 Alpha virt. eigenvalues --    0.29039   0.29530   0.29844   0.30290   0.30762
 Alpha virt. eigenvalues --    0.31063   0.31596   0.32246   0.32468   0.33023
 Alpha virt. eigenvalues --    0.33099   0.33898   0.34349   0.35060   0.35114
 Alpha virt. eigenvalues --    0.35550   0.35946   0.35970   0.37452   0.38202
 Alpha virt. eigenvalues --    0.38780   0.39015   0.40057   0.40805   0.41930
 Alpha virt. eigenvalues --    0.43412   0.43747   0.44792   0.45409   0.47578
 Alpha virt. eigenvalues --    0.47844   0.49293   0.49673   0.50909   0.52186
 Alpha virt. eigenvalues --    0.53194   0.54193   0.55218   0.55884   0.56640
 Alpha virt. eigenvalues --    0.57516   0.58609   0.59618   0.60948   0.61533
 Alpha virt. eigenvalues --    0.62243   0.62600   0.63695   0.64961   0.65471
 Alpha virt. eigenvalues --    0.66510   0.66659   0.67429   0.68439   0.69147
 Alpha virt. eigenvalues --    0.69746   0.70231   0.70809   0.72020   0.72289
 Alpha virt. eigenvalues --    0.72516   0.73025   0.73400   0.74383   0.75292
 Alpha virt. eigenvalues --    0.76020   0.76699   0.77441   0.79181   0.80261
 Alpha virt. eigenvalues --    0.81283   0.83155   0.84524   0.85395   0.86477
 Alpha virt. eigenvalues --    0.87088   0.88143   0.88555   0.89312   0.90664
 Alpha virt. eigenvalues --    0.91009   0.92149   0.93075   0.94451   0.94980
 Alpha virt. eigenvalues --    0.96927   0.99616   1.00404   1.01431   1.02780
 Alpha virt. eigenvalues --    1.03612   1.04161   1.05357   1.06760   1.08828
 Alpha virt. eigenvalues --    1.09457   1.11164   1.11322   1.12152   1.13228
 Alpha virt. eigenvalues --    1.17915   1.18347   1.18896   1.20154   1.20418
 Alpha virt. eigenvalues --    1.21590   1.22893   1.23563   1.24453   1.25115
 Alpha virt. eigenvalues --    1.26280   1.26791   1.28581   1.29849   1.31537
 Alpha virt. eigenvalues --    1.32281   1.33744   1.35431   1.37547   1.38588
 Alpha virt. eigenvalues --    1.39712   1.42606   1.43992   1.45097   1.46790
 Alpha virt. eigenvalues --    1.49289   1.50091   1.52794   1.53794   1.54887
 Alpha virt. eigenvalues --    1.56048   1.57575   1.58548   1.59328   1.60256
 Alpha virt. eigenvalues --    1.62187   1.63280   1.63739   1.65511   1.65604
 Alpha virt. eigenvalues --    1.67326   1.68650   1.68956   1.69499   1.70513
 Alpha virt. eigenvalues --    1.72288   1.73408   1.74103   1.74907   1.76123
 Alpha virt. eigenvalues --    1.76435   1.77274   1.78486   1.79537   1.81176
 Alpha virt. eigenvalues --    1.81912   1.83640   1.84173   1.85128   1.86814
 Alpha virt. eigenvalues --    1.87336   1.88359   1.89897   1.92376   1.93055
 Alpha virt. eigenvalues --    1.95432   1.97231   1.98089   2.00320   2.02387
 Alpha virt. eigenvalues --    2.06318   2.07201   2.07966   2.10071   2.11385
 Alpha virt. eigenvalues --    2.12761   2.17402   2.18645   2.19516   2.22758
 Alpha virt. eigenvalues --    2.25105   2.26073   2.26472   2.27353   2.28975
 Alpha virt. eigenvalues --    2.30348   2.34669   2.35740   2.38709   2.40051
 Alpha virt. eigenvalues --    2.44198   2.46571   2.48119   2.49442   2.50090
 Alpha virt. eigenvalues --    2.51693   2.55036   2.55722   2.57496   2.58514
 Alpha virt. eigenvalues --    2.59654   2.59972   2.60127   2.61887   2.62838
 Alpha virt. eigenvalues --    2.63821   2.64867   2.66416   2.69328   2.70757
 Alpha virt. eigenvalues --    2.71595   2.72309   2.74213   2.76085   2.77388
 Alpha virt. eigenvalues --    2.78250   2.79286   2.80348   2.82482   2.83399
 Alpha virt. eigenvalues --    2.84557   2.85223   2.85973   2.89059   2.90146
 Alpha virt. eigenvalues --    2.90934   2.91099   2.92301   2.93388   2.93865
 Alpha virt. eigenvalues --    2.97339   2.97655   2.99017   3.01092   3.01896
 Alpha virt. eigenvalues --    3.03482   3.03849   3.05687   3.08869   3.10147
 Alpha virt. eigenvalues --    3.14223   3.14982   3.17146   3.17775   3.22380
 Alpha virt. eigenvalues --    3.27260   3.30505   3.34075   3.35886   3.36387
 Alpha virt. eigenvalues --    3.42266   3.44987   3.48012   3.51936   3.54159
 Alpha virt. eigenvalues --    3.55336   3.60904   3.62399   3.69819   3.71907
 Alpha virt. eigenvalues --    3.73300   3.78621   3.81442   3.83821   3.84371
 Alpha virt. eigenvalues --    3.86096   3.88988   3.89959   3.94298   3.96561
 Alpha virt. eigenvalues --    4.02785   4.06557   4.09089   4.16134   4.22203
 Alpha virt. eigenvalues --    4.25905   4.33061   4.50827   4.73999   4.75848
 Alpha virt. eigenvalues --    4.78157   4.85645   4.94661   4.95251   4.97047
 Alpha virt. eigenvalues --    5.05537   5.09039   5.22091   5.23849   5.29184
 Alpha virt. eigenvalues --    5.38540   5.57372   5.76363   5.88151  23.74901
 Alpha virt. eigenvalues --   23.77389  23.81170  23.83481  23.86151  23.90632
 Alpha virt. eigenvalues --   23.92050  23.96673  24.16034  35.55919  35.56652
 Alpha virt. eigenvalues --   35.60823  35.70876  49.84001  49.99105  50.00726
          Condensed to atoms (all electrons):
               1          2          3          4          5          6
     1  O    8.017298   0.343847  -0.127436   0.058597   0.004286  -0.000283
     2  C    0.343847   7.926908   0.624529  -1.881378   0.181605   0.070118
     3  N   -0.127436   0.624529   8.715532  -2.523087   0.299781   0.143114
     4  C    0.058597  -1.881378  -2.523087  15.078765  -2.922538  -0.284755
     5  C    0.004286   0.181605   0.299781  -2.922538   9.069599   0.172291
     6  O   -0.000283   0.070118   0.143114  -0.284755   0.172291   7.866681
     7  O   -0.000131  -0.010295  -0.004965  -0.039177   0.395419  -0.115169
     8  C    0.025019  -0.391483  -0.210707  -1.474352   0.135417   0.025325
     9  C   -0.007602   0.383507   0.436640  -0.679495  -0.618524   0.016179
    10  C   -0.000979   0.020376   0.007898   0.385161  -0.128876   0.005843
    11  N    0.000005   0.002079   0.001785  -0.004716   0.004972   0.000098
    12  C   -0.000160   0.029704   0.017639   0.042751   0.055199   0.000996
    13  N    0.000177  -0.017530  -0.008867  -0.208379   0.209510  -0.000206
    14  C    0.011280  -1.561897  -0.551359   1.153901  -0.513618   0.021416
    15  C   -0.003334   0.650399   0.289074  -1.085963  -0.137091   0.015400
    16  N   -0.046638  -0.070777  -0.035246   0.122421   0.019233  -0.001074
    17  H    0.015170  -0.028364   0.236364   0.119292  -0.045659  -0.003713
    18  H    0.004371  -0.258817  -0.143850   0.447607  -0.008014  -0.027374
    19  H   -0.001050  -0.088371  -0.021254   0.127754  -0.003542   0.196426
    20  H    0.003821   0.007416   0.000008  -0.090331  -0.079214   0.001896
    21  H   -0.010208  -0.045142  -0.019543  -0.005910   0.044526  -0.002779
    22  H    0.000002   0.004101   0.000988  -0.004570  -0.007583   0.000131
    23  H    0.000001   0.000310   0.000012   0.003872   0.003370  -0.000100
    24  H   -0.000051   0.010910   0.008995   0.021628  -0.018595   0.006103
    25  H    0.009937  -0.059057   0.001732   0.035186   0.053362  -0.001901
    26  H   -0.007926   0.056775   0.036497  -0.102263  -0.051840   0.004689
    27  H   -0.017102  -0.040812  -0.004062   0.002461  -0.002721   0.000098
    28  H    0.004154   0.007099  -0.000664   0.004767  -0.000512  -0.000151
    29  H    0.002512  -0.005355   0.001578   0.000591   0.003282  -0.000223
    30  H    0.016384   0.037821   0.000177  -0.001768  -0.000977   0.000306
               7          8          9         10         11         12
     1  O   -0.000131   0.025019  -0.007602  -0.000979   0.000005  -0.000160
     2  C   -0.010295  -0.391483   0.383507   0.020376   0.002079   0.029704
     3  N   -0.004965  -0.210707   0.436640   0.007898   0.001785   0.017639
     4  C   -0.039177  -1.474352  -0.679495   0.385161  -0.004716   0.042751
     5  C    0.395419   0.135417  -0.618524  -0.128876   0.004972   0.055199
     6  O   -0.115169   0.025325   0.016179   0.005843   0.000098   0.000996
     7  O    7.994873   0.006198   0.025158  -0.008459   0.001042   0.000697
     8  C    0.006198  15.074635  -4.792314  -1.908347  -0.068781  -0.225702
     9  C    0.025158  -4.792314  11.720612  -0.417011  -0.198916  -0.009046
    10  C   -0.008459  -1.908347  -0.417011   7.531040   0.560364  -0.239966
    11  N    0.001042  -0.068781  -0.198916   0.560364   6.558466   0.351457
    12  C    0.000697  -0.225702  -0.009046  -0.239966   0.351457   5.377821
    13  N   -0.016965  -0.206766  -0.187085   0.101223   0.052133   0.130281
    14  C   -0.000056  -0.078646   0.066681   0.062136  -0.001433  -0.008257
    15  C   -0.002672  -0.134850   0.230166   0.010773   0.001518   0.005338
    16  N    0.000114  -0.003199  -0.016704   0.000934  -0.000032   0.000000
    17  H   -0.000961   0.064365  -0.056582  -0.004743  -0.000077   0.001038
    18  H   -0.013531   0.069406  -0.106421   0.048465   0.002567  -0.041610
    19  H    0.024466  -0.015391   0.028396  -0.001407  -0.000073  -0.000045
    20  H   -0.005797   0.362764   0.051934  -0.042052   0.004089  -0.007598
    21  H   -0.000383   0.733557  -0.364218  -0.027201  -0.002309  -0.004349
    22  H    0.000047  -0.111504  -0.083958   0.519544  -0.072177   0.035410
    23  H   -0.001651   0.010695   0.079998  -0.020251  -0.072687   0.440742
    24  H    0.032761  -0.052102  -0.068837   0.025678   0.011524  -0.018035
    25  H    0.001391  -0.015417   0.002597  -0.016752   0.000826   0.000032
    26  H   -0.001559  -0.037327   0.031286   0.007089  -0.000215   0.002543
    27  H    0.000032  -0.002603  -0.001471   0.000816  -0.000019  -0.000259
    28  H   -0.000044   0.005425   0.000557  -0.000241  -0.000025   0.000050
    29  H    0.000041   0.000396  -0.001076   0.000097  -0.000002  -0.000023
    30  H   -0.000010   0.000081   0.001093   0.000025  -0.000002   0.000051
              13         14         15         16         17         18
     1  O    0.000177   0.011280  -0.003334  -0.046638   0.015170   0.004371
     2  C   -0.017530  -1.561897   0.650399  -0.070777  -0.028364  -0.258817
     3  N   -0.008867  -0.551359   0.289074  -0.035246   0.236364  -0.143850
     4  C   -0.208379   1.153901  -1.085963   0.122421   0.119292   0.447607
     5  C    0.209510  -0.513618  -0.137091   0.019233  -0.045659  -0.008014
     6  O   -0.000206   0.021416   0.015400  -0.001074  -0.003713  -0.027374
     7  O   -0.016965  -0.000056  -0.002672   0.000114  -0.000961  -0.013531
     8  C   -0.206766  -0.078646  -0.134850  -0.003199   0.064365   0.069406
     9  C   -0.187085   0.066681   0.230166  -0.016704  -0.056582  -0.106421
    10  C    0.101223   0.062136   0.010773   0.000934  -0.004743   0.048465
    11  N    0.052133  -0.001433   0.001518  -0.000032  -0.000077   0.002567
    12  C    0.130281  -0.008257   0.005338   0.000000   0.001038  -0.041610
    13  N    7.014499  -0.025767  -0.007237   0.000208   0.000353   0.079838
    14  C   -0.025767   8.830419  -2.830304   0.490834  -0.007135   0.186685
    15  C   -0.007237  -2.830304  10.035825  -0.624032  -0.007169  -0.194117
    16  N    0.000208   0.490834  -0.624032   6.739217   0.004381   0.017525
    17  H    0.000353  -0.007135  -0.007169   0.004381   0.395017  -0.000754
    18  H    0.079838   0.186685  -0.194117   0.017525  -0.000754   0.632602
    19  H   -0.000993   0.011319  -0.026045   0.003544  -0.006070   0.026562
    20  H    0.009642   0.017176   0.009671  -0.000878  -0.002898   0.018788
    21  H    0.025408  -0.023157  -0.030107   0.001051   0.008033   0.014657
    22  H    0.018771   0.004965   0.002850  -0.000094  -0.000700   0.000452
    23  H   -0.122052  -0.000178  -0.000045   0.000006   0.000063  -0.004277
    24  H    0.342269   0.001086   0.001620   0.000022   0.000401  -0.005905
    25  H    0.002088   0.356013  -0.018291   0.009794  -0.000676   0.015504
    26  H   -0.006322   0.302488   0.130891  -0.048406  -0.001251  -0.044559
    27  H    0.000020   0.083059   0.292777  -0.025466  -0.000577   0.005238
    28  H   -0.000105   0.070342   0.232229  -0.021368   0.000183  -0.000741
    29  H    0.000086   0.054363  -0.095074   0.384028   0.000414   0.004186
    30  H   -0.000035  -0.055913  -0.000269   0.390512   0.000446  -0.004158
              19         20         21         22         23         24
     1  O   -0.001050   0.003821  -0.010208   0.000002   0.000001  -0.000051
     2  C   -0.088371   0.007416  -0.045142   0.004101   0.000310   0.010910
     3  N   -0.021254   0.000008  -0.019543   0.000988   0.000012   0.008995
     4  C    0.127754  -0.090331  -0.005910  -0.004570   0.003872   0.021628
     5  C   -0.003542  -0.079214   0.044526  -0.007583   0.003370  -0.018595
     6  O    0.196426   0.001896  -0.002779   0.000131  -0.000100   0.006103
     7  O    0.024466  -0.005797  -0.000383   0.000047  -0.001651   0.032761
     8  C   -0.015391   0.362764   0.733557  -0.111504   0.010695  -0.052102
     9  C    0.028396   0.051934  -0.364218  -0.083958   0.079998  -0.068837
    10  C   -0.001407  -0.042052  -0.027201   0.519544  -0.020251   0.025678
    11  N   -0.000073   0.004089  -0.002309  -0.072177  -0.072687   0.011524
    12  C   -0.000045  -0.007598  -0.004349   0.035410   0.440742  -0.018035
    13  N   -0.000993   0.009642   0.025408   0.018771  -0.122052   0.342269
    14  C    0.011319   0.017176  -0.023157   0.004965  -0.000178   0.001086
    15  C   -0.026045   0.009671  -0.030107   0.002850  -0.000045   0.001620
    16  N    0.003544  -0.000878   0.001051  -0.000094   0.000006   0.000022
    17  H   -0.006070  -0.002898   0.008033  -0.000700   0.000063   0.000401
    18  H    0.026562   0.018788   0.014657   0.000452  -0.004277  -0.005905
    19  H    0.470170   0.001641  -0.001625   0.000000   0.000057  -0.002501
    20  H    0.001641   0.551398  -0.058709   0.003141  -0.001282   0.000260
    21  H   -0.001625  -0.058709   0.578114  -0.006600   0.000270   0.000795
    22  H    0.000000   0.003141  -0.006600   0.564181  -0.000980   0.001896
    23  H    0.000057  -0.001282   0.000270  -0.000980   0.531922  -0.005778
    24  H   -0.002501   0.000260   0.000795   0.001896  -0.005778   0.351235
    25  H    0.002784   0.004516  -0.006335  -0.001681  -0.000138   0.000527
    26  H   -0.012233  -0.002218  -0.002265   0.000640   0.000182  -0.000519
    27  H   -0.000466  -0.000046   0.000064   0.000185  -0.000006   0.000022
    28  H    0.000367   0.000095   0.000107  -0.000042   0.000001  -0.000016
    29  H    0.000322  -0.000061   0.000144  -0.000012   0.000000   0.000016
    30  H   -0.000338  -0.000029   0.000088   0.000013   0.000001  -0.000006
              25         26         27         28         29         30
     1  O    0.009937  -0.007926  -0.017102   0.004154   0.002512   0.016384
     2  C   -0.059057   0.056775  -0.040812   0.007099  -0.005355   0.037821
     3  N    0.001732   0.036497  -0.004062  -0.000664   0.001578   0.000177
     4  C    0.035186  -0.102263   0.002461   0.004767   0.000591  -0.001768
     5  C    0.053362  -0.051840  -0.002721  -0.000512   0.003282  -0.000977
     6  O   -0.001901   0.004689   0.000098  -0.000151  -0.000223   0.000306
     7  O    0.001391  -0.001559   0.000032  -0.000044   0.000041  -0.000010
     8  C   -0.015417  -0.037327  -0.002603   0.005425   0.000396   0.000081
     9  C    0.002597   0.031286  -0.001471   0.000557  -0.001076   0.001093
    10  C   -0.016752   0.007089   0.000816  -0.000241   0.000097   0.000025
    11  N    0.000826  -0.000215  -0.000019  -0.000025  -0.000002  -0.000002
    12  C    0.000032   0.002543  -0.000259   0.000050  -0.000023   0.000051
    13  N    0.002088  -0.006322   0.000020  -0.000105   0.000086  -0.000035
    14  C    0.356013   0.302488   0.083059   0.070342   0.054363  -0.055913
    15  C   -0.018291   0.130891   0.292777   0.232229  -0.095074  -0.000269
    16  N    0.009794  -0.048406  -0.025466  -0.021368   0.384028   0.390512
    17  H   -0.000676  -0.001251  -0.000577   0.000183   0.000414   0.000446
    18  H    0.015504  -0.044559   0.005238  -0.000741   0.004186  -0.004158
    19  H    0.002784  -0.012233  -0.000466   0.000367   0.000322  -0.000338
    20  H    0.004516  -0.002218  -0.000046   0.000095  -0.000061  -0.000029
    21  H   -0.006335  -0.002265   0.000064   0.000107   0.000144   0.000088
    22  H   -0.001681   0.000640   0.000185  -0.000042  -0.000012   0.000013
    23  H   -0.000138   0.000182  -0.000006   0.000001   0.000000   0.000001
    24  H    0.000527  -0.000519   0.000022  -0.000016   0.000016  -0.000006
    25  H    0.575787  -0.076179  -0.021764  -0.006257   0.000417  -0.004925
    26  H   -0.076179   0.616615   0.013716  -0.012300  -0.004484   0.009066
    27  H   -0.021764   0.013716   0.545952  -0.027373   0.013614  -0.018186
    28  H   -0.006257  -0.012300  -0.027373   0.577072  -0.017002   0.011324
    29  H    0.000417  -0.004484   0.013614  -0.017002   0.517858  -0.068758
    30  H   -0.004925   0.009066  -0.018186   0.011324  -0.068758   0.434329
 Mulliken charges:
               1
     1  O   -0.293961
     2  C    0.101774
     3  N   -0.171303
     4  C   -0.296072
     5  C   -0.112547
     6  O   -0.109383
     7  O   -0.260413
     8  C   -0.783793
     9  C    0.534454
    10  C   -0.471177
    11  N   -0.131460
    12  C    0.063302
    13  N   -0.178197
    14  C   -0.066445
    15  C   -0.711931
    16  N   -0.289908
    17  H    0.321810
    18  H    0.279670
    19  H    0.287595
    20  H    0.242858
    21  H    0.204024
    22  H    0.132586
    23  H    0.157925
    24  H    0.354599
    25  H    0.156880
    26  H    0.199387
    27  H    0.204878
    28  H    0.173069
    29  H    0.208125
    30  H    0.253655
 Sum of Mulliken charges =   0.00000
 Mulliken charges with hydrogens summed into heavy atoms:
               1
     1  O   -0.293961
     2  C    0.101774
     3  N    0.150507
     4  C   -0.016402
     5  C   -0.112547
     6  O    0.178212
     7  O   -0.260413
     8  C   -0.336911
     9  C    0.534454
    10  C   -0.338590
    11  N   -0.131460
    12  C    0.221227
    13  N    0.176401
    14  C    0.289822
    15  C   -0.333984
    16  N    0.171872
 APT charges:
               1
     1  O   -0.010707
     2  C    0.055289
     3  N   -0.639520
     4  C   -0.260124
     5  C   -0.600038
     6  O    0.058430
     7  O    0.147101
     8  C   -1.346256
     9  C    0.558431
    10  C   -0.791856
    11  N   -0.111886
    12  C   -0.373617
    13  N   -0.548744
    14  C   -0.148082
    15  C   -1.623314
    16  N   -0.125536
    17  H    0.682236
    18  H    0.267837
    19  H    0.274802
    20  H    0.588078
    21  H    0.289789
    22  H    0.405159
    23  H    0.958265
    24  H    0.470070
    25  H    0.143866
    26  H    0.316949
    27  H    0.432098
    28  H    0.482892
    29  H    0.277502
    30  H    0.170887
 Sum of APT charges =   0.00000
 APT charges with hydrogens summed into heavy atoms:
               1
     1  O   -0.010707
     2  C    0.055289
     3  N    0.042716
     4  C    0.007713
     5  C   -0.600038
     6  O    0.333232
     7  O    0.147101
     8  C   -0.468389
     9  C    0.558431
    10  C   -0.386697
    11  N   -0.111886
    12  C    0.584648
    13  N   -0.078674
    14  C    0.312733
    15  C   -0.708323
    16  N    0.322852
 Electronic spatial extent (au):  <R**2>=           4659.7475
 Charge=              0.0000 electrons
 Dipole moment (field-independent basis, Debye):
    X=              1.2732    Y=              0.3309    Z=             -1.9759  Tot=              2.3737
 Quadrupole moment (field-independent basis, Debye-Ang):
   XX=           -126.5759   YY=            -93.5148   ZZ=           -108.8776
   XY=             -5.6492   XZ=             -2.9241   YZ=              2.2026
 Traceless Quadrupole moment (field-independent basis, Debye-Ang):
   XX=            -16.9198   YY=             16.1413   ZZ=              0.7785
   XY=             -5.6492   XZ=             -2.9241   YZ=              2.2026
 Octapole moment (field-independent basis, Debye-Ang**2):
  XXX=             86.6438  YYY=            -20.4137  ZZZ=            120.3908  XYY=             17.9079
  XXY=             -4.2026  XXZ=            -79.4534  XZZ=             22.4150  YZZ=             -4.1681
  YYZ=              5.5964  XYZ=            -17.8803
 Hexadecapole moment (field-independent basis, Debye-Ang**3):
 XXXX=          -4954.2733 YYYY=           -540.6232 ZZZZ=          -1659.1403 XXXY=            -56.2679
 XXXZ=           -306.8526 YYYX=           -111.7761 YYYZ=             99.8599 ZZZX=           -364.9859
 ZZZY=            142.7786 XXYY=           -823.4552 XXZZ=          -1041.6647 YYZZ=           -331.1798
 XXYZ=            159.5166 YYXZ=           -100.6487 ZZXY=            -12.5593
 N-N= 1.119180239528D+03 E-N=-4.097677607397D+03  KE= 7.935099951090D+02
  Exact polarizability:   0.000   0.000   0.000   0.000   0.000   0.000
 Approx polarizability: 225.044  30.976 183.503   8.492   6.870 213.704
 Calling FoFJK, ICntrl=    100147 FMM=F ISym2X=0 I1Cent= 0 IOpClX= 0 NMat=1 NMatS=1 NMatT=0.
 -------------------------------------------------------------------
 Center     Atomic                   Forces (Hartrees/Bohr)
 Number     Number              X              Y              Z
 -------------------------------------------------------------------
      1        8          -0.003501995   -0.001542201   -0.000407007
      2        6           0.007650198    0.000474710    0.005493378
      3        7           0.003048531    0.001657749   -0.006770747
      4        6          -0.000764632    0.002528249    0.003416260
      5        6           0.000568819    0.000362108    0.000086985
      6        8           0.000632514   -0.001167979   -0.002021859
      7        8           0.000901810   -0.000301318   -0.001589745
      8        6          -0.006792592   -0.003571772    0.000264591
      9        6           0.007749282    0.005628719   -0.004271980
     10        6          -0.007324705   -0.004453016    0.010010202
     11        7           0.000278155    0.002300980    0.005792405
     12        6          -0.001028903   -0.001646023   -0.001851986
     13        7          -0.001825221   -0.001653523   -0.006384136
     14        6          -0.002270404    0.000441382   -0.001143488
     15        6           0.002806153   -0.000449365    0.004233781
     16        7           0.000474456    0.001468023   -0.003398945
     17        1          -0.001276990    0.001081683   -0.000978656
     18        1          -0.001161098   -0.000128395   -0.000191294
     19        1           0.000396431    0.001444464    0.000716779
     20        1          -0.001038734    0.002232200   -0.001798449
     21        1           0.002922528    0.000178195    0.001196517
     22        1           0.000444665    0.000359814    0.000159865
     23        1          -0.001865595   -0.002076806   -0.000090318
     24        1          -0.000194197    0.000719997   -0.002930553
     25        1          -0.001459148   -0.000542631    0.000100868
     26        1          -0.000591771   -0.000611771    0.000119374
     27        1          -0.000586449   -0.000501564    0.001115186
     28        1          -0.001167136    0.000091004    0.000198498
     29        1           0.002339797   -0.002918414   -0.000546702
     30        1           0.002636231    0.000595500    0.001471178
 -------------------------------------------------------------------
 Cartesian Forces:  Max     0.010010202 RMS     0.002880746
 FormGI is forming the generalized inverse of G from B-inverse, IUseBI=4.
 GSVD:  received Info=                   1 from GESDD.

 GradGradGradGradGradGradGradGradGradGradGradGradGradGradGradGradGradGrad
 Berny optimization.
 Internal  Forces:  Max     0.011903779 RMS     0.002611462
 Search for a local minimum.
 Step number   1 out of a maximum of  160
 All quantities printed in internal units (Hartrees-Bohrs-Radians)
 Mixed Optimization -- RFO/linear search
 Second derivative matrix not updated -- analytic derivatives used.
 ITU=  0
     Eigenvalues ---   -0.00021   0.00196   0.00292   0.00345   0.00361
     Eigenvalues ---    0.00468   0.00656   0.00810   0.00897   0.01464
     Eigenvalues ---    0.01563   0.02027   0.02550   0.02924   0.03460
     Eigenvalues ---    0.03509   0.03970   0.04175   0.04232   0.04291
     Eigenvalues ---    0.04405   0.04743   0.04927   0.05025   0.05427
     Eigenvalues ---    0.05582   0.06187   0.06271   0.07607   0.08083
     Eigenvalues ---    0.08667   0.10446   0.10838   0.10849   0.11572
     Eigenvalues ---    0.11709   0.12562   0.12771   0.14968   0.16220
     Eigenvalues ---    0.16653   0.18324   0.18414   0.19014   0.19718
     Eigenvalues ---    0.21368   0.21927   0.22179   0.23241   0.23355
     Eigenvalues ---    0.24539   0.25173   0.27250   0.27492   0.30910
     Eigenvalues ---    0.31645   0.32491   0.32957   0.33179   0.33377
     Eigenvalues ---    0.33445   0.34304   0.34383   0.34580   0.34677
     Eigenvalues ---    0.37036   0.37234   0.37549   0.38132   0.39634
     Eigenvalues ---    0.41817   0.41990   0.44888   0.44955   0.45131
     Eigenvalues ---    0.45379   0.46659   0.47101   0.48319   0.50023
     Eigenvalues ---    0.59750   0.66940   0.80827   0.87865
 RFO step:  Lambda=-3.78496189D-03 EMin=-2.12426377D-04
 Linear search not attempted -- first point.
 Iteration  1 RMS(Cart)=  0.22646744 RMS(Int)=  0.03263514
 Iteration  2 RMS(Cart)=  0.12740289 RMS(Int)=  0.00351426
 Iteration  3 RMS(Cart)=  0.00668749 RMS(Int)=  0.00039067
 Iteration  4 RMS(Cart)=  0.00001835 RMS(Int)=  0.00039056
 Iteration  5 RMS(Cart)=  0.00000001 RMS(Int)=  0.00039056
 Variable       Old X    -DE/DX   Delta X   Delta X   Delta X     New X
                                 (Linear)    (Quad)   (Total)
    R1        2.30646  -0.00353   0.00000  -0.00891  -0.00891   2.29755
    R2        2.60179   0.01021   0.00000   0.03060   0.03060   2.63239
    R3        2.86848   0.00285   0.00000   0.00138   0.00138   2.86986
    R4        2.74378   0.00646   0.00000   0.01689   0.01689   2.76066
    R5        1.91644   0.00116   0.00000   0.00347   0.00347   1.91991
    R6        2.90508   0.00254   0.00000   0.00049   0.00049   2.90557
    R7        2.91387   0.00596   0.00000   0.00752   0.00752   2.92140
    R8        2.06186  -0.00001   0.00000   0.00401   0.00401   2.06587
    R9        2.52474   0.00155   0.00000   0.00780   0.00780   2.53254
   R10        2.27690  -0.00001   0.00000  -0.00117  -0.00117   2.27573
   R11        1.83678   0.00100   0.00000   0.00227   0.00227   1.83905
   R12        2.82120   0.00350   0.00000  -0.00147  -0.00147   2.81973
   R13        2.06250   0.00304   0.00000   0.00695   0.00695   2.06945
   R14        2.05653   0.00192   0.00000   0.00689   0.00689   2.06342
   R15        2.57586   0.01190   0.00000   0.02299   0.02298   2.59883
   R16        2.59093   0.00865   0.00000   0.01735   0.01739   2.60832
   R17        2.61277  -0.00195   0.00000  -0.01112  -0.01117   2.60160
   R18        2.03884   0.00035   0.00000   0.00138   0.00138   2.04022
   R19        2.47532   0.00585   0.00000   0.01001   0.00999   2.48531
   R20        2.56860   0.00606   0.00000   0.00987   0.00991   2.57851
   R21        2.03308   0.00243   0.00000   0.00590   0.00590   2.03898
   R22        1.90844   0.00275   0.00000   0.00421   0.00421   1.91265
   R23        2.88381   0.00709   0.00000   0.02129   0.02129   2.90510
   R24        2.06945   0.00142   0.00000   0.00371   0.00371   2.07316
   R25        2.07262   0.00026   0.00000   0.00068   0.00068   2.07330
   R26        2.75029   0.00590   0.00000   0.00298   0.00298   2.75328
   R27        2.06269   0.00060   0.00000   0.00163   0.00163   2.06432
   R28        2.06585   0.00016   0.00000   0.00052   0.00052   2.06638
   R29        1.91619   0.00237   0.00000   0.00132   0.00132   1.91751
   R30        1.91793   0.00055   0.00000  -0.00139  -0.00139   1.91654
    A1        2.08747  -0.00152   0.00000  -0.00311  -0.00317   2.08431
    A2        2.14745  -0.00051   0.00000   0.00207   0.00201   2.14946
    A3        2.04738   0.00206   0.00000   0.00184   0.00177   2.04916
    A4        2.19744   0.00210   0.00000  -0.02483  -0.02688   2.17056
    A5        1.94068   0.00032   0.00000  -0.00689  -0.00935   1.93133
    A6        2.04158  -0.00234   0.00000  -0.01824  -0.02041   2.02116
    A7        1.93324  -0.00527   0.00000  -0.03218  -0.03295   1.90029
    A8        1.94337   0.00335   0.00000   0.04681   0.04693   1.99031
    A9        1.87667   0.00030   0.00000  -0.00627  -0.00663   1.87004
   A10        1.96492   0.00330   0.00000   0.01664   0.01683   1.98175
   A11        1.83848   0.00042   0.00000  -0.01490  -0.01514   1.82334
   A12        1.90182  -0.00237   0.00000  -0.01471  -0.01457   1.88724
   A13        2.01194  -0.00081   0.00000  -0.00761  -0.00762   2.00432
   A14        2.15234   0.00248   0.00000   0.00898   0.00897   2.16131
   A15        2.11860  -0.00167   0.00000  -0.00153  -0.00153   2.11707
   A16        1.89106  -0.00062   0.00000  -0.00382  -0.00382   1.88725
   A17        1.99148   0.00746   0.00000   0.00701   0.00697   1.99846
   A18        1.90042  -0.00053   0.00000   0.00673   0.00667   1.90709
   A19        1.89889  -0.00538   0.00000  -0.03050  -0.03048   1.86841
   A20        1.94093  -0.00236   0.00000   0.00338   0.00329   1.94422
   A21        1.86252  -0.00099   0.00000   0.00982   0.00983   1.87235
   A22        1.86471   0.00135   0.00000   0.00221   0.00217   1.86688
   A23        2.29236  -0.00378   0.00000  -0.00379  -0.00384   2.28852
   A24        2.15639   0.00532   0.00000   0.00892   0.00887   2.16527
   A25        1.83439  -0.00154   0.00000  -0.00504  -0.00499   1.82940
   A26        1.93002   0.00078   0.00000   0.00312   0.00310   1.93312
   A27        2.23864  -0.00088   0.00000  -0.01011  -0.01011   2.22853
   A28        2.11450   0.00010   0.00000   0.00696   0.00696   2.12146
   A29        1.83514   0.00138   0.00000   0.00384   0.00381   1.83895
   A30        1.94622   0.00129   0.00000   0.00183   0.00188   1.94810
   A31        2.21005  -0.00199   0.00000  -0.01203  -0.01206   2.19799
   A32        2.12692   0.00069   0.00000   0.01021   0.01018   2.13710
   A33        1.87899  -0.00191   0.00000  -0.00370  -0.00378   1.87521
   A34        2.15540   0.00123   0.00000   0.00204   0.00179   2.15719
   A35        2.24880   0.00068   0.00000   0.00166   0.00141   2.25021
   A36        1.95992   0.00353   0.00000   0.00567   0.00565   1.96557
   A37        1.89969  -0.00171   0.00000  -0.00035  -0.00036   1.89932
   A38        1.89928  -0.00027   0.00000   0.00367   0.00367   1.90294
   A39        1.91657  -0.00041   0.00000   0.00118   0.00117   1.91774
   A40        1.92311  -0.00135   0.00000  -0.00170  -0.00172   1.92140
   A41        1.86252   0.00004   0.00000  -0.00920  -0.00920   1.85332
   A42        2.01698   0.00456   0.00000   0.01561   0.01557   2.03255
   A43        1.89915  -0.00098   0.00000  -0.00137  -0.00153   1.89762
   A44        1.90102  -0.00225   0.00000  -0.01547  -0.01548   1.88554
   A45        1.87546  -0.00054   0.00000   0.00729   0.00721   1.88267
   A46        1.89405  -0.00118   0.00000   0.00014   0.00023   1.89428
   A47        1.87207   0.00017   0.00000  -0.00750  -0.00757   1.86450
   A48        1.92138   0.00268   0.00000   0.02648   0.02568   1.94707
   A49        1.88886   0.00354   0.00000   0.03241   0.03159   1.92045
   A50        1.86152  -0.00030   0.00000   0.02883   0.02728   1.88880
    D1       -2.84556   0.00062   0.00000   0.05749   0.05740  -2.78816
    D2       -0.19614   0.00006   0.00000  -0.05747  -0.05742  -0.25356
    D3        0.33955  -0.00013   0.00000   0.03745   0.03740   0.37695
    D4        2.98897  -0.00069   0.00000  -0.07751  -0.07742   2.91155
    D5       -0.04830  -0.00080   0.00000   0.04629   0.04629  -0.00201
    D6        2.07755  -0.00019   0.00000   0.05125   0.05124   2.12880
    D7       -2.18215  -0.00123   0.00000   0.04212   0.04210  -2.14005
    D8        3.04815  -0.00004   0.00000   0.06693   0.06695   3.11511
    D9       -1.10918   0.00056   0.00000   0.07189   0.07191  -1.03727
   D10        0.91430  -0.00047   0.00000   0.06276   0.06276   0.97707
   D11       -2.35416   0.00150   0.00000  -0.35181  -0.35175  -2.70591
   D12        1.72825  -0.00135   0.00000  -0.38448  -0.38389   1.34436
   D13       -0.35389  -0.00059   0.00000  -0.38982  -0.38943  -0.74332
   D14        1.30454   0.00135   0.00000  -0.23363  -0.23427   1.07027
   D15       -0.89623  -0.00151   0.00000  -0.26631  -0.26641  -1.16264
   D16       -2.97838  -0.00074   0.00000  -0.27164  -0.27194   3.03286
   D17        0.41590  -0.00206   0.00000   0.17065   0.17101   0.58691
   D18       -2.75177  -0.00212   0.00000   0.16357   0.16392  -2.58784
   D19        2.60460   0.00077   0.00000   0.22017   0.22003   2.82464
   D20       -0.56306   0.00071   0.00000   0.21310   0.21295  -0.35012
   D21       -1.60820  -0.00005   0.00000   0.20207   0.20186  -1.40635
   D22        1.50731  -0.00011   0.00000   0.19499   0.19477   1.70209
   D23       -2.65417   0.00017   0.00000  -0.04354  -0.04319  -2.69736
   D24        1.44940  -0.00173   0.00000  -0.05838  -0.05806   1.39134
   D25       -0.57687  -0.00010   0.00000  -0.04799  -0.04766  -0.62453
   D26        1.44583   0.00202   0.00000  -0.05023  -0.05051   1.39532
   D27       -0.73378   0.00011   0.00000  -0.06507  -0.06539  -0.79917
   D28       -2.76006   0.00175   0.00000  -0.05468  -0.05498  -2.81504
   D29       -0.58707   0.00106   0.00000  -0.03233  -0.03234  -0.61941
   D30       -2.76668  -0.00085   0.00000  -0.04717  -0.04721  -2.81389
   D31        1.49023   0.00079   0.00000  -0.03678  -0.03681   1.45342
   D32       -0.06434  -0.00111   0.00000  -0.05023  -0.05021  -0.11455
   D33        3.10278  -0.00112   0.00000  -0.04348  -0.04350   3.05928
   D34        2.14265  -0.00286   0.00000  -0.15710  -0.15712   1.98554
   D35       -0.98731  -0.00333   0.00000  -0.16829  -0.16831  -1.15563
   D36       -1.98262   0.00024   0.00000  -0.14006  -0.14007  -2.12269
   D37        1.17060  -0.00023   0.00000  -0.15126  -0.15126   1.01934
   D38        0.04486   0.00004   0.00000  -0.12995  -0.12992  -0.08507
   D39       -3.08511  -0.00044   0.00000  -0.14114  -0.14112   3.05696
   D40       -3.13580  -0.00010   0.00000  -0.00496  -0.00489  -3.14069
   D41        0.01300  -0.00024   0.00000   0.00065   0.00068   0.01367
   D42       -0.00424   0.00035   0.00000   0.00478   0.00477   0.00053
   D43       -3.13863   0.00021   0.00000   0.01039   0.01034  -3.12829
   D44        3.13873  -0.00014   0.00000   0.00174   0.00178   3.14051
   D45       -0.00292  -0.00027   0.00000   0.03540   0.03544   0.03252
   D46        0.00618  -0.00048   0.00000  -0.00695  -0.00693  -0.00075
   D47       -3.13547  -0.00062   0.00000   0.02672   0.02673  -3.10873
   D48        0.00058  -0.00008   0.00000  -0.00069  -0.00068  -0.00010
   D49        3.13557   0.00004   0.00000  -0.00591  -0.00593   3.12963
   D50        0.00348  -0.00023   0.00000  -0.00385  -0.00388  -0.00040
   D51       -3.13478  -0.00002   0.00000  -0.00992  -0.00987   3.13854
   D52       -0.00625   0.00046   0.00000   0.00698   0.00700   0.00075
   D53        3.13540   0.00060   0.00000  -0.02907  -0.02904   3.10635
   D54        3.13219   0.00025   0.00000   0.01267   0.01269  -3.13830
   D55       -0.00934   0.00039   0.00000  -0.02338  -0.02335  -0.03269
   D56       -1.07572  -0.00139   0.00000  -0.04476  -0.04479  -1.12051
   D57        1.03523   0.00027   0.00000  -0.02564  -0.02565   1.00957
   D58        3.07074  -0.00131   0.00000  -0.04389  -0.04384   3.02690
   D59        3.09127  -0.00129   0.00000  -0.04893  -0.04896   3.04230
   D60       -1.08098   0.00037   0.00000  -0.02981  -0.02983  -1.11080
   D61        0.95454  -0.00121   0.00000  -0.04806  -0.04802   0.90652
   D62        1.04455  -0.00029   0.00000  -0.03740  -0.03743   1.00712
   D63       -3.12769   0.00138   0.00000  -0.01827  -0.01829   3.13720
   D64       -1.09218  -0.00021   0.00000  -0.03653  -0.03648  -1.12866
   D65       -0.97604  -0.00094   0.00000  -0.05749  -0.05787  -1.03391
   D66        1.05229   0.00218   0.00000   0.00997   0.01041   1.06270
   D67       -3.09974  -0.00229   0.00000  -0.07161  -0.07208   3.11137
   D68       -1.07142   0.00083   0.00000  -0.00415  -0.00379  -1.07521
   D69        1.16439  -0.00161   0.00000  -0.06671  -0.06709   1.09730
   D70       -3.09047   0.00151   0.00000   0.00076   0.00119  -3.08928
         Item               Value     Threshold  Converged?
 Maximum Force            0.011904     0.000450     NO 
 RMS     Force            0.002611     0.000300     NO 
 Maximum Displacement     1.472078     0.001800     NO 
 RMS     Displacement     0.338102     0.001200     NO 
 Predicted change in Energy=-2.432420D-03
 GradGradGradGradGradGradGradGradGradGradGradGradGradGradGradGradGradGrad

                          Input orientation:                          
 ---------------------------------------------------------------------
 Center     Atomic      Atomic             Coordinates (Angstroms)
 Number     Number       Type             X           Y           Z
 ---------------------------------------------------------------------
      1          8           0        2.833877    1.573698    0.530700
      2          6           0        1.955435    0.797286    0.208643
      3          7           0        1.140710    1.099165   -0.880183
      4          6           0       -0.173555    0.506499   -1.116036
      5          6           0       -0.482377    0.564011   -2.621165
      6          8           0        0.584803    0.428427   -3.420406
      7          8           0       -1.591727    0.684995   -3.073894
      8          6           0       -1.297292    1.094564   -0.232115
      9          6           0       -2.448374    0.173770   -0.000554
     10          6           0       -2.903626   -0.434500    1.145763
     11          7           0       -4.010728   -1.208701    0.880696
     12          6           0       -4.228629   -1.075034   -0.409390
     13          7           0       -3.312064   -0.248323   -0.991013
     14          6           0        1.711133   -0.522022    0.920043
     15          6           0        2.693383   -0.759860    2.078468
     16          7           0        4.098813   -0.897598    1.719910
     17          1           0        1.238511    2.076202   -1.141013
     18          1           0       -0.090148   -0.560856   -0.894893
     19          1           0        1.382128    0.421646   -2.862451
     20          1           0       -1.627974    2.048890   -0.655396
     21          1           0       -0.856385    1.313990    0.742427
     22          1           0       -2.501051   -0.347292    2.143733
     23          1           0       -5.020769   -1.546666   -0.969995
     24          1           0       -3.218134    0.012317   -1.964489
     25          1           0        0.680582   -0.535936    1.295976
     26          1           0        1.782152   -1.339620    0.191888
     27          1           0        2.607625    0.067601    2.786471
     28          1           0        2.379634   -1.663548    2.608191
     29          1           0        4.246686   -1.672985    1.082312
     30          1           0        4.427287   -0.050059    1.270061
 ---------------------------------------------------------------------
                    Distance matrix (angstroms):
                    1          2          3          4          5
     1  O    0.000000
     2  C    1.215811   0.000000
     3  N    2.254459   1.393000   0.000000
     4  C    3.591002   2.524268   1.460880   0.000000
     5  C    4.685217   3.742346   2.439635   1.537560   0.000000
     6  O    4.688414   3.896754   2.685453   2.427205   1.340165
     7  O    5.776578   4.834254   3.528472   2.424104   1.204266
     8  C    4.228240   3.295888   2.522671   1.545937   2.579367
     9  C    5.490374   4.452647   3.809413   2.555350   3.299247
    10  C    6.109837   5.099605   4.776321   3.668039   4.587943
    11  N    7.396814   6.330145   5.913058   4.653251   5.277764
    12  C    7.601219   6.490777   5.811935   4.409560   4.648959
    13  N    6.588472   5.502637   4.653516   3.230423   3.365176
    14  C    2.409188   1.518667   2.488864   2.958973   4.304777
    15  C    2.803714   2.542738   3.823660   4.475248   5.824485
    16  N    3.020197   3.122600   4.415645   5.316691   6.478313
    17  H    2.364811   1.992781   1.015972   2.111521   2.727458
    18  H    3.890830   2.691979   2.066615   1.093210   2.097424
    19  H    3.866300   3.146650   2.108721   2.340367   1.885436
    20  H    4.641201   3.892800   2.935663   2.169445   2.716892
    21  H    3.705443   2.908305   2.582131   2.138266   3.466424
    22  H    5.895212   4.991482   4.949619   4.095399   5.254500
    23  H    8.583951   7.453236   6.706140   5.266147   5.270514
    24  H    6.729838   5.666083   4.621308   3.198993   2.867047
    25  H    3.110126   2.141268   2.760605   2.762973   4.231589
    26  H    3.115820   2.143986   2.740155   2.990586   4.082299
    27  H    2.721768   2.757352   4.081704   4.812187   6.247964
    28  H    3.873249   3.463160   4.619119   5.009765   6.363905
    29  H    3.583470   3.480714   4.602531   5.396426   6.409675
    30  H    2.392111   2.820400   4.092169   5.212577   6.294722
                    6          7          8          9         10
     6  O    0.000000
     7  O    2.218824   0.000000
     8  C    3.761811   2.886199   0.000000
     9  C    4.578253   3.231193   1.492136   0.000000
    10  C    5.810653   4.558493   2.610918   1.375242   0.000000
    11  N    6.503735   5.007637   3.729089   2.264681   1.376707
    12  C    5.873307   4.141320   3.651207   2.212683   2.141125
    13  N    4.641714   2.858152   2.537435   1.380265   2.183414
    14  C    4.583827   5.321401   3.604364   4.316610   4.621105
    15  C    6.007974   6.855406   4.970228   5.624203   5.683512
    16  N    6.366276   7.607062   6.074295   6.853720   7.041183
    17  H    2.887582   3.698882   2.867056   4.302675   5.356330
    18  H    2.795077   2.924881   2.153343   2.626927   3.477916
    19  H    0.973184   2.992971   3.814549   4.787969   5.930132
    20  H    3.894555   2.776807   1.095105   2.148941   3.322453
    21  H    4.493375   3.937088   1.091915   2.094409   2.722333
    22  H    6.409670   5.395935   3.028636   2.207317   1.079637
    23  H    6.428681   4.600546   4.624375   3.242982   3.193061
    24  H    4.093308   2.080499   2.803928   2.115571   3.157884
    25  H    4.814918   5.074428   2.984221   3.460497   3.588788
    26  H    4.196225   5.113458   3.948164   4.497191   4.866789
    27  H    6.538144   7.235993   5.041318   5.774244   5.772167
    28  H    6.628858   7.319388   5.403175   5.787137   5.618015
    29  H    6.172503   7.544613   6.334252   7.029007   7.257055
    30  H    6.082279   7.459140   6.028059   6.995661   7.342039
                   11         12         13         14         15
    11  N    0.000000
    12  C    1.315168   0.000000
    13  N    2.216698   1.364488   0.000000
    14  C    5.763052   6.111790   5.381408   0.000000
    15  C    6.825044   7.362270   6.763784   1.537312   0.000000
    16  N    8.158782   8.597191   7.917813   2.545950   1.456972
    17  H    6.514016   6.352572   5.112108   3.349939   4.530448
    18  H    4.352397   4.198466   3.238465   2.557365   4.077808
    19  H    6.764028   6.303821   5.097704   3.912291   5.246716
    20  H    4.318448   4.072201   2.868098   4.499025   5.834141
    21  H    4.041407   4.290238   3.387624   3.161429   4.322813
    22  H    2.148584   3.167423   3.239470   4.389811   5.211201
    23  H    2.135289   1.078982   2.146115   7.066869   8.331886
    24  H    3.195961   2.149829   1.012133   5.736176   7.203318
    25  H    4.757463   5.224868   4.610234   1.097066   2.171130
    26  H    5.835156   6.046571   5.342398   1.097141   2.173855
    27  H    7.004535   7.632398   7.029360   2.152883   1.092390
    28  H    6.635349   7.288435   6.881319   2.144718   1.093479
    29  H    8.272914   8.626337   7.966370   2.789279   2.058853
    30  H    8.526087   8.876711   8.065316   2.778984   2.040530
                   16         17         18         19         20
    16  N    0.000000
    17  H    5.020926   0.000000
    18  H    4.949544   2.963104   0.000000
    19  H    5.488062   2.391973   2.646544   0.000000
    20  H    6.864398   2.907457   3.038592   4.071822   0.000000
    21  H    5.513672   2.918373   2.604416   4.336170   1.757650
    22  H    6.636314   5.535991   3.884753   6.382180   3.786697
    23  H    9.530144   7.234155   5.028765   6.960800   4.953590
[...]
 0.00004267,-0.00003812,0.00003213,-0.00001952,0.00000442,-0.00001779,0
 .00000991,-0.00002332,0.00002133,-0.00003797,-0.00002553,-0.00005209,0
 .00029054,0.00002146,0.00018706,0.00005747,0.00013007,-0.00023989,-0.0
 0052965,-0.00087500,0.00003462,0.00022943,-0.00016690,0.00021796,-0.00
 046592,0.00153090,-0.00053695,0.00047737,-0.00097238,-0.00041485,0.024
 42198,0.03685377,-0.00019273,-0.00002024,-0.00015732,0.00030784,-0.000
 23857,0.00033192,0.00030355,-0.00006483,-0.00123230,-0.00091058,0.0003
 1211,0.00026576,0.00521669,0.00014908,0.00444453,-0.00346784,-0.000034
 96,-0.00036355,-0.00157388,-0.00035065,-0.00823848,-0.00061489,-0.0001
 6658,0.00076949,0.00476653,0.00316358,-0.01297990,-0.00215763,-0.00216
 073,-0.00076684,0.00054225,-0.00029212,0.00457771,0.00178718,0.0023559
 0,-0.00187164,0.06692369,0.02114634,-0.42671065,-0.00009352,0.00007201
 ,0.00003421,-0.00001276,-0.00000513,0.00000760,0.00003285,0.00001391,-
 0.00003400,-0.00010873,0.00005858,0.00020729,-0.00029560,-0.00011300,-
 0.00014983,0.00006753,0.00016996,0.00071838,-0.00001710,0.00009380,0.0
 0001757,0.00042099,0.00020379,-0.00006734,0.00030396,0.00021133,0.0000
 2383,-0.00014099,0.00009623,0.00007563,-0.07107328,-0.02457486,0.44113
 273,0.00086093,-0.00011808,0.00082012,-0.00296671,-0.00271663,0.000140
 74,-0.00026542,0.00018275,-0.00046456,-0.00016421,-0.00029670,-0.00098
 703,0.00000749,0.00020594,0.00040799,0.00007918,-0.00010682,-0.0002329
 3,-0.00007570,-0.00006369,-0.00015669,0.00026275,0.00010142,-0.0000455
 0,-0.00002703,-0.00003984,-0.00006780,0.00002258,0.00001418,0.00004587
 ,-0.00002825,-0.00004899,-0.00002278,-0.00003073,-0.00001543,0.0000214
 7,0.00002579,0.00002311,0.00004188,-0.24167888,-0.01729617,0.10154046,
 -0.01853882,-0.00209319,0.01343327,-0.00520230,0.00140633,-0.00471339,
 -0.00021283,-0.00001856,0.00044453,-0.00014313,0.00071307,-0.00088934,
 -0.00008318,0.00006742,0.00010496,0.00002122,0.00000253,0.00002072,0.0
 0002850,0.00002519,0.00002825,-0.00001317,0.00001600,0.00000043,-0.000
 00141,-0.00000011,0.00000001,0.00003697,0.00000617,-0.00000769,0.26650
 956,0.00242590,-0.00624823,-0.00142332,-0.03162466,0.00035200,0.014260
 51,0.00161538,-0.00036836,-0.00040845,0.00039923,0.00012322,0.00051412
 ,0.00011067,0.00000477,0.00001548,0.00003758,0.00002468,-0.00003435,0.
 00001380,-0.00001013,0.00001297,0.00018269,0.00024522,0.00039353,0.000
 14446,0.00003265,-0.00007485,0.00004953,-0.00000883,0.00010869,-0.0000
 3356,-0.00004318,-0.00002265,-0.00004214,-0.00003086,-0.00006009,-0.00
 004656,-0.00005056,0.00000409,-0.02105847,-0.04632860,0.01373645,0.005
 54349,-0.00006471,-0.00451588,0.00218782,0.00056007,0.00169427,0.00047
 150,-0.00043607,-0.00056898,0.00022805,0.00005514,0.00039777,-0.000014
 47,-0.00006409,-0.00011833,-0.00008354,-0.00007187,-0.00013165,0.00008
 905,-0.00030562,-0.00012885,0.00003249,0.00002011,-0.00004514,-0.00000
 636,-0.00000107,-0.00000271,-0.00001241,0.00001778,0.00000362,0.019816
 31,0.05011856,-0.00094362,0.00111552,-0.00003808,0.01151885,-0.0021648
 7,-0.00571175,-0.00122893,0.00146496,-0.00056730,0.00047735,0.00084019
 ,0.00017118,0.00033373,-0.00045284,-0.00079929,-0.00051171,0.00008793,
 0.00029902,-0.00005634,0.00008514,0.00019458,-0.00034463,-0.00005952,-
 0.00006934,0.00003386,-0.00003994,-0.00008308,0.00002168,-0.00007897,0
 .00018822,0.00004722,-0.00001183,-0.00003802,0.00001841,0.00005949,0.0
 0002183,-0.00002474,-0.00006220,-0.00007293,0.10126214,0.01167827,-0.0
 9664819,-0.01831671,-0.00224138,0.01158253,-0.00391761,0.00089252,-0.0
 0189517,-0.00050497,0.00020149,0.00036127,-0.00044540,-0.00013941,-0.0
 0154471,0.00018132,-0.00001663,0.00025649,0.00009787,-0.00002840,0.000
 02762,-0.00001996,0.00013918,0.00005527,-0.00001049,0.00001739,0.00002
 419,-0.00000227,0.00000275,-0.00000124,-0.00001665,0.00001238,-0.00003
 283,-0.10951186,-0.01340578,0.10464371,-0.00016453,-0.00142898,0.00074
 229,-0.00232353,-0.00506597,-0.00164218,-0.00021605,0.00052835,-0.0013
 9609,0.00016334,0.00107922,0.00035767,0.00017191,-0.00005174,-0.000568
 14,-0.00030705,-0.00004764,0.00013451,-0.00001933,-0.00000116,0.000111
 34,-0.00017005,-0.00008547,0.00023553,0.00004746,0.00003486,0.00002649
 ,0.00001417,0.00000212,0.00008567,0.00001163,-0.00000777,-0.00002474,-
 0.00003514,-0.00001590,-0.00002198,-0.00001577,-0.00005595,-0.00006373
 ,-0.04243055,0.00444163,0.00130982,-0.00062372,-0.01631929,-0.01914530
 ,0.00286424,-0.00079622,0.00068373,-0.00011494,-0.00008692,0.00006651,
 -0.00128725,0.00066879,-0.00054032,0.00018304,0.00007376,0.00015249,0.
 00005433,-0.00008391,-0.00009845,0.00007243,-0.00010274,-0.00005110,0.
 00001823,-0.00000659,-0.00002219,-0.00000553,0.00000163,-0.00000353,-0
 .00003906,0.00002030,-0.00000235,-0.00064925,0.01994755,0.02090323,0.0
 4794950,-0.00240149,-0.00465403,0.00490750,0.00076548,-0.01847338,-0.0
 2864281,-0.00093501,0.00108976,0.00299830,0.00002241,-0.00038802,-0.00
 018367,0.00042331,0.00009053,0.00036536,-0.00002504,0.00029921,0.00012
 913,-0.00018698,-0.00005941,-0.00007446,0.00009514,0.00027504,-0.00022
 700,0.00004676,0.00000087,-0.00003667,0.00000447,-0.00000726,-0.000018
 75,-0.00002826,-0.00002446,0.00003425,0.00001913,0.00001488,-0.0000170
 7,-0.00000984,0.00001521,0.00007065,0.00531533,-0.16139622,-0.12567337
 ,0.00083666,0.00552008,0.00605883,-0.00117367,0.00038579,0.00088563,-0
 .00054170,0.00029224,0.00008189,0.00114544,0.00008821,0.00005443,0.000
 05767,-0.00055278,0.00001954,-0.00011364,0.00003871,0.00008011,-0.0000
 6506,0.00003506,0.00005924,-0.00000489,0.00000447,0.00000625,-0.000001
 09,0.00000068,0.00000037,0.00005680,0.00000700,-0.00002702,0.00029397,
 0.00229346,0.00228291,-0.00428672,0.17437347,0.00268830,0.00188075,-0.
 00129524,-0.00316502,0.00767940,0.01104149,0.00033970,-0.00017917,-0.0
 0132476,-0.00056235,0.00023869,-0.00013940,-0.00016090,0.00033622,0.00
 026997,0.00010117,-0.00018518,-0.00016255,-0.00005541,-0.00007933,-0.0
 0013033,-0.00007198,-0.00004521,-0.00004559,-0.00001031,0.00004511,-0.
 00000224,-0.00001452,-0.00001245,-0.00007362,-0.00002516,-0.00001379,0
 .00002375,0.00001247,0.00000570,0.00002268,0.00001130,0.00003453,0.000
 05925,0.00227666,-0.12490332,-0.18305312,0.00075140,-0.01525030,-0.018
 86645,0.00148382,0.00116194,0.00251838,0.00033303,-0.00039105,0.000147
 28,-0.00055903,0.00073890,-0.00024244,-0.00003578,0.00026211,0.0001061
 1,-0.00003273,0.00002395,0.00003413,-0.00000306,0.00004506,0.00001904,
 -0.00001741,0.00001053,0.00001692,0.00000409,-0.00000398,0.00000460,0.
 00002922,-0.00000424,-0.00000249,0.00033893,-0.01021935,-0.01134652,0.
 00056803,0.13634499,0.20346557,0.00059629,0.00057451,0.00044346,-0.000
 15128,-0.00151637,0.00005218,-0.00009646,0.00007469,0.00003057,-0.0000
 2021,-0.00007026,-0.00009394,0.00007295,0.00006154,0.00021453,0.000012
 33,0.00001235,-0.00005746,-0.00009586,-0.00002499,-0.00008836,0.000029
 95,0.00002290,-0.00007966,-0.00000314,0.00001448,-0.00001035,-0.000005
 45,0.00000021,-0.00004516,-0.00001959,-0.00001638,0.00002237,0.0000051
 5,0.00000122,0.00000072,0.00000320,0.00001500,0.00005504,-0.00089021,-
 0.01521616,-0.01912420,-0.04650223,-0.00245168,-0.00128817,-0.00938988
 ,0.02703264,0.02726668,-0.00001592,0.00003769,0.00001591,0.00018779,0.
 00004007,0.00000819,-0.00004081,-0.00004000,0.00006137,-0.00002906,0.0
 0001470,0.00002735,-0.00000957,0.00001373,0.00000251,-0.00000778,0.000
 00300,0.00000376,0.00000085,-0.00000080,0.00000176,0.00003159,0.000001
 93,-0.00001032,0.00053122,-0.00041223,0.00065043,-0.00312928,0.0015811
 7,-0.00348591,0.06314771,0.00032191,-0.00063741,0.00066900,-0.00027652
 ,0.00008482,0.00107114,-0.00010867,0.00004675,-0.00044306,0.00013690,0
 .00007214,0.00005982,0.00005060,-0.00000912,-0.00004853,-0.00007797,-0
 .00001978,-0.00001395,-0.00005430,-0.00000560,-0.00002605,-0.00001494,
 -0.00002416,-0.00001118,-0.00000361,0.00001317,-0.00001849,-0.00000276
 ,-0.00000662,-0.00002980,-0.00001094,-0.00001373,0.00001682,-0.0000015
 1,0.,-0.00000181,-0.00000170,0.00000272,0.00004269,-0.00002482,0.00576
 114,0.00632576,0.00262581,-0.17079375,-0.13257961,0.00213672,0.0009850
 2,-0.00025343,-0.00001660,-0.00001631,-0.00002609,-0.00006474,0.000025
 22,-0.00000502,0.00001874,0.00004085,0.00004964,0.00000038,-0.00000364
 ,0.00000084,0.00001477,0.00000130,-0.00001152,-0.00000713,0.00001053,0
 .00000066,0.00000033,-0.00000028,0.00000186,0.00001512,0.00000466,-0.0
 0001007,-0.00067790,0.00028181,-0.00062064,0.00101416,0.00027932,0.002
 05286,-0.00531864,0.18026797,0.00129680,0.00110509,0.00185510,-0.00151
 845,-0.00310732,-0.00104987,0.00043048,0.00024728,0.00076021,-0.000102
 96,-0.00022896,-0.00018110,0.00007139,0.00008033,0.00010558,0.00003201
 ,0.00005843,0.00003734,-0.00003870,-0.00001775,-0.00000613,0.00005982,
 0.00007407,-0.00005920,0.00000118,-0.00000984,-0.00000138,-0.00000709,
 0.00000145,-0.00002682,-0.00000160,0.00000793,0.00001702,0.00001266,0.
 00000551,-0.00000350,0.00000114,0.00001447,0.00002480,-0.00355926,-0.0
 1424556,-0.01884822,0.00296100,-0.12714216,-0.18753158,0.00629245,-0.0
 1016729,-0.00922032,-0.00003619,0.00008099,-0.00006478,0.00016682,0.00
 010321,0.00002110,0.00000126,-0.00011325,-0.00006854,-0.00002804,0.000
 01353,0.00001910,-0.00002039,0.00000357,0.00001554,-0.00000277,-0.0000
 0424,0.00000402,0.00000257,-0.00000088,0.00000085,0.00001702,-0.000005
 45,-0.00000786,-0.00019188,0.00002171,0.00042511,-0.00325020,0.0012150
 1,-0.00179628,-0.00377768,0.14286405,0.20502129,0.00072878,0.00018066,
 0.00024064,-0.00404462,-0.00096879,-0.00376892,0.00017310,0.00178447,-
 0.00068920,0.00034595,0.00018698,0.00011412,0.00005372,0.00001469,0.00
 015780,-0.00003235,-0.00005158,-0.00010769,-0.00009402,-0.00001579,-0.
 00010526,-0.00000994,-0.00002679,-0.00002469,0.00000628,0.00002867,-0.
 00002105,0.00001093,-0.00000328,-0.00001685,-0.00002520,-0.00003988,0.
 00001101,-0.00001130,-0.00000653,-0.00000427,-0.00000188,-0.00000074,0
 .00004762,0.00295172,0.02178904,-0.00991236,-0.05406484,-0.03865519,0.
 01766072,-0.01636602,-0.03295302,0.01376268,-0.00029957,0.00016608,-0.
 00040518,0.00002573,-0.00003187,0.00002518,-0.00003995,0.00006653,0.00
 013359,-0.00000640,-0.00000700,0.00000878,0.00001494,-0.00000393,-0.00
 001898,-0.00000492,0.00001352,0.00000120,-0.00000270,0.00000016,0.0000
 0123,0.00002335,0.00001118,-0.00000924,0.00083674,0.00014210,0.0006756
 6,0.00074367,-0.00052982,0.00035364,0.00008790,0.00035849,-0.00076452,
 0.07310028,0.00097435,0.00035189,0.00101268,-0.00044362,0.00026508,-0.
 00047401,0.00021647,-0.00029672,0.00048090,-0.00019260,-0.00016799,-0.
 00004145,-0.00015902,-0.00003174,-0.00012962,0.00010336,0.00003631,0.0
 0006102,0.00016018,0.00003087,0.00011059,-0.00000247,0.00002685,0.0000
 2803,-0.00000466,-0.00003965,0.00003617,-0.00001536,0.00000809,0.00003
 058,0.00003427,0.00005784,-0.00002842,0.00001046,0.00000409,0.00001685
 ,0.00000435,0.00000280,-0.00008483,-0.00085856,-0.00528307,0.00123023,
 -0.04292645,-0.25807712,0.09105349,-0.00185768,0.00372584,-0.00076588,
 0.00005839,0.00010045,0.00004706,-0.00004364,-0.00001257,-0.00001503,-
 0.00001745,-0.00004146,-0.00012572,0.00001704,0.00000507,-0.00001250,-
 0.00001663,0.00000180,0.00001648,0.00000819,-0.00002421,0.00000077,0.0
 0000324,-0.00000093,-0.00000158,-0.00003799,-0.00001832,0.00002121,0.0
 0063354,-0.00009778,0.00011876,0.00009488,0.00060587,0.00040912,-0.003
 65823,-0.01862529,0.00845417,0.04749145,0.27502208,0.00078267,-0.00008
 714,0.00103712,-0.00477936,-0.00211671,-0.00222810,0.00011651,0.001548
 67,-0.00076403,0.00035723,0.00026239,0.00007277,0.00010948,0.00003122,
 0.00014564,-0.00006474,-0.00006405,-0.00008900,-0.00012229,-0.00002706
 ,-0.00010691,-0.00001146,-0.00001556,-0.00001015,0.00000386,0.00002754
 ,-0.00001497,0.00001320,0.00000279,-0.00000529,-0.00002618,-0.00004083
 ,0.00000654,-0.00001221,-0.00000909,-0.00000701,-0.00000112,-0.0000084
 2,0.00003407,0.00039788,0.02292404,-0.01101806,0.01865803,0.08777028,-
 0.08904505,0.00829698,0.01213502,-0.00423152,-0.00019495,0.00012694,-0
 .00038646,0.00004809,-0.00002053,0.00006357,0.00000256,0.00007057,0.00
 012398,-0.00000560,-0.00000997,0.00000690,0.00001503,-0.00001030,-0.00
 002113,-0.00000145,0.00000623,-0.00000103,-0.00000524,0.00000167,0.000
 00005,0.00002252,0.00001663,-0.00001005,0.00023910,-0.00027109,0.00096
 217,0.00099655,-0.00019815,0.00028353,-0.00494176,-0.02056636,0.011232
 91,-0.02173171,-0.10137718,0.09536817,-0.00000916,-0.00034254,-0.00001
 643,-0.00031983,0.00091196,-0.00062760,0.00014868,-0.00007800,0.000264
 00,-0.00013119,-0.00004537,0.00000517,-0.00020427,-0.00003568,-0.00020
 148,0.00009712,-0.00002087,0.00009066,0.00018696,0.00002776,0.00014955
 ,-0.00002203,0.00001892,0.00002405,0.00001888,-0.00004309,-0.00000216,
 0.00000247,-0.00002290,0.00002842,0.00004649,0.00002945,-0.00001380,-0
 .00000093,0.00000607,0.00001278,0.00001373,-0.00000243,-0.00004629,0.0
 0187670,0.00101856,0.00133965,-0.00742060,0.02774294,0.02795343,-0.040
 65665,-0.00481585,0.03186631,0.00002783,0.00001796,-0.00001735,-0.0000
 6457,-0.00001045,-0.00001742,-0.00002982,0.00004885,-0.00015368,0.0000
 2289,-0.00000413,-0.00000423,-0.00001058,0.00001931,0.00001338,-0.0000
 1160,0.00000734,0.00001048,-0.00000036,0.00000316,0.00000020,-0.000044
 99,-0.00000425,0.00000408,0.00051706,-0.00052334,-0.00026794,-0.000589
 46,-0.00039711,-0.00095088,-0.00546554,-0.00045900,0.00219197,0.001054
 30,-0.00059355,-0.00039937,0.05131097,0.00069879,0.00005780,0.00034162
 ,-0.00005500,-0.00112417,-0.00018062,0.00000575,0.00013925,0.00015761,
 0.00008743,0.00004163,0.00002779,0.00030515,0.00003393,0.00004956,-0.0
 0018044,0.00002972,0.00004255,-0.00019686,-0.00003376,-0.00008422,0.00
 001934,-0.00000161,-0.00000527,-0.00000733,0.00002800,-0.00000620,0.00
 000482,0.00001711,-0.00001084,-0.00003373,-0.00003152,0.00001559,-0.00
 000040,-0.00000331,-0.00001943,-0.00001423,-0.00000483,0.00004047,-0.0
 0095293,0.00002000,0.00050455,0.00034134,0.00173699,0.00011013,0.01385
 527,-0.22222928,-0.17598088,0.00000401,-0.00000783,-0.00004440,0.00003
 874,0.00001815,0.00001701,0.00014275,-0.00007259,0.00006775,-0.0000161
 0,-0.00000253,0.00000051,0.00000559,-0.00001570,-0.00001068,0.00000971
 ,-0.00000287,-0.00000917,-0.00000188,-0.00000038,-0.00000125,0.0000378
 2,0.00001253,-0.00001248,-0.00036871,0.00029381,0.00017700,0.00064236,
 0.00000911,0.00007419,-0.00083882,0.00184716,0.00091618,0.00014751,0.0
 0042875,0.00036910,-0.01739287,0.24016988,-0.00058690,0.00005923,-0.00
 003044,-0.00002095,0.00074715,-0.00015193,0.00007972,-0.00012656,-0.00
 002578,-0.00004975,-0.00004439,0.00000251,-0.00019640,-0.00003017,-0.0
 0006910,0.00011161,-0.00002452,-0.00000185,0.00013673,0.00002429,0.000
 07393,-0.00001481,0.00000004,0.00000190,0.00000860,-0.00002312,0.00000
 492,-0.00000955,-0.00001318,0.00000211,0.00002715,0.00002693,-0.000009
 26,0.00000151,0.00000176,0.00001446,0.00000990,0.00000499,-0.00002754,
 -0.00052415,0.00108284,0.00236852,-0.00547422,-0.00807312,-0.01284761,
 0.05646844,-0.21099251,-0.23795333,0.00002270,-0.00000479,0.00001281,-
 0.00005009,-0.00001248,-0.00000825,-0.00006286,0.00004902,-0.00005305,
 0.00001303,0.00000058,-0.00000296,-0.00000423,0.00000830,0.00000644,-0
 .00000702,0.00000143,0.00000643,0.00000118,0.00000079,0.00000124,-0.00
 002845,-0.00000797,0.00000750,-0.00023262,0.00002258,-0.00021954,0.000
 51099,-0.00038628,0.00052241,0.00418720,0.00102689,-0.00045220,0.00003
 069,0.00014180,-0.00030755,-0.05033528,0.20312124,0.24072080,0.0031374
 5,0.00006902,0.00064789,-0.00471904,-0.00131979,-0.00308380,0.00087968
 ,0.00025810,0.00178586,-0.00038585,-0.00032798,-0.00003269,-0.00027684
 ,-0.00000264,-0.00034573,0.00019111,0.00005937,0.00023087,0.00032826,0
 .00003440,0.00028736,0.00002877,0.00010105,0.00004404,0.00003299,-0.00
 009026,0.00000364,-0.00000452,-0.00002822,0.00004242,0.00008118,0.0000
 6910,-0.00002096,0.00001175,0.00001598,0.00001527,0.00001535,0.0000030
 2,-0.00008465,0.00076888,-0.00119210,-0.00002106,-0.01443338,-0.034930
 84,0.01438449,-0.05640920,-0.06637901,0.04719942,0.00005127,0.00012171
 ,-0.00015247,-0.00001523,0.00001383,-0.00001110,-0.00003712,-0.0000684
 2,-0.00036921,0.00002593,-0.00000152,-0.00000742,-0.00003344,0.0000207
 0,0.00003403,-0.00001369,0.00000175,0.00001219,0.00000242,0.00000409,-
 0.00000023,-0.00007196,-0.00001716,0.00001199,0.00034103,0.00042012,-0
 .00009794,-0.00017342,0.00003660,-0.00014131,0.00116535,0.00042783,-0.
 00023882,-0.00515367,0.00101773,0.00223774,-0.00034245,0.00371292,-0.0
 0401217,0.07500840,-0.00082323,-0.00258121,-0.00043935,0.00245527,0.00
 226120,0.00096501,-0.00068865,-0.00028962,-0.00092343,0.00014279,0.000
 17801,0.00000961,-0.00006645,-0.00001405,0.00009948,0.00001136,-0.0000
 7053,-0.00011671,-0.00003408,-0.00000853,-0.00008343,-0.00004614,-0.00
 005980,-0.00001985,-0.00000019,0.00002072,-0.00000191,0.00000726,-0.00
 000003,-0.00000777,-0.00001664,-0.00002709,-0.00000036,-0.00000930,-0.
 00000508,0.00000477,0.00000321,-0.00000342,0.00001723,0.00078842,-0.00
 007119,-0.00031596,0.00198538,0.00304686,0.00157394,-0.09769619,-0.363
 19515,0.10232101,-0.00004538,-0.00005851,0.00013940,-0.00003921,-0.000
 02782,-0.00001614,-0.00007477,0.00012291,0.00013070,0.00000377,-0.0000
 0129,0.00000826,0.00001081,0.00000900,-0.00001072,-0.00000401,0.000007
 86,0.00000105,-0.00000284,0.00000066,0.00000057,0.00000736,0.00000855,
 -0.00000020,0.00035290,-0.00029333,0.00014653,-0.00010663,-0.00016341,
 -0.00005669,0.00006274,0.00043110,-0.00022428,0.00091268,0.00204317,-0
 .00047065,-0.00506082,-0.02135347,0.01341922,0.09797060,0.38009349,-0.
 00072714,-0.00002328,-0.00110070,-0.00028581,0.00124266,0.00052908,-0.
 00004489,-0.00041647,-0.00002741,-0.00014390,-0.00007492,-0.00005455,-
 0.00027250,-0.00002775,-0.00003932,0.00016786,-0.00000888,-0.00003035,
 0.00017889,0.00002363,0.00007780,-0.00000154,0.00002222,0.00001173,0.0
 0002606,-0.00003222,0.00000224,0.00000646,-0.00001422,0.00001886,0.000
 03149,0.00001635,-0.00001304,-0.00000282,0.00000131,0.00000885,0.00000
 963,-0.00000023,-0.00003546,-0.00051825,-0.00155640,0.00112809,-0.0012
 0728,0.01461963,-0.00689038,0.06803017,0.13159987,-0.08688225,0.000030
 96,0.00000064,0.00010093,-0.00003120,-0.00000280,-0.00001634,-0.000138
 37,0.00002172,-0.00007978,0.00001207,-0.00000070,0.00000112,-0.0000075
 0,0.00001303,0.00000689,-0.00001073,0.00000942,0.00000597,-0.00000114,
 0.00000259,0.00000035,-0.00003771,-0.00000491,0.00001092,-0.00010464,0
 .00024567,-0.00014519,-0.00005455,-0.00010910,-0.00005408,-0.00004106,
 0.00048358,-0.00022221,0.00435536,-0.00021368,-0.00109112,-0.01090022,
 -0.02966741,0.00841444,-0.05831767,-0.11614936,0.08636490\\-0.00000347
 ,0.00000774,-0.00000431,-0.00001563,0.00000310,-0.00000163,0.00000280,
 -0.00000980,0.00000263,-0.00000041,0.00000608,-0.00000248,-0.00000489,
 0.00000291,-0.00000203,0.00000418,-0.00000012,0.00000223,-0.00000417,-
 0.00000346,0.00000950,0.00000742,0.00000029,0.00000447,-0.00000824,0.0
 0000040,0.00000100,0.00000596,0.00000527,-0.00000836,-0.00000180,-0.00
 000105,-0.00000708,-0.00000307,-0.00000495,-0.00000091,0.00001192,0.00
 000150,0.00000498,0.00000549,0.00000027,-0.00000158,0.00000021,-0.0000
 0309,0.00000341,-0.00000715,-0.00000181,-0.00000784,-0.00000024,-0.000
 00221,0.00000084,0.00000251,0.00000173,-0.00000174,-0.00000310,0.00000
 254,0.00000009,-0.00000010,-0.00000244,0.00000159,0.00000157,0.0000008
 1,-0.00000118,-0.00000078,-0.00000060,0.00000003,0.00000094,0.00000111
 ,-0.00000038,-0.00000333,0.00000035,0.00000006,0.00000224,-0.00000024,
 0.00000021,0.00000091,0.00000063,0.00000071,-0.00000073,0.00000052,0.0
 0000015,0.00000018,-0.00000025,0.00000035,0.00000441,-0.00000225,0.000
 00193,0.00000638,-0.00000297,0.00000533\\\@


 IF THERE IS ONE WAY BETTER THAN ANOTHER IT IS THE WAY OF NATURE.

                          -- ARISTOTLE
 Job cpu time:       0 days  4 hours 48 minutes 36.0 seconds.
 File lengths (MBytes):  RWF=    542 Int=      0 D2E=      0 Chk=     17 Scr=      1
 Normal termination of Gaussian 09 at Sat Jul 24 04:03:21 2021.
