 Entering Gaussian System, Link 0=g09
 Input=opt_freq-conf-273.com
 Output=opt_freq-conf-273.log
 Initial command:
 /aerosol/software/g09/l1.exe "/scratch/nicole/10421/Gau-72451.inp" -scrdir="/scratch/nicole/10421/"
 Entering Link 1 = /aerosol/software/g09/l1.exe PID=     72456.
  
 Copyright (c) 1988,1990,1992,1993,1995,1998,2003,2009,2013,
            Gaussian, Inc.  All Rights Reserved.
  
 This is part of the Gaussian(R) 09 program.  It is based on
 the Gaussian(R) 03 system (copyright 2003, Gaussian, Inc.),
 the Gaussian(R) 98 system (copyright 1998, Gaussian, Inc.),
 the Gaussian(R) 94 system (copyright 1995, Gaussian, Inc.),
 the Gaussian 92(TM) system (copyright 1992, Gaussian, Inc.),
 the Gaussian 90(TM) system (copyright 1990, Gaussian, Inc.),
 the Gaussian 88(TM) system (copyright 1988, Gaussian, Inc.),
 the Gaussian 86(TM) system (copyright 1986, Carnegie Mellon
 University), and the Gaussian 82(TM) system (copyright 1983,
 Carnegie Mellon University). Gaussian is a federally registered
 trademark of Gaussian, Inc.
  
 This software contains proprietary and confidential information,
 including trade secrets, belonging to Gaussian, Inc.
  
 This software is provided under written license and may be
 used, copied, transmitted, or stored only in accord with that
 written license.
  
 The following legend is applicable only to US Government
 contracts under FAR:
  
                    RESTRICTED RIGHTS LEGEND
  
 Use, reproduction and disclosure by the US Government is
 subject to restrictions as set forth in subparagraphs (a)
 and (c) of the Commercial Computer Software - Restricted
 Rights clause in FAR 52.227-19.
  
 Gaussian, Inc.
 340 Quinnipiac St., Bldg. 40, Wallingford CT 06492
  
  
 ---------------------------------------------------------------
 Warning -- This program may not be used in any manner that
 competes with the business of Gaussian, Inc. or will provide
 assistance to any competitor of Gaussian, Inc.  The licensee
 of this program is prohibited from giving any competitor of
 Gaussian, Inc. access to this program.  By using this program,
 the user acknowledges that Gaussian, Inc. is engaged in the
 business of creating and licensing software in the field of
 computational chemistry and represents and warrants to the
 licensee that it is not a competitor of Gaussian, Inc. and that
 it will not use this program in any manner prohibited above.
 ---------------------------------------------------------------
  

 Cite this work as:
 Gaussian 09, Revision D.01,
 M. J. Frisch, G. W. Trucks, H. B. Schlegel, G. E. Scuseria, 
 M. A. Robb, J. R. Cheeseman, G. Scalmani, V. Barone, B. Mennucci, 
 G. A. Petersson, H. Nakatsuji, M. Caricato, X. Li, H. P. Hratchian, 
 A. F. Izmaylov, J. Bloino, G. Zheng, J. L. Sonnenberg, M. Hada, 
 M. Ehara, K. Toyota, R. Fukuda, J. Hasegawa, M. Ishida, T. Nakajima, 
 Y. Honda, O. Kitao, H. Nakai, T. Vreven, J. A. Montgomery, Jr., 
 J. E. Peralta, F. Ogliaro, M. Bearpark, J. J. Heyd, E. Brothers, 
 K. N. Kudin, V. N. Staroverov, T. Keith, R. Kobayashi, J. Normand, 
 K. Raghavachari, A. Rendell, J. C. Burant, S. S. Iyengar, J. Tomasi, 
 M. Cossi, N. Rega, J. M. Millam, M. Klene, J. E. Knox, J. B. Cross, 
 V. Bakken, C. Adamo, J. Jaramillo, R. Gomperts, R. E. Stratmann, 
 O. Yazyev, A. J. Austin, R. Cammi, C. Pomelli, J. W. Ochterski, 
 R. L. Martin, K. Morokuma, V. G. Zakrzewski, G. A. Voth, 
 P. Salvador, J. J. Dannenberg, S. Dapprich, A. D. Daniels, 
 O. Farkas, J. B. Foresman, J. V. Ortiz, J. Cioslowski, 
 and D. J. Fox, Gaussian, Inc., Wallingford CT, 2013.
 
 ******************************************
 Gaussian 09:  ES64L-G09RevD.01 24-Apr-2013
                24-Jul-2021 
 ******************************************
 %mem=2gb
 %nproc=4
 Will use up to    4 processors via shared memory.
 %chk=conf-273.chk
 ----------------------------------------------------------------------
 # B3LYP/6-311++G(d,p) EmpiricalDispersion=GD3BJ opt=calcfc freq=norama
 n nosymm integral(ultrafinegrid)
 ----------------------------------------------------------------------
 1/10=4,14=-1,18=20,19=15,26=4,38=1/1,3;
 2/9=110,12=2,15=1,17=6,18=5,40=1/2;
 3/5=4,6=6,7=1111,11=2,16=1,25=1,30=1,71=2,74=-5,75=-5,124=41,140=1/1,2,3;
 4//1;
 5/5=2,38=5/2;
 8/6=4,10=90,11=11/1;
 11/6=1,8=1,9=11,15=111,16=1,31=1/1,2,10;
 10/6=1,13=1,31=1/2;
 6/7=2,8=2,9=2,10=2,28=1/1;
 7/10=1,18=20,25=1,30=1/1,2,3,16;
 1/10=4,14=-1,18=20,19=15,26=4/3(2);
 2/9=110,15=1/2;
 99//99;
 2/9=110,15=1/2;
 3/5=4,6=6,7=1111,11=2,16=1,25=1,30=1,71=1,74=-5,75=-5,124=41/1,2,3;
 4/5=5,16=3,69=1/1;
 5/5=2,38=5/2;
 7/30=1/1,2,3,16;
 1/14=-1,18=20,19=15,26=4/3(-5);
 2/9=110,15=1/2;
 6/7=2,8=2,9=2,10=2,19=2,28=1/1;
 99/9=1/99;
 ------------------------------------------------------------
 Candidate Structure: Conf:273 OPT and FREQ calc in gas phase
 ------------------------------------------------------------
 Symbolic Z-matrix:
 Charge =  0 Multiplicity = 1
 O                     0.4812   -1.43972   1.72308 
 C                     0.87057  -0.53629   0.98255 
 N                     0.37138  -0.40017  -0.26514 
 C                    -0.75721  -1.20762  -0.73001 
 C                    -0.28914  -2.59703  -1.19228 
 O                     0.31533  -3.3194   -0.24345 
 O                    -0.45011  -3.01646  -2.30615 
 C                    -1.5072   -0.49074  -1.84649 
 C                    -2.27544   0.70244  -1.37059 
 C                    -2.84205   1.05063  -0.17757 
 N                    -3.45652   2.28666  -0.27192 
 C                    -3.26679   2.67362  -1.51053 
 N                    -2.55969   1.75405  -2.21919 
 C                     1.89393   0.48386   1.40872 
 C                     2.97956  -0.12216   2.28608 
 N                     3.8968    0.93726   2.718 
 H                     0.69071   0.34962  -0.85265 
 H                    -1.42108  -1.35943   0.12342 
 H                     0.33923  -2.81473   0.59778 
 H                    -2.17872  -1.20279  -2.32839 
 H                    -0.79593  -0.19651  -2.61834 
 H                    -2.8511    0.49833   0.75013 
 H                    -3.61409   3.59393  -1.94694 
 H                    -2.28316   1.82072  -3.18404 
 H                     2.33103   0.96023   0.52862 
 H                     1.38125   1.26432   1.97735 
 H                     2.50784  -0.56404   3.1651 
 H                     3.4804   -0.9333    1.74249 
 H                     4.56161   0.56728   3.38681 
 H                     4.44738   1.25773   1.92958 
 

 GradGradGradGradGradGradGradGradGradGradGradGradGradGradGradGradGradGrad
 Berny optimization.
 Initialization pass.
                           ----------------------------
                           !    Initial Parameters    !
                           ! (Angstroms and Degrees)  !
 --------------------------                            --------------------------
 ! Name  Definition              Value          Derivative Info.                !
 --------------------------------------------------------------------------------
 ! R1    R(1,2)                  1.2313         calculate D2E/DX2 analytically  !
 ! R2    R(2,3)                  1.3507         calculate D2E/DX2 analytically  !
 ! R3    R(2,14)                 1.5065         calculate D2E/DX2 analytically  !
 ! R4    R(3,4)                  1.4635         calculate D2E/DX2 analytically  !
 ! R5    R(3,17)                 1.0047         calculate D2E/DX2 analytically  !
 ! R6    R(4,5)                  1.5373         calculate D2E/DX2 analytically  !
 ! R7    R(4,8)                  1.5241         calculate D2E/DX2 analytically  !
 ! R8    R(4,18)                 1.0918         calculate D2E/DX2 analytically  !
 ! R9    R(5,6)                  1.337          calculate D2E/DX2 analytically  !
 ! R10   R(5,7)                  1.2011         calculate D2E/DX2 analytically  !
 ! R11   R(6,19)                 0.9813         calculate D2E/DX2 analytically  !
 ! R12   R(8,9)                  1.4968         calculate D2E/DX2 analytically  !
 ! R13   R(8,20)                 1.091          calculate D2E/DX2 analytically  !
 ! R14   R(8,21)                 1.0901         calculate D2E/DX2 analytically  !
 ! R15   R(9,10)                 1.3659         calculate D2E/DX2 analytically  !
 ! R16   R(9,13)                 1.3809         calculate D2E/DX2 analytically  !
 ! R17   R(10,11)                1.3836         calculate D2E/DX2 analytically  !
 ! R18   R(10,22)                1.0797         calculate D2E/DX2 analytically  !
 ! R19   R(11,12)                1.3114         calculate D2E/DX2 analytically  !
 ! R20   R(12,13)                1.3593         calculate D2E/DX2 analytically  !
 ! R21   R(12,23)                1.0761         calculate D2E/DX2 analytically  !
 ! R22   R(13,24)                1.0059         calculate D2E/DX2 analytically  !
 ! R23   R(14,15)                1.5217         calculate D2E/DX2 analytically  !
 ! R24   R(14,25)                1.092          calculate D2E/DX2 analytically  !
 ! R25   R(14,26)                1.0933         calculate D2E/DX2 analytically  !
 ! R26   R(15,16)                1.4664         calculate D2E/DX2 analytically  !
 ! R27   R(15,27)                1.0911         calculate D2E/DX2 analytically  !
 ! R28   R(15,28)                1.0974         calculate D2E/DX2 analytically  !
 ! R29   R(16,29)                1.013          calculate D2E/DX2 analytically  !
 ! R30   R(16,30)                1.0136         calculate D2E/DX2 analytically  !
 ! A1    A(1,2,3)              120.8376         calculate D2E/DX2 analytically  !
 ! A2    A(1,2,14)             122.7858         calculate D2E/DX2 analytically  !
 ! A3    A(3,2,14)             116.3669         calculate D2E/DX2 analytically  !
 ! A4    A(2,3,4)              121.5214         calculate D2E/DX2 analytically  !
 ! A5    A(2,3,17)             119.8628         calculate D2E/DX2 analytically  !
 ! A6    A(4,3,17)             118.1074         calculate D2E/DX2 analytically  !
 ! A7    A(3,4,5)              111.0619         calculate D2E/DX2 analytically  !
 ! A8    A(3,4,8)              110.6495         calculate D2E/DX2 analytically  !
 ! A9    A(3,4,18)             107.2961         calculate D2E/DX2 analytically  !
 ! A10   A(5,4,8)              110.7731         calculate D2E/DX2 analytically  !
 ! A11   A(5,4,18)             107.1284         calculate D2E/DX2 analytically  !
 ! A12   A(8,4,18)             109.8029         calculate D2E/DX2 analytically  !
 ! A13   A(4,5,6)              114.3675         calculate D2E/DX2 analytically  !
 ! A14   A(4,5,7)              123.6204         calculate D2E/DX2 analytically  !
 ! A15   A(6,5,7)              122.0113         calculate D2E/DX2 analytically  !
 ! A16   A(5,6,19)             109.9703         calculate D2E/DX2 analytically  !
 ! A17   A(4,8,9)              113.2417         calculate D2E/DX2 analytically  !
 ! A18   A(4,8,20)             108.631          calculate D2E/DX2 analytically  !
 ! A19   A(4,8,21)             108.9394         calculate D2E/DX2 analytically  !
 ! A20   A(9,8,20)             110.1707         calculate D2E/DX2 analytically  !
 ! A21   A(9,8,21)             110.1741         calculate D2E/DX2 analytically  !
 ! A22   A(20,8,21)            105.3689         calculate D2E/DX2 analytically  !
 ! A23   A(8,9,10)             133.9358         calculate D2E/DX2 analytically  !
 ! A24   A(8,9,13)             121.1542         calculate D2E/DX2 analytically  !
 ! A25   A(10,9,13)            104.9065         calculate D2E/DX2 analytically  !
 ! A26   A(9,10,11)            110.6353         calculate D2E/DX2 analytically  !
 ! A27   A(9,10,22)            128.5771         calculate D2E/DX2 analytically  !
 ! A28   A(11,10,22)           120.7875         calculate D2E/DX2 analytically  !
 ! A29   A(10,11,12)           105.2927         calculate D2E/DX2 analytically  !
 ! A30   A(11,12,13)           111.594          calculate D2E/DX2 analytically  !
 ! A31   A(11,12,23)           126.0626         calculate D2E/DX2 analytically  !
 ! A32   A(13,12,23)           122.3432         calculate D2E/DX2 analytically  !
 ! A33   A(9,13,12)            107.5703         calculate D2E/DX2 analytically  !
 ! A34   A(9,13,24)            125.686          calculate D2E/DX2 analytically  !
 ! A35   A(12,13,24)           126.7424         calculate D2E/DX2 analytically  !
 ! A36   A(2,14,15)            112.2127         calculate D2E/DX2 analytically  !
 ! A37   A(2,14,25)            109.8338         calculate D2E/DX2 analytically  !
 ! A38   A(2,14,26)            108.1789         calculate D2E/DX2 analytically  !
 ! A39   A(15,14,25)           110.6605         calculate D2E/DX2 analytically  !
 ! A40   A(15,14,26)           108.6005         calculate D2E/DX2 analytically  !
 ! A41   A(25,14,26)           107.1854         calculate D2E/DX2 analytically  !
 ! A42   A(14,15,16)           109.169          calculate D2E/DX2 analytically  !
 ! A43   A(14,15,27)           108.5023         calculate D2E/DX2 analytically  !
 ! A44   A(14,15,28)           109.5343         calculate D2E/DX2 analytically  !
 ! A45   A(16,15,27)           109.0103         calculate D2E/DX2 analytically  !
 ! A46   A(16,15,28)           113.2315         calculate D2E/DX2 analytically  !
 ! A47   A(27,15,28)           107.2794         calculate D2E/DX2 analytically  !
 ! A48   A(15,16,29)           109.9443         calculate D2E/DX2 analytically  !
 ! A49   A(15,16,30)           109.8204         calculate D2E/DX2 analytically  !
 ! A50   A(29,16,30)           105.8152         calculate D2E/DX2 analytically  !
 ! D1    D(1,2,3,4)              7.5256         calculate D2E/DX2 analytically  !
 ! D2    D(1,2,3,17)           179.1912         calculate D2E/DX2 analytically  !
 ! D3    D(14,2,3,4)          -171.3709         calculate D2E/DX2 analytically  !
 ! D4    D(14,2,3,17)            0.2946         calculate D2E/DX2 analytically  !
 ! D5    D(1,2,14,15)           37.429          calculate D2E/DX2 analytically  !
 ! D6    D(1,2,14,25)          160.9631         calculate D2E/DX2 analytically  !
 ! D7    D(1,2,14,26)          -82.3549         calculate D2E/DX2 analytically  !
 ! D8    D(3,2,14,15)         -143.698          calculate D2E/DX2 analytically  !
 ! D9    D(3,2,14,25)          -20.1639         calculate D2E/DX2 analytically  !
 ! D10   D(3,2,14,26)           96.5181         calculate D2E/DX2 analytically  !
 ! D11   D(2,3,4,5)            -81.7802         calculate D2E/DX2 analytically  !
 ! D12   D(2,3,4,8)            154.7647         calculate D2E/DX2 analytically  !
 ! D13   D(2,3,4,18)            34.9931         calculate D2E/DX2 analytically  !
 ! D14   D(17,3,4,5)           106.413          calculate D2E/DX2 analytically  !
 ! D15   D(17,3,4,8)           -17.0421         calculate D2E/DX2 analytically  !
 ! D16   D(17,3,4,18)         -136.8136         calculate D2E/DX2 analytically  !
 ! D17   D(3,4,5,6)             60.0601         calculate D2E/DX2 analytically  !
 ! D18   D(3,4,5,7)           -120.2636         calculate D2E/DX2 analytically  !
 ! D19   D(8,4,5,6)           -176.5556         calculate D2E/DX2 analytically  !
 ! D20   D(8,4,5,7)              3.1206         calculate D2E/DX2 analytically  !
 ! D21   D(18,4,5,6)           -56.816          calculate D2E/DX2 analytically  !
 ! D22   D(18,4,5,7)           122.8603         calculate D2E/DX2 analytically  !
 ! D23   D(3,4,8,9)            -70.7009         calculate D2E/DX2 analytically  !
 ! D24   D(3,4,8,20)           166.5599         calculate D2E/DX2 analytically  !
 ! D25   D(3,4,8,21)            52.268          calculate D2E/DX2 analytically  !
 ! D26   D(5,4,8,9)            165.6775         calculate D2E/DX2 analytically  !
 ! D27   D(5,4,8,20)            42.9384         calculate D2E/DX2 analytically  !
 ! D28   D(5,4,8,21)           -71.3536         calculate D2E/DX2 analytically  !
 ! D29   D(18,4,8,9)            47.5538         calculate D2E/DX2 analytically  !
 ! D30   D(18,4,8,20)          -75.1853         calculate D2E/DX2 analytically  !
 ! D31   D(18,4,8,21)          170.5227         calculate D2E/DX2 analytically  !
 ! D32   D(4,5,6,19)             0.5789         calculate D2E/DX2 analytically  !
 ! D33   D(7,5,6,19)          -179.1032         calculate D2E/DX2 analytically  !
 ! D34   D(4,8,9,10)           -26.9919         calculate D2E/DX2 analytically  !
 ! D35   D(4,8,9,13)           153.7973         calculate D2E/DX2 analytically  !
 ! D36   D(20,8,9,10)           94.8898         calculate D2E/DX2 analytically  !
 ! D37   D(20,8,9,13)          -84.3209         calculate D2E/DX2 analytically  !
 ! D38   D(21,8,9,10)         -149.2757         calculate D2E/DX2 analytically  !
 ! D39   D(21,8,9,13)           31.5136         calculate D2E/DX2 analytically  !
 ! D40   D(8,9,10,11)         -179.6436         calculate D2E/DX2 analytically  !
 ! D41   D(8,9,10,22)            0.4783         calculate D2E/DX2 analytically  !
 ! D42   D(13,9,10,11)          -0.3425         calculate D2E/DX2 analytically  !
 ! D43   D(13,9,10,22)         179.7794         calculate D2E/DX2 analytically  !
 ! D44   D(8,9,13,12)          179.6556         calculate D2E/DX2 analytically  !
 ! D45   D(8,9,13,24)           -0.7376         calculate D2E/DX2 analytically  !
 ! D46   D(10,9,13,12)           0.2438         calculate D2E/DX2 analytically  !
 ! D47   D(10,9,13,24)         179.8506         calculate D2E/DX2 analytically  !
 ! D48   D(9,10,11,12)           0.3093         calculate D2E/DX2 analytically  !
 ! D49   D(22,10,11,12)       -179.8017         calculate D2E/DX2 analytically  !
 ! D50   D(10,11,12,13)         -0.1475         calculate D2E/DX2 analytically  !
 ! D51   D(10,11,12,23)        179.6907         calculate D2E/DX2 analytically  !
 ! D52   D(11,12,13,9)          -0.0609         calculate D2E/DX2 analytically  !
 ! D53   D(11,12,13,24)       -179.6624         calculate D2E/DX2 analytically  !
 ! D54   D(23,12,13,9)        -179.9061         calculate D2E/DX2 analytically  !
 ! D55   D(23,12,13,24)          0.4924         calculate D2E/DX2 analytically  !
 ! D56   D(2,14,15,16)        -177.0867         calculate D2E/DX2 analytically  !
 ! D57   D(2,14,15,27)         -58.4021         calculate D2E/DX2 analytically  !
 ! D58   D(2,14,15,28)          58.4108         calculate D2E/DX2 analytically  !
 ! D59   D(25,14,15,16)         59.8434         calculate D2E/DX2 analytically  !
 ! D60   D(25,14,15,27)        178.5279         calculate D2E/DX2 analytically  !
 ! D61   D(25,14,15,28)        -64.6592         calculate D2E/DX2 analytically  !
 ! D62   D(26,14,15,16)        -57.549          calculate D2E/DX2 analytically  !
 ! D63   D(26,14,15,27)         61.1356         calculate D2E/DX2 analytically  !
 ! D64   D(26,14,15,28)        177.9485         calculate D2E/DX2 analytically  !
 ! D65   D(14,15,16,29)        173.5694         calculate D2E/DX2 analytically  !
 ! D66   D(14,15,16,30)        -70.3925         calculate D2E/DX2 analytically  !
 ! D67   D(27,15,16,29)         55.2023         calculate D2E/DX2 analytically  !
 ! D68   D(27,15,16,30)        171.2403         calculate D2E/DX2 analytically  !
 ! D69   D(28,15,16,29)        -64.1236         calculate D2E/DX2 analytically  !
 ! D70   D(28,15,16,30)         51.9144         calculate D2E/DX2 analytically  !
 --------------------------------------------------------------------------------
 Trust Radius=3.00D-01 FncErr=1.00D-07 GrdErr=1.00D-06
 Number of steps in this run=    160 maximum allowed number of steps=    180.
 GradGradGradGradGradGradGradGradGradGradGradGradGradGradGradGradGradGrad

                          Input orientation:                          
 ---------------------------------------------------------------------
 Center     Atomic      Atomic             Coordinates (Angstroms)
 Number     Number       Type             X           Y           Z
 ---------------------------------------------------------------------
      1          8           0        0.481202   -1.439721    1.723084
      2          6           0        0.870569   -0.536285    0.982547
      3          7           0        0.371376   -0.400166   -0.265140
      4          6           0       -0.757209   -1.207622   -0.730012
      5          6           0       -0.289136   -2.597034   -1.192279
      6          8           0        0.315334   -3.319401   -0.243452
      7          8           0       -0.450114   -3.016463   -2.306155
      8          6           0       -1.507203   -0.490736   -1.846491
      9          6           0       -2.275445    0.702441   -1.370589
     10          6           0       -2.842052    1.050633   -0.177570
     11          7           0       -3.456524    2.286661   -0.271915
     12          6           0       -3.266792    2.673623   -1.510526
     13          7           0       -2.559690    1.754054   -2.219192
     14          6           0        1.893930    0.483862    1.408723
     15          6           0        2.979560   -0.122160    2.286081
     16          7           0        3.896800    0.937264    2.718000
     17          1           0        0.690707    0.349622   -0.852654
     18          1           0       -1.421075   -1.359428    0.123420
     19          1           0        0.339230   -2.814735    0.597781
     20          1           0       -2.178716   -1.202789   -2.328392
     21          1           0       -0.795931   -0.196509   -2.618341
     22          1           0       -2.851101    0.498330    0.750134
     23          1           0       -3.614090    3.593930   -1.946937
     24          1           0       -2.283164    1.820720   -3.184039
     25          1           0        2.331031    0.960230    0.528621
     26          1           0        1.381250    1.264319    1.977355
     27          1           0        2.507837   -0.564041    3.165097
     28          1           0        3.480396   -0.933305    1.742493
     29          1           0        4.561608    0.567281    3.386808
     30          1           0        4.447377    1.257728    1.929579
 ---------------------------------------------------------------------
                    Distance matrix (angstroms):
                    1          2          3          4          5
     1  O    0.000000
     2  C    1.231340   0.000000
     3  N    2.246280   1.350721   0.000000
     4  C    2.757755   2.456260   1.463488   0.000000
     5  C    3.229882   3.212705   2.474287   1.537286   0.000000
     6  O    2.725431   3.091455   2.919854   2.417995   1.336963
     7  O    4.425860   4.325627   3.418421   2.418768   1.201064
     8  C    4.194782   3.695854   2.457221   1.524120   2.519559
     9  C    4.664631   4.119357   3.073015   2.522642   3.855354
    10  C    4.567096   4.200921   3.526840   3.122736   4.566453
    11  N    5.776819   5.316619   4.676741   4.439163   5.893208
    12  C    6.436093   5.799714   4.922949   4.687352   6.061975
    13  N    5.915131   5.221443   4.129180   3.773344   5.014174
    14  C    2.407239   1.506518   2.429299   3.803137   4.585075
    15  C    2.880056   2.513671   3.659049   4.923260   5.376650
    16  N    4.278577   3.786980   4.807958   6.176497   6.730795
    17  H    3.143258   2.045763   1.004653   2.129909   3.123815
    18  H    2.486772   2.582111   2.069793   1.091838   2.131671
    19  H    1.782449   2.371012   2.564334   2.355424   1.909595
    20  H    4.852398   4.550240   3.377008   2.139047   2.608675
    21  H    4.693040   3.982345   2.634699   2.142344   2.837784
    22  H    3.975792   3.869790   3.496060   3.079852   4.462949
    23  H    7.455074   6.764076   5.887714   5.718180   7.067735
    24  H    6.507846   5.732535   4.527570   4.185887   5.240211
    25  H    3.257049   2.139756   2.514156   3.977558   4.741403
    26  H    2.861218   2.119578   2.969703   4.244212   5.267525
    27  H    2.636942   2.728541   4.044483   5.123143   5.562629
    28  H    3.041710   2.747060   3.739096   4.913841   5.058681
    29  H    4.842080   4.541156   5.641872   6.956170   7.383132
    30  H    4.800980   4.112044   4.917234   6.343429   6.858553
                    6          7          8          9         10
     6  O    0.000000
     7  O    2.220906   0.000000
     8  C    3.727294   2.776333   0.000000
     9  C    4.915057   4.247042   1.496780   0.000000
    10  C    5.391718   5.176245   2.634945   1.365861   0.000000
    11  N    6.756897   6.426489   3.740732   2.260926   1.383561
    12  C    7.096015   6.398732   3.636233   2.210861   2.142725
    13  N    6.157049   5.216868   2.507133   1.380874   2.177785
    14  C    4.436943   5.616685   4.807699   5.015580   5.026637
    15  C    4.870215   6.420926   6.111059   6.454942   6.429322
    16  N    6.302087   7.731090   7.216440   7.407314   7.335482
    17  H    3.738150   3.839879   2.554354   3.031633   3.664361
    18  H    2.644089   3.096993   2.154668   2.685762   2.813923
    19  H    0.981292   3.016058   3.845094   4.804324   5.065845
    20  H    3.879085   2.505588   1.090953   2.134630   3.184959
    21  H    4.077678   2.858180   1.090059   2.134000   3.420429
    22  H    5.058517   5.240173   3.086547   2.206923   1.079701
    23  H    8.132428   7.337376   4.597125   3.238033   3.192971
    24  H    6.466846   5.246818   2.781003   2.130542   3.153450
    25  H    4.793159   5.620037   4.741150   4.989296   5.221845
    26  H    5.203715   6.326725   5.103447   4.989574   4.746118
    27  H    4.900744   6.685690   6.421988   6.712392   6.511674
    28  H    4.433402   6.014983   6.160586   6.745121   6.898986
    29  H    6.805581   8.388707   8.083148   8.330449   8.231196
    30  H    6.538039   7.758581   7.264493   7.509713   7.590701
                   11         12         13         14         15
    11  N    0.000000
    12  C    1.311447   0.000000
    13  N    2.209042   1.359341   0.000000
    14  C    5.890839   6.320611   5.883017   0.000000
    15  C    7.332730   7.826080   7.382476   1.521713   0.000000
    16  N    8.051822   8.497789   8.168798   2.435419   1.466377
    17  H    4.613990   4.636332   3.795384   2.565072   3.913194
    18  H    4.194438   4.726727   4.059316   4.004871   5.057027
    19  H    6.417815   6.897131   6.100238   3.735701   4.131786
    20  H    4.247135   4.108453   2.983285   5.779037   7.004922
    21  H    4.330197   3.945892   2.659861   4.890349   6.189767
    22  H    2.146916   3.164693   3.237076   4.790540   6.061415
    23  H    2.130605   1.076121   2.137996   7.160395   8.672023
    24  H    3.174010   2.120286   1.005903   6.350494   7.835385
    25  H    5.991333   6.199150   5.665667   1.092045   2.163521
    26  H    5.432168   5.979610   5.777703   1.093296   2.138277
    27  H    7.450715   8.104952   7.748804   2.135376   1.091078
    28  H    7.908659   8.313640   7.707106   2.153286   1.097397
    29  H    8.979586   9.471241   9.140490   3.322090   2.046901
    30  H    8.269034   8.564314   8.158286   2.718501   2.045892
                   16         17         18         19         20
    16  N    0.000000
    17  H    4.834659   0.000000
    18  H    6.347160   2.886728   0.000000
    19  H    5.588302   3.498636   2.332726   0.000000
    20  H    8.182774   3.580694   2.570980   4.183409   0.000000
    21  H    7.196090   2.371920   3.043097   4.299667   1.734578
    22  H    7.042679   3.890431   2.426728   4.601936   3.580954
    23  H    9.232171   5.500388   5.799263   7.948290   5.021387
    24  H    8.591072   4.055046   4.668600   6.531964   3.143986
    25  H    2.691754   2.229669   4.429820   4.268772   5.760121
    26  H    2.642634   3.053272   4.263115   4.430317   6.107326
    27  H    2.093569   4.503228   5.031977   4.044699   7.249151
    28  H    2.150356   4.020330   5.179518   3.836284   6.976409
    29  H    1.012996   5.744936   7.081978   6.086475   9.012692
    30  H    1.013627   4.762147   6.674612   5.935951   8.251640
                   21         22         23         24         25
    21  H    0.000000
    22  H    4.006638   0.000000
    23  H    4.770769   4.176013   0.000000
    24  H    2.569259   4.189151   2.538909   0.000000
    25  H    4.584682   5.207390   6.957674   5.984571   0.000000
    26  H    5.290989   4.472763   6.766134   6.354329   1.758802
    27  H    6.670691   5.973181   8.994420   8.303752   3.050519
    28  H    6.151969   6.566751   9.189096   8.066846   2.525866
    29  H    8.083837   7.867977  10.220150   9.570687   3.646795
    30  H    7.091591   7.432063   9.245132   8.471495   2.555408
                   26         27         28         29         30
    26  H    0.000000
    27  H    2.454145   0.000000
    28  H    3.048135   1.762393   0.000000
    29  H    3.547830   2.355211   2.474782   0.000000
    30  H    3.066506   2.933797   2.402223   1.616565   0.000000
 Symmetry turned off by external request.
 Stoichiometry    C9H14N4O3
 Framework group  C1[X(C9H14N4O3)]
 Deg. of freedom    84
 Full point group                 C1      NOp   1
 Rotational constants (GHZ):      0.6081288      0.3132744      0.2274180
 Standard basis: 6-311++G(d,p) (5D, 7F)
   450 basis functions,   702 primitive gaussians,   466 cartesian basis functions
    60 alpha electrons       60 beta electrons
       nuclear repulsion energy      1109.6886056220 Hartrees.
 NAtoms=   30 NActive=   30 NUniq=   30 SFac= 1.00D+00 NAtFMM=   60 NAOKFM=F Big=F
 Integral buffers will be    131072 words long.
 Raffenetti 2 integral format.
 Two-electron integral symmetry is turned off.
 Nuclear repulsion after empirical dispersion term =     1109.6350884491 Hartrees.
 One-electron integrals computed using PRISM.
 NBasis=   450 RedAO= T EigKep=  1.31D-06  NBF=   450
 NBsUse=   450 1.00D-06 EigRej= -1.00D+00 NBFU=   450
 ExpMin= 3.60D-02 ExpMax= 8.59D+03 ExpMxC= 1.30D+03 IAcc=3 IRadAn=         5 AccDes= 0.00D+00
 Harris functional with IExCor=  402 and IRadAn=       5 diagonalized for initial guess.
 HarFok:  IExCor=  402 AccDes= 0.00D+00 IRadAn=         5 IDoV= 1 UseB2=F ITyADJ=14
 ICtDFT=  3500011 ScaDFX=  1.000000  1.000000  1.000000  1.000000
 FoFCou: FMM=F IPFlag=           0 FMFlag=      100000 FMFlg1=           0
         NFxFlg=           0 DoJE=T BraDBF=F KetDBF=T FulRan=T
         wScrn=  0.000000 ICntrl=     500 IOpCl=  0 I1Cent=   200000004 NGrid=           0
         NMat0=    1 NMatS0=      1 NMatT0=    0 NMatD0=    1 NMtDS0=    0 NMtDT0=    0
 Symmetry not used in FoFCou.
 Requested convergence on RMS density matrix=1.00D-08 within 128 cycles.
 Requested convergence on MAX density matrix=1.00D-06.
 Requested convergence on             energy=1.00D-06.
 No special actions if energy rises.
 SCF Done:  E(RB3LYP) =  -796.383029402     A.U. after   15 cycles
            NFock= 15  Conv=0.50D-08     -V/T= 2.0037
 DoSCS=F DFT=T ScalE2(SS,OS)=  1.000000  1.000000
 Range of M.O.s used for correlation:     1   450
 NBasis=   450 NAE=    60 NBE=    60 NFC=     0 NFV=     0
 NROrb=    450 NOA=    60 NOB=    60 NVA=   390 NVB=   390

 **** Warning!!: The largest alpha MO coefficient is  0.21102367D+03

 Symmetrizing basis deriv contribution to polar:
 IMax=3 JMax=2 DiffMx= 0.00D+00
 G2DrvN: will do    31 centers at a time, making    1 passes.
 Calling FoFCou, ICntrl=  3107 FMM=F I1Cent=   0 AccDes= 0.00D+00.
 End of G2Drv F.D. properties file   721 does not exist.
 End of G2Drv F.D. properties file   722 does not exist.
 End of G2Drv F.D. properties file   788 does not exist.
          IDoAtm=111111111111111111111111111111
          Differentiating once with respect to nuclear coordinates.
          There are    93 degrees of freedom in the 1st order CPHF.  IDoFFX=6 NUNeed=     0.
     87 vectors produced by pass  0 Test12= 2.52D-14 1.08D-09 XBig12= 3.08D-01 1.39D-01.
 AX will form    87 AO Fock derivatives at one time.
     87 vectors produced by pass  1 Test12= 2.52D-14 1.08D-09 XBig12= 1.59D-02 2.21D-02.
     87 vectors produced by pass  2 Test12= 2.52D-14 1.08D-09 XBig12= 1.68D-04 1.96D-03.
     87 vectors produced by pass  3 Test12= 2.52D-14 1.08D-09 XBig12= 6.60D-07 7.59D-05.
     87 vectors produced by pass  4 Test12= 2.52D-14 1.08D-09 XBig12= 2.60D-09 3.88D-06.
     84 vectors produced by pass  5 Test12= 2.52D-14 1.08D-09 XBig12= 4.20D-12 1.60D-07.
     37 vectors produced by pass  6 Test12= 2.52D-14 1.08D-09 XBig12= 6.37D-15 7.30D-09.
     12 vectors produced by pass  7 Test12= 2.52D-14 1.08D-09 XBig12= 3.69D-16 2.04D-09.
     11 vectors produced by pass  8 Test12= 2.52D-14 1.08D-09 XBig12= 4.16D-16 2.58D-09.
     11 vectors produced by pass  9 Test12= 2.52D-14 1.08D-09 XBig12= 1.70D-14 1.12D-08.
      5 vectors produced by pass 10 Test12= 2.52D-14 1.08D-09 XBig12= 8.94D-16 3.56D-09.
      2 vectors produced by pass 11 Test12= 2.52D-14 1.08D-09 XBig12= 7.23D-16 1.86D-09.
 InvSVY:  IOpt=1 It=  1 EMax= 7.22D-16
 Solved reduced A of dimension   597 with    93 vectors.
 End of Minotr F.D. properties file   721 does not exist.
 End of Minotr F.D. properties file   722 does not exist.
 End of Minotr F.D. properties file   788 does not exist.

 **********************************************************************

            Population analysis using the SCF density.

 **********************************************************************

 Alpha  occ. eigenvalues --  -19.16495 -19.12746 -19.12019 -14.38581 -14.38012
 Alpha  occ. eigenvalues --  -14.31099 -14.30589 -10.31351 -10.30853 -10.25605
 Alpha  occ. eigenvalues --  -10.23721 -10.22364 -10.21398 -10.21249 -10.20217
 Alpha  occ. eigenvalues --  -10.19524  -1.11540  -1.08136  -1.03640  -1.03347
 Alpha  occ. eigenvalues --   -0.96973  -0.90537  -0.88955  -0.83344  -0.78842
 Alpha  occ. eigenvalues --   -0.75558  -0.69578  -0.65866  -0.63493  -0.62325
 Alpha  occ. eigenvalues --   -0.62166  -0.60680  -0.57643  -0.54816  -0.54000
 Alpha  occ. eigenvalues --   -0.52714  -0.51117  -0.48498  -0.47447  -0.47092
 Alpha  occ. eigenvalues --   -0.46039  -0.45316  -0.44761  -0.44298  -0.43700
 Alpha  occ. eigenvalues --   -0.42782  -0.42562  -0.41285  -0.40504  -0.38676
 Alpha  occ. eigenvalues --   -0.38427  -0.37284  -0.32993  -0.32059  -0.30114
 Alpha  occ. eigenvalues --   -0.29929  -0.28547  -0.28051  -0.26368  -0.24575
 Alpha virt. eigenvalues --   -0.03393  -0.02638  -0.02084  -0.01164  -0.00852
 Alpha virt. eigenvalues --   -0.00028   0.00204   0.00693   0.01417   0.01621
 Alpha virt. eigenvalues --    0.02290   0.03249   0.03410   0.03959   0.04299
 Alpha virt. eigenvalues --    0.05088   0.05522   0.05873   0.06335   0.07358
 Alpha virt. eigenvalues --    0.07420   0.07653   0.08408   0.08806   0.09185
 Alpha virt. eigenvalues --    0.09375   0.09755   0.10388   0.10675   0.11063
 Alpha virt. eigenvalues --    0.11261   0.11667   0.12277   0.12389   0.12668
 Alpha virt. eigenvalues --    0.12940   0.13336   0.13577   0.13697   0.14362
 Alpha virt. eigenvalues --    0.14600   0.14769   0.14887   0.15458   0.15750
 Alpha virt. eigenvalues --    0.16099   0.16671   0.16902   0.17243   0.17519
 Alpha virt. eigenvalues --    0.17996   0.18133   0.18703   0.18981   0.19338
 Alpha virt. eigenvalues --    0.19445   0.20037   0.20392   0.20745   0.21071
 Alpha virt. eigenvalues --    0.21597   0.21897   0.22444   0.22936   0.23084
 Alpha virt. eigenvalues --    0.23631   0.24020   0.24617   0.25041   0.25310
 Alpha virt. eigenvalues --    0.25644   0.26280   0.26776   0.27435   0.27748
 Alpha virt. eigenvalues --    0.27971   0.28134   0.28367   0.28945   0.29231
 Alpha virt. eigenvalues --    0.29905   0.30272   0.30865   0.30878   0.31177
 Alpha virt. eigenvalues --    0.31540   0.32042   0.32769   0.33189   0.33433
 Alpha virt. eigenvalues --    0.33522   0.33845   0.34821   0.35438   0.35576
 Alpha virt. eigenvalues --    0.36121   0.36539   0.37060   0.37986   0.38101
 Alpha virt. eigenvalues --    0.39465   0.40722   0.41279   0.41709   0.42248
 Alpha virt. eigenvalues --    0.43154   0.44091   0.45163   0.46527   0.46556
 Alpha virt. eigenvalues --    0.47821   0.48490   0.49797   0.50465   0.52784
 Alpha virt. eigenvalues --    0.53770   0.54949   0.55815   0.56628   0.57692
 Alpha virt. eigenvalues --    0.58307   0.58404   0.59968   0.60870   0.62232
 Alpha virt. eigenvalues --    0.62687   0.63141   0.64073   0.64513   0.65586
 Alpha virt. eigenvalues --    0.66659   0.67137   0.67488   0.68184   0.68721
 Alpha virt. eigenvalues --    0.69565   0.70346   0.70450   0.71538   0.71752
 Alpha virt. eigenvalues --    0.72773   0.73014   0.73522   0.74356   0.76202
 Alpha virt. eigenvalues --    0.76668   0.77772   0.78263   0.78843   0.80551
 Alpha virt. eigenvalues --    0.81512   0.83302   0.83741   0.84582   0.85037
 Alpha virt. eigenvalues --    0.86672   0.87016   0.88182   0.88828   0.90570
 Alpha virt. eigenvalues --    0.90715   0.92388   0.93280   0.93811   0.95884
 Alpha virt. eigenvalues --    0.97258   0.97410   0.99146   1.00550   1.01810
 Alpha virt. eigenvalues --    1.03341   1.04476   1.05875   1.06548   1.10216
 Alpha virt. eigenvalues --    1.11122   1.13101   1.14233   1.14905   1.15792
 Alpha virt. eigenvalues --    1.17534   1.18145   1.18929   1.19249   1.20721
 Alpha virt. eigenvalues --    1.23083   1.23705   1.25323   1.26037   1.26858
 Alpha virt. eigenvalues --    1.27406   1.28198   1.28836   1.29540   1.32992
 Alpha virt. eigenvalues --    1.33377   1.34459   1.36141   1.37633   1.38534
 Alpha virt. eigenvalues --    1.40853   1.43919   1.44982   1.46778   1.47535
 Alpha virt. eigenvalues --    1.51046   1.51557   1.52114   1.52369   1.55494
 Alpha virt. eigenvalues --    1.56975   1.57217   1.58326   1.60043   1.61299
 Alpha virt. eigenvalues --    1.61764   1.62970   1.63510   1.65044   1.65928
 Alpha virt. eigenvalues --    1.66279   1.66703   1.68138   1.68721   1.70630
 Alpha virt. eigenvalues --    1.71027   1.71672   1.73643   1.74752   1.75666
 Alpha virt. eigenvalues --    1.75799   1.77114   1.78759   1.79176   1.80942
 Alpha virt. eigenvalues --    1.82492   1.83243   1.83366   1.85528   1.87482
 Alpha virt. eigenvalues --    1.88358   1.91627   1.92641   1.95514   1.96689
 Alpha virt. eigenvalues --    1.98444   1.99222   2.00188   2.02919   2.04340
 Alpha virt. eigenvalues --    2.06572   2.08398   2.10691   2.12151   2.12987
 Alpha virt. eigenvalues --    2.14791   2.16439   2.16858   2.19378   2.22262
 Alpha virt. eigenvalues --    2.23328   2.24508   2.26306   2.27750   2.29837
 Alpha virt. eigenvalues --    2.31192   2.33240   2.34029   2.39433   2.42292
 Alpha virt. eigenvalues --    2.43864   2.45463   2.46756   2.48689   2.49863
 Alpha virt. eigenvalues --    2.50540   2.52245   2.54400   2.56148   2.58528
 Alpha virt. eigenvalues --    2.59098   2.60374   2.61769   2.63303   2.64186
 Alpha virt. eigenvalues --    2.65424   2.66667   2.67923   2.69631   2.70421
 Alpha virt. eigenvalues --    2.71519   2.73382   2.73894   2.75359   2.77442
 Alpha virt. eigenvalues --    2.77634   2.79941   2.80798   2.81950   2.83149
 Alpha virt. eigenvalues --    2.86294   2.87124   2.88083   2.89591   2.89885
 Alpha virt. eigenvalues --    2.90644   2.91557   2.92062   2.93561   2.94589
 Alpha virt. eigenvalues --    2.96006   2.97982   2.98278   2.98630   3.00907
 Alpha virt. eigenvalues --    3.01672   3.07557   3.07862   3.09429   3.11311
 Alpha virt. eigenvalues --    3.14338   3.15781   3.18166   3.20330   3.21297
 Alpha virt. eigenvalues --    3.25970   3.29876   3.34352   3.35979   3.38617
 Alpha virt. eigenvalues --    3.43005   3.43322   3.50724   3.53599   3.56059
 Alpha virt. eigenvalues --    3.59871   3.59978   3.66014   3.66906   3.68028
 Alpha virt. eigenvalues --    3.71824   3.79104   3.80681   3.82696   3.84802
 Alpha virt. eigenvalues --    3.86695   3.89036   3.90604   3.94055   3.95744
 Alpha virt. eigenvalues --    4.05560   4.06892   4.08231   4.15294   4.23471
 Alpha virt. eigenvalues --    4.29629   4.34829   4.50568   4.71608   4.76394
 Alpha virt. eigenvalues --    4.81679   4.83944   4.92806   4.95501   5.01389
 Alpha virt. eigenvalues --    5.07916   5.11357   5.20361   5.26877   5.28273
 Alpha virt. eigenvalues --    5.41131   5.60980   5.78926   5.93370  23.74910
 Alpha virt. eigenvalues --   23.79872  23.84193  23.84740  23.86636  23.90063
 Alpha virt. eigenvalues --   23.92691  23.95588  24.14340  35.54156  35.58173
 Alpha virt. eigenvalues --   35.60359  35.69015  49.88651  50.01580  50.02466
          Condensed to atoms (all electrons):
               1          2          3          4          5          6
     1  O    8.030733   0.274058  -0.131650   0.023838  -0.069797  -0.037311
     2  C    0.274058   9.921078  -0.082781  -0.018746  -0.835611   0.069180
     3  N   -0.131650  -0.082781   7.583328  -0.551257   0.508148   0.052600
     4  C    0.023838  -0.018746  -0.551257  11.713242  -2.602947  -0.389109
     5  C   -0.069797  -0.835611   0.508148  -2.602947   9.225607   0.332997
     6  O   -0.037311   0.069180   0.052600  -0.389109   0.332997   7.956341
     7  O   -0.000451   0.011156   0.000198  -0.018651   0.309541  -0.104812
     8  C   -0.035274  -0.749768  -0.329411  -2.536861   1.132913  -0.084364
     9  C    0.006325   1.028878  -0.035221   0.907110  -1.459751   0.115144
    10  C    0.023112  -0.180187   0.075332  -0.381818  -0.371282   0.030561
    11  N   -0.000648   0.013717  -0.000899   0.012092   0.000785  -0.000027
    12  C   -0.000395   0.058716   0.016036  -0.274219  -0.097318   0.000030
    13  N   -0.000180  -0.024970   0.013661  -0.032248   0.024782   0.000092
    14  C    0.173631  -3.357013  -0.363026  -0.727222   0.278816  -0.000162
    15  C   -0.025840   0.140833  -0.000748  -0.110462  -0.060290  -0.000445
    16  N    0.000659  -0.032758  -0.008773   0.005759  -0.000558  -0.000595
    17  H    0.002471   0.038213   0.315594  -0.110919   0.020617   0.003944
    18  H    0.013635   0.007154  -0.054393   0.542012   0.006960   0.014622
    19  H    0.060816   0.022809  -0.062607   0.310215  -0.262207   0.176220
    20  H   -0.000612   0.038016   0.030708  -0.106398  -0.006764  -0.004289
    21  H    0.000034  -0.046735  -0.031324  -0.023249   0.044441  -0.001144
    22  H   -0.002771   0.021099  -0.004134  -0.065876  -0.032882   0.002796
    23  H   -0.000007   0.001507   0.000903  -0.014892  -0.003284  -0.000018
    24  H   -0.000068   0.000539  -0.000432  -0.014344  -0.000694  -0.000096
    25  H    0.014236  -0.215378   0.015885   0.027212   0.018785   0.000507
    26  H   -0.001195   0.004741  -0.000271   0.024584  -0.006300  -0.001169
    27  H    0.006993  -0.039532   0.004072  -0.007868   0.006724   0.000028
    28  H   -0.014915   0.001281   0.000887   0.001328  -0.003554   0.001121
    29  H    0.000096  -0.003612   0.000042  -0.000155  -0.000233  -0.000043
    30  H   -0.000248  -0.005097  -0.002516  -0.002103  -0.000766  -0.000044
               7          8          9         10         11         12
     1  O   -0.000451  -0.035274   0.006325   0.023112  -0.000648  -0.000395
     2  C    0.011156  -0.749768   1.028878  -0.180187   0.013717   0.058716
     3  N    0.000198  -0.329411  -0.035221   0.075332  -0.000899   0.016036
     4  C   -0.018651  -2.536861   0.907110  -0.381818   0.012092  -0.274219
     5  C    0.309541   1.132913  -1.459751  -0.371282   0.000785  -0.097318
     6  O   -0.104812  -0.084364   0.115144   0.030561  -0.000027   0.000030
     7  O    8.029934  -0.097061   0.144896  -0.000674   0.000049   0.000422
     8  C   -0.097061  28.628691 -13.064053  -5.393436  -0.140536  -0.190316
     9  C    0.144896 -13.064053  18.532432  -0.148751  -0.052986  -0.138655
    10  C   -0.000674  -5.393436  -0.148751  11.855021   0.560479  -0.017009
    11  N    0.000049  -0.140536  -0.052986   0.560479   6.524369   0.306479
    12  C    0.000422  -0.190316  -0.138655  -0.017009   0.306479   5.552095
    13  N   -0.000080  -0.076122  -0.202677   0.122236   0.032759   0.209053
    14  C   -0.023279  -0.490184   0.149977   0.030347   0.001456  -0.038149
    15  C    0.000676  -0.099535   0.089971   0.004553   0.001570   0.003457
    16  N    0.000020   0.004038  -0.001906   0.000192   0.000013  -0.000069
    17  H   -0.000448  -0.200427   0.211871  -0.091011   0.001737  -0.008393
    18  H   -0.007594  -0.415938   0.134047   0.059790   0.000700  -0.022956
    19  H    0.021799   0.117581  -0.047168  -0.011375   0.000003   0.001800
    20  H    0.005569   0.300006   0.104920  -0.125162   0.004721   0.004702
    21  H   -0.015832   1.029795  -0.608084  -0.024036  -0.002205  -0.000671
    22  H    0.000153  -0.060465  -0.161541   0.600079  -0.083647   0.068225
    23  H    0.000002   0.038269   0.027137  -0.011971  -0.075498   0.452277
    24  H    0.000138  -0.024352  -0.007088  -0.003821   0.008499  -0.011316
    25  H    0.000409   0.031680  -0.044556  -0.007456   0.000155  -0.001816
    26  H   -0.000213   0.005595  -0.008988   0.014520  -0.000568   0.000808
    27  H    0.000060   0.003416  -0.002867  -0.002872  -0.000003  -0.000212
    28  H   -0.000321  -0.001417   0.003073   0.000195  -0.000010  -0.000013
    29  H    0.000003  -0.000073   0.000187   0.000017   0.000008   0.000008
    30  H   -0.000014  -0.000890   0.001123   0.000008   0.000004   0.000033
              13         14         15         16         17         18
     1  O   -0.000180   0.173631  -0.025840   0.000659   0.002471   0.013635
     2  C   -0.024970  -3.357013   0.140833  -0.032758   0.038213   0.007154
     3  N    0.013661  -0.363026  -0.000748  -0.008773   0.315594  -0.054393
     4  C   -0.032248  -0.727222  -0.110462   0.005759  -0.110919   0.542012
     5  C    0.024782   0.278816  -0.060290  -0.000558   0.020617   0.006960
     6  O    0.000092  -0.000162  -0.000445  -0.000595   0.003944   0.014622
     7  O   -0.000080  -0.023279   0.000676   0.000020  -0.000448  -0.007594
     8  C   -0.076122  -0.490184  -0.099535   0.004038  -0.200427  -0.415938
     9  C   -0.202677   0.149977   0.089971  -0.001906   0.211871   0.134047
    10  C    0.122236   0.030347   0.004553   0.000192  -0.091011   0.059790
    11  N    0.032759   0.001456   0.001570   0.000013   0.001737   0.000700
    12  C    0.209053  -0.038149   0.003457  -0.000069  -0.008393  -0.022956
    13  N    6.829241  -0.004033   0.000898   0.000018  -0.003081  -0.005702
    14  C   -0.004033  10.155202  -0.289196  -0.058094   0.115505   0.002553
    15  C    0.000898  -0.289196   6.137152   0.161814   0.002204  -0.001408
    16  N    0.000018  -0.058094   0.161814   6.607313  -0.008161  -0.000452
    17  H   -0.003081   0.115505   0.002204  -0.008161   0.462608   0.000967
    18  H   -0.005702   0.002553  -0.001408  -0.000452   0.000967   0.539664
    19  H    0.000531  -0.042293  -0.001133   0.000931  -0.004467  -0.036881
    20  H    0.010011   0.014253   0.001821  -0.000044   0.019281  -0.014460
    21  H   -0.005157  -0.017726  -0.004092   0.000414  -0.039764   0.008622
    22  H    0.016945  -0.009346   0.002382  -0.000032  -0.003183  -0.011603
    23  H   -0.115986  -0.002563   0.000026  -0.000004  -0.000836  -0.000812
    24  H    0.358371  -0.000277   0.000065  -0.000005   0.000503  -0.000754
    25  H    0.000442   0.414334   0.000163   0.013931  -0.016094  -0.000871
    26  H    0.000176   0.398827  -0.119143   0.008627  -0.001737  -0.000029
    27  H   -0.000016  -0.054762   0.450160  -0.032723  -0.000229   0.000038
    28  H   -0.000123   0.100526   0.271234  -0.133818   0.007097   0.001376
    29  H    0.000003  -0.021104  -0.022603   0.406495  -0.000682  -0.000040
    30  H   -0.000016   0.021069  -0.067464   0.395029   0.001642  -0.000019
              19         20         21         22         23         24
     1  O    0.060816  -0.000612   0.000034  -0.002771  -0.000007  -0.000068
     2  C    0.022809   0.038016  -0.046735   0.021099   0.001507   0.000539
     3  N   -0.062607   0.030708  -0.031324  -0.004134   0.000903  -0.000432
     4  C    0.310215  -0.106398  -0.023249  -0.065876  -0.014892  -0.014344
     5  C   -0.262207  -0.006764   0.044441  -0.032882  -0.003284  -0.000694
     6  O    0.176220  -0.004289  -0.001144   0.002796  -0.000018  -0.000096
     7  O    0.021799   0.005569  -0.015832   0.000153   0.000002   0.000138
     8  C    0.117581   0.300006   1.029795  -0.060465   0.038269  -0.024352
     9  C   -0.047168   0.104920  -0.608084  -0.161541   0.027137  -0.007088
    10  C   -0.011375  -0.125162  -0.024036   0.600079  -0.011971  -0.003821
    11  N    0.000003   0.004721  -0.002205  -0.083647  -0.075498   0.008499
    12  C    0.001800   0.004702  -0.000671   0.068225   0.452277  -0.011316
    13  N    0.000531   0.010011  -0.005157   0.016945  -0.115986   0.358371
    14  C   -0.042293   0.014253  -0.017726  -0.009346  -0.002563  -0.000277
    15  C   -0.001133   0.001821  -0.004092   0.002382   0.000026   0.000065
    16  N    0.000931  -0.000044   0.000414  -0.000032  -0.000004  -0.000005
    17  H   -0.004467   0.019281  -0.039764  -0.003183  -0.000836   0.000503
    18  H   -0.036881  -0.014460   0.008622  -0.011603  -0.000812  -0.000754
    19  H    0.467553  -0.000326   0.003068   0.001299   0.000070   0.000053
    20  H   -0.000326   0.512019  -0.054936  -0.000168  -0.001018   0.001279
    21  H    0.003068  -0.054936   0.607658  -0.000956   0.001662  -0.002743
    22  H    0.001299  -0.000168  -0.000956   0.564320   0.000435   0.001654
    23  H    0.000070  -0.001018   0.001662   0.000435   0.531010  -0.001387
    24  H    0.000053   0.001279  -0.002743   0.001654  -0.001387   0.391549
    25  H    0.001773  -0.000614   0.004033  -0.000400  -0.000073  -0.000269
    26  H    0.000834  -0.000286   0.000598   0.000378   0.000078   0.000051
    27  H    0.000594   0.000054  -0.000080  -0.000339  -0.000008  -0.000007
    28  H   -0.003845   0.000022  -0.000081   0.000026   0.000000   0.000009
    29  H   -0.000040   0.000003   0.000000   0.000004   0.000000   0.000000
    30  H    0.000124   0.000009  -0.000096   0.000027   0.000000   0.000003
              25         26         27         28         29         30
     1  O    0.014236  -0.001195   0.006993  -0.014915   0.000096  -0.000248
     2  C   -0.215378   0.004741  -0.039532   0.001281  -0.003612  -0.005097
     3  N    0.015885  -0.000271   0.004072   0.000887   0.000042  -0.002516
     4  C    0.027212   0.024584  -0.007868   0.001328  -0.000155  -0.002103
     5  C    0.018785  -0.006300   0.006724  -0.003554  -0.000233  -0.000766
     6  O    0.000507  -0.001169   0.000028   0.001121  -0.000043  -0.000044
     7  O    0.000409  -0.000213   0.000060  -0.000321   0.000003  -0.000014
     8  C    0.031680   0.005595   0.003416  -0.001417  -0.000073  -0.000890
     9  C   -0.044556  -0.008988  -0.002867   0.003073   0.000187   0.001123
    10  C   -0.007456   0.014520  -0.002872   0.000195   0.000017   0.000008
    11  N    0.000155  -0.000568  -0.000003  -0.000010   0.000008   0.000004
    12  C   -0.001816   0.000808  -0.000212  -0.000013   0.000008   0.000033
    13  N    0.000442   0.000176  -0.000016  -0.000123   0.000003  -0.000016
    14  C    0.414334   0.398827  -0.054762   0.100526  -0.021104   0.021069
    15  C    0.000163  -0.119143   0.450160   0.271234  -0.022603  -0.067464
    16  N    0.013931   0.008627  -0.032723  -0.133818   0.406495   0.395029
    17  H   -0.016094  -0.001737  -0.000229   0.007097  -0.000682   0.001642
    18  H   -0.000871  -0.000029   0.000038   0.001376  -0.000040  -0.000019
    19  H    0.001773   0.000834   0.000594  -0.003845  -0.000040   0.000124
    20  H   -0.000614  -0.000286   0.000054   0.000022   0.000003   0.000009
    21  H    0.004033   0.000598  -0.000080  -0.000081   0.000000  -0.000096
    22  H   -0.000400   0.000378  -0.000339   0.000026   0.000004   0.000027
    23  H   -0.000073   0.000078  -0.000008   0.000000   0.000000   0.000000
    24  H   -0.000269   0.000051  -0.000007   0.000009   0.000000   0.000003
    25  H    0.713851  -0.068611   0.025344  -0.063922   0.003372   0.005148
    26  H   -0.068611   0.508016  -0.016801   0.020651   0.000900  -0.001262
    27  H    0.025344  -0.016801   0.536215  -0.077491  -0.013105   0.011344
    28  H   -0.063922   0.020651  -0.077491   0.746212   0.001755  -0.006399
    29  H    0.003372   0.000900  -0.013105   0.001755   0.469117  -0.063203
    30  H    0.005148  -0.001262   0.011344  -0.006399  -0.063203   0.514421
 Mulliken charges:
               1
     1  O   -0.309275
     2  C   -0.060785
     3  N    0.042049
     4  C    0.421952
     5  C   -0.096877
     6  O   -0.132558
     7  O   -0.255595
     8  C   -1.301500
     9  C    0.527199
    10  C   -0.605582
    11  N   -0.112567
    12  C    0.127364
    13  N   -0.148828
    14  C   -0.358066
    15  C   -0.466620
    16  N   -0.327263
    17  H    0.285180
    18  H    0.241774
    19  H    0.284271
    20  H    0.267682
    21  H    0.178585
    22  H    0.157521
    23  H    0.174982
    24  H    0.304940
    25  H    0.128800
    26  H    0.237188
    27  H    0.203875
    28  H    0.149115
    29  H    0.242882
    30  H    0.200152
 Sum of Mulliken charges =   0.00000
 Mulliken charges with hydrogens summed into heavy atoms:
               1
     1  O   -0.309275
     2  C   -0.060785
     3  N    0.327230
     4  C    0.663726
     5  C   -0.096877
     6  O    0.151713
     7  O   -0.255595
     8  C   -0.855232
     9  C    0.527199
    10  C   -0.448061
    11  N   -0.112567
    12  C    0.302346
    13  N    0.156113
    14  C    0.007922
    15  C   -0.113629
    16  N    0.115772
 APT charges:
               1
     1  O   -0.255684
     2  C   -0.062641
     3  N   -0.206567
     4  C    0.061593
     5  C   -0.756053
     6  O    0.130115
     7  O    0.219198
     8  C   -1.973994
     9  C    0.501593
    10  C   -0.661706
    11  N   -0.350798
    12  C   -0.230649
    13  N   -0.572599
    14  C   -0.524460
    15  C   -0.598524
    16  N   -1.781354
    17  H    0.385878
    18  H    0.395998
    19  H    0.165394
    20  H    0.706401
    21  H    0.308100
    22  H    0.239768
    23  H    1.037808
    24  H    0.747500
    25  H    0.289181
    26  H    0.367503
    27  H    0.434703
    28  H    0.365831
    29  H    1.113515
    30  H    0.504949
 Sum of APT charges =   0.00000
 APT charges with hydrogens summed into heavy atoms:
               1
     1  O   -0.255684
     2  C   -0.062641
     3  N    0.179311
     4  C    0.457590
     5  C   -0.756053
     6  O    0.295510
     7  O    0.219198
     8  C   -0.959493
     9  C    0.501593
    10  C   -0.421938
    11  N   -0.350798
    12  C    0.807159
    13  N    0.174901
    14  C    0.132224
    15  C    0.202011
    16  N   -0.162890
 Electronic spatial extent (au):  <R**2>=           4815.6139
 Charge=              0.0000 electrons
 Dipole moment (field-independent basis, Debye):
    X=              2.9998    Y=              3.8576    Z=             -2.6960  Tot=              5.5811
 Quadrupole moment (field-independent basis, Debye-Ang):
   XX=            -91.8584   YY=           -116.8577   ZZ=            -93.2346
   XY=              4.4325   XZ=             10.2281   YZ=            -20.1124
 Traceless Quadrupole moment (field-independent basis, Debye-Ang):
   XX=              8.7918   YY=            -16.2075   ZZ=              7.4156
   XY=              4.4325   XZ=             10.2281   YZ=            -20.1124
 Octapole moment (field-independent basis, Debye-Ang**2):
  XXX=            199.1168  YYY=            114.8348  ZZZ=             14.4406  XYY=             24.1555
  XXY=            -10.6878  XXZ=             11.9250  XZZ=             13.5711  YZZ=             57.9722
  YYZ=             12.6166  XYZ=             15.2060
 Hexadecapole moment (field-independent basis, Debye-Ang**3):
 XXXX=          -2844.8503 YYYY=          -2093.1180 ZZZZ=          -1509.4686 XXXY=            456.5363
 XXXZ=           -587.1669 YYYX=            324.0421 YYYZ=           -252.5928 ZZZX=           -681.2575
 ZZZY=           -219.8307 XXYY=           -835.1105 XXZZ=           -619.9713 YYZZ=           -639.3350
 XXYZ=           -124.5848 YYXZ=           -221.2609 ZZXY=             -0.7723
 N-N= 1.109635088449D+03 E-N=-4.079413196620D+03  KE= 7.934673561239D+02
  Exact polarizability:   0.000   0.000   0.000   0.000   0.000   0.000
 Approx polarizability: 172.925 -11.501 206.778   0.582  -6.083 236.890
 Calling FoFJK, ICntrl=    100147 FMM=F ISym2X=0 I1Cent= 0 IOpClX= 0 NMat=1 NMatS=1 NMatT=0.
 -------------------------------------------------------------------
 Center     Atomic                   Forces (Hartrees/Bohr)
 Number     Number              X              Y              Z
 -------------------------------------------------------------------
      1        8           0.001119231   -0.004475224    0.002013853
      2        6          -0.000485198    0.004692197    0.000917556
      3        7          -0.004303453   -0.004303485   -0.001065901
      4        6          -0.003156146    0.002839258   -0.004413028
      5        6           0.003360386   -0.003486438    0.002467260
      6        8          -0.000145086   -0.001564726   -0.001555600
      7        8          -0.000778258   -0.000009341   -0.003244370
      8        6          -0.004960571    0.001684259    0.002070944
      9        6           0.007076136   -0.005031567   -0.004662553
     10        6          -0.002745930    0.003543011    0.006198948
     11        7           0.000149956   -0.001659972   -0.000504448
     12        6          -0.004890044    0.005778016    0.003921908
     13        7           0.003230322   -0.002753232   -0.001555588
     14        6          -0.000946932   -0.000278583    0.000387794
     15        6           0.001595491    0.000652325    0.001862453
     16        7           0.000287522   -0.001961108    0.000235289
     17        1           0.000958802    0.002475971   -0.001491095
     18        1          -0.000454196   -0.000456707    0.001613456
     19        1           0.000118372    0.000448849    0.004038271
     20        1           0.000669474   -0.002343618    0.000154567
     21        1           0.002561886    0.000310157   -0.003167980
     22        1           0.000734107    0.000245931   -0.000726857
     23        1          -0.000847918    0.002104120   -0.000512501
     24        1          -0.000049870    0.000350526   -0.002010160
     25        1           0.001104723    0.001637185   -0.001162738
     26        1          -0.000917778    0.001014483    0.000019641
     27        1           0.000638408   -0.000037805   -0.000046878
     28        1          -0.000261934   -0.001868299   -0.000731425
     29        1           0.000465248    0.000161038    0.002544314
     30        1           0.000873248    0.002292778   -0.001595130
 -------------------------------------------------------------------
 Cartesian Forces:  Max     0.007076136 RMS     0.002480641
 FormGI is forming the generalized inverse of G from B-inverse, IUseBI=4.
 GSVD:  received Info=                   1 from GESDD.

 GradGradGradGradGradGradGradGradGradGradGradGradGradGradGradGradGradGrad
 Berny optimization.
 Internal  Forces:  Max     0.008678261 RMS     0.001801238
 Search for a local minimum.
 Step number   1 out of a maximum of  160
 All quantities printed in internal units (Hartrees-Bohrs-Radians)
 Mixed Optimization -- RFO/linear search
 Second derivative matrix not updated -- analytic derivatives used.
 ITU=  0
     Eigenvalues ---   -0.00018   0.00025   0.00154   0.00224   0.00257
     Eigenvalues ---    0.00275   0.00437   0.00506   0.00872   0.01001
     Eigenvalues ---    0.01929   0.01964   0.02436   0.03266   0.03300
     Eigenvalues ---    0.03654   0.03840   0.03995   0.04245   0.04280
     Eigenvalues ---    0.04549   0.04811   0.05107   0.05135   0.05251
     Eigenvalues ---    0.06131   0.06411   0.06964   0.07594   0.08213
     Eigenvalues ---    0.08271   0.10224   0.10764   0.10819   0.11619
     Eigenvalues ---    0.11886   0.12028   0.13534   0.15065   0.15636
     Eigenvalues ---    0.16607   0.17479   0.18385   0.18820   0.19553
     Eigenvalues ---    0.20668   0.21047   0.22051   0.22930   0.23298
     Eigenvalues ---    0.23923   0.24743   0.26517   0.28720   0.30046
     Eigenvalues ---    0.30991   0.31468   0.32296   0.33154   0.33384
     Eigenvalues ---    0.33518   0.33880   0.33903   0.34037   0.34147
     Eigenvalues ---    0.34771   0.36179   0.36826   0.37467   0.37655
     Eigenvalues ---    0.40582   0.41206   0.45063   0.45266   0.45434
     Eigenvalues ---    0.45609   0.47722   0.48126   0.48247   0.49160
     Eigenvalues ---    0.58719   0.61427   0.79130   0.89182
 RFO step:  Lambda=-3.80735479D-03 EMin=-1.79696895D-04
 Linear search not attempted -- first point.
 Iteration  1 RMS(Cart)=  0.19795715 RMS(Int)=  0.04657559
 Iteration  2 RMS(Cart)=  0.12122181 RMS(Int)=  0.00884039
 Iteration  3 RMS(Cart)=  0.01546202 RMS(Int)=  0.00026553
 Iteration  4 RMS(Cart)=  0.00020634 RMS(Int)=  0.00024768
 Iteration  5 RMS(Cart)=  0.00000004 RMS(Int)=  0.00024768
 Variable       Old X    -DE/DX   Delta X   Delta X   Delta X     New X
                                 (Linear)    (Quad)   (Total)
    R1        2.32689   0.00414   0.00000   0.00838   0.00838   2.33528
    R2        2.55249   0.00520   0.00000   0.00476   0.00476   2.55725
    R3        2.84691   0.00345   0.00000   0.00763   0.00763   2.85454
    R4        2.76559   0.00070   0.00000   0.00456   0.00456   2.77015
    R5        1.89852   0.00302   0.00000   0.00740   0.00740   1.90592
    R6        2.90505   0.00443   0.00000   0.01701   0.01701   2.92206
    R7        2.88017   0.00117   0.00000  -0.00257  -0.00257   2.87760
    R8        2.06327   0.00160   0.00000   0.00805   0.00805   2.07133
    R9        2.52649   0.00235   0.00000  -0.00714  -0.00714   2.51936
   R10        2.26968   0.00312   0.00000   0.00500   0.00500   2.27468
   R11        1.85437   0.00370   0.00000   0.01494   0.01494   1.86931
   R12        2.82850   0.00074   0.00000  -0.00457  -0.00457   2.82394
   R13        2.06160   0.00105   0.00000   0.00474   0.00474   2.06634
   R14        2.05991   0.00400   0.00000   0.01281   0.01281   2.07273
   R15        2.58110   0.00653   0.00000   0.01504   0.01504   2.59614
   R16        2.60947   0.00380   0.00000   0.00578   0.00579   2.61526
   R17        2.61455  -0.00003   0.00000  -0.00574  -0.00576   2.60880
   R18        2.04034  -0.00076   0.00000  -0.00183  -0.00183   2.03851
   R19        2.47828   0.00003   0.00000  -0.00149  -0.00149   2.47678
   R20        2.56878   0.00868   0.00000   0.01937   0.01938   2.58816
   R21        2.03357   0.00228   0.00000   0.00553   0.00553   2.03911
   R22        1.90088   0.00194   0.00000   0.00450   0.00450   1.90538
   R23        2.87562   0.00418   0.00000   0.01236   0.01236   2.88798
   R24        2.06367   0.00209   0.00000   0.00583   0.00583   2.06950
   R25        2.06603   0.00116   0.00000   0.00416   0.00416   2.07019
   R26        2.77105   0.00172   0.00000  -0.00292  -0.00292   2.76814
   R27        2.06184  -0.00030   0.00000  -0.00075  -0.00075   2.06108
   R28        2.07378   0.00162   0.00000   0.00530   0.00530   2.07908
   R29        1.91429   0.00193   0.00000   0.00194   0.00194   1.91623
   R30        1.91548   0.00244   0.00000   0.00322   0.00322   1.91870
    A1        2.10901  -0.00006   0.00000   0.00032   0.00032   2.10933
    A2        2.14302  -0.00166   0.00000  -0.00930  -0.00930   2.13372
    A3        2.03098   0.00174   0.00000   0.00898   0.00898   2.03997
    A4        2.12095   0.00370   0.00000   0.01385   0.01223   2.13318
    A5        2.09200  -0.00186   0.00000  -0.01427  -0.01591   2.07609
    A6        2.06136  -0.00185   0.00000  -0.01291  -0.01456   2.04680
    A7        1.93840   0.00036   0.00000   0.00760   0.00761   1.94600
    A8        1.93120  -0.00217   0.00000  -0.00452  -0.00453   1.92667
    A9        1.87267   0.00003   0.00000  -0.00300  -0.00299   1.86968
   A10        1.93336   0.00244   0.00000   0.00165   0.00165   1.93501
   A11        1.86974  -0.00102   0.00000  -0.00482  -0.00481   1.86493
   A12        1.91642   0.00032   0.00000   0.00295   0.00295   1.91937
   A13        1.99609   0.00143   0.00000   0.00801   0.00800   2.00409
   A14        2.15758  -0.00205   0.00000  -0.01719  -0.01720   2.14038
   A15        2.12950   0.00062   0.00000   0.00913   0.00911   2.13861
   A16        1.91934   0.00279   0.00000   0.00886   0.00886   1.92820
   A17        1.97644  -0.00266   0.00000  -0.01162  -0.01158   1.96486
   A18        1.89597  -0.00158   0.00000  -0.02029  -0.02021   1.87576
   A19        1.90135   0.00141   0.00000  -0.00008  -0.00004   1.90131
   A20        1.92284   0.00335   0.00000   0.02281   0.02265   1.94549
   A21        1.92290   0.00005   0.00000   0.00911   0.00904   1.93194
   A22        1.83903  -0.00043   0.00000   0.00039   0.00018   1.83921
   A23        2.33762  -0.00110   0.00000  -0.00411  -0.00412   2.33350
   A24        2.11454   0.00365   0.00000   0.01074   0.01073   2.12527
   A25        1.83096  -0.00254   0.00000  -0.00658  -0.00657   1.82440
   A26        1.93095   0.00159   0.00000   0.00432   0.00430   1.93525
   A27        2.24409  -0.00132   0.00000  -0.00897  -0.00897   2.23512
   A28        2.10814  -0.00027   0.00000   0.00463   0.00462   2.11276
   A29        1.83770   0.00197   0.00000   0.00531   0.00529   1.84300
   A30        1.94768  -0.00153   0.00000  -0.00437  -0.00435   1.94333
   A31        2.20021   0.00031   0.00000   0.00226   0.00225   2.20245
   A32        2.13529   0.00122   0.00000   0.00212   0.00211   2.13740
   A33        1.87746   0.00052   0.00000   0.00138   0.00133   1.87878
   A34        2.19363   0.00018   0.00000   0.00442   0.00431   2.19795
   A35        2.21207  -0.00070   0.00000  -0.00565  -0.00575   2.20632
   A36        1.95848   0.00028   0.00000   0.00370   0.00368   1.96216
   A37        1.91696   0.00067   0.00000   0.00823   0.00821   1.92517
   A38        1.88808  -0.00070   0.00000  -0.01051  -0.01050   1.87758
   A39        1.93139  -0.00051   0.00000   0.00133   0.00129   1.93268
   A40        1.89544   0.00053   0.00000   0.00417   0.00418   1.89962
   A41        1.87074  -0.00030   0.00000  -0.00784  -0.00783   1.86291
   A42        1.90536   0.00139   0.00000   0.00741   0.00738   1.91274
   A43        1.89372   0.00000   0.00000  -0.00128  -0.00128   1.89244
   A44        1.91173  -0.00090   0.00000  -0.00564  -0.00573   1.90601
   A45        1.90259  -0.00103   0.00000  -0.00775  -0.00772   1.89487
   A46        1.97626   0.00059   0.00000   0.01275   0.01275   1.98902
   A47        1.87238  -0.00012   0.00000  -0.00625  -0.00625   1.86613
   A48        1.91889   0.00104   0.00000   0.01420   0.01387   1.93276
   A49        1.91673   0.00187   0.00000   0.02281   0.02248   1.93921
   A50        1.84682   0.00005   0.00000   0.01975   0.01910   1.86593
    D1        0.13135   0.00214   0.00000   0.08646   0.08635   0.21770
    D2        3.12748   0.00191   0.00000  -0.02323  -0.02313   3.10435
    D3       -2.99099   0.00113   0.00000   0.08655   0.08644  -2.90454
    D4        0.00514   0.00091   0.00000  -0.02314  -0.02304  -0.01789
    D5        0.65326  -0.00038   0.00000  -0.02628  -0.02630   0.62696
    D6        2.80934  -0.00036   0.00000  -0.01596  -0.01593   2.79340
    D7       -1.43736  -0.00075   0.00000  -0.02680  -0.02680  -1.46417
    D8       -2.50800   0.00066   0.00000  -0.02625  -0.02627  -2.53427
    D9       -0.35193   0.00069   0.00000  -0.01593  -0.01591  -0.36783
   D10        1.68456   0.00029   0.00000  -0.02677  -0.02677   1.65778
   D11       -1.42733   0.00174   0.00000   0.02997   0.03001  -1.39732
   D12        2.70115  -0.00011   0.00000   0.02570   0.02575   2.72691
   D13        0.61075   0.00073   0.00000   0.02654   0.02658   0.63733
   D14        1.85726   0.00197   0.00000   0.13796   0.13791   1.99517
   D15       -0.29744   0.00012   0.00000   0.13369   0.13365  -0.16379
   D16       -2.38785   0.00096   0.00000   0.13453   0.13448  -2.25337
   D17        1.04825   0.00103   0.00000   0.00657   0.00654   1.05479
   D18       -2.09900   0.00056   0.00000  -0.00289  -0.00288  -2.10187
   D19       -3.08148   0.00024   0.00000   0.00732   0.00731  -3.07416
   D20        0.05447  -0.00023   0.00000  -0.00214  -0.00211   0.05236
   D21       -0.99163   0.00140   0.00000   0.00890   0.00888  -0.98275
   D22        2.14432   0.00093   0.00000  -0.00057  -0.00054   2.14377
   D23       -1.23396   0.00211   0.00000   0.15095   0.15099  -1.08297
   D24        2.90702   0.00077   0.00000   0.14434   0.14430   3.05132
   D25        0.91225   0.00138   0.00000   0.15464   0.15463   1.06688
   D26        2.89162   0.00146   0.00000   0.14324   0.14329   3.03491
   D27        0.74942   0.00012   0.00000   0.13663   0.13660   0.88601
   D28       -1.24535   0.00072   0.00000   0.14693   0.14693  -1.09842
   D29        0.82997   0.00102   0.00000   0.14633   0.14637   0.97634
   D30       -1.31223  -0.00032   0.00000   0.13972   0.13968  -1.17255
   D31        2.97618   0.00029   0.00000   0.15002   0.15002   3.12620
   D32        0.01010   0.00044   0.00000  -0.03605  -0.03611  -0.02601
   D33       -3.12594   0.00091   0.00000  -0.02667  -0.02661   3.13064
   D34       -0.47110   0.00101   0.00000   0.41091   0.41095  -0.06015
   D35        2.68427   0.00098   0.00000   0.40527   0.40532   3.08959
   D36        1.65614  -0.00044   0.00000   0.39328   0.39313   2.04927
   D37       -1.47168  -0.00047   0.00000   0.38764   0.38750  -1.08418
   D38       -2.60535   0.00103   0.00000   0.41246   0.41255  -2.19280
   D39        0.55002   0.00100   0.00000   0.40682   0.40692   0.95694
   D40       -3.13537   0.00049   0.00000   0.00464   0.00471  -3.13067
   D41        0.00835   0.00030   0.00000   0.01422   0.01422   0.02257
   D42       -0.00598   0.00055   0.00000   0.00973   0.00975   0.00377
   D43        3.13774   0.00037   0.00000   0.01931   0.01926  -3.12618
   D44        3.13558  -0.00050   0.00000  -0.00621  -0.00620   3.12939
   D45       -0.01287   0.00006   0.00000   0.01726   0.01735   0.00448
   D46        0.00425  -0.00052   0.00000  -0.01039  -0.01037  -0.00612
   D47        3.13898   0.00004   0.00000   0.01308   0.01318  -3.13102
   D48        0.00540  -0.00036   0.00000  -0.00524  -0.00525   0.00015
   D49       -3.13813  -0.00020   0.00000  -0.01397  -0.01401   3.13104
   D50       -0.00257   0.00003   0.00000  -0.00163  -0.00163  -0.00420
   D51        3.13619   0.00008   0.00000   0.00178   0.00183   3.13803
   D52       -0.00106   0.00030   0.00000   0.00772   0.00776   0.00669
   D53       -3.13570  -0.00026   0.00000  -0.01611  -0.01599   3.13150
   D54       -3.13995   0.00026   0.00000   0.00446   0.00445  -3.13551
   D55        0.00859  -0.00031   0.00000  -0.01937  -0.01930  -0.01070
   D56       -3.09075   0.00093   0.00000   0.03548   0.03547  -3.05527
   D57       -1.01931   0.00049   0.00000   0.02965   0.02965  -0.98966
   D58        1.01946  -0.00015   0.00000   0.01831   0.01833   1.03779
   D59        1.04446   0.00024   0.00000   0.02119   0.02117   1.06564
   D60        3.11590  -0.00020   0.00000   0.01536   0.01535   3.13125
   D61       -1.12852  -0.00084   0.00000   0.00402   0.00403  -1.12449
   D62       -1.00442   0.00058   0.00000   0.02744   0.02743  -0.97699
   D63        1.06702   0.00014   0.00000   0.02161   0.02160   1.08862
   D64        3.10579  -0.00050   0.00000   0.01027   0.01029   3.11607
   D65        3.02936  -0.00099   0.00000  -0.04098  -0.04119   2.98816
   D66       -1.22858   0.00075   0.00000   0.00438   0.00451  -1.22407
   D67        0.96346  -0.00120   0.00000  -0.03922  -0.03940   0.92406
   D68        2.98871   0.00054   0.00000   0.00614   0.00631   2.99501
   D69       -1.11917  -0.00073   0.00000  -0.03414  -0.03426  -1.15343
   D70        0.90608   0.00101   0.00000   0.01122   0.01144   0.91752
         Item               Value     Threshold  Converged?
 Maximum Force            0.008678     0.000450     NO 
 RMS     Force            0.001801     0.000300     NO 
 Maximum Displacement     2.014055     0.001800     NO 
 RMS     Displacement     0.294582     0.001200     NO 
 Predicted change in Energy=-3.489776D-03
 GradGradGradGradGradGradGradGradGradGradGradGradGradGradGradGradGradGrad

                          Input orientation:                          
 ---------------------------------------------------------------------
 Center     Atomic      Atomic             Coordinates (Angstroms)
 Number     Number       Type             X           Y           Z
 ---------------------------------------------------------------------
      1          8           0        0.584919   -1.629119    1.619934
      2          6           0        0.870822   -0.635045    0.943755
      3          7           0        0.341954   -0.458906   -0.289342
      4          6           0       -0.779047   -1.265137   -0.781497
      5          6           0       -0.304648   -2.648554   -1.283603
      6          8           0        0.292160   -3.404210   -0.361546
      7          8           0       -0.475078   -3.021849   -2.415203
      8          6           0       -1.528997   -0.518593   -1.876509
      9          6           0       -2.130647    0.760078   -1.390568
     10          6           0       -2.200050    1.369489   -0.161267
     11          7           0       -2.893011    2.560816   -0.241063
     12          6           0       -3.243528    2.681052   -1.498243
     13          7           0       -2.802701    1.619135   -2.242417
     14          6           0        1.795214    0.446465    1.451313
     15          6           0        2.929591   -0.111814    2.309840
     16          7           0        3.715683    0.993047    2.863989
     17          1           0        0.569415    0.378707   -0.803030
     18          1           0       -1.444165   -1.447264    0.070490
     19          1           0        0.347091   -2.920586    0.499616
     20          1           0       -2.291811   -1.194995   -2.271797
     21          1           0       -0.844448   -0.331590   -2.712858
     22          1           0       -1.785309    1.028608    0.774388
     23          1           0       -3.805409    3.495928   -1.927914
     24          1           0       -2.952069    1.476841   -3.229371
     25          1           0        2.193396    1.029711    0.614302
     26          1           0        1.197269    1.134422    2.059008
     27          1           0        2.492299   -0.675070    3.135127
     28          1           0        3.518628   -0.823859    1.712783
     29          1           0        4.381322    0.652072    3.548758
     30          1           0        4.251121    1.460522    2.138959
 ---------------------------------------------------------------------
                    Distance matrix (angstroms):
                    1          2          3          4          5
     1  O    0.000000
     2  C    1.235776   0.000000
     3  N    2.252502   1.353239   0.000000
     4  C    2.785635   2.468923   1.465902   0.000000
     5  C    3.203297   3.224450   2.490223   1.546288   0.000000
     6  O    2.676364   3.115596   2.946610   2.428884   1.333186
     7  O    4.398366   4.334845   3.428630   2.418145   1.203708
     8  C    4.234032   3.704941   2.454205   1.522762   2.527311
     9  C    4.705920   4.050216   2.968564   2.509838   3.868395
    10  C    4.463225   3.830076   3.133882   3.056990   4.582232
    11  N    5.754552   5.077771   4.425613   4.404411   5.909657
    12  C    6.554206   5.821317   4.916956   4.707420   6.089974
    13  N    6.078231   5.359832   4.245187   3.814248   5.037138
    14  C    2.408588   1.510556   2.441627   3.813378   4.633393
    15  C    2.876746   2.525567   3.684031   4.963922   5.459688
    16  N    4.269088   3.798844   4.840838   6.212212   6.828386
    17  H    3.146801   2.042008   1.008567   2.126273   3.187357
    18  H    2.559499   2.604123   2.072812   1.096099   2.138963
    19  H    1.726141   2.386473   2.585025   2.376962   1.917978
    20  H    4.858973   4.544840   3.377673   2.124704   2.652956
    21  H    4.743391   4.050316   2.701331   2.146146   2.775334
    22  H    3.660115   3.138703   2.805257   2.948663   4.466453
    23  H    7.624192   6.868664   5.960389   5.756811   7.101064
    24  H    6.758182   6.040656   4.820940   4.269959   5.273872
    25  H    3.266171   2.151547   2.541730   4.006246   4.834450
    26  H    2.864423   2.116924   2.963951   4.210960   5.266850
    27  H    2.616126   2.726334   4.049407   5.137103   5.589520
    28  H    3.043635   2.763681   3.772659   4.988604   5.188958
    29  H    4.830824   4.557007   5.681705   7.004014   7.496943
    30  H    4.822479   4.152871   4.986225   6.423463   7.025203
                    6          7          8          9         10
     6  O    0.000000
     7  O    2.225390   0.000000
     8  C    3.733432   2.768976   0.000000
     9  C    4.926477   4.253675   1.494363   0.000000
    10  C    5.388824   5.228728   2.637654   1.373819   0.000000
    11  N    6.763237   6.460607   3.744059   2.268308   1.380516
    12  C    7.129066   6.405327   3.649716   2.222665   2.143956
    13  N    6.192725   5.194845   2.515172   1.383938   2.180985
    14  C    4.513683   5.668631   4.801679   4.856648   4.406192
    15  C    4.993217   6.510461   6.129437   6.329236   5.883354
    16  N    6.438980   7.845492   7.229389   7.234301   6.655058
    17  H    3.818669   3.905617   2.522070   2.789441   3.010555
    18  H    2.651626   3.097921   2.158803   2.734648   2.925605
    19  H    0.989197   3.030245   3.864616   4.822786   5.032836
    20  H    3.899563   2.580403   1.093461   2.150546   3.322549
    21  H    4.032560   2.731763   1.096840   2.143478   3.352900
    22  H    5.025545   5.319436   3.080062   2.208710   1.078731
    23  H    8.176520   7.335528   4.615308   3.252452   3.196867
    24  H    6.524882   5.199669   2.799486   2.137680   3.160746
    25  H    4.922056   5.719597   4.738945   4.773841   4.474296
    26  H    5.222785   6.331658   5.064907   4.807778   4.065299
    27  H    4.951317   6.717057   6.427426   6.626703   6.088068
    28  H    4.622894   6.149888   6.201188   6.637315   6.405164
    29  H    6.961691   8.523564   8.107765   8.174004   7.589033
    30  H    6.752149   7.947893   7.310996   7.326333   6.849595
                   11         12         13         14         15
    11  N    0.000000
    12  C    1.310657   0.000000
    13  N    2.213671   1.369595   0.000000
    14  C    5.414247   6.251575   6.013288   0.000000
    15  C    6.895850   7.772323   7.521862   1.528252   0.000000
    16  N    7.468205   8.385050   8.304018   2.445937   1.464835
    17  H    4.131077   4.508065   3.870615   2.566951   3.937131
    18  H    4.273280   4.768817   4.074059   3.998308   5.091941
    19  H    6.410354   6.947110   6.168388   3.786796   4.223200
    20  H    4.311780   4.065451   2.860280   5.767124   7.030485
    21  H    4.321157   4.038179   2.803818   4.991343   6.286427
    22  H    2.146114   3.165727   3.238043   3.690158   5.088070
    23  H    2.133628   1.079050   2.150973   7.217020   8.736966
    24  H    3.179383   2.128821   1.008283   6.745900   8.234112
    25  H    5.380285   6.062171   5.785262   1.095131   2.172536
    26  H    4.904622   5.896336   5.893807   1.095498   2.148712
    27  H    7.132404   8.101320   7.887863   2.139859   1.090679
    28  H    7.508838   8.265703   7.846721   2.156906   1.100204
    29  H    8.421518   9.366286   9.278098   3.336090   2.055714
    30  H    7.610110   8.419543   8.305301   2.744567   2.061040
                   16         17         18         19         20
    16  N    0.000000
    17  H    4.870672   0.000000
    18  H    6.354746   2.855120   0.000000
[...]
 0001550,-0.00005569,0.00007777,0.00003257,-0.00007057,0.00009110,-0.00
 011171,0.00004161,0.00005832,0.00011699,-0.00006381,-0.00083050,0.0001
 3211,0.00059292,-0.00007726,-0.00010499,0.00038234,0.00119098,0.000724
 43,-0.00016547,-0.00058384,0.00068428,-0.01575459,0.05374351,0.0000353
 5,-0.00011201,0.00012619,-0.00010336,0.00009645,-0.00029825,0.00019879
 ,-0.00010175,0.00020065,-0.00003126,-0.00012547,-0.00027850,-0.0000554
 4,0.00029299,0.00025205,0.00008333,-0.00017531,-0.00000995,0.00005379,
 -0.00016129,-0.00016436,0.00004941,-0.00001206,0.00076219,0.00278797,-
 0.00582748,-0.00842292,-0.00092279,0.00096244,-0.00121290,0.00019553,-
 0.00187312,0.00017286,-0.00187706,0.00382985,-0.00669714,-0.03152937,-
 0.04592039,-0.44944272,0.00001847,-0.00000226,0.00003791,-0.00005385,0
 .00000624,-0.00002326,0.00003893,0.00001178,0.00002774,-0.00011016,0.0
 0004565,-0.00000570,0.00001561,0.00000373,0.00000831,-0.00002556,0.000
 04744,-0.00001394,-0.00011245,0.00023235,0.00015018,-0.00001688,0.0003
 0083,0.00013355,-0.00005531,-0.00038692,-0.00005414,0.00024898,-0.0000
 8567,0.00017254,0.03116465,0.04896075,0.46458995,-0.00121635,-0.005654
 28,-0.00279047,-0.00477995,-0.00681529,0.01946699,0.00025045,0.0002256
 3,-0.00136767,0.00010152,0.00024331,0.00020477,0.00042768,-0.00038613,
 0.00055457,-0.00032234,-0.00009938,-0.00093057,-0.00013857,0.00007219,
 -0.00031201,0.00005612,0.00001019,-0.00000054,0.00004087,-0.00002359,-
 0.00010591,0.00010052,0.00001511,0.00008853,0.00001600,0.00008525,-0.0
 0001628,-0.00003068,0.00002716,-0.00002055,0.00000613,0.00001320,0.000
 03066,-0.07137879,-0.04571762,0.05244119,0.00801563,0.01706704,-0.0222
 8174,0.00188882,0.00061947,0.00126272,-0.00099301,-0.00073529,-0.00120
 397,0.00007286,0.00001711,0.00005020,0.00015677,0.00075242,0.00097773,
 0.00001395,-0.00000031,0.00001326,-0.00002147,-0.00000549,-0.00002384,
 -0.00002539,-0.00005576,0.00003582,-0.00000876,-0.00000153,-0.00000042
 ,-0.00001337,-0.00001631,-0.00000798,0.07641154,-0.00427876,-0.0047837
 7,-0.00293210,-0.00399373,-0.01468046,0.02238868,0.00190833,0.00096317
 ,-0.00053555,0.00003823,0.00004826,-0.00037947,0.00036240,-0.00046114,
 0.00051824,-0.00021506,-0.00005827,-0.00087550,-0.00010766,0.00009913,
 -0.00026374,0.00001302,0.00004131,0.00001131,0.00000662,0.00002623,0.0
 0001050,0.00000977,0.00002232,0.00000914,0.00000025,-0.00001791,-0.000
 01913,-0.00000233,-0.00000821,0.00002414,0.00000293,0.00000350,-0.0000
 2745,-0.04594079,-0.13604665,0.11083709,-0.00366286,-0.00774669,0.0092
 5282,0.00007886,0.00079193,-0.00112003,-0.00141913,0.00052890,-0.00072
 294,0.00020331,0.00011757,0.00009647,-0.00001547,0.00063567,0.00092728
 ,0.00002472,-0.00002043,0.00001119,-0.00001904,-0.00001625,-0.00003480
 ,-0.00000781,-0.00000827,0.00000305,0.00000045,0.00000071,0.00000154,-
 0.00001012,0.00000069,-0.00000357,0.05008904,0.14894769,-0.00143178,-0
 .00358394,0.00049538,-0.00423225,-0.00710530,0.00779556,-0.00065708,-0
 .00078557,-0.00031479,0.00025739,0.00004404,0.00067583,-0.00001145,0.0
 0001473,-0.00010509,0.00005829,-0.00004303,-0.00006547,0.00000606,0.00
 000105,0.00006246,0.00005890,0.00010631,0.00001458,-0.00000912,0.00002
 012,0.00006027,-0.00006892,0.00000625,-0.00005604,-0.00001400,-0.00006
 701,0.00001414,0.00001574,-0.00001279,0.00001185,-0.00000837,-0.000001
 22,-0.00001906,0.05580954,0.11477514,-0.18978030,0.00466667,0.00996138
 ,-0.01308226,0.00058829,-0.00060651,0.00117767,-0.00022287,-0.00054341
 ,0.00025302,-0.00008409,-0.00010378,0.00000977,-0.00007066,0.00005365,
 0.00015301,0.00001715,-0.00002777,0.00002445,0.00000568,-0.00000144,0.
 00000824,0.00001753,0.00002504,-0.00002920,0.00000712,0.00000124,-0.00
 000014,0.00001006,0.00001067,0.00000357,-0.05624566,-0.12504639,0.2073
 9749,-0.00170169,0.00026959,0.00134961,0.01329491,-0.01107059,-0.01418
 822,-0.00195828,-0.00043009,-0.00046550,-0.00079077,0.00074634,0.00031
 261,0.00002281,0.00036237,0.00025059,0.00003090,-0.00006732,0.00004985
 ,-0.00000305,-0.00009278,-0.00014857,-0.00017414,-0.00022625,0.0000047
 5,0.00005387,-0.00013055,-0.00009700,0.00003510,0.00009885,-0.00011071
 ,0.00000881,0.00004315,0.00005628,-0.00002184,0.00002790,0.00001498,0.
 00001938,-0.00002549,0.00013847,-0.11508327,0.07078404,0.08846729,-0.0
 1812730,0.01748078,0.01683305,0.00275077,-0.00099197,0.00110419,0.0000
 5009,-0.00025530,-0.00038615,-0.00015150,-0.00010194,-0.00013624,-0.00
 002291,0.00008489,-0.00002853,-0.00004487,0.00008220,-0.00008700,0.000
 01407,0.00002582,0.00000190,-0.00008829,-0.00007807,-0.00000949,-0.000
 00181,0.00000144,0.00001086,0.00000315,-0.00002127,0.00000236,-0.00528
 157,0.00500476,0.00627105,0.12908006,-0.00313142,0.00103240,0.00187961
 ,0.01391522,-0.01509142,-0.01691483,-0.00122392,-0.00039214,0.00077617
 ,-0.00048378,0.00026582,-0.00020450,0.00002569,0.00020300,0.00007441,0
 .00004181,0.00005052,0.00017481,-0.00000590,-0.00002810,-0.00001251,-0
 .00013476,-0.00011959,0.00001512,0.00001264,-0.00006518,-0.00002440,-0
 .00005012,0.00009091,-0.00013538,-0.00001187,-0.00003002,0.00003593,0.
 00000337,-0.00001043,0.00003414,0.00001344,-0.00000021,0.00005158,0.07
 486837,-0.12304938,-0.09238325,0.00997389,-0.00896925,-0.00749971,-0.0
 0170793,0.00106211,0.00003833,-0.00018359,-0.00005874,-0.00012710,-0.0
 0000671,-0.00000818,-0.00012853,-0.00006634,-0.00012802,-0.00014069,-0
 .00002315,0.00004245,-0.00004446,0.00000268,0.00000634,-0.00000472,-0.
 00007177,0.00000705,-0.00001660,0.00000308,0.00000183,0.00000847,0.000
 00520,-0.00000734,0.00000002,-0.01027851,0.01143913,0.01309558,-0.0827
 8980,0.13389240,-0.00000493,0.00150871,0.00035472,0.00485210,-0.007015
 68,-0.00978791,-0.00192620,-0.00095621,0.00029897,-0.00059586,0.000318
 99,0.00029902,-0.00000855,0.00030205,-0.00002145,0.00008880,0.00001840
 ,0.00019951,-0.00000688,-0.00004175,0.00001260,-0.00006153,-0.00015641
 ,-0.00000752,0.00003798,-0.00011203,-0.00018095,0.00006900,0.00013226,
 -0.00011991,0.00004090,0.00009651,0.00006689,-0.00001998,0.00001903,-0
 .00000724,0.00002269,-0.00003389,0.00020301,0.09257861,-0.09183770,-0.
 15187052,-0.01043692,0.00959380,0.01028681,0.00108635,0.00046277,0.000
 54226,0.00078579,-0.00046379,-0.00044796,-0.00016814,-0.00013030,-0.00
 015814,-0.00011293,-0.00016480,-0.00021153,-0.00003884,0.00006615,-0.0
 0003449,-0.00000494,0.00002617,0.00001663,-0.00017743,-0.00011786,0.00
 005064,-0.00000333,-0.00000101,0.00001374,0.00000340,-0.00002337,-0.00
 001100,0.01201712,-0.01276394,-0.01545479,-0.09549468,0.10028740,0.165
 64418,-0.00095434,-0.00068602,0.00072915,0.00093912,0.00095461,-0.0015
 3943,0.00008745,-0.00038347,0.00065608,-0.00002725,-0.00012793,0.00001
 064,-0.00009473,0.00005138,-0.00013519,0.00005353,0.00006460,0.0002089
 2,0.00002746,-0.00000211,0.00007282,0.00000212,0.00001571,0.00000679,-
 0.00000700,0.00000760,0.00001849,-0.00002105,-0.00000043,-0.00002517,-
 0.00000243,-0.00002258,0.00001064,0.00000791,-0.00000933,0.00000284,-0
 .00000057,-0.00000496,0.00000263,0.00763828,0.01732245,-0.02179271,-0.
 07502087,-0.04715060,0.06444087,-0.00828050,-0.01519400,0.01211300,0.0
 0032542,0.00017211,0.00028779,-0.00002649,-0.00001587,-0.00001608,-0.0
 0000888,-0.00023578,-0.00020853,0.00000166,-0.00000395,0.00000176,0.00
 000347,0.00000189,0.00000792,0.00000819,0.00001362,-0.00000838,0.00000
 253,0.00000022,0.00000043,0.00000396,0.00000486,0.00000018,-0.00457731
 ,0.00179115,-0.00344226,0.00154709,-0.00009785,0.00050419,0.08478432,-
 0.00070516,-0.00021398,-0.00123592,-0.00055453,-0.00054495,-0.00022843
 ,0.00004321,-0.00005180,0.00039858,-0.00007295,0.00000311,-0.00001375,
 0.00001422,0.00000761,-0.00005930,0.00002352,-0.00002565,0.00004476,-0
 .00000157,0.00001012,0.00004767,0.00000346,0.00000302,-0.00000794,0.00
 000271,0.00001009,-0.00000042,0.00000823,-0.00000207,0.00001796,0.0000
 0548,0.00000236,-0.00001174,0.00000053,-0.00000347,0.00000607,0.000001
 41,-0.00000144,-0.00001539,-0.00135672,-0.00753479,0.01101969,-0.04654
 197,-0.13616680,0.11020289,-0.01075463,-0.01998279,0.01782202,0.000008
 76,0.00007474,-0.00005928,0.00001096,0.00001506,-0.00001423,-0.0000519
 7,0.00002698,-0.00005446,0.00000418,-0.00000195,0.00000218,-0.00000033
 ,-0.00000290,-0.00000500,-0.00000431,0.00000207,0.00001123,-0.00000190
 ,-0.00000062,-0.00000056,-0.00000312,0.,-0.00000159,0.00155601,-0.0002
 2874,0.00069059,-0.00047155,0.00018529,-0.00000738,0.05600412,0.154922
 55,0.00088305,-0.00163552,0.00202470,0.00101600,0.00350143,-0.00208749
 ,-0.00013016,-0.00046917,0.00069984,0.00002488,-0.00009903,-0.00005227
 ,-0.00014304,0.00014488,-0.00027758,0.00011153,-0.00001307,0.00030708,
 0.00003956,-0.00002424,0.00013702,-0.00002334,-0.00000265,0.00000344,-
 0.00000793,0.00001489,0.00002420,-0.00001869,-0.00000791,-0.00000466,-
 0.00000616,-0.00002238,-0.00000105,0.00000935,-0.00001012,0.00000707,-
 0.00000331,-0.00000648,-0.00001475,0.00300294,0.00895059,-0.01353859,0
 .06535408,0.11714529,-0.20064791,-0.00634597,-0.01219502,0.01341771,0.
 00016389,-0.00002183,0.00023345,-0.00003969,-0.00000611,-0.00001829,-0
 .00007120,-0.00020503,-0.00027571,-0.00000393,-0.00000127,-0.00000262,
 0.00001250,-0.00000348,0.00001483,0.00001522,0.00002039,-0.00000373,0.
 00000300,0.00000022,-0.00000065,0.00000642,0.00000672,0.00000006,-0.00
 310674,0.00065122,-0.00016732,-0.00004768,-0.00038730,0.00113635,-0.06
 530615,-0.12295790,0.21281300,0.00020770,-0.00165611,-0.00002445,0.000
 72250,0.00332747,0.00108412,-0.00014171,-0.00062469,-0.00074553,0.0000
 0851,0.00006991,0.00002567,-0.00027506,0.00028809,-0.00013782,0.000274
 39,-0.00018531,0.00004463,0.00008861,-0.00008729,0.00001423,-0.0000429
 1,-0.00003363,0.00000390,-0.00000593,0.00001901,0.00006375,-0.00000919
 ,-0.00005177,0.00005105,-0.00001757,-0.00002185,-0.00003327,0.00000475
 ,0.00000352,0.00000474,-0.00000896,0.00000898,-0.00007960,-0.01802557,
 0.01355943,0.01563694,-0.12553412,0.07018781,0.08354096,0.01119688,-0.
 01656501,-0.01641578,-0.00006599,0.00007314,0.00018235,-0.00002854,-0.
 00000211,-0.00000504,-0.00021432,0.00011878,0.00012154,-0.00001191,0.0
 0000414,-0.00001501,0.00001050,0.00000609,-0.00000168,0.00005273,0.000
 03593,-0.00000829,-0.00000013,0.00000088,-0.00000562,-0.00000050,0.000
 00687,0.00000910,0.00134806,-0.00019513,-0.00033469,-0.00376857,0.0017
 9208,-0.00320632,-0.00512472,0.00560568,0.00647427,0.13678583,0.000100
 20,0.00055827,-0.00022699,-0.00032793,-0.00098246,-0.00014728,0.000048
 44,0.00032058,0.00041804,0.00003715,0.00000402,0.00004781,0.00013533,-
 0.00010380,0.00004286,-0.00011818,0.00003732,-0.00002723,-0.00005437,0
 .00003028,0.00000242,0.00002681,0.00000861,-0.00000824,-0.00000205,-0.
 00001544,-0.00002665,0.00000702,0.00001012,-0.00001764,0.00000507,0.00
 002469,0.00002342,-0.00000517,-0.00000059,-0.00002155,-0.00000276,0.00
 000232,0.00004534,0.01002139,-0.00575675,-0.00634353,0.07139293,-0.116
 73484,-0.07472177,0.00335728,-0.02204335,-0.02149286,0.00013220,-0.000
 06346,-0.00009832,0.00000372,-0.00001003,0.00001181,0.00007627,0.00001
 070,-0.00003150,0.00000073,0.00000164,0.00000543,-0.00000308,-0.000000
 67,0.00000923,-0.00001546,-0.00001836,-0.00000167,-0.00000013,-0.00000
 053,0.00000075,0.00000610,-0.00000435,-0.00000232,-0.00054272,-0.00002
 312,-0.00047481,0.00157734,-0.00018326,0.00089442,-0.00966664,0.011338
 65,0.01061383,-0.07686052,0.13262595,-0.00008169,0.00050698,0.00034468
 ,0.00043975,0.00006050,0.00102309,0.00031855,0.00008669,-0.00014539,0.
 00003917,0.00006988,0.00001782,0.00015271,-0.00014762,0.00018432,-0.00
 019350,0.00011370,-0.00008647,-0.00005075,0.00002863,-0.00007614,0.000
 00208,0.00000868,0.00001063,-0.00000253,-0.00000662,0.00000580,0.00000
 023,-0.00002640,0.00001933,-0.00000769,0.00001429,0.00000297,-0.000002
 66,0.00000747,-0.00002099,-0.00000539,0.00001588,-0.00000430,-0.011122
 10,0.00955203,0.00958451,0.08571054,-0.07501700,-0.14420224,-0.0003766
 0,-0.01462588,-0.00806829,-0.00001997,-0.00002962,-0.00001307,0.000005
 80,0.00000301,0.00002011,0.00016249,-0.00006144,-0.00002783,0.00000297
 ,-0.00000032,-0.00000039,0.00000067,-0.00000405,0.00000229,0.00002357,
 0.00000757,-0.00001248,-0.00000218,-0.00000023,-0.00000234,0.00000062,
 -0.00000328,0.00000266,0.00075262,-0.00031156,0.00105783,-0.00368515,0
 .00137936,-0.00078434,0.01493709,-0.01343006,-0.01511642,-0.08605566,0
 .09128880,0.15556009,-0.00002459,-0.00062056,0.00035979,-0.00037506,0.
 00197775,-0.00121417,-0.00054632,-0.00068968,-0.00034788,0.00013028,0.
 00005430,-0.00011717,-0.00008190,0.00013095,0.00009813,-0.00000136,-0.
 00008795,-0.00005761,0.00001289,-0.00007544,-0.00011052,-0.00002956,-0
 .00006551,0.00000381,0.00000114,-0.00002613,0.00000451,-0.00000667,-0.
 00002158,0.00000144,-0.00001875,0.00001755,0.00000843,-0.00000631,0.00
 001777,-0.00002149,-0.00000960,0.00001204,0.00001031,-0.00286567,-0.00
 538387,-0.00166278,-0.01378864,0.01282314,-0.00740958,-0.22721128,0.07
 596168,-0.19532705,-0.00000499,-0.00003823,0.00009587,-0.00001124,-0.0
 0000883,0.00000645,0.00001753,0.00012262,0.00007179,-0.00002271,0.0000
 1975,-0.00002265,0.00000141,0.00000879,0.00000474,0.00002207,0.0000008
 1,-0.00002071,0.00000057,0.00000144,-0.00000166,0.00000598,-0.00000406
 ,0.00000683,0.00027025,0.00005801,0.00008212,0.00052061,-0.00027788,0.
 00007627,0.00021005,-0.00008389,0.00055395,0.00111641,0.00013558,0.000
 28636,0.23058566,0.00017898,-0.00013931,0.00009704,-0.00089077,0.00130
 330,-0.00048376,-0.00014573,-0.00033901,-0.00018483,0.00006032,-0.0000
 6085,-0.00009208,-0.00008878,0.00007634,-0.00003358,0.00005530,-0.0000
 5021,0.00002443,0.00002743,-0.00003061,-0.00001114,-0.00000739,-0.0000
 1814,0.00000148,0.00000083,-0.00000488,-0.00000148,0.00000659,0.000004
 02,0.00000300,0.00000404,0.00000203,-0.00000157,-0.00000436,0.00000482
 ,-0.00000064,0.00000500,0.00000096,0.00000142,-0.00189371,-0.00389175,
 -0.00149500,-0.02261933,0.00749807,-0.02350063,0.08458659,-0.09536691,
 0.11712774,-0.00006522,-0.00001581,0.00006004,0.00000114,0.00000835,0.
 00000188,-0.00002386,0.00003838,0.00000769,-0.00000531,0.00000472,-0.0
 0000610,0.00000030,0.00000082,-0.00000143,-0.00000148,-0.00000195,-0.0
 0000013,-0.00000048,0.00000020,0.00000057,-0.00000479,-0.00000169,-0.0
 0000093,0.00009411,0.00000689,-0.00031791,-0.00006108,-0.00008648,0.00
 029351,-0.00002452,0.00111786,0.00060516,-0.00015211,-0.00006998,-0.00
 061649,-0.07718287,0.09813333,0.00019240,-0.00009158,-0.00003675,-0.00
 035891,0.00053575,0.00027456,0.00006230,0.00002220,0.00007325,-0.00001
 773,-0.00001335,-0.00000455,-0.00002868,0.00000335,-0.00005441,0.00005
 955,-0.00000026,0.00001549,0.00002003,0.00000974,0.00003109,-0.0000000
 6,0.00000810,-0.00000498,-0.00000159,0.00000857,0.00000214,0.00000798,
 0.00001037,0.00000144,0.00001335,-0.00000648,-0.00000907,-0.00000021,-
 0.00000335,0.00001407,0.00001204,-0.00000458,-0.00001116,0.00038496,-0
 .00238164,0.00021901,-0.01031867,0.00368444,-0.00967949,-0.15697152,0.
 08906993,-0.18044171,-0.00003217,0.00001810,-0.00001140,0.00000765,0.0
 0000544,-0.00000133,-0.00004583,-0.00001064,0.00001549,0.00000548,-0.0
 0000567,0.00000513,0.00000094,-0.00000187,-0.00000462,-0.00001456,-0.0
 0000162,0.00001071,-0.00000125,-0.00000059,0.00000146,-0.00000891,0.00
 000038,-0.00000258,0.00024075,-0.00013419,0.00018668,-0.00006281,0.000
 09646,0.00016285,0.00060534,0.00043642,0.00124354,0.00026553,0.0004955
 6,-0.00052226,0.18723858,-0.10218141,0.20752954,0.00005145,0.00093710,
 -0.00044054,-0.00026066,-0.00106231,-0.00034899,0.00001998,0.00014991,
 0.00001342,-0.00004521,-0.00000742,-0.00002837,0.00007473,-0.00012190,
 0.00001092,-0.00005766,0.00008061,-0.00000092,-0.00002680,0.00005260,0
 .00002371,0.00000965,0.00000068,-0.00000091,0.00000871,-0.00000348,-0.
 00003056,0.00002041,0.00000642,0.00000349,0.00002323,0.00002537,0.0000
 1638,-0.00000695,0.00000216,-0.00002220,0.00000704,0.00000603,0.000030
 92,0.00032158,-0.00086608,0.00181796,-0.00967379,-0.00571735,0.0174976
 4,-0.13255999,-0.12454030,0.12246097,-0.00006984,-0.00003683,-0.000071
 06,0.00001698,0.00001441,0.00000255,0.00002743,-0.00006269,-0.00004474
 ,0.00000655,0.00000110,0.00000440,-0.00000474,-0.00000323,-0.00000592,
 -0.00001673,-0.00001553,0.00000540,-0.00000517,-0.00000229,0.00000091,
 -0.00000966,-0.00000647,-0.00000782,-0.00038962,0.00027606,-0.00103839
 ,-0.00021177,-0.00011217,0.00010422,-0.00149642,-0.00268788,-0.0024166
 6,0.00145882,0.00053544,-0.00122934,0.01210979,0.01815116,-0.02125399,
 0.13067865,-0.00011589,0.00010442,-0.00022162,-0.00014987,-0.00036851,
 0.00011318,0.00009094,-0.00001528,-0.00008743,-0.00002516,-0.00000378,
 -0.00000820,-0.00007106,0.00006995,-0.00004078,0.00008013,-0.00004559,
 0.00001914,0.00003354,-0.00001893,0.00001681,-0.00000581,0.00001005,-0
 .00000273,-0.00000410,0.00001197,0.00001723,-0.00001395,0.00000943,-0.
 00000502,-0.00001095,-0.00003207,-0.00001530,0.00000662,-0.00000681,0.
 00002972,0.00000114,-0.00001052,-0.00002546,0.00066819,0.00089999,-0.0
 0028576,-0.01544372,-0.01903608,0.02150373,-0.09142694,-0.12462387,0.1
 2681485,-0.00003755,0.00006974,0.00001799,0.00000570,0.00000419,0.0000
 0200,-0.00004561,0.00002140,0.00003023,0.00000162,-0.00000531,-0.00000
 029,0.00000074,0.00000074,-0.00000286,0.00000432,0.00000975,0.00000477
 ,0.00000489,0.00000156,0.00000101,0.00000260,0.00000765,0.00000164,-0.
 00055501,0.00042680,-0.00008489,0.00022455,-0.00005149,-0.00019406,-0.
 00277830,-0.00295757,-0.00358613,0.00132773,0.00103785,0.00113710,-0.0
 0677569,-0.00812247,0.01043241,0.11500689,0.15261279,-0.00018846,0.000
 17428,-0.00023655,0.00003904,-0.00028219,0.00009012,0.00006551,0.00003
 693,-0.00008339,-0.00003618,-0.00001198,-0.00001857,-0.00000465,-0.000
 02662,-0.00001261,0.00001586,0.00000898,-0.00000194,0.00000663,0.00001
 809,0.00001698,-0.00000341,0.00000774,0.00000093,0.00000406,0.00000603
 ,-0.00000186,0.00000156,0.00001003,-0.00000113,0.00000461,-0.00001080,
 -0.00000554,-0.00000008,-0.00000176,0.00001253,0.00000803,-0.00000280,
 -0.00000748,0.00046969,-0.00059718,0.00156451,-0.00855943,-0.01401708,
 0.01155797,0.10815723,0.16190739,-0.24437348,-0.00007518,0.00001039,-0
 .00001560,0.00000958,0.00000856,0.00000079,-0.00001709,-0.00000615,0.0
 0000280,0.00000553,-0.00000360,0.00000233,-0.00000138,-0.00000243,-0.0
 0000613,-0.00000534,-0.00000061,0.00000558,-0.00000019,-0.00000012,0.0
 0000128,-0.00000697,0.00000077,-0.00000307,0.00027744,0.00042768,-0.00
 032735,0.00007989,0.00007658,-0.00019045,-0.00214369,-0.00259669,0.000
 14675,-0.00045402,-0.00025737,0.00124680,0.01740388,0.01070517,-0.0190
 0215,-0.11505246,-0.15558127,0.24963791\\0.00000226,0.00000280,0.00000
 220,0.00000077,-0.00000082,0.00000421,-0.00000543,0.00000104,-0.000002
 05,-0.00000248,-0.00000257,-0.00000145,0.00000099,-0.00000057,0.000000
 52,-0.00000105,-0.00000176,-0.00000257,-0.00000072,0.00000073,-0.00000
 098,0.00000078,-0.00000069,0.00000017,-0.00000107,-0.00000057,-0.00000
 154,0.00000140,0.00000140,0.00000091,0.00000069,-0.00000023,0.00000050
 ,0.00000056,0.00000066,0.00000047,-0.00000040,0.00000008,0.00000083,-0
 .00000002,-0.00000046,-0.00000013,0.00000039,-0.00000019,0.00000019,0.
 00000048,-0.00000078,-0.00000028,0.00000178,0.00000219,-0.00000063,-0.
 00000025,0.00000024,-0.00000076,0.00000021,-0.00000024,0.00000006,-0.0
 0000010,0.00000129,0.00000025,0.00000060,-0.00000066,-0.00000002,-0.00
 000023,-0.00000029,0.00000036,-0.00000003,0.00000048,0.00000037,-0.000
 00015,0.00000019,0.00000010,0.00000026,-0.00000011,-0.00000018,0.00000
 014,0.00000003,0.00000002,0.00000018,-0.00000036,-0.00000022,0.,-0.000
 00038,-0.00000025,0.00000024,-0.00000038,0.00000013,0.00000021,-0.0000
 0010,-0.00000021\\\@


 Boundary, n.  In political geography, an imaginary
 line between two nations, separating the imaginary
 rights of one from the imaginary rights of another.
                               -- Ambrose Bierce
 Job cpu time:       0 days  4 hours 50 minutes  1.8 seconds.
 File lengths (MBytes):  RWF=    541 Int=      0 D2E=      0 Chk=     17 Scr=      1
 Normal termination of Gaussian 09 at Sat Jul 24 04:10:44 2021.
