 Entering Gaussian System, Link 0=g09
 Input=opt_freq-conf-801.com
 Output=opt_freq-conf-801.log
 Initial command:
 /aerosol/software/g09/l1.exe "/scratch/nicole/10763/Gau-612237.inp" -scrdir="/scratch/nicole/10763/"
 Entering Link 1 = /aerosol/software/g09/l1.exe PID=    612241.
  
 Copyright (c) 1988,1990,1992,1993,1995,1998,2003,2009,2013,
            Gaussian, Inc.  All Rights Reserved.
  
 This is part of the Gaussian(R) 09 program.  It is based on
 the Gaussian(R) 03 system (copyright 2003, Gaussian, Inc.),
 the Gaussian(R) 98 system (copyright 1998, Gaussian, Inc.),
 the Gaussian(R) 94 system (copyright 1995, Gaussian, Inc.),
 the Gaussian 92(TM) system (copyright 1992, Gaussian, Inc.),
 the Gaussian 90(TM) system (copyright 1990, Gaussian, Inc.),
 the Gaussian 88(TM) system (copyright 1988, Gaussian, Inc.),
 the Gaussian 86(TM) system (copyright 1986, Carnegie Mellon
 University), and the Gaussian 82(TM) system (copyright 1983,
 Carnegie Mellon University). Gaussian is a federally registered
 trademark of Gaussian, Inc.
  
 This software contains proprietary and confidential information,
 including trade secrets, belonging to Gaussian, Inc.
  
 This software is provided under written license and may be
 used, copied, transmitted, or stored only in accord with that
 written license.
  
 The following legend is applicable only to US Government
 contracts under FAR:
  
                    RESTRICTED RIGHTS LEGEND
  
 Use, reproduction and disclosure by the US Government is
 subject to restrictions as set forth in subparagraphs (a)
 and (c) of the Commercial Computer Software - Restricted
 Rights clause in FAR 52.227-19.
  
 Gaussian, Inc.
 340 Quinnipiac St., Bldg. 40, Wallingford CT 06492
  
  
 ---------------------------------------------------------------
 Warning -- This program may not be used in any manner that
 competes with the business of Gaussian, Inc. or will provide
 assistance to any competitor of Gaussian, Inc.  The licensee
 of this program is prohibited from giving any competitor of
 Gaussian, Inc. access to this program.  By using this program,
 the user acknowledges that Gaussian, Inc. is engaged in the
 business of creating and licensing software in the field of
 computational chemistry and represents and warrants to the
 licensee that it is not a competitor of Gaussian, Inc. and that
 it will not use this program in any manner prohibited above.
 ---------------------------------------------------------------
  

 Cite this work as:
 Gaussian 09, Revision D.01,
 M. J. Frisch, G. W. Trucks, H. B. Schlegel, G. E. Scuseria, 
 M. A. Robb, J. R. Cheeseman, G. Scalmani, V. Barone, B. Mennucci, 
 G. A. Petersson, H. Nakatsuji, M. Caricato, X. Li, H. P. Hratchian, 
 A. F. Izmaylov, J. Bloino, G. Zheng, J. L. Sonnenberg, M. Hada, 
 M. Ehara, K. Toyota, R. Fukuda, J. Hasegawa, M. Ishida, T. Nakajima, 
 Y. Honda, O. Kitao, H. Nakai, T. Vreven, J. A. Montgomery, Jr., 
 J. E. Peralta, F. Ogliaro, M. Bearpark, J. J. Heyd, E. Brothers, 
 K. N. Kudin, V. N. Staroverov, T. Keith, R. Kobayashi, J. Normand, 
 K. Raghavachari, A. Rendell, J. C. Burant, S. S. Iyengar, J. Tomasi, 
 M. Cossi, N. Rega, J. M. Millam, M. Klene, J. E. Knox, J. B. Cross, 
 V. Bakken, C. Adamo, J. Jaramillo, R. Gomperts, R. E. Stratmann, 
 O. Yazyev, A. J. Austin, R. Cammi, C. Pomelli, J. W. Ochterski, 
 R. L. Martin, K. Morokuma, V. G. Zakrzewski, G. A. Voth, 
 P. Salvador, J. J. Dannenberg, S. Dapprich, A. D. Daniels, 
 O. Farkas, J. B. Foresman, J. V. Ortiz, J. Cioslowski, 
 and D. J. Fox, Gaussian, Inc., Wallingford CT, 2013.
 
 ******************************************
 Gaussian 09:  ES64L-G09RevD.01 24-Apr-2013
                29-Jul-2021 
 ******************************************
 %mem=2gb
 %nproc=4
 Will use up to    4 processors via shared memory.
 %chk=conf-801.chk
 ----------------------------------------------------------------------
 # B3LYP/6-311++G(d,p) EmpiricalDispersion=GD3BJ guess=read geom=checkp
 oint opt=readfc freq=noraman nosymm integral(ultrafinegrid)
 ----------------------------------------------------------------------
 1/10=3,14=-1,18=20,19=15,26=4,29=2,38=1/1,3;
 2/9=110,12=2,15=1,40=1/2;
 3/5=4,6=6,7=1111,11=2,14=-4,16=1,25=1,30=1,71=1,74=-5,75=-5,116=-2,124=41/1,2,3;
 4/5=1/1;
 5/5=2,38=6/2;
 6/7=2,8=2,9=2,10=2,28=1/1;
 7/30=1/1,2,3,16;
 1/14=-1,18=20,19=15,26=4/3(2);
 2/9=110,15=1/2;
 99//99;
 2/9=110,15=1/2;
 3/5=4,6=6,7=1111,11=2,14=-2,16=1,25=1,30=1,71=1,74=-5,75=-5,124=41/1,2,3;
 4/5=5,16=3,69=1/1;
 5/5=2,38=5/2;
 7/30=1/1,2,3,16;
 1/14=-1,18=20,19=15,26=4/3(-5);
 2/9=110,15=1/2;
 6/7=2,8=2,9=2,10=2,19=2,28=1/1;
 99/9=1/99;
 ------------------------------------------------------------
 Candidate Structure: Conf:801 OPT and FREQ calc in gas phase
 ------------------------------------------------------------
 Structure from the checkpoint file:  "conf-801.chk"
 Charge =  0 Multiplicity = 1
 Redundant internal coordinates found in file.
 O,0,1.4863102503,0.9838486124,-1.007261757
 C,0,1.7645429841,0.3089063367,-0.0245022965
 N,0,0.8087367498,-0.0844389594,0.8657070525
 C,0,-0.5527803158,0.3864854023,0.7573873395
 C,0,-1.2169976542,0.2319621185,2.1271424742
 O,0,-2.4177785614,0.8150200641,2.2731771726
 O,0,-0.7123916433,-0.3840044358,3.0300794204
 C,0,-1.327434264,-0.3804697241,-0.3531335827
 C,0,-2.7052417192,0.1480663556,-0.5853813252
 C,0,-3.1695082921,1.3907706357,-0.9597377127
 N,0,-4.5490280172,1.4106804628,-0.9876911075
 C,0,-4.9271958968,0.204680553,-0.6362214246
 N,0,-3.8501216695,-0.599222705,-0.37878809
 C,0,3.1809829437,-0.1332109386,0.2938513878
 C,0,3.9529849036,-0.5292620915,-0.9640897146
 N,0,5.3514770581,-0.8063359723,-0.6257169075
 H,0,1.0505961605,-0.5602715372,1.7244425066
 H,0,-0.5400307337,1.4455849811,0.4797377297
 H,0,-2.7106869589,1.2176547124,1.4369380389
 H,0,-1.3611980848,-1.440411218,-0.0863944574
 H,0,-0.7259275825,-0.2877148429,-1.2587359672
 H,0,-2.5871091577,2.2571713268,-1.2338490692
 H,0,-5.9447505295,-0.1431249023,-0.5491644999
 H,0,-3.8794363438,-1.5574464324,-0.0659874129
 H,0,3.1748601683,-0.9549241489,1.0177613483
 H,0,3.696036298,0.7083676953,0.7688304287
 H,0,3.9234432241,0.3075145172,-1.6631485033
 H,0,3.4390342829,-1.3716713298,-1.4522382154
 H,0,5.4374684834,-1.6629420852,-0.0878434013
 H,0,5.9109124174,-0.9213624906,-1.4634573541
 Recover connectivity data from disk.

 GradGradGradGradGradGradGradGradGradGradGradGradGradGradGradGradGradGrad
 Berny optimization.
 Initialization pass.
 Force constant matrix read from checkpoint file:
 "conf-801.chk"
                           ----------------------------
                           !    Initial Parameters    !
                           ! (Angstroms and Degrees)  !
 --------------------------                            --------------------------
 ! Name  Definition              Value          Derivative Info.                !
 --------------------------------------------------------------------------------
 ! R1    R(1,2)                  1.2242         D2E/DX2 =    0.7622             !
 ! R2    R(2,3)                  1.3641         D2E/DX2 =    0.4367             !
 ! R3    R(2,14)                 1.5176         D2E/DX2 =    0.2745             !
 ! R4    R(3,4)                  1.4447         D2E/DX2 =    0.3506             !
 ! R5    R(3,17)                 1.0111         D2E/DX2 =    0.4597             !
 ! R6    R(4,5)                  1.5301         D2E/DX2 =    0.2692             !
 ! R7    R(4,8)                  1.5561         D2E/DX2 =    0.2526             !
 ! R8    R(4,18)                 1.095          D2E/DX2 =    0.328              !
 ! R9    R(5,6)                  1.3428         D2E/DX2 =    0.4122             !
 ! R10   R(5,7)                  1.2039         D2E/DX2 =    0.8506             !
 ! R11   R(6,19)                 0.9732         D2E/DX2 =    0.4766             !
 ! R12   R(8,9)                  1.4939         D2E/DX2 =    0.3138             !
 ! R13   R(8,20)                 1.0935         D2E/DX2 =    0.3323             !
 ! R14   R(8,21)                 1.0911         D2E/DX2 =    0.3378             !
 ! R15   R(9,10)                 1.3784         D2E/DX2 =    0.3925             !
 ! R16   R(9,13)                 1.3827         D2E/DX2 =    0.3569             !
 ! R17   R(10,11)                1.3799         D2E/DX2 =    0.3253             !
 ! R18   R(10,22)                1.0793         D2E/DX2 =    0.3675             !
 ! R19   R(11,12)                1.3119         D2E/DX2 =    0.4573             !
 ! R20   R(12,13)                1.3684         D2E/DX2 =    0.3483             !
 ! R21   R(12,23)                1.0789         D2E/DX2 =    0.3704             !
 ! R22   R(13,24)                1.0084         D2E/DX2 =    0.4721             !
 ! R23   R(14,15)                1.5282         D2E/DX2 =    0.2795             !
 ! R24   R(14,25)                1.0951         D2E/DX2 =    0.3282             !
 ! R25   R(14,26)                1.0951         D2E/DX2 =    0.3308             !
 ! R26   R(15,16)                1.4653         D2E/DX2 =    0.3253             !
 ! R27   R(15,27)                1.0908         D2E/DX2 =    0.3389             !
 ! R28   R(15,28)                1.1009         D2E/DX2 =    0.3102             !
 ! R29   R(16,29)                1.0151         D2E/DX2 =    0.4456             !
 ! R30   R(16,30)                1.0139         D2E/DX2 =    0.4506             !
 ! A1    A(1,2,3)              121.5742         D2E/DX2 =    0.2023             !
 ! A2    A(1,2,14)             122.7603         D2E/DX2 =    0.1657             !
 ! A3    A(3,2,14)             115.663          D2E/DX2 =    0.1667             !
 ! A4    A(2,3,4)              121.1587         D2E/DX2 =    0.1356             !
 ! A5    A(2,3,17)             121.49           D2E/DX2 =    0.0908             !
 ! A6    A(4,3,17)             116.2636         D2E/DX2 =    0.0948             !
 ! A7    A(3,4,5)              108.0023         D2E/DX2 =    0.093              !
 ! A8    A(3,4,8)              111.2223         D2E/DX2 =    0.0926             !
 ! A9    A(3,4,18)             108.864          D2E/DX2 =    0.0297             !
 ! A10   A(5,4,8)              111.8993         D2E/DX2 =    0.1006             !
 ! A11   A(5,4,18)             109.2522         D2E/DX2 =    0.0248             !
 ! A12   A(8,4,18)             107.551          D2E/DX2 =    0.0319             !
 ! A13   A(4,5,6)              116.2112         D2E/DX2 =    0.1946             !
 ! A14   A(4,5,7)              122.7607         D2E/DX2 =    0.1911             !
 ! A15   A(6,5,7)              121.0247         D2E/DX2 =    0.2032             !
 ! A16   A(5,6,19)             110.8128         D2E/DX2 =    0.1955             !
 ! A17   A(4,8,9)              113.3098         D2E/DX2 =    0.1816             !
 ! A18   A(4,8,20)             108.6037         D2E/DX2 =    0.0628             !
 ! A19   A(4,8,21)             106.0204         D2E/DX2 =    0.0617             !
 ! A20   A(9,8,20)             110.6334         D2E/DX2 =    0.0533             !
 ! A21   A(9,8,21)             110.4467         D2E/DX2 =    0.0536             !
 ! A22   A(20,8,21)            107.5704         D2E/DX2 =    0.0205             !
 ! A23   A(8,9,10)             132.2094         D2E/DX2 =    0.0952             !
 ! A24   A(8,9,13)             123.3141         D2E/DX2 =    0.1049             !
 ! A25   A(10,9,13)            104.415          D2E/DX2 =    0.1041             !
 ! A26   A(9,10,11)            110.8069         D2E/DX2 =    0.1161             !
 ! A27   A(9,10,22)            127.656          D2E/DX2 =    0.0812             !
 ! A28   A(11,10,22)           121.5132         D2E/DX2 =    0.0885             !
 ! A29   A(10,11,12)           105.6338         D2E/DX2 =    0.1341             !
 ! A30   A(11,12,13)           111.3193         D2E/DX2 =    0.1207             !
 ! A31   A(11,12,23)           126.1476         D2E/DX2 =    0.0884             !
 ! A32   A(13,12,23)           122.533          D2E/DX2 =    0.0893             !
 ! A33   A(9,13,12)            107.8245         D2E/DX2 =    0.1045             !
 ! A34   A(9,13,24)            125.7304         D2E/DX2 =    0.0784             !
 ! A35   A(12,13,24)           126.4197         D2E/DX2 =    0.079              !
 ! A36   A(2,14,15)            111.983          D2E/DX2 =    0.1326             !
 ! A37   A(2,14,25)            110.6123         D2E/DX2 =    0.0536             !
 ! A38   A(2,14,26)            107.8237         D2E/DX2 =    0.0422             !
 ! A39   A(15,14,25)           110.6406         D2E/DX2 =    0.0564             !
 ! A40   A(15,14,26)           108.5795         D2E/DX2 =    0.0511             !
 ! A41   A(25,14,26)           107.0115         D2E/DX2 =    0.0204             !
 ! A42   A(14,15,16)           109.9422         D2E/DX2 =    0.1519             !
 ! A43   A(14,15,27)           108.3646         D2E/DX2 =    0.0554             !
 ! A44   A(14,15,28)           109.1148         D2E/DX2 =    0.062              !
 ! A45   A(16,15,27)           108.5971         D2E/DX2 =    0.0498             !
 ! A46   A(16,15,28)           113.7815         D2E/DX2 =    0.0566             !
 ! A47   A(27,15,28)           106.8694         D2E/DX2 =    0.0217             !
 ! A48   A(15,16,29)           111.2706         D2E/DX2 =    0.1387             !
 ! A49   A(15,16,30)           110.9321         D2E/DX2 =    0.1345             !
 ! A50   A(29,16,30)           107.1769         D2E/DX2 =    0.0589             !
 ! D1    D(1,2,3,4)             -6.0543         D2E/DX2 =    0.0115             !
 ! D2    D(1,2,3,17)          -173.6833         D2E/DX2 =    0.0106             !
 ! D3    D(14,2,3,4)           173.3886         D2E/DX2 =    0.0092             !
 ! D4    D(14,2,3,17)            5.7596         D2E/DX2 =    0.0071             !
 ! D5    D(1,2,14,15)          -39.0411         D2E/DX2 =    0.0134             !
 ! D6    D(1,2,14,25)         -162.9569         D2E/DX2 =    0.0152             !
 ! D7    D(1,2,14,26)           80.3467         D2E/DX2 =    0.0154             !
 ! D8    D(3,2,14,15)          141.5234         D2E/DX2 =    0.0128             !
 ! D9    D(3,2,14,25)           17.6076         D2E/DX2 =    0.0153             !
 ! D10   D(3,2,14,26)          -99.0889         D2E/DX2 =    0.0136             !
 ! D11   D(2,3,4,5)           -158.5696         D2E/DX2 =    0.0145             !
 ! D12   D(2,3,4,8)             78.2759         D2E/DX2 =    0.0156             !
 ! D13   D(2,3,4,18)           -40.0531         D2E/DX2 =    0.0083             !
 ! D14   D(17,3,4,5)             9.6758         D2E/DX2 =    0.0152             !
 ! D15   D(17,3,4,8)          -113.4787         D2E/DX2 =    0.0151             !
 ! D16   D(17,3,4,18)          128.1923         D2E/DX2 =    0.0095             !
 ! D17   D(3,4,5,6)            169.7372         D2E/DX2 =    0.0224             !
 ! D18   D(3,4,5,7)            -10.931          D2E/DX2 =    0.0213             !
 ! D19   D(8,4,5,6)            -67.5211         D2E/DX2 =    0.0273             !
 ! D20   D(8,4,5,7)            111.8107         D2E/DX2 =    0.0225             !
 ! D21   D(18,4,5,6)            51.4688         D2E/DX2 =    0.0164             !
 ! D22   D(18,4,5,7)          -129.1994         D2E/DX2 =    0.0154             !
 ! D23   D(3,4,8,9)           -175.0714         D2E/DX2 =    0.0189             !
 ! D24   D(3,4,8,20)            61.5686         D2E/DX2 =    0.0187             !
 ! D25   D(3,4,8,21)           -53.7747         D2E/DX2 =    0.0194             !
 ! D26   D(5,4,8,9)             64.0364         D2E/DX2 =    0.0243             !
 ! D27   D(5,4,8,20)           -59.3235         D2E/DX2 =    0.0197             !
 ! D28   D(5,4,8,21)          -174.6668         D2E/DX2 =    0.0223             !
 ! D29   D(18,4,8,9)           -55.9542         D2E/DX2 =    0.0129             !
 ! D30   D(18,4,8,20)         -179.3142         D2E/DX2 =    0.0146             !
 ! D31   D(18,4,8,21)           65.3425         D2E/DX2 =    0.0136             !
 ! D32   D(4,5,6,19)             3.2944         D2E/DX2 =    0.0133             !
 ! D33   D(7,5,6,19)          -176.0499         D2E/DX2 =    0.0202             !
 ! D34   D(4,8,9,10)            59.1614         D2E/DX2 =    0.012              !
 ! D35   D(4,8,9,13)          -117.5183         D2E/DX2 =    0.0121             !
 ! D36   D(20,8,9,10)         -178.6014         D2E/DX2 =    0.0138             !
 ! D37   D(20,8,9,13)            4.7188         D2E/DX2 =    0.013              !
 ! D38   D(21,8,9,10)          -59.6124         D2E/DX2 =    0.0137             !
 ! D39   D(21,8,9,13)          123.7079         D2E/DX2 =    0.0141             !
 ! D40   D(8,9,10,11)         -177.3105         D2E/DX2 =    0.0093             !
 ! D41   D(8,9,10,22)            4.4652         D2E/DX2 =    0.0072             !
 ! D42   D(13,9,10,11)          -0.175          D2E/DX2 =    0.0138             !
 ! D43   D(13,9,10,22)        -178.3992         D2E/DX2 =    0.0098             !
 ! D44   D(8,9,13,12)          177.6789         D2E/DX2 =    0.008              !
 ! D45   D(8,9,13,24)           -0.5803         D2E/DX2 =    0.0027             !
 ! D46   D(10,9,13,12)           0.2176         D2E/DX2 =    0.0123             !
 ! D47   D(10,9,13,24)        -178.0416         D2E/DX2 =    0.0044             !
 ! D48   D(9,10,11,12)           0.0622         D2E/DX2 =    0.0174             !
 ! D49   D(22,10,11,12)        178.4132         D2E/DX2 =    0.0099             !
 ! D50   D(10,11,12,13)          0.082          D2E/DX2 =    0.0184             !
 ! D51   D(10,11,12,23)        179.9864         D2E/DX2 =    0.0101             !
 ! D52   D(11,12,13,9)          -0.1947         D2E/DX2 =    0.0172             !
 ! D53   D(11,12,13,24)        178.0492         D2E/DX2 =    0.0077             !
 ! D54   D(23,12,13,9)         179.8969         D2E/DX2 =    0.0101             !
 ! D55   D(23,12,13,24)         -1.8592         D2E/DX2 =    0.0062             !
 ! D56   D(2,14,15,16)         173.8373         D2E/DX2 =    0.0147             !
 ! D57   D(2,14,15,27)          55.2885         D2E/DX2 =    0.0142             !
 ! D58   D(2,14,15,28)         -60.7297         D2E/DX2 =    0.0141             !
 ! D59   D(25,14,15,16)        -62.2627         D2E/DX2 =    0.0153             !
 ! D60   D(25,14,15,27)        179.1884         D2E/DX2 =    0.0146             !
 ! D61   D(25,14,15,28)         63.1702         D2E/DX2 =    0.0157             !
 ! D62   D(26,14,15,16)         54.8948         D2E/DX2 =    0.0154             !
 ! D63   D(26,14,15,27)        -63.654          D2E/DX2 =    0.016              !
 ! D64   D(26,14,15,28)       -179.6722         D2E/DX2 =    0.0146             !
 ! D65   D(14,15,16,29)         70.0837         D2E/DX2 =    0.0148             !
 ! D66   D(14,15,16,30)       -170.6932         D2E/DX2 =    0.0147             !
 ! D67   D(27,15,16,29)       -171.5107         D2E/DX2 =    0.0176             !
 ! D68   D(27,15,16,30)        -52.2876         D2E/DX2 =    0.0166             !
 ! D69   D(28,15,16,29)        -52.6381         D2E/DX2 =    0.0177             !
 ! D70   D(28,15,16,30)         66.585          D2E/DX2 =    0.0176             !
 --------------------------------------------------------------------------------
 Trust Radius=3.00D-01 FncErr=1.00D-07 GrdErr=1.00D-06
 Number of steps in this run=    160 maximum allowed number of steps=    180.
 GradGradGradGradGradGradGradGradGradGradGradGradGradGradGradGradGradGrad

                          Input orientation:                          
 ---------------------------------------------------------------------
 Center     Atomic      Atomic             Coordinates (Angstroms)
 Number     Number       Type             X           Y           Z
 ---------------------------------------------------------------------
      1          8           0        1.486310    0.983849   -1.007262
      2          6           0        1.764543    0.308906   -0.024502
      3          7           0        0.808737   -0.084439    0.865707
      4          6           0       -0.552780    0.386485    0.757387
      5          6           0       -1.216998    0.231962    2.127142
      6          8           0       -2.417779    0.815020    2.273177
      7          8           0       -0.712392   -0.384004    3.030079
      8          6           0       -1.327434   -0.380470   -0.353134
      9          6           0       -2.705242    0.148066   -0.585381
     10          6           0       -3.169508    1.390771   -0.959738
     11          7           0       -4.549028    1.410680   -0.987691
     12          6           0       -4.927196    0.204681   -0.636221
     13          7           0       -3.850122   -0.599223   -0.378788
     14          6           0        3.180983   -0.133211    0.293851
     15          6           0        3.952985   -0.529262   -0.964090
     16          7           0        5.351477   -0.806336   -0.625717
     17          1           0        1.050596   -0.560272    1.724443
     18          1           0       -0.540031    1.445585    0.479738
     19          1           0       -2.710687    1.217655    1.436938
     20          1           0       -1.361198   -1.440411   -0.086394
     21          1           0       -0.725928   -0.287715   -1.258736
     22          1           0       -2.587109    2.257171   -1.233849
     23          1           0       -5.944751   -0.143125   -0.549164
     24          1           0       -3.879436   -1.557446   -0.065987
     25          1           0        3.174860   -0.954924    1.017761
     26          1           0        3.696036    0.708368    0.768830
     27          1           0        3.923443    0.307515   -1.663149
     28          1           0        3.439034   -1.371671   -1.452238
     29          1           0        5.437468   -1.662942   -0.087843
     30          1           0        5.910912   -0.921362   -1.463457
 ---------------------------------------------------------------------
                    Distance matrix (angstroms):
                    1          2          3          4          5
     1  O    0.000000
     2  C    1.224245   0.000000
     3  N    2.260167   1.364096   0.000000
     4  C    2.762014   2.446908   1.444725   0.000000
     5  C    4.206863   3.677646   2.407266   1.530128   0.000000
     6  O    5.102126   4.798676   3.633235   2.441204   1.342817
     7  O    4.796398   3.993219   2.662345   2.405049   1.203884
     8  C    3.194747   3.184896   2.477183   1.556138   2.557154
     9  C    4.294837   4.507708   3.808905   2.548129   3.095108
    10  C    4.673809   5.137116   4.618975   3.287001   3.831966
    11  N    6.050444   6.480958   5.863114   4.479316   4.711050
    12  C    6.471309   6.720449   5.936354   4.594639   4.626283
    13  N    5.601660   5.698656   4.849612   3.624221   3.728793
    14  C    2.410940   1.517603   2.440686   3.798149   4.778759
    15  C    2.894106   2.524803   3.665013   4.909582   6.071565
    16  N    4.276664   3.804119   4.835491   6.180296   7.197302
    17  H    3.168022   2.079423   1.011108   2.098180   2.435525
    18  H    2.555470   2.618655   2.075842   1.094963   2.155251
    19  H    4.862465   4.794717   3.795800   2.410227   1.918093
    20  H    3.851407   3.582485   2.730160   2.168654   2.778016
    21  H    2.564003   2.842839   2.628645   2.132904   3.460547
    22  H    4.273808   4.918855   4.628503   3.406315   4.156314
    23  H    7.529979   7.740337   6.900355   5.573231   5.445636
    24  H    6.011274   5.944703   5.001677   3.939982   3.885921
    25  H    3.272730   2.161614   2.525748   3.970199   4.682717
    26  H    2.848382   2.125938   2.995735   4.261007   5.119558
    27  H    2.612897   2.710353   4.031146   5.089382   6.387186
    28  H    3.091862   2.768879   3.734743   4.889595   6.087876
    29  H    4.843809   4.169242   4.982578   6.387304   7.264898
    30  H    4.838910   4.558128   5.670771   6.958588   8.064097
                    6          7          8          9         10
     6  O    0.000000
     7  O    2.217861   0.000000
     8  C    3.084729   3.438665   0.000000
     9  C    2.949376   4.162464   1.493868   0.000000
    10  C    3.368727   5.010578   2.626499   1.378405   0.000000
    11  N    3.940850   5.838078   3.740260   2.270594   1.379947
    12  C    3.890281   5.617196   3.657981   2.223257   2.144980
    13  N    3.329356   4.638108   2.532284   1.382705   2.181928
    14  C    6.013568   4.765313   4.561310   5.958172   6.650018
    15  C    7.271425   6.143307   5.317728   6.703296   7.376751
    16  N    8.449480   7.093216   6.698024   8.113152   8.806023
    17  H    3.771228   2.200883   3.162859   4.465797   5.368489
    18  H    2.672073   3.143461   2.155958   2.739739   2.998207
    19  H    0.973245   3.016056   2.769792   2.287755   2.446332
    20  H    3.430876   3.354006   1.093511   2.139790   3.471067
    21  H    4.068513   4.289918   1.091114   2.135649   2.979564
    22  H    3.795748   5.354574   3.052801   2.209703   1.079341
    23  H    4.617703   6.344020   4.627566   3.252771   3.197401
    24  H    3.638232   4.581787   2.824968   2.134778   3.161451
    25  H    5.998865   4.414306   4.741308   6.193727   7.047255
    26  H    6.297076   5.073535   5.261143   6.566901   7.112617
    27  H    7.480863   6.632914   5.455380   6.717624   7.209590
    28  H    7.277541   6.188780   4.990965   6.388519   7.179588
    29  H    8.568525   7.012696   6.890502   8.356496   9.174171
    30  H    9.292177   8.021769   7.342959   8.726558   9.383695
                   11         12         13         14         15
    11  N    0.000000
    12  C    1.311860   0.000000
    13  N    2.213356   1.368438   0.000000
    14  C    7.986177   8.168340   7.078562   0.000000
    15  C    8.720559   8.916489   7.825340   1.528156   0.000000
    16  N   10.152152  10.328281   9.207241   2.451479   1.465280
    17  H    6.526570   6.472394   5.333116   2.601446   3.956391
    18  H    4.269265   4.693871   3.984345   4.046368   5.115843
    19  H    3.048866   3.199534   2.810021   6.151688   7.295284
    20  H    4.370734   3.965473   2.643451   4.741811   5.462699
    21  H    4.192148   4.275586   3.260665   4.206941   4.694399
    22  H    2.150876   3.169524   3.238104   6.427961   7.114057
    23  H    2.134164   1.078872   2.150471   9.164594   9.913951
    24  H    3.179256   2.127923   1.008413   7.211619   7.950508
    25  H    8.323243   8.350069   7.171279   1.095124   2.171267
    26  H    8.459296   8.751457   7.744115   1.095052   2.144939
    27  H    8.570647   8.910610   7.930956   2.139003   1.090757
    28  H    8.471507   8.552460   7.408155   2.156201   1.100948
    29  H   10.487468  10.545852   9.352833   2.752725   2.063184
    30  H   10.727308  10.927803   9.826396   3.340933   2.058298
                   16         17         18         19         20
    16  N    0.000000
    17  H    4.907278   0.000000
    18  H    6.403362   2.846550   0.000000
    19  H    8.564436   4.170244   2.383261   0.000000
    20  H    6.764091   3.141740   3.053489   3.347682   0.000000
    21  H    6.132253   3.482769   2.461946   3.670431   1.762573
    22  H    8.530888   5.470135   2.790266   2.868618   4.060988
    23  H   11.315939   7.367372   5.726573   4.031810   4.786028
    24  H    9.278320   5.339028   4.524118   3.365404   2.521039
    25  H    2.731439   2.273246   4.455595   6.287724   4.693685
    26  H    2.641888   3.085611   4.309446   6.461567   5.560960
    27  H    2.087153   4.525713   5.080331   7.379063   5.785225
    28  H    2.158745   4.056391   5.244275   7.271246   4.991241
    29  H    1.015124   4.872875   6.761330   8.775832   6.802308
    30  H    1.013907   5.823724   7.140946   9.344499   7.419522
                   21         22         23         24         25
    21  H    0.000000
    22  H    3.152945   0.000000
    23  H    5.268824   4.183775   0.000000
    24  H    3.602705   4.193485   2.549370   0.000000
    25  H    4.565496   6.970480   9.288788   7.162447   0.000000
    26  H    4.965579   6.774026   9.767647   7.951014   1.760719
    27  H    4.704731   6.809754   9.941091   8.180094   3.056371
    28  H    4.308052   7.037798   9.506855   7.450920   2.518802
    29  H    6.422592   9.004136  11.492501   9.317528   2.615922
    30  H    6.670162   9.075911  11.916305   9.910018   3.693718
                   26         27         28         29         30
    26  H    0.000000
    27  H    2.475261   0.000000
    28  H    3.053810   1.760341   0.000000
    29  H    3.064243   2.942203   2.437243   0.000000
    30  H    3.541865   2.345218   2.512585   1.632912   0.000000
 Symmetry turned off by external request.
 Stoichiometry    C9H14N4O3
 Framework group  C1[X(C9H14N4O3)]
 Deg. of freedom    84
 Full point group                 C1      NOp   1
 Rotational constants (GHZ):      1.0704559      0.2315530      0.2043411
 Standard basis: 6-311++G(d,p) (5D, 7F)
   450 basis functions,   702 primitive gaussians,   466 cartesian basis functions
    60 alpha electrons       60 beta electrons
       nuclear repulsion energy      1102.5853634284 Hartrees.
 NAtoms=   30 NActive=   30 NUniq=   30 SFac= 1.00D+00 NAtFMM=   60 NAOKFM=F Big=F
 Integral buffers will be    131072 words long.
 Raffenetti 2 integral format.
 Two-electron integral symmetry is turned off.
 Nuclear repulsion after empirical dispersion term =     1102.5312732833 Hartrees.
 One-electron integrals computed using PRISM.
 NBasis=   450 RedAO= T EigKep=  1.73D-06  NBF=   450
 NBsUse=   450 1.00D-06 EigRej= -1.00D+00 NBFU=   450
 Initial guess from the checkpoint file:  "conf-801.chk"
 B after Tr=     0.000000    0.000000    0.000000
         Rot=    1.000000    0.000000    0.000000    0.000000 Ang=   0.00 deg.
 Requested convergence on RMS density matrix=1.00D-08 within 128 cycles.
 Requested convergence on MAX density matrix=1.00D-06.
 Requested convergence on             energy=1.00D-06.
 No special actions if energy rises.
 SCF Done:  E(RB3LYP) =  -796.382563231     A.U. after    1 cycles
            NFock=  1  Conv=0.13D-08     -V/T= 2.0039

 **********************************************************************

            Population analysis using the SCF density.

 **********************************************************************

 Alpha  occ. eigenvalues --  -19.18993 -19.13652 -19.10301 -14.39529 -14.35662
 Alpha  occ. eigenvalues --  -14.31633 -14.30323 -10.33060 -10.28816 -10.25578
 Alpha  occ. eigenvalues --  -10.24745 -10.23542 -10.21716 -10.20682 -10.20369
 Alpha  occ. eigenvalues --  -10.18841  -1.13248  -1.05885  -1.05185  -1.04309
 Alpha  occ. eigenvalues --   -0.95025  -0.89869  -0.89446  -0.82986  -0.78058
 Alpha  occ. eigenvalues --   -0.75192  -0.69921  -0.65154  -0.64186  -0.63180
 Alpha  occ. eigenvalues --   -0.62032  -0.60302  -0.57677  -0.55682  -0.51605
 Alpha  occ. eigenvalues --   -0.51388  -0.49784  -0.49519  -0.48021  -0.47179
 Alpha  occ. eigenvalues --   -0.46661  -0.45553  -0.44475  -0.43710  -0.43473
 Alpha  occ. eigenvalues --   -0.43354  -0.42657  -0.40775  -0.40252  -0.40100
 Alpha  occ. eigenvalues --   -0.36655  -0.35928  -0.34913  -0.31238  -0.30851
 Alpha  occ. eigenvalues --   -0.29397  -0.28582  -0.27433  -0.25502  -0.25323
 Alpha virt. eigenvalues --   -0.03159  -0.02450  -0.01657  -0.00884  -0.00248
 Alpha virt. eigenvalues --   -0.00154  -0.00010   0.00890   0.01286   0.01837
 Alpha virt. eigenvalues --    0.02420   0.02866   0.03146   0.03820   0.04021
 Alpha virt. eigenvalues --    0.04646   0.05537   0.05847   0.06560   0.06984
 Alpha virt. eigenvalues --    0.07526   0.07675   0.08518   0.08976   0.09249
 Alpha virt. eigenvalues --    0.09753   0.10086   0.10298   0.10565   0.10908
 Alpha virt. eigenvalues --    0.11237   0.11543   0.11689   0.12082   0.12600
 Alpha virt. eigenvalues --    0.13132   0.13321   0.13603   0.13796   0.14152
 Alpha virt. eigenvalues --    0.14370   0.14604   0.15154   0.15239   0.15620
 Alpha virt. eigenvalues --    0.16171   0.16461   0.16650   0.17078   0.17433
 Alpha virt. eigenvalues --    0.18164   0.18358   0.18788   0.19433   0.19836
 Alpha virt. eigenvalues --    0.19906   0.20272   0.20314   0.20788   0.21193
 Alpha virt. eigenvalues --    0.21814   0.22274   0.22779   0.22913   0.23245
 Alpha virt. eigenvalues --    0.23828   0.23944   0.24217   0.24786   0.25279
 Alpha virt. eigenvalues --    0.25585   0.26115   0.26901   0.27298   0.27542
 Alpha virt. eigenvalues --    0.27702   0.28429   0.28835   0.28977   0.29464
 Alpha virt. eigenvalues --    0.29625   0.29692   0.30539   0.31249   0.31442
 Alpha virt. eigenvalues --    0.31740   0.32072   0.32186   0.32736   0.33609
 Alpha virt. eigenvalues --    0.33723   0.34272   0.34600   0.34900   0.35467
 Alpha virt. eigenvalues --    0.35742   0.36678   0.37326   0.37532   0.38228
 Alpha virt. eigenvalues --    0.39460   0.39827   0.40229   0.41841   0.42824
 Alpha virt. eigenvalues --    0.43788   0.44262   0.45312   0.45918   0.47034
 Alpha virt. eigenvalues --    0.47588   0.48413   0.48592   0.51150   0.51693
 Alpha virt. eigenvalues --    0.52894   0.54581   0.55640   0.56243   0.56631
 Alpha virt. eigenvalues --    0.57208   0.58089   0.58947   0.60665   0.61154
 Alpha virt. eigenvalues --    0.61741   0.63008   0.64083   0.64983   0.65469
 Alpha virt. eigenvalues --    0.65874   0.66469   0.66790   0.67727   0.68365
 Alpha virt. eigenvalues --    0.69542   0.70090   0.70636   0.71575   0.71841
 Alpha virt. eigenvalues --    0.72555   0.72792   0.74117   0.74398   0.75639
 Alpha virt. eigenvalues --    0.76406   0.77195   0.77951   0.79151   0.80190
 Alpha virt. eigenvalues --    0.81157   0.81890   0.83551   0.84677   0.86080
 Alpha virt. eigenvalues --    0.86951   0.88012   0.89028   0.89817   0.91293
 Alpha virt. eigenvalues --    0.91684   0.92417   0.93129   0.93971   0.95905
 Alpha virt. eigenvalues --    0.96986   0.97779   0.99441   1.00791   1.01829
 Alpha virt. eigenvalues --    1.02592   1.05306   1.06327   1.08949   1.09578
 Alpha virt. eigenvalues --    1.10147   1.12271   1.13979   1.14665   1.16059
 Alpha virt. eigenvalues --    1.16175   1.17694   1.18353   1.18892   1.20465
 Alpha virt. eigenvalues --    1.22264   1.22562   1.24101   1.24442   1.26365
 Alpha virt. eigenvalues --    1.27193   1.28704   1.29310   1.30627   1.31383
 Alpha virt. eigenvalues --    1.33369   1.33723   1.36746   1.38704   1.39608
 Alpha virt. eigenvalues --    1.40613   1.43974   1.45986   1.47478   1.48689
 Alpha virt. eigenvalues --    1.51753   1.52356   1.53632   1.54743   1.56211
 Alpha virt. eigenvalues --    1.57108   1.57901   1.59691   1.60951   1.61595
 Alpha virt. eigenvalues --    1.63436   1.64087   1.64474   1.64694   1.65861
 Alpha virt. eigenvalues --    1.66626   1.66993   1.67851   1.68685   1.69977
 Alpha virt. eigenvalues --    1.71805   1.72116   1.73292   1.74399   1.74578
 Alpha virt. eigenvalues --    1.75519   1.76550   1.77691   1.78697   1.80329
 Alpha virt. eigenvalues --    1.81561   1.82644   1.83189   1.84668   1.86336
 Alpha virt. eigenvalues --    1.90346   1.90661   1.92852   1.93961   1.96992
 Alpha virt. eigenvalues --    1.97890   1.99298   2.00262   2.03099   2.04091
 Alpha virt. eigenvalues --    2.05811   2.08636   2.09516   2.11399   2.12636
 Alpha virt. eigenvalues --    2.14245   2.15207   2.16255   2.21408   2.22260
 Alpha virt. eigenvalues --    2.23416   2.23618   2.24431   2.26547   2.28531
 Alpha virt. eigenvalues --    2.31345   2.33637   2.35823   2.38053   2.42149
 Alpha virt. eigenvalues --    2.43799   2.44831   2.47004   2.47902   2.49738
 Alpha virt. eigenvalues --    2.52054   2.52362   2.55274   2.55588   2.57226
 Alpha virt. eigenvalues --    2.59048   2.61576   2.62252   2.62742   2.63715
 Alpha virt. eigenvalues --    2.66236   2.66500   2.68500   2.68804   2.69581
 Alpha virt. eigenvalues --    2.70796   2.72524   2.73618   2.75528   2.78599
 Alpha virt. eigenvalues --    2.79821   2.80353   2.81371   2.81833   2.83765
 Alpha virt. eigenvalues --    2.84907   2.86056   2.86765   2.88174   2.89158
 Alpha virt. eigenvalues --    2.89680   2.90548   2.91303   2.92828   2.93499
 Alpha virt. eigenvalues --    2.95392   2.96053   2.97577   2.98487   3.00345
 Alpha virt. eigenvalues --    3.00972   3.03560   3.06689   3.08192   3.08642
 Alpha virt. eigenvalues --    3.12994   3.14611   3.16805   3.17637   3.21187
 Alpha virt. eigenvalues --    3.29145   3.30674   3.33427   3.35704   3.36607
 Alpha virt. eigenvalues --    3.42161   3.43450   3.49913   3.54267   3.55928
 Alpha virt. eigenvalues --    3.58003   3.60867   3.63410   3.66641   3.70080
 Alpha virt. eigenvalues --    3.72158   3.79566   3.82356   3.83240   3.84112
 Alpha virt. eigenvalues --    3.86609   3.90015   3.90849   3.92716   3.95354
 Alpha virt. eigenvalues --    4.05187   4.07260   4.08093   4.15068   4.19324
 Alpha virt. eigenvalues --    4.28793   4.30053   4.48923   4.72752   4.74791
 Alpha virt. eigenvalues --    4.82831   4.85213   4.90868   4.96751   5.01371
 Alpha virt. eigenvalues --    5.06301   5.10183   5.19300   5.25845   5.28710
 Alpha virt. eigenvalues --    5.39401   5.59875   5.78706   5.88648  23.74526
 Alpha virt. eigenvalues --   23.78247  23.83075  23.84641  23.87321  23.91262
 Alpha virt. eigenvalues --   23.92057  23.94053  24.09336  35.53417  35.59325
 Alpha virt. eigenvalues --   35.61165  35.67850  49.86836  49.99926  50.03490
          Condensed to atoms (all electrons):
               1          2          3          4          5          6
     1  O    8.062979   0.307029  -0.141370   0.059473   0.023873   0.000044
     2  C    0.307029   8.536076  -0.505571  -0.249660   0.006720   0.009519
     3  N   -0.141370  -0.505571   7.794142  -0.363570  -0.464728   0.014946
     4  C    0.059473  -0.249660  -0.363570  10.818928  -1.219962  -0.242625
     5  C    0.023873   0.006720  -0.464728  -1.219962   7.869322   0.309549
     6  O    0.000044   0.009519   0.014946  -0.242625   0.309549   7.865052
     7  O    0.000527   0.024262   0.051982  -0.177343   0.413997  -0.106282
     8  C   -0.089435   0.864867  -0.021898   0.437069  -0.045371   0.127158
     9  C    0.050031  -1.444989   0.616915  -2.791109  -0.639824   0.054792
    10  C    0.022045  -0.089187  -0.062188  -0.490482   0.208163  -0.107486
    11  N   -0.000151   0.006468   0.001104   0.004360   0.019445  -0.004214
    12  C   -0.000091   0.006118   0.011696  -0.018384   0.021144  -0.021952
    13  N   -0.001416   0.027312  -0.011611   0.132608   0.123844  -0.037383
    14  C    0.037076  -1.619739  -0.112685  -0.420812  -0.086090  -0.004226
    15  C   -0.019539   0.296675   0.030813  -0.039664  -0.010206  -0.000684
    16  N    0.000283  -0.029703  -0.010457   0.003795   0.000083  -0.000001
    17  H    0.000491   0.134550   0.255103  -0.051702   0.027841   0.017008
    18  H   -0.019679   0.077280  -0.079693   0.650015  -0.111100   0.021390
    19  H    0.001125   0.028095   0.003059   0.073043  -0.127193   0.213883
    20  H    0.005015   0.101137  -0.028334   0.109230  -0.057425  -0.005074
    21  H    0.010980  -0.080902  -0.001307  -0.202446   0.006568  -0.000612
    22  H    0.000005  -0.000630  -0.000904   0.007075  -0.004928  -0.001412
    23  H   -0.000024  -0.000085   0.000319  -0.001692  -0.002647   0.000502
    24  H   -0.000224   0.000881   0.000309   0.005571  -0.005700  -0.000271
    25  H    0.011421  -0.243144   0.037771   0.033606  -0.028606  -0.001099
    26  H   -0.003777  -0.010732   0.003383  -0.007955  -0.001251  -0.000224
    27  H    0.007768  -0.031951  -0.004405   0.004206  -0.000292   0.000072
    28  H   -0.012716  -0.001183   0.001136  -0.010080   0.002264  -0.000072
    29  H   -0.000317  -0.001007  -0.001763  -0.002003   0.000628   0.000004
    30  H    0.000468  -0.001222   0.001290  -0.000461  -0.000239  -0.000003
               7          8          9         10         11         12
     1  O    0.000527  -0.089435   0.050031   0.022045  -0.000151  -0.000091
     2  C    0.024262   0.864867  -1.444989  -0.089187   0.006468   0.006118
     3  N    0.051982  -0.021898   0.616915  -0.062188   0.001104   0.011696
     4  C   -0.177343   0.437069  -2.791109  -0.490482   0.004360  -0.018384
     5  C    0.413997  -0.045371  -0.639824   0.208163   0.019445   0.021144
     6  O   -0.106282   0.127158   0.054792  -0.107486  -0.004214  -0.021952
     7  O    7.982986  -0.003897   0.028357  -0.002574   0.000091   0.000992
     8  C   -0.003897  21.545742 -14.909003  -2.319328   0.015054  -0.045568
     9  C    0.028357 -14.909003  27.661060  -0.913453  -0.470732  -0.295370
    10  C   -0.002574  -2.319328  -0.913453   9.268889   0.663825  -0.269917
    11  N    0.000091   0.015054  -0.470732   0.663825   6.555072   0.367851
    12  C    0.000992  -0.045568  -0.295370  -0.269917   0.367851   5.446020
    13  N   -0.001499   0.262670  -1.124966   0.212352   0.071155   0.280847
    14  C   -0.000502  -0.155825   0.380574  -0.014770  -0.000330   0.002277
    15  C   -0.003617   0.043859  -0.057637   0.008309   0.000116   0.000168
    16  N   -0.000053  -0.003478  -0.004465  -0.000075   0.000000  -0.000007
    17  H    0.041194   0.063394  -0.078159   0.001317   0.000172   0.000279
    18  H   -0.011777   0.241033  -0.327142  -0.147924  -0.000183   0.000740
    19  H    0.025905  -0.075635  -0.024891   0.086590   0.005245   0.013154
    20  H    0.003469   1.057750  -0.870668  -0.036263   0.005374  -0.005974
    21  H    0.000264  -0.288419   0.905540  -0.015822  -0.008066  -0.009899
    22  H   -0.000454  -0.072225  -0.069535   0.493106  -0.070760   0.031771
    23  H    0.000102   0.034195   0.036812  -0.005677  -0.068216   0.426069
    24  H   -0.000254  -0.037049   0.042070  -0.040012   0.008792  -0.015420
    25  H   -0.005639  -0.002888   0.010696  -0.000906  -0.000025  -0.000003
    26  H    0.000364  -0.001389   0.000811   0.001164  -0.000002   0.000055
    27  H    0.000084   0.001581  -0.003968  -0.000702  -0.000006  -0.000089
    28  H   -0.000105   0.014612  -0.017677  -0.000002   0.000030   0.000048
    29  H    0.000053   0.000796  -0.000100   0.000039   0.000000  -0.000002
    30  H   -0.000017   0.000278  -0.000409   0.000024   0.000000   0.000000
              13         14         15         16         17         18
     1  O   -0.001416   0.037076  -0.019539   0.000283   0.000491  -0.019679
     2  C    0.027312  -1.619739   0.296675  -0.029703   0.134550   0.077280
     3  N   -0.011611  -0.112685   0.030813  -0.010457   0.255103  -0.079693
     4  C    0.132608  -0.420812  -0.039664   0.003795  -0.051702   0.650015
     5  C    0.123844  -0.086090  -0.010206   0.000083   0.027841  -0.111100
     6  O   -0.037383  -0.004226  -0.000684  -0.000001   0.017008   0.021390
     7  O   -0.001499  -0.000502  -0.003617  -0.000053   0.041194  -0.011777
     8  C    0.262670  -0.155825   0.043859  -0.003478   0.063394   0.241033
     9  C   -1.124966   0.380574  -0.057637  -0.004465  -0.078159  -0.327142
    10  C    0.212352  -0.014770   0.008309  -0.000075   0.001317  -0.147924
    11  N    0.071155  -0.000330   0.000116   0.000000   0.000172  -0.000183
    12  C    0.280847   0.002277   0.000168  -0.000007   0.000279   0.000740
    13  N    6.936607  -0.005611   0.000953   0.000010   0.002468  -0.005544
    14  C   -0.005611   8.049858  -0.459161  -0.061006  -0.083322  -0.065746
    15  C    0.000953  -0.459161   5.940530   0.160038  -0.005672   0.002111
    16  N    0.000010  -0.061006   0.160038   6.630680  -0.006172   0.000358
    17  H    0.002468  -0.083322  -0.005672  -0.006172   0.421698   0.004017
    18  H   -0.005544  -0.065746   0.002111   0.000358   0.004017   0.517193
    19  H    0.001902   0.006535  -0.000304   0.000002  -0.003064  -0.021225
    20  H    0.012900  -0.032378   0.010427   0.001149  -0.001891   0.019586
    21  H   -0.031826   0.020984  -0.016692  -0.002130  -0.002905  -0.021133
    22  H    0.014026  -0.000345   0.000539  -0.000006  -0.000134  -0.007670
    23  H   -0.111526   0.000043   0.000000   0.000000   0.000004   0.000543
    24  H    0.350774   0.000046  -0.000166  -0.000005   0.000507  -0.000270
    25  H   -0.000267   0.488858  -0.021645   0.015664  -0.024964   0.001227
    26  H    0.000046   0.427515  -0.098645   0.006323  -0.000465  -0.000154
    27  H   -0.000032  -0.037392   0.432763  -0.032343   0.000023   0.000825
    28  H    0.000336   0.038989   0.346574  -0.129888   0.003614  -0.000813
    29  H    0.000001   0.016734  -0.063684   0.392199   0.001800  -0.000195
    30  H    0.000003  -0.010637  -0.036447   0.405776  -0.000681   0.000038
              19         20         21         22         23         24
     1  O    0.001125   0.005015   0.010980   0.000005  -0.000024  -0.000224
     2  C    0.028095   0.101137  -0.080902  -0.000630  -0.000085   0.000881
     3  N    0.003059  -0.028334  -0.001307  -0.000904   0.000319   0.000309
     4  C    0.073043   0.109230  -0.202446   0.007075  -0.001692   0.005571
     5  C   -0.127193  -0.057425   0.006568  -0.004928  -0.002647  -0.005700
     6  O    0.213883  -0.005074  -0.000612  -0.001412   0.000502  -0.000271
     7  O    0.025905   0.003469   0.000264  -0.000454   0.000102  -0.000254
     8  C   -0.075635   1.057750  -0.288419  -0.072225   0.034195  -0.037049
     9  C   -0.024891  -0.870668   0.905540  -0.069535   0.036812   0.042070
    10  C    0.086590  -0.036263  -0.015822   0.493106  -0.005677  -0.040012
    11  N    0.005245   0.005374  -0.008066  -0.070760  -0.068216   0.008792
    12  C    0.013154  -0.005974  -0.009899   0.031771   0.426069  -0.015420
    13  N    0.001902   0.012900  -0.031826   0.014026  -0.111526   0.350774
    14  C    0.006535  -0.032378   0.020984  -0.000345   0.000043   0.000046
    15  C   -0.000304   0.010427  -0.016692   0.000539   0.000000  -0.000166
    16  N    0.000002   0.001149  -0.002130  -0.000006   0.000000  -0.000005
    17  H   -0.003064  -0.001891  -0.002905  -0.000134   0.000004   0.000507
    18  H   -0.021225   0.019586  -0.021133  -0.007670   0.000543  -0.000270
    19  H    0.447365   0.006511  -0.005014  -0.000725   0.000357  -0.000242
    20  H    0.006511   0.647201  -0.075457  -0.003754   0.001811  -0.011036
    21  H   -0.005014  -0.075457   0.544498   0.005006  -0.001354   0.003864
    22  H   -0.000725  -0.003754   0.005006   0.517498  -0.001095   0.001032
    23  H    0.000357   0.001811  -0.001354  -0.001095   0.521386  -0.003300
    24  H   -0.000242  -0.011036   0.003864   0.001032  -0.003300   0.388526
    25  H    0.000072   0.001061   0.000101   0.000085  -0.000001  -0.000076
    26  H    0.000069   0.000217   0.000327  -0.000076   0.000004  -0.000016
    27  H   -0.000013   0.000174   0.000592  -0.000011  -0.000002   0.000002
    28  H    0.000091   0.001085  -0.006097  -0.000019   0.000002   0.000014
    29  H    0.000005  -0.000024   0.000087   0.000002   0.000000   0.000000
    30  H   -0.000002   0.000107  -0.000333   0.000003   0.000000  -0.000001
              25         26         27         28         29         30
     1  O    0.011421  -0.003777   0.007768  -0.012716  -0.000317   0.000468
     2  C   -0.243144  -0.010732  -0.031951  -0.001183  -0.001007  -0.001222
     3  N    0.037771   0.003383  -0.004405   0.001136  -0.001763   0.001290
     4  C    0.033606  -0.007955   0.004206  -0.010080  -0.002003  -0.000461
     5  C   -0.028606  -0.001251  -0.000292   0.002264   0.000628  -0.000239
     6  O   -0.001099  -0.000224   0.000072  -0.000072   0.000004  -0.000003
     7  O   -0.005639   0.000364   0.000084  -0.000105   0.000053  -0.000017
     8  C   -0.002888  -0.001389   0.001581   0.014612   0.000796   0.000278
     9  C    0.010696   0.000811  -0.003968  -0.017677  -0.000100  -0.000409
    10  C   -0.000906   0.001164  -0.000702  -0.000002   0.000039   0.000024
    11  N   -0.000025  -0.000002  -0.000006   0.000030   0.000000   0.000000
    12  C   -0.000003   0.000055  -0.000089   0.000048  -0.000002   0.000000
    13  N   -0.000267   0.000046  -0.000032   0.000336   0.000001   0.000003
    14  C    0.488858   0.427515  -0.037392   0.038989   0.016734  -0.010637
    15  C   -0.021645  -0.098645   0.432763   0.346574  -0.063684  -0.036447
    16  N    0.015664   0.006323  -0.032343  -0.129888   0.392199   0.405776
    17  H   -0.024964  -0.000465   0.000023   0.003614   0.001800  -0.000681
    18  H    0.001227  -0.000154   0.000825  -0.000813  -0.000195   0.000038
    19  H    0.000072   0.000069  -0.000013   0.000091   0.000005  -0.000002
    20  H    0.001061   0.000217   0.000174   0.001085  -0.000024   0.000107
    21  H    0.000101   0.000327   0.000592  -0.006097   0.000087  -0.000333
    22  H    0.000085  -0.000076  -0.000011  -0.000019   0.000002   0.000003
    23  H   -0.000001   0.000004  -0.000002   0.000002   0.000000   0.000000
    24  H   -0.000076  -0.000016   0.000002   0.000014   0.000000  -0.000001
    25  H    0.669295  -0.051026   0.018372  -0.051625   0.002882   0.003205
    26  H   -0.051026   0.505343  -0.011799   0.018453  -0.002045   0.001341
    27  H    0.018372  -0.011799   0.535087  -0.076549   0.011997  -0.014394
    28  H   -0.051625   0.018453  -0.076549   0.745845  -0.008510   0.007242
    29  H    0.002882  -0.002045   0.011997  -0.008510   0.512096  -0.061997
    30  H    0.003205   0.001341  -0.014394   0.007242  -0.061997   0.470218
 Mulliken charges:
               1
     1  O   -0.311892
     2  C   -0.117284
     3  N   -0.013482
     4  C   -0.049029
     5  C   -0.227880
     6  O   -0.100300
     7  O   -0.260616
     8  C   -0.638649
     9  C    0.256441
    10  C   -0.449055
    11  N   -0.101469
    12  C    0.073445
    13  N   -0.099133
    14  C   -0.298910
    15  C   -0.440112
    16  N   -0.336572
    17  H    0.283652
    18  H    0.283892
    19  H    0.345299
    20  H    0.144077
    21  H    0.271605
    22  H    0.164535
    23  H    0.173473
    24  H    0.311655
    25  H    0.137598
    26  H    0.224140
    27  H    0.200402
    28  H    0.134997
    29  H    0.202322
    30  H    0.236849
 Sum of Mulliken charges =   0.00000
 Mulliken charges with hydrogens summed into heavy atoms:
               1
     1  O   -0.311892
     2  C   -0.117284
     3  N    0.270170
     4  C    0.234863
     5  C   -0.227880
     6  O    0.244999
     7  O   -0.260616
     8  C   -0.222968
     9  C    0.256441
    10  C   -0.284520
    11  N   -0.101469
    12  C    0.246918
    13  N    0.212522
    14  C    0.062828
    15  C   -0.104713
    16  N    0.102600
 Electronic spatial extent (au):  <R**2>=           5314.5542
 Charge=              0.0000 electrons
 Dipole moment (field-independent basis, Debye):
    X=              0.1241    Y=             -4.6638    Z=             -1.0181  Tot=              4.7752
 Quadrupole moment (field-independent basis, Debye-Ang):
   XX=            -94.0860   YY=            -92.8228   ZZ=           -112.2262
   XY=              6.1588   XZ=             -1.1992   YZ=              5.8633
 Traceless Quadrupole moment (field-independent basis, Debye-Ang):
   XX=              5.6257   YY=              6.8889   ZZ=            -12.5145
   XY=              6.1588   XZ=             -1.1992   YZ=              5.8633
 Octapole moment (field-independent basis, Debye-Ang**2):
  XXX=            116.7583  YYY=            -56.3152  ZZZ=            -90.1739  XYY=             55.5552
  XXY=           -133.5954  XXZ=            -19.9663  XZZ=             84.8991  YZZ=            -16.3932
  YYZ=             -6.5096  XYZ=             -5.7689
 Hexadecapole moment (field-independent basis, Debye-Ang**3):
 XXXX=          -5581.9217 YYYY=           -420.6439 ZZZZ=          -1196.3331 XXXY=            499.0115
 XXXZ=           -197.4598 YYYX=            348.0668 YYYZ=             23.2263 ZZZX=            111.5549
 ZZZY=             38.9447 XXYY=          -1007.5058 XXZZ=          -1139.2069 YYZZ=           -249.3146
 XXYZ=             84.5893 YYXZ=             10.8139 ZZXY=            109.4817
 N-N= 1.102531273283D+03 E-N=-4.065118738453D+03  KE= 7.932892323578D+02
 Calling FoFJK, ICntrl=      2127 FMM=F ISym2X=0 I1Cent= 0 IOpClX= 0 NMat=1 NMatS=1 NMatT=0.
 -------------------------------------------------------------------
 Center     Atomic                   Forces (Hartrees/Bohr)
 Number     Number              X              Y              Z
 -------------------------------------------------------------------
      1        8           0.000001948    0.000004305   -0.000000666
      2        6          -0.000003301   -0.000009357    0.000001487
      3        7           0.000000793    0.000003078   -0.000000035
      4        6          -0.000000096    0.000001425    0.000000364
      5        6          -0.000000872    0.000000869    0.000000020
      6        8           0.000000440   -0.000000314   -0.000001329
      7        8          -0.000000224    0.000000522   -0.000000445
      8        6           0.000000000   -0.000000494    0.000000007
      9        6          -0.000000123    0.000000028    0.000000074
     10        6           0.000000079   -0.000000206    0.000000143
     11        7           0.000000721   -0.000000577   -0.000000031
     12        6           0.000000020   -0.000000283   -0.000000264
     13        7          -0.000000311    0.000000267    0.000000101
     14        6          -0.000001803   -0.000003280   -0.000001673
     15        6           0.000004398    0.000002831    0.000001893
     16        7          -0.000000243    0.000000960    0.000000615
     17        1          -0.000000034   -0.000000382   -0.000002197
     18        1          -0.000000207    0.000000168    0.000000256
     19        1           0.000000563   -0.000000729    0.000000403
     20        1           0.000000290   -0.000000042    0.000000010
     21        1          -0.000000687    0.000000181    0.000000400
     22        1           0.000000065   -0.000000098   -0.000000260
     23        1           0.000000020   -0.000000071   -0.000000277
     24        1           0.000000013   -0.000000053   -0.000000129
     25        1           0.000001465    0.000001294   -0.000000350
     26        1           0.000000573    0.000002276    0.000000743
     27        1          -0.000001819   -0.000000974    0.000000852
     28        1          -0.000000740   -0.000001061    0.000000207
     29        1          -0.000000036    0.000000189   -0.000000989
     30        1          -0.000000891   -0.000000470    0.000001071
 -------------------------------------------------------------------
 Cartesian Forces:  Max     0.000009357 RMS     0.000001554

 GradGradGradGradGradGradGradGradGradGradGradGradGradGradGradGradGradGrad
 Berny optimization.
 FormGI is forming the generalized inverse of G from B-inverse, IUseBI=4.
 Internal  Forces:  Max     0.000003428 RMS     0.000000935
 Search for a local minimum.
 Step number   1 out of a maximum of  160
 All quantities printed in internal units (Hartrees-Bohrs-Radians)
 Mixed Optimization -- En-DIIS/RFO-DIIS
 Second derivative matrix not updated -- first step.
 ITU=  0
     Eigenvalues ---    0.00026   0.00067   0.00224   0.00248   0.00299
     Eigenvalues ---    0.00409   0.00542   0.00624   0.00736   0.00912
     Eigenvalues ---    0.01796   0.01973   0.02163   0.02476   0.02783
     Eigenvalues ---    0.03437   0.03990   0.04080   0.04159   0.04332
     Eigenvalues ---    0.04377   0.04507   0.05017   0.05068   0.05107
     Eigenvalues ---    0.05532   0.06036   0.06106   0.07493   0.07783
     Eigenvalues ---    0.08217   0.10147   0.10650   0.10779   0.11310
     Eigenvalues ---    0.11482   0.11958   0.13393   0.14565   0.14904
     Eigenvalues ---    0.16163   0.17062   0.17647   0.18025   0.18940
     Eigenvalues ---    0.19489   0.21302   0.21760   0.22471   0.22914
     Eigenvalues ---    0.23095   0.23894   0.24326   0.25110   0.28922
     Eigenvalues ---    0.30702   0.31393   0.32490   0.32610   0.32984
     Eigenvalues ---    0.33175   0.33497   0.33578   0.33920   0.34198
     Eigenvalues ---    0.34614   0.36430   0.36793   0.36965   0.37211
     Eigenvalues ---    0.39608   0.40661   0.43255   0.44011   0.44668
     Eigenvalues ---    0.45063   0.45193   0.46055   0.46218   0.47477
     Eigenvalues ---    0.48433   0.57907   0.79857   0.87719
 RFO step:  Lambda= 0.00000000D+00 EMin= 2.61601516D-04
 Linear search not attempted -- first point.
 Iteration  1 RMS(Cart)=  0.00051383 RMS(Int)=  0.00000008
 Iteration  2 RMS(Cart)=  0.00000015 RMS(Int)=  0.00000000
 Variable       Old X    -DE/DX   Delta X   Delta X   Delta X     New X
                                 (Linear)    (Quad)   (Total)
    R1        2.31349   0.00000   0.00000   0.00000   0.00000   2.31349
    R2        2.57777   0.00000   0.00000  -0.00001  -0.00001   2.57776
    R3        2.86785   0.00000   0.00000   0.00001   0.00001   2.86786
    R4        2.73014   0.00000   0.00000   0.00000   0.00000   2.73013
    R5        1.91072   0.00000   0.00000   0.00000   0.00000   1.91071
    R6        2.89152   0.00000   0.00000   0.00000   0.00000   2.89152
    R7        2.94067   0.00000   0.00000   0.00000   0.00000   2.94068
    R8        2.06918   0.00000   0.00000   0.00000   0.00000   2.06918
    R9        2.53756   0.00000   0.00000   0.00000   0.00000   2.53755
   R10        2.27501   0.00000   0.00000   0.00000   0.00000   2.27501
   R11        1.83917   0.00000   0.00000   0.00000   0.00000   1.83916
   R12        2.82300   0.00000   0.00000   0.00000   0.00000   2.82300
   R13        2.06644   0.00000   0.00000   0.00000   0.00000   2.06644
   R14        2.06191   0.00000   0.00000   0.00000   0.00000   2.06191
   R15        2.60481   0.00000   0.00000   0.00000   0.00000   2.60481
   R16        2.61293   0.00000   0.00000   0.00000   0.00000   2.61293
   R17        2.60772   0.00000   0.00000   0.00000   0.00000   2.60772
   R18        2.03966   0.00000   0.00000   0.00000   0.00000   2.03966
   R19        2.47906   0.00000   0.00000   0.00000   0.00000   2.47906
   R20        2.58597   0.00000   0.00000   0.00000   0.00000   2.58597
   R21        2.03877   0.00000   0.00000   0.00000   0.00000   2.03877
   R22        1.90562   0.00000   0.00000   0.00000   0.00000   1.90562
   R23        2.88780   0.00000   0.00000  -0.00002  -0.00002   2.88777
   R24        2.06948   0.00000   0.00000   0.00000   0.00000   2.06948
   R25        2.06935   0.00000   0.00000   0.00001   0.00001   2.06936
   R26        2.76898   0.00000   0.00000   0.00000   0.00000   2.76898
   R27        2.06123   0.00000   0.00000   0.00000   0.00000   2.06123
   R28        2.08049   0.00000   0.00000   0.00000   0.00000   2.08049
   R29        1.91831   0.00000   0.00000   0.00000   0.00000   1.91831
   R30        1.91601   0.00000   0.00000   0.00000   0.00000   1.91601
    A1        2.12187   0.00000   0.00000   0.00000   0.00000   2.12187
    A2        2.14257   0.00000   0.00000   0.00000   0.00000   2.14257
    A3        2.01870   0.00000   0.00000   0.00000   0.00000   2.01869
    A4        2.11462   0.00000   0.00000   0.00000   0.00000   2.11462
    A5        2.12040   0.00000   0.00000  -0.00002  -0.00002   2.12038
    A6        2.02918   0.00000   0.00000   0.00000   0.00000   2.02919
    A7        1.88500   0.00000   0.00000   0.00000   0.00000   1.88500
    A8        1.94120   0.00000   0.00000   0.00000   0.00000   1.94120
    A9        1.90004   0.00000   0.00000  -0.00001  -0.00001   1.90003
   A10        1.95301   0.00000   0.00000   0.00000   0.00000   1.95301
   A11        1.90681   0.00000   0.00000   0.00000   0.00000   1.90681
   A12        1.87712   0.00000   0.00000   0.00000   0.00000   1.87712
   A13        2.02827   0.00000   0.00000   0.00000   0.00000   2.02827
   A14        2.14258   0.00000   0.00000   0.00000   0.00000   2.14258
   A15        2.11228   0.00000   0.00000   0.00000   0.00000   2.11228
   A16        1.93405   0.00000   0.00000   0.00000   0.00000   1.93404
   A17        1.97763   0.00000   0.00000   0.00000   0.00000   1.97763
   A18        1.89549   0.00000   0.00000   0.00000   0.00000   1.89549
   A19        1.85040   0.00000   0.00000   0.00000   0.00000   1.85040
   A20        1.93092   0.00000   0.00000   0.00001   0.00001   1.93092
   A21        1.92766   0.00000   0.00000   0.00000   0.00000   1.92765
   A22        1.87746   0.00000   0.00000   0.00000   0.00000   1.87746
   A23        2.30749   0.00000   0.00000  -0.00001  -0.00001   2.30748
   A24        2.15224   0.00000   0.00000   0.00001   0.00001   2.15224
   A25        1.82239   0.00000   0.00000   0.00000   0.00000   1.82239
   A26        1.93394   0.00000   0.00000   0.00000   0.00000   1.93394
   A27        2.22802   0.00000   0.00000   0.00000   0.00000   2.22802
   A28        2.12081   0.00000   0.00000   0.00000   0.00000   2.12081
   A29        1.84366   0.00000   0.00000   0.00000   0.00000   1.84366
   A30        1.94289   0.00000   0.00000   0.00000   0.00000   1.94289
   A31        2.20169   0.00000   0.00000   0.00000   0.00000   2.20169
   A32        2.13860   0.00000   0.00000   0.00000   0.00000   2.13860
   A33        1.88189   0.00000   0.00000   0.00000   0.00000   1.88189
   A34        2.19441   0.00000   0.00000   0.00000   0.00000   2.19441
   A35        2.20644   0.00000   0.00000   0.00000   0.00000   2.20644
   A36        1.95447   0.00000   0.00000   0.00005   0.00005   1.95452
   A37        1.93055   0.00000   0.00000   0.00001   0.00001   1.93055
   A38        1.88188   0.00000   0.00000  -0.00005  -0.00005   1.88183
   A39        1.93104   0.00000   0.00000   0.00003   0.00003   1.93107
   A40        1.89507   0.00000   0.00000  -0.00001  -0.00001   1.89506
   A41        1.86770   0.00000   0.00000  -0.00003  -0.00003   1.86768
   A42        1.91885   0.00000   0.00000   0.00001   0.00001   1.91886
   A43        1.89132   0.00000   0.00000  -0.00001  -0.00001   1.89131
   A44        1.90441   0.00000   0.00000   0.00000   0.00000   1.90441
   A45        1.89538   0.00000   0.00000   0.00001   0.00001   1.89539
   A46        1.98586   0.00000   0.00000   0.00000   0.00000   1.98586
   A47        1.86522   0.00000   0.00000  -0.00001  -0.00001   1.86521
   A48        1.94204   0.00000   0.00000  -0.00001  -0.00001   1.94203
   A49        1.93613   0.00000   0.00000  -0.00001  -0.00001   1.93612
   A50        1.87059   0.00000   0.00000  -0.00002  -0.00002   1.87057
    D1       -0.10567   0.00000   0.00000  -0.00008  -0.00008  -0.10575
    D2       -3.03134   0.00000   0.00000  -0.00001  -0.00001  -3.03135
    D3        3.02620   0.00000   0.00000  -0.00022  -0.00022   3.02598
    D4        0.10052   0.00000   0.00000  -0.00015  -0.00015   0.10037
    D5       -0.68140   0.00000   0.00000   0.00058   0.00058  -0.68081
    D6       -2.84413   0.00000   0.00000   0.00051   0.00051  -2.84362
    D7        1.40231   0.00000   0.00000   0.00057   0.00057   1.40288
    D8        2.47005   0.00000   0.00000   0.00073   0.00073   2.47078
    D9        0.30731   0.00000   0.00000   0.00066   0.00066   0.30797
   D10       -1.72943   0.00000   0.00000   0.00071   0.00071  -1.72871
   D11       -2.76756   0.00000   0.00000   0.00019   0.00019  -2.76738
   D12        1.36617   0.00000   0.00000   0.00018   0.00018   1.36636
   D13       -0.69906   0.00000   0.00000   0.00019   0.00019  -0.69887
   D14        0.16887   0.00000   0.00000   0.00012   0.00012   0.16899
   D15       -1.98058   0.00000   0.00000   0.00011   0.00011  -1.98046
   D16        2.23738   0.00000   0.00000   0.00012   0.00012   2.23749
   D17        2.96247   0.00000   0.00000  -0.00004  -0.00004   2.96244
   D18       -0.19078   0.00000   0.00000  -0.00004  -0.00004  -0.19082
   D19       -1.17846   0.00000   0.00000  -0.00003  -0.00003  -1.17850
   D20        1.95147   0.00000   0.00000  -0.00004  -0.00004   1.95143
   D21        0.89830   0.00000   0.00000  -0.00003  -0.00003   0.89827
   D22       -2.25495   0.00000   0.00000  -0.00003  -0.00003  -2.25499
   D23       -3.05557   0.00000   0.00000  -0.00005  -0.00005  -3.05563
   D24        1.07458   0.00000   0.00000  -0.00006  -0.00006   1.07451
   D25       -0.93855   0.00000   0.00000  -0.00006  -0.00006  -0.93860
   D26        1.11765   0.00000   0.00000  -0.00006  -0.00006   1.11759
   D27       -1.03539   0.00000   0.00000  -0.00007  -0.00007  -1.03546
   D28       -3.04851   0.00000   0.00000  -0.00006  -0.00006  -3.04857
   D29       -0.97659   0.00000   0.00000  -0.00006  -0.00006  -0.97665
   D30       -3.12962   0.00000   0.00000  -0.00007  -0.00007  -3.12969
   D31        1.14044   0.00000   0.00000  -0.00007  -0.00007   1.14038
   D32        0.05750   0.00000   0.00000   0.00001   0.00001   0.05750
   D33       -3.07265   0.00000   0.00000   0.00001   0.00001  -3.07264
   D34        1.03256   0.00000   0.00000   0.00012   0.00012   1.03268
   D35       -2.05108   0.00000   0.00000   0.00014   0.00014  -2.05094
   D36       -3.11718   0.00000   0.00000   0.00012   0.00012  -3.11706
   D37        0.08236   0.00000   0.00000   0.00014   0.00014   0.08250
   D38       -1.04043   0.00000   0.00000   0.00012   0.00012  -1.04031
   D39        2.15911   0.00000   0.00000   0.00014   0.00014   2.15925
   D40       -3.09465   0.00000   0.00000   0.00002   0.00002  -3.09463
   D41        0.07793   0.00000   0.00000   0.00002   0.00002   0.07795
   D42       -0.00305   0.00000   0.00000   0.00000   0.00000  -0.00306
   D43       -3.11365   0.00000   0.00000   0.00000   0.00000  -3.11366
   D44        3.10108   0.00000   0.00000  -0.00002  -0.00002   3.10106
   D45       -0.01013   0.00000   0.00000  -0.00001  -0.00001  -0.01014
   D46        0.00380   0.00000   0.00000   0.00000   0.00000   0.00380
   D47       -3.10741   0.00000   0.00000   0.00001   0.00001  -3.10741
   D48        0.00109   0.00000   0.00000   0.00000   0.00000   0.00109
   D49        3.11390   0.00000   0.00000   0.00000   0.00000   3.11390
   D50        0.00143   0.00000   0.00000   0.00000   0.00000   0.00143
   D51        3.14135   0.00000   0.00000   0.00000   0.00000   3.14136
   D52       -0.00340   0.00000   0.00000   0.00000   0.00000  -0.00340
   D53        3.10754   0.00000   0.00000  -0.00001  -0.00001   3.10754
   D54        3.13979   0.00000   0.00000   0.00000   0.00000   3.13979
   D55       -0.03245   0.00000   0.00000  -0.00001  -0.00001  -0.03246
   D56        3.03403   0.00000   0.00000  -0.00025  -0.00025   3.03379
   D57        0.96497   0.00000   0.00000  -0.00026  -0.00026   0.96470
   D58       -1.05993   0.00000   0.00000  -0.00024  -0.00024  -1.06018
   D59       -1.08669   0.00000   0.00000  -0.00019  -0.00019  -1.08688
   D60        3.12743   0.00000   0.00000  -0.00020  -0.00020   3.12723
   D61        1.10253   0.00000   0.00000  -0.00018  -0.00018   1.10235
   D62        0.95810   0.00000   0.00000  -0.00021  -0.00021   0.95789
   D63       -1.11097   0.00000   0.00000  -0.00022  -0.00022  -1.11120
   D64       -3.13587   0.00000   0.00000  -0.00021  -0.00021  -3.13608
   D65        1.22319   0.00000   0.00000   0.00004   0.00004   1.22323
   D66       -2.97916   0.00000   0.00000   0.00001   0.00001  -2.97915
   D67       -2.99343   0.00000   0.00000   0.00004   0.00004  -2.99338
   D68       -0.91259   0.00000   0.00000   0.00001   0.00001  -0.91258
   D69       -0.91871   0.00000   0.00000   0.00004   0.00004  -0.91867
   D70        1.16213   0.00000   0.00000   0.00000   0.00000   1.16213
         Item               Value     Threshold  Converged?
 Maximum Force            0.000003     0.000450     YES
 RMS     Force            0.000001     0.000300     YES
 Maximum Displacement     0.002108     0.001800     NO 
 RMS     Displacement     0.000514     0.001200     YES
 Predicted change in Energy=-1.759071D-09
 Optimization completed on the basis of negligible forces.
    -- Stationary point found.
                           ----------------------------
                           !   Optimized Parameters   !
                           ! (Angstroms and Degrees)  !
 --------------------------                            --------------------------
 ! Name  Definition              Value          Derivative Info.                !
 --------------------------------------------------------------------------------
 ! R1    R(1,2)                  1.2242         -DE/DX =    0.0                 !
 ! R2    R(2,3)                  1.3641         -DE/DX =    0.0                 !
 ! R3    R(2,14)                 1.5176         -DE/DX =    0.0                 !
 ! R4    R(3,4)                  1.4447         -DE/DX =    0.0                 !
 ! R5    R(3,17)                 1.0111         -DE/DX =    0.0                 !
 ! R6    R(4,5)                  1.5301         -DE/DX =    0.0                 !
 ! R7    R(4,8)                  1.5561         -DE/DX =    0.0                 !
 ! R8    R(4,18)                 1.095          -DE/DX =    0.0                 !
 ! R9    R(5,6)                  1.3428         -DE/DX =    0.0                 !
 ! R10   R(5,7)                  1.2039         -DE/DX =    0.0                 !
 ! R11   R(6,19)                 0.9732         -DE/DX =    0.0                 !
 ! R12   R(8,9)                  1.4939         -DE/DX =    0.0                 !
 ! R13   R(8,20)                 1.0935         -DE/DX =    0.0                 !
 ! R14   R(8,21)                 1.0911         -DE/DX =    0.0                 !
 ! R15   R(9,10)                 1.3784         -DE/DX =    0.0                 !
 ! R16   R(9,13)                 1.3827         -DE/DX =    0.0                 !
 ! R17   R(10,11)                1.3799         -DE/DX =    0.0                 !
 ! R18   R(10,22)                1.0793         -DE/DX =    0.0                 !
 ! R19   R(11,12)                1.3119         -DE/DX =    0.0                 !
 ! R20   R(12,13)                1.3684         -DE/DX =    0.0                 !
 ! R21   R(12,23)                1.0789         -DE/DX =    0.0                 !
 ! R22   R(13,24)                1.0084         -DE/DX =    0.0                 !
 ! R23   R(14,15)                1.5282         -DE/DX =    0.0                 !
 ! R24   R(14,25)                1.0951         -DE/DX =    0.0                 !
 ! R25   R(14,26)                1.0951         -DE/DX =    0.0                 !
 ! R26   R(15,16)                1.4653         -DE/DX =    0.0                 !
 ! R27   R(15,27)                1.0908         -DE/DX =    0.0                 !
 ! R28   R(15,28)                1.1009         -DE/DX =    0.0                 !
 ! R29   R(16,29)                1.0151         -DE/DX =    0.0                 !
 ! R30   R(16,30)                1.0139         -DE/DX =    0.0                 !
 ! A1    A(1,2,3)              121.5742         -DE/DX =    0.0                 !
 ! A2    A(1,2,14)             122.7603         -DE/DX =    0.0                 !
 ! A3    A(3,2,14)             115.663          -DE/DX =    0.0                 !
 ! A4    A(2,3,4)              121.1587         -DE/DX =    0.0                 !
 ! A5    A(2,3,17)             121.49           -DE/DX =    0.0                 !
 ! A6    A(4,3,17)             116.2636         -DE/DX =    0.0                 !
 ! A7    A(3,4,5)              108.0023         -DE/DX =    0.0                 !
 ! A8    A(3,4,8)              111.2223         -DE/DX =    0.0                 !
 ! A9    A(3,4,18)             108.864          -DE/DX =    0.0                 !
 ! A10   A(5,4,8)              111.8993         -DE/DX =    0.0                 !
 ! A11   A(5,4,18)             109.2522         -DE/DX =    0.0                 !
 ! A12   A(8,4,18)             107.551          -DE/DX =    0.0                 !
 ! A13   A(4,5,6)              116.2112         -DE/DX =    0.0                 !
 ! A14   A(4,5,7)              122.7607         -DE/DX =    0.0                 !
 ! A15   A(6,5,7)              121.0247         -DE/DX =    0.0                 !
 ! A16   A(5,6,19)             110.8128         -DE/DX =    0.0                 !
 ! A17   A(4,8,9)              113.3098         -DE/DX =    0.0                 !
 ! A18   A(4,8,20)             108.6037         -DE/DX =    0.0                 !
 ! A19   A(4,8,21)             106.0204         -DE/DX =    0.0                 !
 ! A20   A(9,8,20)             110.6334         -DE/DX =    0.0                 !
 ! A21   A(9,8,21)             110.4467         -DE/DX =    0.0                 !
 ! A22   A(20,8,21)            107.5704         -DE/DX =    0.0                 !
 ! A23   A(8,9,10)             132.2094         -DE/DX =    0.0                 !
 ! A24   A(8,9,13)             123.3141         -DE/DX =    0.0                 !
 ! A25   A(10,9,13)            104.415          -DE/DX =    0.0                 !
 ! A26   A(9,10,11)            110.8069         -DE/DX =    0.0                 !
 ! A27   A(9,10,22)            127.656          -DE/DX =    0.0                 !
 ! A28   A(11,10,22)           121.5132         -DE/DX =    0.0                 !
 ! A29   A(10,11,12)           105.6338         -DE/DX =    0.0                 !
 ! A30   A(11,12,13)           111.3193         -DE/DX =    0.0                 !
 ! A31   A(11,12,23)           126.1476         -DE/DX =    0.0                 !
 ! A32   A(13,12,23)           122.533          -DE/DX =    0.0                 !
 ! A33   A(9,13,12)            107.8245         -DE/DX =    0.0                 !
 ! A34   A(9,13,24)            125.7304         -DE/DX =    0.0                 !
 ! A35   A(12,13,24)           126.4197         -DE/DX =    0.0                 !
 ! A36   A(2,14,15)            111.983          -DE/DX =    0.0                 !
 ! A37   A(2,14,25)            110.6123         -DE/DX =    0.0                 !
 ! A38   A(2,14,26)            107.8237         -DE/DX =    0.0                 !
 ! A39   A(15,14,25)           110.6406         -DE/DX =    0.0                 !
 ! A40   A(15,14,26)           108.5795         -DE/DX =    0.0                 !
 ! A41   A(25,14,26)           107.0115         -DE/DX =    0.0                 !
 ! A42   A(14,15,16)           109.9422         -DE/DX =    0.0                 !
 ! A43   A(14,15,27)           108.3646         -DE/DX =    0.0                 !
 ! A44   A(14,15,28)           109.1148         -DE/DX =    0.0                 !
 ! A45   A(16,15,27)           108.5971         -DE/DX =    0.0                 !
 ! A46   A(16,15,28)           113.7815         -DE/DX =    0.0                 !
 ! A47   A(27,15,28)           106.8694         -DE/DX =    0.0                 !
 ! A48   A(15,16,29)           111.2706         -DE/DX =    0.0                 !
 ! A49   A(15,16,30)           110.9321         -DE/DX =    0.0                 !
 ! A50   A(29,16,30)           107.1769         -DE/DX =    0.0                 !
 ! D1    D(1,2,3,4)             -6.0543         -DE/DX =    0.0                 !
 ! D2    D(1,2,3,17)          -173.6833         -DE/DX =    0.0                 !
 ! D3    D(14,2,3,4)           173.3886         -DE/DX =    0.0                 !
 ! D4    D(14,2,3,17)            5.7596         -DE/DX =    0.0                 !
 ! D5    D(1,2,14,15)          -39.0411         -DE/DX =    0.0                 !
 ! D6    D(1,2,14,25)         -162.9569         -DE/DX =    0.0                 !
 ! D7    D(1,2,14,26)           80.3467         -DE/DX =    0.0                 !
 ! D8    D(3,2,14,15)          141.5234         -DE/DX =    0.0                 !
 ! D9    D(3,2,14,25)           17.6076         -DE/DX =    0.0                 !
 ! D10   D(3,2,14,26)          -99.0889         -DE/DX =    0.0                 !
 ! D11   D(2,3,4,5)           -158.5696         -DE/DX =    0.0                 !
 ! D12   D(2,3,4,8)             78.2759         -DE/DX =    0.0                 !
 ! D13   D(2,3,4,18)           -40.0531         -DE/DX =    0.0                 !
 ! D14   D(17,3,4,5)             9.6758         -DE/DX =    0.0                 !
 ! D15   D(17,3,4,8)          -113.4787         -DE/DX =    0.0                 !
 ! D16   D(17,3,4,18)          128.1923         -DE/DX =    0.0                 !
 ! D17   D(3,4,5,6)            169.7372         -DE/DX =    0.0                 !
 ! D18   D(3,4,5,7)            -10.931          -DE/DX =    0.0                 !
 ! D19   D(8,4,5,6)            -67.5211         -DE/DX =    0.0                 !
 ! D20   D(8,4,5,7)            111.8107         -DE/DX =    0.0                 !
 ! D21   D(18,4,5,6)            51.4688         -DE/DX =    0.0                 !
 ! D22   D(18,4,5,7)          -129.1994         -DE/DX =    0.0                 !
 ! D23   D(3,4,8,9)           -175.0714         -DE/DX =    0.0                 !
 ! D24   D(3,4,8,20)            61.5686         -DE/DX =    0.0                 !
 ! D25   D(3,4,8,21)           -53.7747         -DE/DX =    0.0                 !
 ! D26   D(5,4,8,9)             64.0364         -DE/DX =    0.0                 !
 ! D27   D(5,4,8,20)           -59.3235         -DE/DX =    0.0                 !
 ! D28   D(5,4,8,21)          -174.6668         -DE/DX =    0.0                 !
 ! D29   D(18,4,8,9)           -55.9542         -DE/DX =    0.0                 !
 ! D30   D(18,4,8,20)         -179.3142         -DE/DX =    0.0                 !
 ! D31   D(18,4,8,21)           65.3425         -DE/DX =    0.0                 !
 ! D32   D(4,5,6,19)             3.2944         -DE/DX =    0.0                 !
 ! D33   D(7,5,6,19)          -176.0499         -DE/DX =    0.0                 !
 ! D34   D(4,8,9,10)            59.1614         -DE/DX =    0.0                 !
 ! D35   D(4,8,9,13)          -117.5183         -DE/DX =    0.0                 !
 ! D36   D(20,8,9,10)         -178.6014         -DE/DX =    0.0                 !
 ! D37   D(20,8,9,13)            4.7188         -DE/DX =    0.0                 !
 ! D38   D(21,8,9,10)          -59.6124         -DE/DX =    0.0                 !
 ! D39   D(21,8,9,13)          123.7079         -DE/DX =    0.0                 !
 ! D40   D(8,9,10,11)         -177.3105         -DE/DX =    0.0                 !
 ! D41   D(8,9,10,22)            4.4652         -DE/DX =    0.0                 !
 ! D42   D(13,9,10,11)          -0.175          -DE/DX =    0.0                 !
 ! D43   D(13,9,10,22)        -178.3992         -DE/DX =    0.0                 !
 ! D44   D(8,9,13,12)          177.6789         -DE/DX =    0.0                 !
 ! D45   D(8,9,13,24)           -0.5803         -DE/DX =    0.0                 !
 ! D46   D(10,9,13,12)           0.2176         -DE/DX =    0.0                 !
 ! D47   D(10,9,13,24)        -178.0416         -DE/DX =    0.0                 !
 ! D48   D(9,10,11,12)           0.0622         -DE/DX =    0.0                 !
 ! D49   D(22,10,11,12)        178.4132         -DE/DX =    0.0                 !
 ! D50   D(10,11,12,13)          0.082          -DE/DX =    0.0                 !
 ! D51   D(10,11,12,23)        179.9864         -DE/DX =    0.0                 !
 ! D52   D(11,12,13,9)          -0.1947         -DE/DX =    0.0                 !
 ! D53   D(11,12,13,24)        178.0492         -DE/DX =    0.0                 !
 ! D54   D(23,12,13,9)         179.8969         -DE/DX =    0.0                 !
 ! D55   D(23,12,13,24)         -1.8592         -DE/DX =    0.0                 !
 ! D56   D(2,14,15,16)         173.8373         -DE/DX =    0.0                 !
 ! D57   D(2,14,15,27)          55.2885         -DE/DX =    0.0                 !
 ! D58   D(2,14,15,28)         -60.7297         -DE/DX =    0.0                 !
 ! D59   D(25,14,15,16)        -62.2627         -DE/DX =    0.0                 !
 ! D60   D(25,14,15,27)        179.1884         -DE/DX =    0.0                 !
[...]
 17262,-0.00018441,0.00021305,-0.00084746,-0.00180550,-0.00092638,-0.00
 048780,-0.00678369,-0.00044648,0.00060466,0.00203889,-0.00034336,0.002
 13725,0.00587462,0.00240916,-0.00039301,-0.00805191,0.00233605,0.13413
 787,-0.04863196,0.00000866,-0.00000290,0.00000158,0.00001258,0.0000255
 7,0.00002571,-0.00000619,-0.00001097,-0.00002142,-0.00010749,-0.000034
 43,0.00009379,-0.00000449,-0.00004411,-0.00008045,-0.00009915,-0.00043
 965,0.00057804,0.00010808,0.00007598,0.00046296,0.00024654,0.00021835,
 0.00006138,0.00003339,0.00047767,0.00180463,-0.00007458,-0.00040662,-0
 .00105977,-0.00311813,-0.13536388,0.05540295,-0.00804799,0.00211892,-0
 .00337329,0.00571153,0.02458623,-0.02113338,-0.00037262,-0.00145186,0.
 00065247,0.00048478,-0.00014599,-0.00014177,-0.00004179,0.00005470,-0.
 00005657,0.00012823,-0.00006553,-0.00001947,0.00009935,-0.00009528,0.0
 0008527,0.00002744,-0.00003734,-0.00003376,0.00002433,0.00002430,0.000
 03722,0.00001621,0.00002898,-0.00000753,-0.00000573,-0.00001459,0.0000
 1138,-0.00001315,0.00000142,-0.00000776,-0.00001042,-0.00001625,0.0000
 1359,-0.04952708,-0.00226160,0.00411638,-0.00099314,-0.01388765,0.0120
 5790,0.00138702,-0.00056685,-0.00049730,-0.00158709,0.00064482,0.00051
 389,0.00016879,0.00001554,-0.00012687,-0.00001419,0.00001493,-0.000031
 36,-0.00003886,-0.00002614,0.00003701,0.00008190,0.00011167,0.00005604
 ,0.00000996,-0.00001399,-0.00000018,-0.00000072,-0.00000204,-0.0000026
 5,-0.00000420,0.00000466,-0.00000320,0.05396560,0.00324857,0.00123025,
 0.00054702,-0.00608778,-0.00866961,0.00598437,-0.00013952,0.00115072,-
 0.00082536,0.00018026,0.00030424,-0.00027114,0.00020273,-0.00019988,0.
 00036055,-0.00010489,0.00008835,-0.00008351,-0.00016411,0.00011856,-0.
 00027425,0.00001351,0.00002180,0.00004143,-0.00003235,-0.00000117,-0.0
 0003822,-0.00001762,-0.00002168,-0.00000425,0.00002696,0.00001149,-0.0
 0001334,0.00002053,-0.00000692,0.00000962,0.00001277,0.00000515,-0.000
 01603,0.00169083,-0.19381665,0.12464787,0.00045105,0.00747189,-0.00672
 264,-0.00112490,0.00079991,-0.00027343,0.00111204,0.00016021,-0.000569
 54,-0.00016750,0.00006970,0.00001014,-0.00000466,-0.00000061,0.0000445
 5,0.00001905,0.00001661,-0.00001405,-0.00007217,-0.00006853,-0.0000606
 4,-0.00000982,0.00001197,0.00000472,0.00000184,0.00000148,0.00000409,-
 0.00000364,-0.00000601,0.00001047,-0.00018224,0.20821780,-0.00230128,0
 .00104277,0.00139118,0.00163293,0.00478437,-0.00789199,0.00143784,-0.0
 0116423,0.00012011,-0.00045506,-0.00041730,0.00010757,-0.00010023,0.00
 004874,-0.00001065,0.00005202,-0.00002078,-0.00000441,0.00002372,-0.00
 005463,-0.00000006,-0.00003398,0.00004972,-0.00003783,-0.00001204,-0.0
 0000374,0.00000899,0.00001163,0.00001981,0.00000009,0.00001022,-0.0000
 1443,0.00001141,-0.00000333,0.00000554,-0.00000494,-0.00000900,-0.0000
 1799,0.00000915,0.00129754,0.12466363,-0.15340601,0.00036197,0.0222576
 0,-0.01945876,-0.00130780,-0.00049788,0.00160665,0.00018492,0.00024729
 ,0.00107758,0.00019930,-0.00009386,-0.00000711,-0.00001315,0.00000975,
 -0.00000824,-0.00003057,-0.00001249,0.00001742,0.00002282,0.00003868,0
 .00001757,0.00000512,-0.00000351,-0.00000736,-0.00000031,-0.00000103,-
 0.00000160,-0.00000867,0.00000431,-0.00000266,-0.00460262,-0.13787037,
 0.16968296,0.00079434,0.00330624,0.00185643,-0.01626381,-0.02641109,-0
 .01391627,-0.00190778,0.00238399,0.00045987,-0.00015022,0.00104943,0.0
 0113972,-0.00016798,0.00025563,-0.00047899,-0.00020314,-0.00000063,0.0
 0019495,0.00004662,-0.00002041,0.00022794,0.00024903,-0.00002915,0.000
 08634,0.00004546,-0.00001030,0.00000927,0.00000357,-0.00001531,0.00000
 511,-0.00002717,0.00000540,-0.00000521,-0.00001733,0.00000217,-0.00000
 066,0.00000739,0.00001866,-0.00000635,-0.10323181,-0.09778523,-0.05577
 308,0.00750139,0.01375576,0.00809493,0.00141421,-0.00017362,-0.0004337
 1,-0.00038141,-0.00061824,-0.00038827,-0.00028705,-0.00004233,0.000059
 39,0.00005462,-0.00003596,0.00001273,0.00000247,-0.00000901,-0.0000163
 2,0.00001506,-0.00001494,-0.00000049,0.00000178,-0.00000639,0.00000195
 ,-0.00000079,0.00000128,0.00000046,0.00000894,0.00000513,-0.00000127,0
 .00025979,0.00061869,0.00055915,0.11301042,0.00038550,-0.00163994,-0.0
 0002405,0.00327193,0.00926808,0.00572376,0.00023356,0.00020960,-0.0005
 2406,-0.00011276,-0.00015733,-0.00035016,-0.00000986,-0.00005569,0.000
 06511,0.00008983,-0.00000997,-0.00003831,0.00003666,0.00003359,-0.0000
 0720,-0.00002261,-0.00003843,-0.00000041,-0.00001384,0.00002162,0.0000
 1212,-0.00000597,0.00000305,0.00000040,0.00001061,0.00000483,0.0000018
 9,0.00001329,-0.00000371,-0.00000055,0.00000242,-0.00000319,0.00000280
 ,-0.09257649,-0.19913805,-0.08202145,-0.00419937,-0.00775329,-0.005652
 35,-0.00035867,0.00055979,0.00150878,0.00015013,-0.00038195,-0.0003042
 0,-0.00002350,0.00001535,-0.00000332,-0.00002085,0.00000531,-0.0000176
 7,0.00001555,0.00001047,-0.00001662,-0.00002864,-0.00002853,-0.0000130
 6,-0.00000282,0.00000377,-0.00000406,0.00000071,-0.00000076,-0.0000008
 4,-0.00000017,-0.00000784,-0.00000258,-0.01154311,-0.01873598,-0.01001
 840,0.10309883,0.21569207,-0.00037181,0.00194286,0.00052314,-0.0031452
 8,-0.00499356,-0.00398802,0.00073978,-0.00005821,-0.00024252,-0.000272
 22,-0.00033959,-0.00010212,-0.00000705,-0.00000936,0.00010789,0.000030
 81,0.00000467,-0.00003450,-0.00000992,-0.00001745,-0.00008188,0.000021
 93,0.00001733,-0.00003098,-0.00001057,-0.00000039,0.00001218,-0.000000
 46,0.00000030,0.00000211,0.00000994,0.00000136,0.00000144,0.00000645,-
 0.00000184,-0.00000090,0.00000159,0.00000123,0.00000344,-0.05293826,-0
 .08238991,-0.08872598,-0.01234320,-0.02484638,-0.01679244,-0.00120434,
 0.00173999,0.00248847,0.00005623,0.00043098,0.00029888,0.00012231,-0.0
 0007382,0.00000040,-0.00001351,0.00000310,0.00000194,-0.00000684,0.000
 00123,-0.00000437,0.00000697,-0.00000819,-0.00000742,0.00000031,0.0000
 0057,-0.00000282,0.00000078,-0.00000054,-0.00000080,-0.00000261,-0.000
 00304,-0.00000219,0.01076925,0.01618960,0.00926723,0.05618763,0.093026
 80,0.10041100,-0.00036230,0.00095814,-0.00163530,0.00027166,-0.0023143
 3,0.00268000,0.00040623,0.00072952,-0.00091594,-0.00013203,0.00005717,
 -0.00009824,0.00001128,-0.00003121,0.00012834,-0.00000057,0.00001202,-
 0.00003370,-0.00001087,0.00004091,-0.00010625,-0.00000566,-0.00000552,
 0.00002022,-0.00001793,0.00000086,-0.00000124,-0.00001394,-0.00001046,
 -0.00000384,0.00001652,0.00000724,-0.00000683,0.00001441,-0.00000448,0
 .00000369,0.00000614,0.00000564,-0.00000546,-0.00038552,-0.01323222,0.
 01135455,-0.04791610,-0.00387732,0.00177363,-0.00655459,0.02899031,-0.
 02593984,0.00036422,-0.00006015,-0.00009679,-0.00004271,-0.00000076,0.
 00003304,-0.00000801,0.00000097,0.00001280,0.00001690,0.00000955,-0.00
 001589,-0.00003232,-0.00003634,-0.00000804,-0.00000599,0.00000933,0.00
 000314,0.00000076,0.00000092,0.00000094,-0.00000195,-0.00000644,0.0000
 0314,-0.00192095,0.00158874,0.00298072,0.00075640,0.00031770,-0.000739
 63,0.05977787,0.00089622,-0.00043610,-0.00138554,0.00090678,-0.0003076
 8,0.00135513,-0.00017400,0.00008872,0.00011595,0.00003187,-0.00006696,
 0.00004420,0.00000149,0.00000302,-0.00001155,-0.00002025,0.00000550,0.
 00000484,-0.00000441,0.00000607,-0.00000100,-0.00000628,-0.00001823,0.
 00001425,0.00000563,0.00000013,-0.00000376,-0.00000051,-0.00000461,-0.
 00000300,-0.00000715,0.00000380,-0.00000549,-0.00000025,-0.00000096,0.
 00000204,0.00000012,0.00000533,-0.00000334,-0.00139220,0.00772799,-0.0
 0629985,0.00000220,-0.20896436,0.13010004,0.00328220,-0.00357440,0.003
 60861,-0.00017630,0.00007854,-0.00004549,0.00000321,0.00000858,0.00000
 575,0.00000598,-0.00000141,0.00000783,0.00001071,0.00000463,-0.0000087
 1,-0.00000521,-0.00000993,0.00001433,0.00000022,0.00000172,0.00000412,
 -0.00000003,0.00000046,0.00000118,0.00000337,-0.00000125,0.00000256,0.
 00170878,0.00066587,-0.00218326,-0.00045880,0.00110383,0.00019874,-0.0
 0454061,0.22236207,-0.00117974,-0.00110011,0.00180729,-0.00115381,0.00
 205211,-0.00185844,0.00003334,-0.00020278,0.00037094,0.00000216,0.0000
 1814,0.00008879,-0.00006300,0.00004345,-0.00008776,0.00003825,-0.00002
 964,0.00001417,0.00004573,-0.00004229,0.00007354,0.00002227,-0.0000193
 6,-0.00000388,0.00001148,0.00000949,0.00001023,0.00000554,0.00000737,-
 0.00000238,-0.00000349,-0.00000459,0.00000267,-0.00000326,0.00000211,-
 0.00000144,-0.00000350,-0.00000752,0.00000593,0.00286694,0.02093996,-0
 .02080327,-0.00295043,0.12683883,-0.15410164,-0.00168146,0.00502883,-0
 .00449056,-0.00026029,-0.00000599,0.00016352,0.00004210,-0.00002278,0.
 00000107,0.00000058,0.00000449,-0.00000845,-0.00000413,-0.00000335,-0.
 00000190,0.00001841,0.00001307,0.00001627,0.00000264,-0.00000154,0.000
 00042,-0.00000021,-0.00000064,-0.00000077,-0.00000014,0.00000082,-0.00
 000230,0.00283063,-0.00192168,-0.00375658,-0.00074642,0.00027958,0.000
 98491,0.00325819,-0.14024901,0.16980098,0.00000433,0.00001510,-0.00018
 788,0.00151985,0.00025172,0.00026416,-0.00009407,-0.00026461,-0.000054
 55,0.00010815,0.00000073,0.00003807,0.00005622,-0.00001566,-0.00004106
 ,-0.00003868,0.00001884,0.00002112,-0.00002679,0.00000632,0.00002731,-
 0.00001219,-0.00000829,-0.00002111,0.00001267,-0.00000612,0.00000499,0
 .00000098,-0.00000241,0.00000548,-0.00001809,0.00001007,-0.00000087,-0
 .00000201,-0.00000660,-0.00000025,-0.00000278,0.00001551,0.00000162,0.
 00709661,0.01369796,0.00808953,-0.09006523,-0.08027589,-0.04225589,-0.
 03089213,-0.01985948,-0.01771141,0.00002072,-0.00000172,-0.00004214,0.
 00000295,0.00001679,-0.00000416,0.00000829,-0.00000587,-0.00000538,0.0
 0001036,0.00000620,-0.00000624,0.00000787,-0.00000733,0.00000927,0.000
 00202,-0.00000443,-0.00000032,-0.00000020,-0.00000025,-0.00000146,0.00
 000843,-0.00000034,-0.00000504,0.00040964,-0.00044995,-0.00074274,-0.0
 0166922,0.00138340,0.00340203,0.00080752,-0.00165972,-0.00002495,0.111
 00257,0.00098888,0.00018778,0.00122045,-0.00169820,0.00033819,-0.00175
 944,0.00079644,0.00001356,0.00008156,-0.00009106,-0.00000762,-0.000067
 84,-0.00002687,0.00003778,-0.00002935,0.00006886,-0.00002139,0.0000060
 6,0.00005354,-0.00001538,0.00005237,0.00004800,-0.00002724,-0.00006799
 ,0.00001346,0.00001607,0.00005833,-0.00000431,-0.00000408,0.00001958,-
 0.00001797,0.00001507,0.00000429,0.00000434,-0.00000603,-0.00000561,0.
 00000528,0.00002675,0.00001159,-0.00268228,-0.00745178,-0.00332438,-0.
 07805854,-0.19944036,-0.07664416,0.00381083,0.01210426,0.00411533,-0.0
 0012584,-0.00011697,-0.00000372,0.00002659,-0.00000103,-0.00000403,-0.
 00002151,-0.00000853,-0.00003935,0.00002705,0.00001887,-0.00003372,0.0
 0002803,-0.00006475,0.00000981,-0.00000080,-0.00000453,-0.00001121,0.0
 0000036,-0.00000142,-0.00000590,0.00001027,-0.00000707,-0.00001638,0.0
 0038031,0.00105711,-0.00021146,0.00113288,0.00100030,-0.00131044,-0.01
 097024,-0.02001347,-0.01129625,0.08765776,0.20994200,0.00036346,-0.000
 33602,0.00090195,-0.00226489,0.00027065,-0.00106672,0.00072934,0.00041
 497,0.00014069,-0.00008423,0.00001912,-0.00009581,-0.00001384,-0.00000
 484,0.00000166,0.00004058,-0.00000658,-0.00000414,0.00003843,0.0000212
 2,0.00002311,0.00003496,-0.00004411,-0.00001612,0.00001155,0.00001279,
 0.00003029,-0.00000564,-0.00000286,0.00001085,-0.00000999,0.00001371,-
 0.00000144,0.00000798,-0.00000671,-0.00000028,0.00000239,0.00001567,0.
 00000730,-0.00853548,-0.02435180,-0.01391411,-0.04100303,-0.07612549,-
 0.09439635,-0.00872491,-0.00304874,-0.00059605,-0.00007804,-0.00020501
 ,-0.00005200,0.00000630,-0.00000126,-0.00000584,-0.00001538,-0.0000055
 9,-0.00002162,0.00002670,0.00001675,-0.00002834,0.00001235,-0.00003873
 ,0.00001484,-0.00000115,-0.00000012,-0.00000533,0.00000028,-0.00000066
 ,-0.00000251,0.00000793,-0.00000843,-0.00000760,-0.00097725,0.00058631
 ,0.00100066,0.00289725,-0.00164508,-0.00407250,0.00886729,0.01541534,0
 .01005413,0.04870042,0.08888839,0.10195394,-0.00004697,-0.00026345,0.0
 0084129,-0.00071905,0.00022585,-0.00072982,0.00007712,-0.00016256,0.00
 008843,-0.00006116,0.00002414,-0.00000511,-0.00007744,0.00003533,0.000
 02597,0.00006516,-0.00002913,-0.00001519,0.00004123,-0.00002695,-0.000
 01184,0.00001461,0.00000556,-0.00000207,-0.00001156,0.00000932,-0.0000
 0173,-0.00000082,0.00000709,-0.00000106,0.00002062,-0.00000765,0.00000
 436,0.00000419,0.00000342,-0.00000169,0.00000163,-0.00001494,0.0000050
 4,0.00154072,0.00049869,-0.00131835,-0.00401774,0.03436451,-0.02266479
 ,-0.05584632,0.02205038,0.00738493,-0.00006132,0.00004887,0.00008098,0
 .00001916,-0.00001396,0.00000257,-0.00001184,0.00000693,-0.00000370,-0
 .00001108,-0.00000430,0.00000687,-0.00000134,0.00000648,-0.00000826,-0
 .00000081,0.00000294,-0.00000237,0.00000047,-0.00000041,-0.00000013,-0
 .00000936,-0.00000068,0.00000072,-0.00033438,-0.00034390,0.00101498,-0
 .00009948,-0.00017352,0.00002675,-0.00664300,0.00108988,-0.00101725,0.
 00146681,-0.00040607,-0.00028638,0.06269208,-0.00027417,0.00032658,-0.
 00053983,0.00072468,-0.00008822,0.00034910,-0.00010744,-0.00004043,-0.
 00006100,0.00003433,0.00000009,-0.00000107,0.00004166,-0.00003084,0.00
 004013,-0.00003453,0.00001485,-0.00001164,-0.00003515,0.00001364,-0.00
 003887,-0.00000684,0.00001441,0.00000591,-0.00000081,-0.00000802,-0.00
 000802,0.00000083,-0.00000492,-0.00000560,-0.00000038,-0.00000329,-0.0
 0000369,-0.00000445,0.00000285,0.00000101,-0.00000103,-0.00000147,-0.0
 0000535,-0.00018493,-0.00015714,0.00023784,-0.00531598,-0.00713196,-0.
 00054343,0.03846789,-0.31059861,0.20284459,0.00005078,0.00002091,0.000
 00699,-0.00000638,0.00000360,-0.00000392,0.00000776,0.00000108,0.00001
 553,-0.00000444,-0.00000357,0.00000728,-0.00000116,0.00001022,0.000002
 09,-0.00000020,0.00000055,0.00000484,-0.00000034,0.00000084,0.00000171
 ,-0.00000101,0.00000415,0.00000566,0.00064965,-0.00000040,-0.00044345,
 0.00006913,-0.00030984,0.00007922,0.00192488,0.00139681,-0.00032306,-0
 .00004986,0.00221955,-0.00056194,-0.03548294,0.31316083,-0.00013334,0.
 00014004,-0.00031326,0.00028607,0.00002903,0.00011829,-0.00009865,-0.0
 0004921,-0.00007092,0.00005608,0.00000458,0.00000858,0.00006950,-0.000
 05796,0.00006508,-0.00006139,0.00002869,-0.00001767,-0.00005633,0.0000
 3008,-0.00006305,-0.00000579,0.00002076,0.00000298,0.00000155,-0.00000
 813,-0.00000923,0.00000211,-0.00000572,-0.00000968,-0.00000157,-0.0000
 0508,-0.00000513,-0.00000642,0.00000372,0.00000170,-0.00000203,-0.0000
 0539,-0.00000977,-0.00013840,-0.00130632,0.00165005,-0.00307567,0.0078
 4573,-0.00599430,0.00043692,0.15604992,-0.13430075,0.00008876,0.000012
 10,0.00002425,-0.00000791,0.00000410,-0.00000466,0.00001200,0.00000143
 ,0.00002429,-0.00000729,-0.00000507,0.00001341,-0.00000117,0.00001457,
 -0.00000084,0.00000029,0.00000029,0.00000640,-0.00000049,0.00000105,0.
 00000284,-0.00000120,0.00000665,0.00001017,0.00012416,0.00065559,0.000
 05258,0.00001769,-0.00027429,-0.00008490,-0.00170288,-0.00073477,0.000
 94271,0.00126208,0.00004928,-0.00012536,0.00599696,-0.19305097,0.15645
 111,-0.00000645,0.00002885,-0.00060154,0.00039964,0.00003597,0.0024763
 0,-0.00066266,0.00014838,-0.00019811,0.00000491,-0.00016416,0.00006829
 ,-0.00001142,0.00001345,-0.00007899,-0.00003673,0.00000926,0.00002642,
 -0.00001028,-0.00001626,0.00003382,-0.00004152,0.00003175,0.00001995,-
 0.00000028,-0.00001545,-0.00002261,0.00000299,-0.00000357,-0.00000314,
 -0.00000505,-0.00000686,-0.00000213,-0.00001171,0.00000787,0.00000045,
 -0.00000130,-0.00000383,-0.00000605,-0.00604974,0.00131602,-0.00374851
 ,-0.02049172,0.00476356,0.03147102,-0.15081796,0.03246301,0.15902761,0
 .00001291,0.00008923,-0.00002986,0.00000179,0.00000328,-0.00000528,0.0
 0001289,-0.00000136,0.00001052,-0.00000776,-0.00000672,0.00001037,0.00
 000336,0.00001718,0.00000760,0.00000076,-0.00000010,0.00000461,-0.0000
 0091,0.00000124,0.00000225,-0.00000134,0.00000592,0.00000468,0.0001377
 5,-0.00028253,-0.00017410,0.00023569,0.00008204,-0.00031707,0.00160452
 ,0.00049707,-0.00008616,0.00027542,-0.00094918,0.00025301,0.00200987,-
 0.00045956,-0.00305362,0.17345432,0.00007984,-0.00035033,0.00041347,-0
 .00002666,0.00081481,-0.00147740,0.00077613,-0.00019245,0.00013705,-0.
 00004835,0.00013006,-0.00013048,-0.00008953,0.00002573,0.00012849,0.00
 012232,-0.00005086,-0.00005572,0.00005820,-0.00001224,-0.00005951,0.00
 003613,-0.00000936,-0.00001462,-0.00001876,0.00002558,0.00001732,-0.00
 000385,0.00001160,-0.00000777,0.00003587,-0.00001229,0.00000814,0.0000
 1396,0.00000432,-0.00000299,0.00000001,-0.00002851,0.00001188,0.003783
 17,-0.00112313,0.00073549,-0.00131828,-0.00300045,-0.00923562,0.055870
 89,-0.03658502,-0.03865410,-0.00004506,-0.00004419,0.00008816,0.000014
 57,-0.00001545,0.00000715,-0.00002718,0.00001615,-0.00000882,-0.000004
 55,-0.00000276,0.00000422,-0.00000913,0.00000047,-0.00001518,-0.000002
 57,0.00000765,-0.00000439,0.00000081,-0.00000105,-0.00000092,-0.000012
 63,-0.00000330,0.00000034,-0.00003443,0.00012436,-0.00014340,-0.000071
 81,0.00033284,0.00041474,0.00043615,-0.00006371,-0.00000770,-0.0004618
 8,0.00021437,0.00071906,-0.02144892,0.00118775,0.03060530,-0.03760450,
 0.03859938,0.00012155,-0.00014737,0.00016237,-0.00033831,0.00038988,0.
 00016184,0.00007231,-0.00006267,-0.00003328,-0.00005861,-0.00001939,-0
 .00005599,-0.00002568,0.00000448,0.00002464,0.00003073,-0.00001008,-0.
 00001237,0.00001715,-0.00000306,-0.00001269,-0.00000469,0.00000246,0.0
 0000626,-0.00000771,0.00000138,-0.00000337,-0.00000196,-0.00000035,-0.
 00000127,0.00000834,-0.00000095,-0.00000056,0.00000320,0.00000079,0.00
 000114,0.00000165,-0.00000224,0.00000199,-0.00049081,-0.00007383,0.000
 51889,-0.01221869,-0.00111374,0.00787878,0.18827279,-0.00803137,-0.314
 93982,-0.00000894,0.00002641,0.00001136,0.00000608,-0.00000386,0.00000
 703,-0.00000716,0.00000223,-0.00000082,0.00000035,0.00000119,-0.000000
 72,-0.00000342,-0.00000149,-0.00000233,-0.00000089,0.00000289,0.000000
 49,0.00000017,0.00000012,0.00000022,-0.00000312,-0.00000268,0.00000024
 ,-0.00029024,-0.00013788,0.00022702,-0.00004379,0.00029739,0.00007129,
 0.00019020,0.00003984,0.00078182,-0.00072061,0.00031418,0.00027270,0.0
 1058987,-0.00800008,-0.01836492,-0.18508976,0.01652779,0.32330005\\-0.
 00000194,-0.00000431,0.00000067,0.00000329,0.00000937,-0.00000150,-0.0
 0000079,-0.00000308,0.00000004,0.00000010,-0.00000142,-0.00000037,0.00
 000091,-0.00000088,-0.00000003,-0.00000045,0.00000032,0.00000134,0.000
 00022,-0.00000052,0.00000044,0.,0.00000049,-0.00000001,0.00000015,0.,-
 0.00000007,-0.00000011,0.00000020,-0.00000014,-0.00000071,0.00000058,0
 .00000003,-0.00000003,0.00000032,0.00000026,0.00000033,-0.00000029,-0.
 00000010,0.00000180,0.00000328,0.00000167,-0.00000441,-0.00000283,-0.0
 0000190,0.00000025,-0.00000095,-0.00000061,0.00000003,0.00000038,0.000
 00219,0.00000021,-0.00000017,-0.00000025,-0.00000057,0.00000073,-0.000
 00041,-0.00000029,0.00000004,0.,0.00000068,-0.00000018,-0.00000039,-0.
 00000007,0.00000009,0.00000026,-0.00000003,0.00000006,0.00000028,-0.00
 000002,0.00000004,0.00000013,-0.00000146,-0.00000129,0.00000035,-0.000
 00057,-0.00000228,-0.00000074,0.00000182,0.00000097,-0.00000085,0.0000
 0074,0.00000106,-0.00000021,0.00000004,-0.00000019,0.00000099,0.000000
 89,0.00000047,-0.00000107\\\@


 THE ENLIGHTENED ONE, BECAUSE HE SAW MANKIND DROWNING  
 IN THE GREAT SEA OF BIRTH, DEATH, AND SORROW, LONGED TO SAVE 
 THEM, FOR THIS HE WAS MOVED TO PITY.                         
 BECAUSE HE SAW MEN OF THE WORLD STRAYING IN FALSE PATHS, AND 
 NONE TO GUIDE THEM, FOR THIS HE WAS MOVED TO PITY.           
                     ..................                       
 BECAUSE HE SAW THE MEN OF THE WORLD PLOUGHING THEIR FIELDS,  
 SOWING THE SEED, TRAFFICKING, HUCKSTERING, BUYING, SELLING,  
 AND AT THE END WINNOWING NOTHING BUT BITTERNESS,             
 FOR THIS HE WAS MOVED TO PITY......                   
                   BUDAH'S PITY - UPSAKA SILA SUTRA           
 Job cpu time:       0 days  4 hours 39 minutes 39.4 seconds.
 File lengths (MBytes):  RWF=    542 Int=      0 D2E=      0 Chk=     19 Scr=      1
 Normal termination of Gaussian 09 at Thu Jul 29 15:36:42 2021.
