 Entering Gaussian System, Link 0=g09
 Input=opt_freq-conf-150.com
 Output=opt_freq-conf-150.log
 Initial command:
 /aerosol/software/g09/l1.exe "/scratch/nicole/10418/Gau-72450.inp" -scrdir="/scratch/nicole/10418/"
 Entering Link 1 = /aerosol/software/g09/l1.exe PID=     72455.
  
 Copyright (c) 1988,1990,1992,1993,1995,1998,2003,2009,2013,
            Gaussian, Inc.  All Rights Reserved.
  
 This is part of the Gaussian(R) 09 program.  It is based on
 the Gaussian(R) 03 system (copyright 2003, Gaussian, Inc.),
 the Gaussian(R) 98 system (copyright 1998, Gaussian, Inc.),
 the Gaussian(R) 94 system (copyright 1995, Gaussian, Inc.),
 the Gaussian 92(TM) system (copyright 1992, Gaussian, Inc.),
 the Gaussian 90(TM) system (copyright 1990, Gaussian, Inc.),
 the Gaussian 88(TM) system (copyright 1988, Gaussian, Inc.),
 the Gaussian 86(TM) system (copyright 1986, Carnegie Mellon
 University), and the Gaussian 82(TM) system (copyright 1983,
 Carnegie Mellon University). Gaussian is a federally registered
 trademark of Gaussian, Inc.
  
 This software contains proprietary and confidential information,
 including trade secrets, belonging to Gaussian, Inc.
  
 This software is provided under written license and may be
 used, copied, transmitted, or stored only in accord with that
 written license.
  
 The following legend is applicable only to US Government
 contracts under FAR:
  
                    RESTRICTED RIGHTS LEGEND
  
 Use, reproduction and disclosure by the US Government is
 subject to restrictions as set forth in subparagraphs (a)
 and (c) of the Commercial Computer Software - Restricted
 Rights clause in FAR 52.227-19.
  
 Gaussian, Inc.
 340 Quinnipiac St., Bldg. 40, Wallingford CT 06492
  
  
 ---------------------------------------------------------------
 Warning -- This program may not be used in any manner that
 competes with the business of Gaussian, Inc. or will provide
 assistance to any competitor of Gaussian, Inc.  The licensee
 of this program is prohibited from giving any competitor of
 Gaussian, Inc. access to this program.  By using this program,
 the user acknowledges that Gaussian, Inc. is engaged in the
 business of creating and licensing software in the field of
 computational chemistry and represents and warrants to the
 licensee that it is not a competitor of Gaussian, Inc. and that
 it will not use this program in any manner prohibited above.
 ---------------------------------------------------------------
  

 Cite this work as:
 Gaussian 09, Revision D.01,
 M. J. Frisch, G. W. Trucks, H. B. Schlegel, G. E. Scuseria, 
 M. A. Robb, J. R. Cheeseman, G. Scalmani, V. Barone, B. Mennucci, 
 G. A. Petersson, H. Nakatsuji, M. Caricato, X. Li, H. P. Hratchian, 
 A. F. Izmaylov, J. Bloino, G. Zheng, J. L. Sonnenberg, M. Hada, 
 M. Ehara, K. Toyota, R. Fukuda, J. Hasegawa, M. Ishida, T. Nakajima, 
 Y. Honda, O. Kitao, H. Nakai, T. Vreven, J. A. Montgomery, Jr., 
 J. E. Peralta, F. Ogliaro, M. Bearpark, J. J. Heyd, E. Brothers, 
 K. N. Kudin, V. N. Staroverov, T. Keith, R. Kobayashi, J. Normand, 
 K. Raghavachari, A. Rendell, J. C. Burant, S. S. Iyengar, J. Tomasi, 
 M. Cossi, N. Rega, J. M. Millam, M. Klene, J. E. Knox, J. B. Cross, 
 V. Bakken, C. Adamo, J. Jaramillo, R. Gomperts, R. E. Stratmann, 
 O. Yazyev, A. J. Austin, R. Cammi, C. Pomelli, J. W. Ochterski, 
 R. L. Martin, K. Morokuma, V. G. Zakrzewski, G. A. Voth, 
 P. Salvador, J. J. Dannenberg, S. Dapprich, A. D. Daniels, 
 O. Farkas, J. B. Foresman, J. V. Ortiz, J. Cioslowski, 
 and D. J. Fox, Gaussian, Inc., Wallingford CT, 2013.
 
 ******************************************
 Gaussian 09:  ES64L-G09RevD.01 24-Apr-2013
                24-Jul-2021 
 ******************************************
 %mem=2gb
 %nproc=4
 Will use up to    4 processors via shared memory.
 %chk=conf-150.chk
 ----------------------------------------------------------------------
 # B3LYP/6-311++G(d,p) EmpiricalDispersion=GD3BJ opt=calcfc freq=norama
 n nosymm integral(ultrafinegrid)
 ----------------------------------------------------------------------
 1/10=4,14=-1,18=20,19=15,26=4,38=1/1,3;
 2/9=110,12=2,15=1,17=6,18=5,40=1/2;
 3/5=4,6=6,7=1111,11=2,16=1,25=1,30=1,71=2,74=-5,75=-5,124=41,140=1/1,2,3;
 4//1;
 5/5=2,38=5/2;
 8/6=4,10=90,11=11/1;
 11/6=1,8=1,9=11,15=111,16=1,31=1/1,2,10;
 10/6=1,13=1,31=1/2;
 6/7=2,8=2,9=2,10=2,28=1/1;
 7/10=1,18=20,25=1,30=1/1,2,3,16;
 1/10=4,14=-1,18=20,19=15,26=4/3(2);
 2/9=110,15=1/2;
 99//99;
 2/9=110,15=1/2;
 3/5=4,6=6,7=1111,11=2,16=1,25=1,30=1,71=1,74=-5,75=-5,124=41/1,2,3;
 4/5=5,16=3,69=1/1;
 5/5=2,38=5/2;
 7/30=1/1,2,3,16;
 1/14=-1,18=20,19=15,26=4/3(-5);
 2/9=110,15=1/2;
 6/7=2,8=2,9=2,10=2,19=2,28=1/1;
 99/9=1/99;
 ------------------------------------------------------------
 Candidate Structure: Conf:150 OPT and FREQ calc in gas phase
 ------------------------------------------------------------
 Symbolic Z-matrix:
 Charge =  0 Multiplicity = 1
 O                    -1.06735  -1.81842  -0.60329 
 C                    -1.26017  -0.71113  -0.11548 
 N                    -0.37381  -0.15491   0.75102 
 C                     0.74849  -0.91195   1.26099 
 C                     1.24686  -0.18699   2.48905 
 O                     2.24552  -0.85447   3.09518 
 O                     0.81057   0.86267   2.89123 
 C                     1.87855  -1.12462   0.22713 
 C                     2.46418   0.14329  -0.29805 
 C                     3.69731   0.71644  -0.1525 
 N                     3.75634   1.9277   -0.81778 
 C                     2.56761   2.08131  -1.35632 
 N                     1.75201   1.03     -1.0682 
 C                    -2.47144   0.14825  -0.43245 
 C                    -3.42446  -0.50714  -1.41911 
 N                    -4.55073   0.39607  -1.66837 
 H                    -0.59336   0.68832   1.26101 
 H                     0.41775  -1.90971   1.56604 
 H                     2.49526  -0.33255   3.86831 
 H                     1.46214  -1.72179  -0.58553 
 H                     2.6673   -1.71113   0.6993 
 H                     4.54572   0.32738   0.3952 
 H                     2.23723   2.91305  -1.95358 
 H                     0.78257   0.92701  -1.32349 
 H                    -2.13351   1.11041  -0.83235 
 H                    -3.0062    0.37498   0.49757 
 H                    -2.89971  -0.67889  -2.36095 
 H                    -3.71838  -1.49025  -1.03227 
 H                    -5.14058   0.44323  -0.845 
 H                    -5.13542   0.02345  -2.40678 
 

 GradGradGradGradGradGradGradGradGradGradGradGradGradGradGradGradGradGrad
 Berny optimization.
 Initialization pass.
                           ----------------------------
                           !    Initial Parameters    !
                           ! (Angstroms and Degrees)  !
 --------------------------                            --------------------------
 ! Name  Definition              Value          Derivative Info.                !
 --------------------------------------------------------------------------------
 ! R1    R(1,2)                  1.2252         calculate D2E/DX2 analytically  !
 ! R2    R(2,3)                  1.3586         calculate D2E/DX2 analytically  !
 ! R3    R(2,14)                 1.5186         calculate D2E/DX2 analytically  !
 ! R4    R(3,4)                  1.4466         calculate D2E/DX2 analytically  !
 ! R5    R(3,17)                 1.0096         calculate D2E/DX2 analytically  !
 ! R6    R(4,5)                  1.5107         calculate D2E/DX2 analytically  !
 ! R7    R(4,8)                  1.5463         calculate D2E/DX2 analytically  !
 ! R8    R(4,18)                 1.0945         calculate D2E/DX2 analytically  !
 ! R9    R(5,6)                  1.3454         calculate D2E/DX2 analytically  !
 ! R10   R(5,7)                  1.2058         calculate D2E/DX2 analytically  !
 ! R11   R(6,19)                 0.9657         calculate D2E/DX2 analytically  !
 ! R12   R(8,9)                  1.4921         calculate D2E/DX2 analytically  !
 ! R13   R(8,20)                 1.0911         calculate D2E/DX2 analytically  !
 ! R14   R(8,21)                 1.0904         calculate D2E/DX2 analytically  !
 ! R15   R(9,10)                 1.3676         calculate D2E/DX2 analytically  !
 ! R16   R(9,13)                 1.3735         calculate D2E/DX2 analytically  !
 ! R17   R(10,11)                1.3832         calculate D2E/DX2 analytically  !
 ! R18   R(10,22)                1.0822         calculate D2E/DX2 analytically  !
 ! R19   R(11,12)                1.314          calculate D2E/DX2 analytically  !
 ! R20   R(12,13)                1.3614         calculate D2E/DX2 analytically  !
 ! R21   R(12,23)                1.0759         calculate D2E/DX2 analytically  !
 ! R22   R(13,24)                1.0078         calculate D2E/DX2 analytically  !
 ! R23   R(14,15)                1.5203         calculate D2E/DX2 analytically  !
 ! R24   R(14,25)                1.0954         calculate D2E/DX2 analytically  !
 ! R25   R(14,26)                1.0965         calculate D2E/DX2 analytically  !
 ! R26   R(15,16)                1.4651         calculate D2E/DX2 analytically  !
 ! R27   R(15,27)                1.0918         calculate D2E/DX2 analytically  !
 ! R28   R(15,28)                1.0966         calculate D2E/DX2 analytically  !
 ! R29   R(16,29)                1.0139         calculate D2E/DX2 analytically  !
 ! R30   R(16,30)                1.0129         calculate D2E/DX2 analytically  !
 ! A1    A(1,2,3)              121.4156         calculate D2E/DX2 analytically  !
 ! A2    A(1,2,14)             123.6309         calculate D2E/DX2 analytically  !
 ! A3    A(3,2,14)             114.9485         calculate D2E/DX2 analytically  !
 ! A4    A(2,3,4)              121.1124         calculate D2E/DX2 analytically  !
 ! A5    A(2,3,17)             121.4815         calculate D2E/DX2 analytically  !
 ! A6    A(4,3,17)             115.3222         calculate D2E/DX2 analytically  !
 ! A7    A(3,4,5)              106.9408         calculate D2E/DX2 analytically  !
 ! A8    A(3,4,8)              113.7809         calculate D2E/DX2 analytically  !
 ! A9    A(3,4,18)             109.9301         calculate D2E/DX2 analytically  !
 ! A10   A(5,4,8)              111.6184         calculate D2E/DX2 analytically  !
 ! A11   A(5,4,18)             108.0944         calculate D2E/DX2 analytically  !
 ! A12   A(8,4,18)             106.3679         calculate D2E/DX2 analytically  !
 ! A13   A(4,5,6)              111.9023         calculate D2E/DX2 analytically  !
 ! A14   A(4,5,7)              124.7182         calculate D2E/DX2 analytically  !
 ! A15   A(6,5,7)              123.3794         calculate D2E/DX2 analytically  !
 ! A16   A(5,6,19)             106.5298         calculate D2E/DX2 analytically  !
 ! A17   A(4,8,9)              113.9092         calculate D2E/DX2 analytically  !
 ! A18   A(4,8,20)             107.1182         calculate D2E/DX2 analytically  !
 ! A19   A(4,8,21)             108.2449         calculate D2E/DX2 analytically  !
 ! A20   A(9,8,20)             110.654          calculate D2E/DX2 analytically  !
 ! A21   A(9,8,21)             109.0            calculate D2E/DX2 analytically  !
 ! A22   A(20,8,21)            107.7091         calculate D2E/DX2 analytically  !
 ! A23   A(8,9,10)             132.265          calculate D2E/DX2 analytically  !
 ! A24   A(8,9,13)             122.849          calculate D2E/DX2 analytically  !
 ! A25   A(10,9,13)            104.8708         calculate D2E/DX2 analytically  !
 ! A26   A(9,10,11)            110.7501         calculate D2E/DX2 analytically  !
 ! A27   A(9,10,22)            127.5957         calculate D2E/DX2 analytically  !
 ! A28   A(11,10,22)           121.654          calculate D2E/DX2 analytically  !
 ! A29   A(10,11,12)           105.1223         calculate D2E/DX2 analytically  !
 ! A30   A(11,12,13)           111.404          calculate D2E/DX2 analytically  !
 ! A31   A(11,12,23)           126.5587         calculate D2E/DX2 analytically  !
 ! A32   A(13,12,23)           122.0373         calculate D2E/DX2 analytically  !
 ! A33   A(9,13,12)            107.8523         calculate D2E/DX2 analytically  !
 ! A34   A(9,13,24)            125.0893         calculate D2E/DX2 analytically  !
 ! A35   A(12,13,24)           126.9841         calculate D2E/DX2 analytically  !
 ! A36   A(2,14,15)            113.0481         calculate D2E/DX2 analytically  !
 ! A37   A(2,14,25)            109.0995         calculate D2E/DX2 analytically  !
 ! A38   A(2,14,26)            109.2064         calculate D2E/DX2 analytically  !
 ! A39   A(15,14,25)           109.58           calculate D2E/DX2 analytically  !
 ! A40   A(15,14,26)           109.5044         calculate D2E/DX2 analytically  !
 ! A41   A(25,14,26)           106.1692         calculate D2E/DX2 analytically  !
 ! A42   A(14,15,16)           109.06           calculate D2E/DX2 analytically  !
 ! A43   A(14,15,27)           109.0502         calculate D2E/DX2 analytically  !
 ! A44   A(14,15,28)           108.9996         calculate D2E/DX2 analytically  !
 ! A45   A(16,15,27)           108.6456         calculate D2E/DX2 analytically  !
 ! A46   A(16,15,28)           113.9951         calculate D2E/DX2 analytically  !
 ! A47   A(27,15,28)           106.9842         calculate D2E/DX2 analytically  !
 ! A48   A(15,16,29)           109.7385         calculate D2E/DX2 analytically  !
 ! A49   A(15,16,30)           109.9378         calculate D2E/DX2 analytically  !
 ! A50   A(29,16,30)           105.8604         calculate D2E/DX2 analytically  !
 ! D1    D(1,2,3,4)             -7.7326         calculate D2E/DX2 analytically  !
 ! D2    D(1,2,3,17)          -170.55           calculate D2E/DX2 analytically  !
 ! D3    D(14,2,3,4)           173.0511         calculate D2E/DX2 analytically  !
 ! D4    D(14,2,3,17)           10.2337         calculate D2E/DX2 analytically  !
 ! D5    D(1,2,14,15)            0.0395         calculate D2E/DX2 analytically  !
 ! D6    D(1,2,14,25)         -122.151          calculate D2E/DX2 analytically  !
 ! D7    D(1,2,14,26)          122.2102         calculate D2E/DX2 analytically  !
 ! D8    D(3,2,14,15)          179.2362         calculate D2E/DX2 analytically  !
 ! D9    D(3,2,14,25)           57.0457         calculate D2E/DX2 analytically  !
 ! D10   D(3,2,14,26)          -58.593          calculate D2E/DX2 analytically  !
 ! D11   D(2,3,4,5)           -162.1572         calculate D2E/DX2 analytically  !
 ! D12   D(2,3,4,8)             74.1256         calculate D2E/DX2 analytically  !
 ! D13   D(2,3,4,18)           -45.0406         calculate D2E/DX2 analytically  !
 ! D14   D(17,3,4,5)             1.6593         calculate D2E/DX2 analytically  !
 ! D15   D(17,3,4,8)          -122.0579         calculate D2E/DX2 analytically  !
 ! D16   D(17,3,4,18)          118.7759         calculate D2E/DX2 analytically  !
 ! D17   D(3,4,5,6)            176.1661         calculate D2E/DX2 analytically  !
 ! D18   D(3,4,5,7)             -3.71           calculate D2E/DX2 analytically  !
 ! D19   D(8,4,5,6)            -58.7944         calculate D2E/DX2 analytically  !
 ! D20   D(8,4,5,7)            121.3295         calculate D2E/DX2 analytically  !
 ! D21   D(18,4,5,6)            57.8457         calculate D2E/DX2 analytically  !
 ! D22   D(18,4,5,7)          -122.0304         calculate D2E/DX2 analytically  !
 ! D23   D(3,4,8,9)             59.2523         calculate D2E/DX2 analytically  !
 ! D24   D(3,4,8,20)           -63.4489         calculate D2E/DX2 analytically  !
 ! D25   D(3,4,8,21)          -179.34           calculate D2E/DX2 analytically  !
 ! D26   D(5,4,8,9)            -61.8885         calculate D2E/DX2 analytically  !
 ! D27   D(5,4,8,20)           175.4103         calculate D2E/DX2 analytically  !
 ! D28   D(5,4,8,21)            59.5192         calculate D2E/DX2 analytically  !
 ! D29   D(18,4,8,9)          -179.5724         calculate D2E/DX2 analytically  !
 ! D30   D(18,4,8,20)           57.7264         calculate D2E/DX2 analytically  !
 ! D31   D(18,4,8,21)          -58.1646         calculate D2E/DX2 analytically  !
 ! D32   D(4,5,6,19)          -179.3425         calculate D2E/DX2 analytically  !
 ! D33   D(7,5,6,19)             0.5355         calculate D2E/DX2 analytically  !
 ! D34   D(4,8,9,10)           112.3787         calculate D2E/DX2 analytically  !
 ! D35   D(4,8,9,13)           -65.9767         calculate D2E/DX2 analytically  !
 ! D36   D(20,8,9,10)         -126.8774         calculate D2E/DX2 analytically  !
 ! D37   D(20,8,9,13)           54.7673         calculate D2E/DX2 analytically  !
 ! D38   D(21,8,9,10)           -8.6089         calculate D2E/DX2 analytically  !
 ! D39   D(21,8,9,13)          173.0358         calculate D2E/DX2 analytically  !
 ! D40   D(8,9,10,11)         -178.7634         calculate D2E/DX2 analytically  !
 ! D41   D(8,9,10,22)            1.0879         calculate D2E/DX2 analytically  !
 ! D42   D(13,9,10,11)          -0.1929         calculate D2E/DX2 analytically  !
 ! D43   D(13,9,10,22)         179.6584         calculate D2E/DX2 analytically  !
 ! D44   D(8,9,13,12)          178.9476         calculate D2E/DX2 analytically  !
 ! D45   D(8,9,13,24)            1.9019         calculate D2E/DX2 analytically  !
 ! D46   D(10,9,13,12)           0.2068         calculate D2E/DX2 analytically  !
 ! D47   D(10,9,13,24)        -176.8389         calculate D2E/DX2 analytically  !
 ! D48   D(9,10,11,12)           0.1026         calculate D2E/DX2 analytically  !
 ! D49   D(22,10,11,12)       -179.759          calculate D2E/DX2 analytically  !
 ! D50   D(10,11,12,13)          0.0338         calculate D2E/DX2 analytically  !
 ! D51   D(10,11,12,23)        179.9779         calculate D2E/DX2 analytically  !
 ! D52   D(11,12,13,9)          -0.1556         calculate D2E/DX2 analytically  !
 ! D53   D(11,12,13,24)        176.8181         calculate D2E/DX2 analytically  !
 ! D54   D(23,12,13,9)         179.8974         calculate D2E/DX2 analytically  !
 ! D55   D(23,12,13,24)         -3.1289         calculate D2E/DX2 analytically  !
 ! D56   D(2,14,15,16)        -179.6173         calculate D2E/DX2 analytically  !
 ! D57   D(2,14,15,27)         -61.1172         calculate D2E/DX2 analytically  !
 ! D58   D(2,14,15,28)          55.3532         calculate D2E/DX2 analytically  !
 ! D59   D(25,14,15,16)        -57.6961         calculate D2E/DX2 analytically  !
 ! D60   D(25,14,15,27)         60.804          calculate D2E/DX2 analytically  !
 ! D61   D(25,14,15,28)        177.2744         calculate D2E/DX2 analytically  !
 ! D62   D(26,14,15,16)         58.3789         calculate D2E/DX2 analytically  !
 ! D63   D(26,14,15,27)        176.879          calculate D2E/DX2 analytically  !
 ! D64   D(26,14,15,28)        -66.6506         calculate D2E/DX2 analytically  !
 ! D65   D(14,15,16,29)        -70.7929         calculate D2E/DX2 analytically  !
 ! D66   D(14,15,16,30)        173.1656         calculate D2E/DX2 analytically  !
 ! D67   D(27,15,16,29)        170.4539         calculate D2E/DX2 analytically  !
 ! D68   D(27,15,16,30)         54.4125         calculate D2E/DX2 analytically  !
 ! D69   D(28,15,16,29)         51.2678         calculate D2E/DX2 analytically  !
 ! D70   D(28,15,16,30)        -64.7736         calculate D2E/DX2 analytically  !
 --------------------------------------------------------------------------------
 Trust Radius=3.00D-01 FncErr=1.00D-07 GrdErr=1.00D-06
 Number of steps in this run=    160 maximum allowed number of steps=    180.
 GradGradGradGradGradGradGradGradGradGradGradGradGradGradGradGradGradGrad

                          Input orientation:                          
 ---------------------------------------------------------------------
 Center     Atomic      Atomic             Coordinates (Angstroms)
 Number     Number       Type             X           Y           Z
 ---------------------------------------------------------------------
      1          8           0       -1.067352   -1.818420   -0.603290
      2          6           0       -1.260171   -0.711133   -0.115475
      3          7           0       -0.373807   -0.154908    0.751020
      4          6           0        0.748491   -0.911949    1.260987
      5          6           0        1.246864   -0.186995    2.489052
      6          8           0        2.245519   -0.854468    3.095176
      7          8           0        0.810575    0.862669    2.891227
      8          6           0        1.878554   -1.124616    0.227129
      9          6           0        2.464176    0.143289   -0.298052
     10          6           0        3.697311    0.716443   -0.152500
     11          7           0        3.756344    1.927702   -0.817782
     12          6           0        2.567610    2.081312   -1.356324
     13          7           0        1.752005    1.029997   -1.068196
     14          6           0       -2.471439    0.148251   -0.432449
     15          6           0       -3.424457   -0.507137   -1.419106
     16          7           0       -4.550733    0.396069   -1.668368
     17          1           0       -0.593358    0.688317    1.261006
     18          1           0        0.417752   -1.909712    1.566043
     19          1           0        2.495261   -0.332548    3.868311
     20          1           0        1.462143   -1.721790   -0.585530
     21          1           0        2.667299   -1.711131    0.699298
     22          1           0        4.545724    0.327378    0.395204
     23          1           0        2.237229    2.913050   -1.953578
     24          1           0        0.782573    0.927013   -1.323490
     25          1           0       -2.133510    1.110413   -0.832347
     26          1           0       -3.006197    0.374981    0.497574
     27          1           0       -2.899706   -0.678894   -2.360952
     28          1           0       -3.718382   -1.490250   -1.032268
     29          1           0       -5.140584    0.443227   -0.844998
     30          1           0       -5.135425    0.023449   -2.406784
 ---------------------------------------------------------------------
                    Distance matrix (angstroms):
                    1          2          3          4          5
     1  O    0.000000
     2  C    1.225245   0.000000
     3  N    2.254425   1.358618   0.000000
     4  C    2.755813   2.443297   1.446626   0.000000
     5  C    4.192818   3.652877   2.376627   1.510655   0.000000
     6  O    5.057961   4.755911   3.584036   2.368258   1.345444
     7  O    4.788162   3.975563   2.649285   2.410561   1.205772
     8  C    3.138364   3.184328   2.507573   1.546328   2.528727
     9  C    4.051316   3.825458   3.040332   2.547097   3.059230
    10  C    5.415788   5.159067   4.260235   3.653101   3.714659
    11  N    6.111258   5.711576   4.884316   4.629478   4.658818
    12  C    5.384043   4.897894   4.253647   4.372541   4.655803
    13  N    4.034649   3.607273   3.038523   3.194258   3.793448
    14  C    2.422486   1.518612   2.427460   3.789419   4.740604
    15  C    2.817971   2.534798   3.760316   4.975969   6.098969
    16  N    4.262898   3.803310   4.858367   6.194660   7.157949
    17  H    3.159747   2.073114   1.009612   2.088398   2.379219
    18  H    2.630566   2.660737   2.090493   1.094522   2.122999
    19  H    5.907219   5.487909   4.240354   3.191402   1.866021
    20  H    2.531403   2.941662   2.759021   2.138871   3.443109
    21  H    3.956750   4.133869   3.416552   2.153140   2.746607
    22  H    6.091639   5.920111   4.955905   4.087113   3.940972
    23  H    5.927085   5.361449   4.852291   5.213481   5.507092
    24  H    3.387966   2.883683   2.609859   3.172139   3.999007
    25  H    3.125256   2.143515   2.684147   4.096086   4.913439
    26  H    3.127623   2.145711   2.697127   4.041864   4.729728
    27  H    2.783058   2.780517   4.042165   5.146075   6.399886
    28  H    2.705490   2.736847   4.018637   5.054345   6.225097
    29  H    4.665264   4.113679   5.062333   6.399444   7.232743
    30  H    4.816045   4.561502   5.716340   6.996283   8.046559
                    6          7          8          9         10
     6  O    0.000000
     7  O    2.247047   0.000000
     8  C    2.904020   3.491031   0.000000
     9  C    3.543632   3.663796   1.492096   0.000000
    10  C    3.888812   4.197487   2.615624   1.367594   0.000000
    11  N    5.033319   4.854749   3.732904   2.263613   1.383197
    12  C    5.342134   4.755413   3.641441   2.210559   2.142028
    13  N    4.596567   4.073244   2.517188   1.373520   2.172793
    14  C    5.974886   4.725339   4.580139   4.937446   6.201184
    15  C    7.255894   6.196033   5.586886   6.029578   7.336281
    16  N    8.393107   7.053456   6.873218   7.151966   8.392302
    17  H    3.715317   2.158482   3.235116   3.475087   4.517591
    18  H    2.606246   3.097824   2.131434   3.446377   4.539338
    19  H    0.965665   2.285039   3.777023   4.193562   4.325763
    20  H    3.861803   4.380846   1.091069   2.136641   3.335937
    21  H    2.579148   3.856997   1.090441   2.115382   2.771209
    22  H    3.738657   4.524158   3.041435   2.201667   1.082199
    23  H    6.299538   5.450829   4.602920   3.234787   3.193870
    24  H    4.983824   4.215301   2.795492   2.119796   3.148215
    25  H    6.201781   4.753316   4.713226   4.728585   5.883526
    26  H    5.986618   4.531574   5.116906   5.532782   6.743605
    27  H    7.501566   6.612714   5.452394   5.805408   7.095411
    28  H    7.280668   6.437507   5.748519   6.436734   7.786912
    29  H    8.471334   7.039290   7.271581   7.630301   8.869194
    30  H    9.247737   8.008004   7.579674   7.887651   9.142170
                   11         12         13         14         15
    11  N    0.000000
    12  C    1.314044   0.000000
    13  N    2.210420   1.361430   0.000000
    14  C    6.488467   5.475608   4.361092   0.000000
    15  C    7.606177   6.527547   5.411255   1.520286   0.000000
    16  N    8.489813   7.321764   6.362907   2.431538   1.465063
    17  H    4.977684   4.333886   3.323049   2.585855   4.077650
    18  H    5.617344   5.393551   4.166693   4.071438   5.063685
    19  H    5.353365   5.755759   5.174751   6.587549   7.939163
    20  H    4.316954   4.034819   2.808793   4.358160   5.103831
    21  H    4.090067   4.314874   3.387562   5.580751   6.561001
    22  H    2.157659   3.171289   3.231111   7.068074   8.216564
    23  H    2.137441   1.075942   2.136641   5.668289   6.636115
    24  H    3.178118   2.125992   1.007760   3.462516   4.445788
    25  H    5.946305   4.828843   3.893497   1.095386   2.151116
    26  H    7.062086   6.116848   5.051848   1.096501   2.150984
    27  H    7.312914   6.206412   5.121517   2.141660   1.091760
    28  H    8.221917   7.237041   6.023128   2.144607   1.096607
    29  H    9.019963   7.896901   6.921121   2.716900   2.043987
    30  H    9.231178   8.042078   7.088135   3.318192   2.045591
                   16         17         18         19         20
    16  N    0.000000
    17  H    4.932288   0.000000
    18  H    6.361123   2.804486   0.000000
    19  H    8.990647   4.168905   3.479069   0.000000
    20  H    6.466262   3.666524   2.399028   4.778496   0.000000
    21  H    7.883281   4.087145   2.418914   3.460164   1.761618
    22  H    9.327839   5.223988   4.838966   4.086854   3.830065
    23  H    7.245203   4.826511   6.241575   6.670447   4.894289
    24  H    5.370754   2.937649   4.065650   5.610222   2.832413
    25  H    2.655596   2.632938   4.624107   6.753061   4.583777
    26  H    2.660327   2.550059   4.252631   6.490647   5.053279
    27  H    2.088327   4.506339   5.285994   8.247989   4.823430
    28  H    2.157691   4.446464   4.902528   7.997832   5.204904
    29  H    1.013946   5.017230   6.499580   9.006844   6.953462
    30  H    1.012901   5.875807   7.096354   9.885895   7.063337
                   21         22         23         24         25
    21  H    0.000000
    22  H    2.788632   0.000000
    23  H    5.348435   4.187079   0.000000
    24  H    3.821475   4.180285   2.541137   0.000000
    25  H    5.775363   6.836095   4.859014   2.962836   0.000000
    26  H    6.048232   7.552765   6.320083   4.239787   1.752465
    27  H    6.436007   8.002712   6.281410   4.149029   2.474936
    28  H    6.619972   8.581195   7.463723   5.117281   3.052088
    29  H    8.245554   9.766069   7.858823   5.962113   3.080227
    30  H    8.575489  10.083063   7.931659   6.083802   3.559753
                   26         27         28         29         30
    26  H    0.000000
    27  H    3.048469   0.000000
    28  H    2.515295   1.758957   0.000000
    29  H    2.522453   2.928960   2.407501   0.000000
    30  H    3.618353   2.343891   2.487687   1.617224   0.000000
 Symmetry turned off by external request.
 Stoichiometry    C9H14N4O3
 Framework group  C1[X(C9H14N4O3)]
 Deg. of freedom    84
 Full point group                 C1      NOp   1
 Rotational constants (GHZ):      0.7284732      0.3114858      0.2544644
 Standard basis: 6-311++G(d,p) (5D, 7F)
   450 basis functions,   702 primitive gaussians,   466 cartesian basis functions
    60 alpha electrons       60 beta electrons
       nuclear repulsion energy      1129.0975961519 Hartrees.
 NAtoms=   30 NActive=   30 NUniq=   30 SFac= 1.00D+00 NAtFMM=   60 NAOKFM=F Big=F
 Integral buffers will be    131072 words long.
 Raffenetti 2 integral format.
 Two-electron integral symmetry is turned off.
 Nuclear repulsion after empirical dispersion term =     1129.0430875942 Hartrees.
 One-electron integrals computed using PRISM.
 NBasis=   450 RedAO= T EigKep=  2.43D-06  NBF=   450
 NBsUse=   450 1.00D-06 EigRej= -1.00D+00 NBFU=   450
 ExpMin= 3.60D-02 ExpMax= 8.59D+03 ExpMxC= 1.30D+03 IAcc=3 IRadAn=         5 AccDes= 0.00D+00
 Harris functional with IExCor=  402 and IRadAn=       5 diagonalized for initial guess.
 HarFok:  IExCor=  402 AccDes= 0.00D+00 IRadAn=         5 IDoV= 1 UseB2=F ITyADJ=14
 ICtDFT=  3500011 ScaDFX=  1.000000  1.000000  1.000000  1.000000
 FoFCou: FMM=F IPFlag=           0 FMFlag=      100000 FMFlg1=           0
         NFxFlg=           0 DoJE=T BraDBF=F KetDBF=T FulRan=T
         wScrn=  0.000000 ICntrl=     500 IOpCl=  0 I1Cent=   200000004 NGrid=           0
         NMat0=    1 NMatS0=      1 NMatT0=    0 NMatD0=    1 NMtDS0=    0 NMtDT0=    0
 Symmetry not used in FoFCou.
 Requested convergence on RMS density matrix=1.00D-08 within 128 cycles.
 Requested convergence on MAX density matrix=1.00D-06.
 Requested convergence on             energy=1.00D-06.
 No special actions if energy rises.
 SCF Done:  E(RB3LYP) =  -796.386903320     A.U. after   15 cycles
            NFock= 15  Conv=0.60D-08     -V/T= 2.0037
 DoSCS=F DFT=T ScalE2(SS,OS)=  1.000000  1.000000
 Range of M.O.s used for correlation:     1   450
 NBasis=   450 NAE=    60 NBE=    60 NFC=     0 NFV=     0
 NROrb=    450 NOA=    60 NOB=    60 NVA=   390 NVB=   390

 **** Warning!!: The largest alpha MO coefficient is  0.13708048D+03

 Symmetrizing basis deriv contribution to polar:
 IMax=3 JMax=2 DiffMx= 0.00D+00
 G2DrvN: will do    31 centers at a time, making    1 passes.
 Calling FoFCou, ICntrl=  3107 FMM=F I1Cent=   0 AccDes= 0.00D+00.
 End of G2Drv F.D. properties file   721 does not exist.
 End of G2Drv F.D. properties file   722 does not exist.
 End of G2Drv F.D. properties file   788 does not exist.
          IDoAtm=111111111111111111111111111111
          Differentiating once with respect to nuclear coordinates.
          There are    93 degrees of freedom in the 1st order CPHF.  IDoFFX=6 NUNeed=     0.
     87 vectors produced by pass  0 Test12= 2.52D-14 1.08D-09 XBig12= 1.97D-01 9.22D-02.
 AX will form    87 AO Fock derivatives at one time.
     87 vectors produced by pass  1 Test12= 2.52D-14 1.08D-09 XBig12= 3.26D-02 4.71D-02.
     87 vectors produced by pass  2 Test12= 2.52D-14 1.08D-09 XBig12= 3.17D-04 2.95D-03.
     87 vectors produced by pass  3 Test12= 2.52D-14 1.08D-09 XBig12= 1.66D-06 1.10D-04.
     87 vectors produced by pass  4 Test12= 2.52D-14 1.08D-09 XBig12= 4.17D-09 5.96D-06.
     85 vectors produced by pass  5 Test12= 2.52D-14 1.08D-09 XBig12= 6.85D-12 2.57D-07.
     32 vectors produced by pass  6 Test12= 2.52D-14 1.08D-09 XBig12= 9.50D-15 1.00D-08.
      7 vectors produced by pass  7 Test12= 2.52D-14 1.08D-09 XBig12= 5.52D-16 2.71D-09.
      5 vectors produced by pass  8 Test12= 2.52D-14 1.08D-09 XBig12= 3.68D-16 3.94D-09.
      5 vectors produced by pass  9 Test12= 2.52D-14 1.08D-09 XBig12= 9.94D-15 9.92D-09.
      5 vectors produced by pass 10 Test12= 2.52D-14 1.08D-09 XBig12= 1.23D-15 3.36D-09.
      5 vectors produced by pass 11 Test12= 2.52D-14 1.08D-09 XBig12= 1.79D-14 1.15D-08.
      5 vectors produced by pass 12 Test12= 2.52D-14 1.08D-09 XBig12= 2.02D-15 4.11D-09.
      5 vectors produced by pass 13 Test12= 2.52D-14 1.08D-09 XBig12= 9.60D-15 8.49D-09.
      1 vectors produced by pass 14 Test12= 2.52D-14 1.08D-09 XBig12= 5.03D-16 1.83D-09.
 InvSVY:  IOpt=1 It=  1 EMax= 6.11D-16
 Solved reduced A of dimension   590 with    93 vectors.
 End of Minotr F.D. properties file   721 does not exist.
 End of Minotr F.D. properties file   722 does not exist.
 End of Minotr F.D. properties file   788 does not exist.

 **********************************************************************

            Population analysis using the SCF density.

 **********************************************************************

 Alpha  occ. eigenvalues --  -19.20284 -19.14920 -19.10909 -14.37163 -14.35840
 Alpha  occ. eigenvalues --  -14.30644 -14.29486 -10.33812 -10.29309 -10.25199
 Alpha  occ. eigenvalues --  -10.22600 -10.20906 -10.20531 -10.20108 -10.19543
 Alpha  occ. eigenvalues --  -10.18385  -1.14865  -1.06517  -1.05856  -1.02389
 Alpha  occ. eigenvalues --   -0.95500  -0.90054  -0.87669  -0.82498  -0.77840
 Alpha  occ. eigenvalues --   -0.75359  -0.69602  -0.66507  -0.62307  -0.61999
 Alpha  occ. eigenvalues --   -0.60991  -0.59825  -0.54861  -0.54562  -0.52399
 Alpha  occ. eigenvalues --   -0.51530  -0.50929  -0.50187  -0.48134  -0.47311
 Alpha  occ. eigenvalues --   -0.46268  -0.45293  -0.45164  -0.43560  -0.42775
 Alpha  occ. eigenvalues --   -0.41529  -0.41373  -0.40855  -0.39799  -0.39529
 Alpha  occ. eigenvalues --   -0.38154  -0.36359  -0.36006  -0.31961  -0.29274
 Alpha  occ. eigenvalues --   -0.28600  -0.28027  -0.27419  -0.25733  -0.23407
 Alpha virt. eigenvalues --   -0.03405  -0.02403  -0.01753  -0.01098  -0.00684
 Alpha virt. eigenvalues --    0.00312   0.00484   0.01423   0.01701   0.02518
 Alpha virt. eigenvalues --    0.02814   0.03011   0.03630   0.04132   0.04782
 Alpha virt. eigenvalues --    0.05029   0.05670   0.06502   0.06863   0.07236
 Alpha virt. eigenvalues --    0.07389   0.08066   0.08226   0.08573   0.08846
 Alpha virt. eigenvalues --    0.09637   0.09653   0.10266   0.11028   0.11346
 Alpha virt. eigenvalues --    0.11986   0.12168   0.12604   0.12642   0.12890
 Alpha virt. eigenvalues --    0.13079   0.13646   0.14021   0.14427   0.14612
 Alpha virt. eigenvalues --    0.14716   0.15163   0.15663   0.15851   0.15893
 Alpha virt. eigenvalues --    0.16110   0.16699   0.17063   0.17414   0.17929
 Alpha virt. eigenvalues --    0.18254   0.18555   0.18693   0.19452   0.19530
 Alpha virt. eigenvalues --    0.20169   0.20555   0.20985   0.21523   0.21560
 Alpha virt. eigenvalues --    0.21889   0.22076   0.22794   0.23090   0.23682
 Alpha virt. eigenvalues --    0.24081   0.24185   0.24339   0.24603   0.25666
 Alpha virt. eigenvalues --    0.26315   0.26928   0.27190   0.27475   0.27846
 Alpha virt. eigenvalues --    0.27903   0.28174   0.28578   0.29122   0.29367
 Alpha virt. eigenvalues --    0.30048   0.30557   0.30851   0.31304   0.31763
 Alpha virt. eigenvalues --    0.32104   0.32298   0.32626   0.33161   0.33721
 Alpha virt. eigenvalues --    0.33997   0.34749   0.35155   0.35839   0.36282
 Alpha virt. eigenvalues --    0.36657   0.36820   0.37820   0.38024   0.38590
 Alpha virt. eigenvalues --    0.39464   0.39822   0.41347   0.42041   0.42803
 Alpha virt. eigenvalues --    0.44987   0.45570   0.46750   0.47309   0.48144
 Alpha virt. eigenvalues --    0.48514   0.49193   0.50281   0.52435   0.52851
 Alpha virt. eigenvalues --    0.54098   0.55223   0.55930   0.57351   0.58063
 Alpha virt. eigenvalues --    0.58391   0.59423   0.61359   0.61641   0.61691
 Alpha virt. eigenvalues --    0.63236   0.63460   0.64136   0.64812   0.65097
 Alpha virt. eigenvalues --    0.65628   0.67185   0.68024   0.68372   0.68808
 Alpha virt. eigenvalues --    0.69398   0.70146   0.71210   0.71566   0.72036
 Alpha virt. eigenvalues --    0.72600   0.74510   0.74733   0.75129   0.76025
 Alpha virt. eigenvalues --    0.76429   0.77295   0.77388   0.79037   0.81683
 Alpha virt. eigenvalues --    0.81863   0.83070   0.83526   0.85145   0.86789
 Alpha virt. eigenvalues --    0.88043   0.89038   0.89569   0.90428   0.91698
 Alpha virt. eigenvalues --    0.91999   0.93658   0.95336   0.96544   0.98075
 Alpha virt. eigenvalues --    0.99482   0.99902   1.00872   1.02075   1.03114
 Alpha virt. eigenvalues --    1.04396   1.06032   1.06681   1.09667   1.11375
 Alpha virt. eigenvalues --    1.12252   1.12777   1.14663   1.15439   1.17580
 Alpha virt. eigenvalues --    1.18546   1.19439   1.20363   1.20653   1.21369
 Alpha virt. eigenvalues --    1.23548   1.24105   1.24780   1.25912   1.26138
 Alpha virt. eigenvalues --    1.27960   1.29185   1.30115   1.31177   1.32218
 Alpha virt. eigenvalues --    1.34602   1.35460   1.38731   1.40389   1.41086
 Alpha virt. eigenvalues --    1.41997   1.44965   1.47215   1.47595   1.49285
 Alpha virt. eigenvalues --    1.50099   1.53413   1.54172   1.54543   1.56332
 Alpha virt. eigenvalues --    1.56997   1.58030   1.58930   1.59415   1.62283
 Alpha virt. eigenvalues --    1.62777   1.63126   1.64778   1.66051   1.66838
 Alpha virt. eigenvalues --    1.67277   1.68055   1.69274   1.69502   1.71168
 Alpha virt. eigenvalues --    1.71467   1.73363   1.73789   1.74572   1.75886
 Alpha virt. eigenvalues --    1.76336   1.77858   1.78775   1.80739   1.81686
 Alpha virt. eigenvalues --    1.82403   1.83225   1.84607   1.86061   1.89657
 Alpha virt. eigenvalues --    1.90727   1.93418   1.93938   1.94939   1.97344
 Alpha virt. eigenvalues --    1.97737   1.99844   2.02252   2.03230   2.05458
 Alpha virt. eigenvalues --    2.06137   2.08485   2.09918   2.11702   2.12648
 Alpha virt. eigenvalues --    2.13542   2.15845   2.17755   2.20465   2.22421
 Alpha virt. eigenvalues --    2.24763   2.26104   2.26331   2.27231   2.31971
 Alpha virt. eigenvalues --    2.32663   2.34816   2.36567   2.40070   2.42082
 Alpha virt. eigenvalues --    2.44399   2.44906   2.46658   2.50651   2.51388
 Alpha virt. eigenvalues --    2.51910   2.53998   2.55742   2.56094   2.57845
 Alpha virt. eigenvalues --    2.59167   2.60552   2.61050   2.62931   2.63914
 Alpha virt. eigenvalues --    2.64456   2.64954   2.67523   2.69029   2.69623
 Alpha virt. eigenvalues --    2.72190   2.73023   2.75074   2.76602   2.78629
 Alpha virt. eigenvalues --    2.79230   2.79772   2.81731   2.82751   2.83442
 Alpha virt. eigenvalues --    2.85383   2.87042   2.87953   2.89821   2.91273
 Alpha virt. eigenvalues --    2.91644   2.93004   2.93677   2.94396   2.95686
 Alpha virt. eigenvalues --    2.96798   2.97402   2.99171   2.99979   3.01242
 Alpha virt. eigenvalues --    3.03258   3.04523   3.05906   3.09119   3.10445
 Alpha virt. eigenvalues --    3.11676   3.14733   3.15193   3.19986   3.23033
 Alpha virt. eigenvalues --    3.27054   3.32380   3.33658   3.35640   3.35820
 Alpha virt. eigenvalues --    3.41226   3.45874   3.53190   3.55086   3.58635
 Alpha virt. eigenvalues --    3.60337   3.62444   3.65654   3.68038   3.71127
 Alpha virt. eigenvalues --    3.75685   3.78437   3.79589   3.81213   3.85206
 Alpha virt. eigenvalues --    3.87090   3.89817   3.92451   3.94539   3.96705
 Alpha virt. eigenvalues --    4.06026   4.06716   4.08113   4.13126   4.22519
 Alpha virt. eigenvalues --    4.32239   4.33061   4.51541   4.72111   4.77719
 Alpha virt. eigenvalues --    4.83396   4.85970   4.94726   4.97454   4.98837
 Alpha virt. eigenvalues --    5.06204   5.12025   5.20311   5.28879   5.29321
 Alpha virt. eigenvalues --    5.42236   5.61148   5.79002   5.84746  23.76078
 Alpha virt. eigenvalues --   23.79377  23.83179  23.85931  23.87319  23.92413
 Alpha virt. eigenvalues --   23.93755  23.96771  24.15552  35.55430  35.59583
 Alpha virt. eigenvalues --   35.60846  35.70465  49.86771  49.98857  50.01886
          Condensed to atoms (all electrons):
               1          2          3          4          5          6
     1  O    7.983874   0.419345  -0.176084   0.000660   0.019059   0.000443
     2  C    0.419345   8.598598  -0.751878  -0.715572   0.466284   0.023194
     3  N   -0.176084  -0.751878   8.239007  -0.871769   0.118596   0.029767
     4  C    0.000660  -0.715572  -0.871769  13.878850  -4.202698  -0.164960
     5  C    0.019059   0.466284   0.118596  -4.202698   8.620941   0.207312
     6  O    0.000443   0.023194   0.029767  -0.164960   0.207312   7.949025
     7  O   -0.000129   0.076578   0.033213  -0.209009   0.569284  -0.147317
     8  C    0.015026   0.077574   0.084849  -1.632111  -0.018657  -0.076467
     9  C   -0.083094  -0.362439   0.529909  -0.669590   0.260694   0.040464
    10  C   -0.013783  -0.222552   0.074635   0.167613   0.071422   0.014724
    11  N   -0.000187   0.001154  -0.001375  -0.014401   0.021406   0.000229
    12  C    0.003508  -0.033547  -0.020211   0.100385   0.001416   0.000522
    13  N    0.015073   0.132121  -0.075164  -0.173998   0.127773   0.004426
    14  C    0.104059  -1.647133  -0.271806   0.096501  -0.174554  -0.001012
    15  C    0.016872   0.359585   0.006609  -0.058077   0.003477  -0.000701
    16  N    0.001422   0.014098  -0.003456   0.006431   0.001007  -0.000001
    17  H    0.001627   0.098852   0.222377  -0.008691   0.007198   0.008138
    18  H    0.002217   0.011379  -0.042644   0.437913  -0.073363   0.004681
    19  H    0.000000  -0.000527   0.000683  -0.125647   0.140091   0.231505
    20  H   -0.004803   0.048149  -0.033334  -0.120309   0.020555  -0.000163
    21  H    0.005696   0.009661  -0.006996   0.016929  -0.047966  -0.010500
    22  H   -0.000213  -0.003248   0.003197  -0.009427  -0.009549   0.000640
    23  H    0.000186  -0.001323  -0.002595   0.011803  -0.004584  -0.000227
    24  H   -0.011028   0.021265   0.039971  -0.077629   0.026800   0.000814
    25  H    0.006409  -0.101118   0.021550  -0.008222  -0.000754   0.000067
    26  H    0.002394  -0.104448   0.042842   0.052339  -0.013577  -0.000477
    27  H   -0.010048  -0.007262  -0.008507   0.006521   0.001420   0.000005
    28  H   -0.011165  -0.048595  -0.015893  -0.010092   0.000502   0.000022
    29  H    0.000221  -0.002400  -0.001224  -0.002733   0.000534   0.000005
    30  H    0.000256   0.010193   0.001075   0.000565  -0.000100  -0.000003
               7          8          9         10         11         12
     1  O   -0.000129   0.015026  -0.083094  -0.013783  -0.000187   0.003508
     2  C    0.076578   0.077574  -0.362439  -0.222552   0.001154  -0.033547
     3  N    0.033213   0.084849   0.529909   0.074635  -0.001375  -0.020211
     4  C   -0.209009  -1.632111  -0.669590   0.167613  -0.014401   0.100385
     5  C    0.569284  -0.018657   0.260694   0.071422   0.021406   0.001416
     6  O   -0.147317  -0.076467   0.040464   0.014724   0.000229   0.000522
     7  O    7.924694   0.022914   0.013575  -0.035542  -0.000826  -0.004687
     8  C    0.022914  12.626567  -3.043811  -1.569568  -0.017830  -0.083486
     9  C    0.013575  -3.043811   9.898416  -0.419315  -0.166298  -0.091137
    10  C   -0.035542  -1.569568  -0.419315   7.606273   0.467324  -0.190578
    11  N   -0.000826  -0.017830  -0.166298   0.467324   6.546928   0.365689
    12  C   -0.004687  -0.083486  -0.091137  -0.190578   0.365689   5.340120
    13  N    0.000189  -0.259414  -0.106482   0.031694   0.052947   0.162666
    14  C   -0.012059  -0.112921   0.030337  -0.016917  -0.000326   0.020182
    15  C   -0.001319  -0.014263  -0.018357   0.003189   0.000208   0.000041
    16  N   -0.000056   0.000611   0.000138   0.000093  -0.000002   0.000247
    17  H    0.033937  -0.026323  -0.004903   0.004092  -0.000070  -0.011382
    18  H   -0.004157   0.012015  -0.055679  -0.006624  -0.000228  -0.001123
    19  H   -0.004173  -0.031907   0.015539   0.015287   0.000011   0.000008
    20  H    0.001367   0.559443  -0.142301  -0.043598   0.001925  -0.004696
    21  H   -0.000270   0.464662  -0.116128  -0.030762  -0.004180  -0.000348
    22  H   -0.000410  -0.036368  -0.095905   0.485591  -0.076122   0.029547
    23  H   -0.000170   0.008785   0.083913  -0.024365  -0.068637   0.440165
    24  H    0.001812  -0.160939   0.069415   0.031069   0.018558  -0.073393
    25  H    0.000912   0.018524   0.000112  -0.002827  -0.000043  -0.001459
    26  H   -0.003599  -0.001326   0.000126   0.002541  -0.000074   0.004155
    27  H   -0.000045   0.001250  -0.003795  -0.000858  -0.000047   0.002016
    28  H    0.000126  -0.000082  -0.001560  -0.000705   0.000010  -0.000793
    29  H    0.000026  -0.000575   0.000459  -0.000003   0.000000  -0.000062
    30  H   -0.000007  -0.000017  -0.000001   0.000069  -0.000001   0.000059
              13         14         15         16         17         18
     1  O    0.015073   0.104059   0.016872   0.001422   0.001627   0.002217
     2  C    0.132121  -1.647133   0.359585   0.014098   0.098852   0.011379
     3  N   -0.075164  -0.271806   0.006609  -0.003456   0.222377  -0.042644
     4  C   -0.173998   0.096501  -0.058077   0.006431  -0.008691   0.437913
     5  C    0.127773  -0.174554   0.003477   0.001007   0.007198  -0.073363
     6  O    0.004426  -0.001012  -0.000701  -0.000001   0.008138   0.004681
     7  O    0.000189  -0.012059  -0.001319  -0.000056   0.033937  -0.004157
     8  C   -0.259414  -0.112921  -0.014263   0.000611  -0.026323   0.012015
     9  C   -0.106482   0.030337  -0.018357   0.000138  -0.004903  -0.055679
    10  C    0.031694  -0.016917   0.003189   0.000093   0.004092  -0.006624
    11  N    0.052947  -0.000326   0.000208  -0.000002  -0.000070  -0.000228
    12  C    0.162666   0.020182   0.000041   0.000247  -0.011382  -0.001123
    13  N    6.985951  -0.032097   0.005566   0.000317   0.000758  -0.002744
    14  C   -0.032097   7.816130  -0.505284  -0.067332  -0.015785  -0.013923
    15  C    0.005566  -0.505284   6.226402   0.134565  -0.030941   0.001762
    16  N    0.000317  -0.067332   0.134565   6.608691  -0.003124  -0.000495
    17  H    0.000758  -0.015785  -0.030941  -0.003124   0.411929   0.002757
    18  H   -0.002744  -0.013923   0.001762  -0.000495   0.002757   0.469068
    19  H    0.000624  -0.001920  -0.000037  -0.000004   0.002479   0.000064
    20  H    0.027570  -0.004172  -0.001536   0.000011   0.004226  -0.016611
    21  H    0.006787   0.000494  -0.001051   0.000117  -0.000924  -0.004640
    22  H    0.019061  -0.000265  -0.000022  -0.000006   0.000409   0.000052
    23  H   -0.127087   0.002744  -0.000095   0.000027  -0.000881   0.000215
    24  H    0.366479  -0.017048   0.014834  -0.001776   0.006251  -0.000878
    25  H    0.001624   0.513473  -0.128202   0.010507  -0.000625  -0.000938
    26  H    0.000140   0.363558  -0.030477   0.005030  -0.017272   0.003408
    27  H    0.000790  -0.026373   0.394615  -0.042361  -0.000859   0.000513
    28  H    0.000115   0.093965   0.361518  -0.133245   0.006918  -0.000846
    29  H   -0.000102   0.023507  -0.080414   0.397424   0.000575  -0.000036
    30  H    0.000024  -0.021549  -0.026879   0.398632  -0.000642  -0.000026
              19         20         21         22         23         24
     1  O    0.000000  -0.004803   0.005696  -0.000213   0.000186  -0.011028
     2  C   -0.000527   0.048149   0.009661  -0.003248  -0.001323   0.021265
     3  N    0.000683  -0.033334  -0.006996   0.003197  -0.002595   0.039971
     4  C   -0.125647  -0.120309   0.016929  -0.009427   0.011803  -0.077629
     5  C    0.140091   0.020555  -0.047966  -0.009549  -0.004584   0.026800
     6  O    0.231505  -0.000163  -0.010500   0.000640  -0.000227   0.000814
     7  O   -0.004173   0.001367  -0.000270  -0.000410  -0.000170   0.001812
     8  C   -0.031907   0.559443   0.464662  -0.036368   0.008785  -0.160939
     9  C    0.015539  -0.142301  -0.116128  -0.095905   0.083913   0.069415
    10  C    0.015287  -0.043598  -0.030762   0.485591  -0.024365   0.031069
    11  N    0.000011   0.001925  -0.004180  -0.076122  -0.068637   0.018558
    12  C    0.000008  -0.004696  -0.000348   0.029547   0.440165  -0.073393
    13  N    0.000624   0.027570   0.006787   0.019061  -0.127087   0.366479
    14  C   -0.001920  -0.004172   0.000494  -0.000265   0.002744  -0.017048
    15  C   -0.000037  -0.001536  -0.001051  -0.000022  -0.000095   0.014834
    16  N   -0.000004   0.000011   0.000117  -0.000006   0.000027  -0.001776
    17  H    0.002479   0.004226  -0.000924   0.000409  -0.000881   0.006251
    18  H    0.000064  -0.016611  -0.004640   0.000052   0.000215  -0.000878
    19  H    0.458557  -0.000915   0.000748  -0.000673  -0.000040   0.000412
    20  H   -0.000915   0.477646   0.001208   0.000549  -0.000983   0.002434
    21  H    0.000748   0.001208   0.489441  -0.002017   0.000802  -0.002180
    22  H   -0.000673   0.000549  -0.002017   0.554549  -0.001400   0.003127
    23  H   -0.000040  -0.000983   0.000802  -0.001400   0.539314  -0.013797
    24  H    0.000412   0.002434  -0.002180   0.003127  -0.013797   0.435360
    25  H    0.000012  -0.000984   0.000396  -0.000121   0.000124  -0.003243
    26  H   -0.000237  -0.001154  -0.000297  -0.000011   0.000399  -0.010656
    27  H    0.000001   0.000328   0.000093  -0.000031   0.000206  -0.007494
    28  H    0.000015   0.000610   0.000080  -0.000003  -0.000050   0.003765
    29  H    0.000004  -0.000009  -0.000018   0.000001  -0.000009   0.000292
    30  H   -0.000001  -0.000006   0.000004   0.000000   0.000005  -0.000333
              25         26         27         28         29         30
     1  O    0.006409   0.002394  -0.010048  -0.011165   0.000221   0.000256
     2  C   -0.101118  -0.104448  -0.007262  -0.048595  -0.002400   0.010193
     3  N    0.021550   0.042842  -0.008507  -0.015893  -0.001224   0.001075
     4  C   -0.008222   0.052339   0.006521  -0.010092  -0.002733   0.000565
     5  C   -0.000754  -0.013577   0.001420   0.000502   0.000534  -0.000100
     6  O    0.000067  -0.000477   0.000005   0.000022   0.000005  -0.000003
     7  O    0.000912  -0.003599  -0.000045   0.000126   0.000026  -0.000007
     8  C    0.018524  -0.001326   0.001250  -0.000082  -0.000575  -0.000017
     9  C    0.000112   0.000126  -0.003795  -0.001560   0.000459  -0.000001
    10  C   -0.002827   0.002541  -0.000858  -0.000705  -0.000003   0.000069
    11  N   -0.000043  -0.000074  -0.000047   0.000010   0.000000  -0.000001
    12  C   -0.001459   0.004155   0.002016  -0.000793  -0.000062   0.000059
    13  N    0.001624   0.000140   0.000790   0.000115  -0.000102   0.000024
    14  C    0.513473   0.363558  -0.026373   0.093965   0.023507  -0.021549
    15  C   -0.128202  -0.030477   0.394615   0.361518  -0.080414  -0.026879
    16  N    0.010507   0.005030  -0.042361  -0.133245   0.397424   0.398632
    17  H   -0.000625  -0.017272  -0.000859   0.006918   0.000575  -0.000642
    18  H   -0.000938   0.003408   0.000513  -0.000846  -0.000036  -0.000026
    19  H    0.000012  -0.000237   0.000001   0.000015   0.000004  -0.000001
    20  H   -0.000984  -0.001154   0.000328   0.000610  -0.000009  -0.000006
    21  H    0.000396  -0.000297   0.000093   0.000080  -0.000018   0.000004
    22  H   -0.000121  -0.000011  -0.000031  -0.000003   0.000001   0.000000
    23  H    0.000124   0.000399   0.000206  -0.000050  -0.000009   0.000005
    24  H   -0.003243  -0.010656  -0.007494   0.003765   0.000292  -0.000333
    25  H    0.554785  -0.066280  -0.014278   0.015699  -0.002106   0.001706
    26  H   -0.066280   0.639949   0.023323  -0.056032   0.008825   0.001802
    27  H   -0.014278   0.023323   0.579433  -0.070697   0.012831  -0.014242
    28  H    0.015699  -0.056032  -0.070697   0.703299  -0.007391   0.000426
    29  H   -0.002106   0.008825   0.012831  -0.007391   0.508619  -0.060227
    30  H    0.001706   0.001802  -0.014242   0.000426  -0.060227   0.468615
 Mulliken charges:
               1
     1  O   -0.287814
     2  C   -0.365988
     3  N   -0.165344
     4  C    0.298426
     5  C   -0.139969
     6  O   -0.114156
     7  O   -0.254852
     8  C   -0.806154
     9  C    0.437699
    10  C   -0.397621
    11  N   -0.125742
    12  C    0.046175
    13  N   -0.165605
    14  C   -0.122473
    15  C   -0.631589
    16  N   -0.327510
    17  H    0.309897
    18  H    0.278909
    19  H    0.300039
    20  H    0.229553
    21  H    0.231158
    22  H    0.139066
    23  H    0.157554
    24  H    0.337738
    25  H    0.185298
    26  H    0.155088
    27  H    0.183552
    28  H    0.170078
    29  H    0.203986
    30  H    0.240601
 Sum of Mulliken charges =   0.00000
 Mulliken charges with hydrogens summed into heavy atoms:
               1
     1  O   -0.287814
     2  C   -0.365988
     3  N    0.144553
     4  C    0.577335
     5  C   -0.139969
     6  O    0.185883
     7  O   -0.254852
     8  C   -0.345443
     9  C    0.437699
    10  C   -0.258555
    11  N   -0.125742
    12  C    0.203729
    13  N    0.172133
    14  C    0.217913
    15  C   -0.277959
    16  N    0.117077
 APT charges:
               1
     1  O   -0.264499
     2  C   -0.446006
     3  N   -0.328227
     4  C   -0.282554
     5  C   -0.238962
     6  O   -0.510107
     7  O   -0.179783
     8  C   -1.271674
     9  C    0.520416
    10  C   -0.749089
    11  N    0.105310
    12  C   -0.351033
    13  N   -0.577449
    14  C   -0.705672
    15  C   -0.387129
    16  N   -1.975684
    17  H    0.481452
    18  H    0.502995
    19  H    1.010015
    20  H    0.277491
    21  H    0.654867
    22  H    0.758899
    23  H    0.639573
    24  H    0.135280
    25  H    0.264985
    26  H    0.439038
    27  H    0.274566
    28  H    0.445613
    29  H    0.680917
    30  H    1.076449
 Sum of APT charges =   0.00000
 APT charges with hydrogens summed into heavy atoms:
               1
     1  O   -0.264499
     2  C   -0.446006
     3  N    0.153226
     4  C    0.220441
     5  C   -0.238962
     6  O    0.499908
     7  O   -0.179783
     8  C   -0.339316
     9  C    0.520416
    10  C    0.009810
    11  N    0.105310
    12  C    0.288541
    13  N   -0.442169
    14  C   -0.001650
    15  C    0.333051
    16  N   -0.218319
 Electronic spatial extent (au):  <R**2>=           4496.5259
 Charge=              0.0000 electrons
 Dipole moment (field-independent basis, Debye):
    X=             -3.5034    Y=             -1.4390    Z=              1.8080  Tot=              4.1968
 Quadrupole moment (field-independent basis, Debye-Ang):
   XX=            -98.7598   YY=           -106.8511   ZZ=            -88.6389
   XY=             -9.1620   XZ=              8.2599   YZ=             -4.3585
 Traceless Quadrupole moment (field-independent basis, Debye-Ang):
   XX=             -0.6765   YY=             -8.7678   ZZ=              9.4443
   XY=             -9.1620   XZ=              8.2599   YZ=             -4.3585
 Octapole moment (field-independent basis, Debye-Ang**2):
  XXX=           -242.7753  YYY=            -14.7795  ZZZ=            -12.9965  XYY=            -48.0880
  XXY=            -75.5526  XXZ=             25.9582  XZZ=            -20.9664  YZZ=            -16.2490
  YYZ=            -14.8255  XYZ=             -6.3437
 Hexadecapole moment (field-independent basis, Debye-Ang**3):
 XXXX=          -3651.6377 YYYY=           -814.8258 ZZZZ=          -1208.3068 XXXY=           -399.2427
 XXXZ=           -119.0609 YYYX=           -319.1480 YYYZ=             93.9016 ZZZX=           -194.6228
 ZZZY=             92.1393 XXYY=           -929.8539 XXZZ=           -762.2721 YYZZ=           -384.6128
 XXYZ=            140.3417 YYXZ=           -154.3219 ZZXY=            -57.4697
 N-N= 1.129043087594D+03 E-N=-4.118650526879D+03  KE= 7.934346049234D+02
  Exact polarizability:   0.000   0.000   0.000   0.000   0.000   0.000
 Approx polarizability: 211.967   0.461 221.798  17.740  -2.019 183.111
 Calling FoFJK, ICntrl=    100147 FMM=F ISym2X=0 I1Cent= 0 IOpClX= 0 NMat=1 NMatS=1 NMatT=0.
 -------------------------------------------------------------------
 Center     Atomic                   Forces (Hartrees/Bohr)
 Number     Number              X              Y              Z
 -------------------------------------------------------------------
      1        8          -0.001700741    0.001968450   -0.000631571
      2        6          -0.003274658   -0.004970392   -0.000808176
      3        7           0.001994965   -0.000694098    0.000532115
      4        6           0.000847353   -0.002344883    0.000589283
      5        6           0.002403848   -0.000553497    0.000979034
      6        8          -0.002259870   -0.000313855   -0.001671170
      7        8          -0.000641664    0.000790511    0.001360277
      8        6           0.003246728    0.002268614   -0.003442364
      9        6          -0.002038021   -0.008514404    0.006856085
     10        6           0.007041471    0.004411575    0.000999185
     11        7          -0.000606151   -0.002306781    0.000413089
     12        6           0.003415328    0.002777513    0.000276977
     13        7          -0.006663855    0.000927409   -0.004438830
     14        6           0.001157241    0.000683089   -0.000196140
     15        6           0.001478977   -0.000734563   -0.000394990
     16        7          -0.001245193   -0.000940659   -0.000939753
     17        1          -0.001236044    0.002549079   -0.000313977
     18        1          -0.001458612   -0.000251501    0.000800483
     19        1           0.002974758    0.001326327    0.003038415
     20        1          -0.001095355   -0.000948334    0.000501517
     21        1           0.000008290   -0.000045511   -0.000295464
     22        1          -0.001524740    0.000773033   -0.001545318
     23        1           0.000322733    0.002326396   -0.001058747
     24        1           0.000917679    0.000232278   -0.000495422
     25        1          -0.000941758    0.000573674    0.000276842
     26        1           0.001352190    0.000186637    0.001017247
     27        1          -0.000577843   -0.000615445   -0.000311637
     28        1           0.000202019   -0.000700198   -0.000631223
     29        1          -0.001244842    0.001829109    0.001760792
     30        1          -0.000854234    0.000310428   -0.002226558
 -------------------------------------------------------------------
 Cartesian Forces:  Max     0.008514404 RMS     0.002256067
 FormGI is forming the generalized inverse of G from B-inverse, IUseBI=4.

 GradGradGradGradGradGradGradGradGradGradGradGradGradGradGradGradGradGrad
 Berny optimization.
 Internal  Forces:  Max     0.008231755 RMS     0.001761386
 Search for a local minimum.
 Step number   1 out of a maximum of  160
 All quantities printed in internal units (Hartrees-Bohrs-Radians)
 Mixed Optimization -- RFO/linear search
 Second derivative matrix not updated -- analytic derivatives used.
 ITU=  0
     Eigenvalues ---   -0.00153  -0.00088   0.00202   0.00247   0.00316
     Eigenvalues ---    0.00362   0.00418   0.00537   0.00822   0.00949
     Eigenvalues ---    0.01613   0.01929   0.01971   0.02418   0.03289
     Eigenvalues ---    0.03337   0.04146   0.04172   0.04197   0.04221
     Eigenvalues ---    0.04499   0.04523   0.05070   0.05099   0.05180
     Eigenvalues ---    0.05415   0.05887   0.06143   0.07657   0.08009
     Eigenvalues ---    0.08271   0.10106   0.10667   0.10711   0.10784
     Eigenvalues ---    0.11559   0.11781   0.13479   0.15086   0.15367
     Eigenvalues ---    0.15931   0.16814   0.17409   0.18783   0.19217
     Eigenvalues ---    0.20703   0.21365   0.22020   0.23157   0.23200
     Eigenvalues ---    0.24122   0.24697   0.25057   0.25655   0.27824
     Eigenvalues ---    0.30027   0.31692   0.32399   0.32647   0.32981
     Eigenvalues ---    0.33444   0.33603   0.33856   0.34236   0.34668
     Eigenvalues ---    0.35314   0.36304   0.37044   0.37234   0.37492
     Eigenvalues ---    0.38945   0.41262   0.41711   0.44961   0.44975
     Eigenvalues ---    0.45454   0.45736   0.46625   0.47579   0.47920
     Eigenvalues ---    0.52649   0.58583   0.79589   0.87078
 RFO step:  Lambda=-2.45713626D-03 EMin=-1.52828132D-03
 Linear search not attempted -- first point.
 Iteration  1 RMS(Cart)=  0.30249541 RMS(Int)=  0.03306981
 Iteration  2 RMS(Cart)=  0.08985824 RMS(Int)=  0.00331057
 Iteration  3 RMS(Cart)=  0.00512744 RMS(Int)=  0.00058415
 Iteration  4 RMS(Cart)=  0.00001773 RMS(Int)=  0.00058408
 Iteration  5 RMS(Cart)=  0.00000000 RMS(Int)=  0.00058408
 Variable       Old X    -DE/DX   Delta X   Delta X   Delta X     New X
                                 (Linear)    (Quad)   (Total)
    R1        2.31538  -0.00179   0.00000  -0.01058  -0.01058   2.30479
    R2        2.56742   0.00664   0.00000   0.02753   0.02753   2.59495
    R3        2.86976   0.00121   0.00000   0.00259   0.00259   2.87235
    R4        2.73373   0.00451   0.00000   0.01485   0.01485   2.74858
    R5        1.90789   0.00224   0.00000   0.00524   0.00524   1.91313
    R6        2.85472   0.00443   0.00000   0.01050   0.01050   2.86522
    R7        2.92214   0.00344   0.00000   0.00121   0.00121   2.92335
    R8        2.06835   0.00089   0.00000   0.00038   0.00038   2.06873
    R9        2.54252   0.00064   0.00000  -0.00391  -0.00391   2.53861
   R10        2.27858   0.00137   0.00000   0.00183   0.00183   2.28041
   R11        1.82484   0.00392   0.00000   0.00685   0.00685   1.83169
   R12        2.81965   0.00052   0.00000  -0.00271  -0.00271   2.81694
   R13        2.06182   0.00056   0.00000   0.00453   0.00453   2.06635
   R14        2.06063  -0.00010   0.00000   0.00042   0.00042   2.06105
   R15        2.58438   0.00627   0.00000   0.01169   0.01165   2.59603
   R16        2.59558   0.00823   0.00000   0.01922   0.01932   2.61490
   R17        2.61386  -0.00179   0.00000  -0.00857  -0.00868   2.60518
   R18        2.04506  -0.00226   0.00000  -0.00598  -0.00598   2.03908
   R19        2.48318  -0.00039   0.00000  -0.00297  -0.00301   2.48017
   R20        2.57273   0.00567   0.00000   0.01278   0.01287   2.58560
   R21        2.03324   0.00229   0.00000   0.00583   0.00583   2.03907
   R22        1.90439  -0.00078   0.00000  -0.00035  -0.00035   1.90404
   R23        2.87292   0.00355   0.00000   0.00838   0.00838   2.88130
   R24        2.06998   0.00011   0.00000   0.00108   0.00108   2.07106
   R25        2.07209   0.00024   0.00000   0.00035   0.00035   2.07244
   R26        2.76857   0.00355   0.00000   0.00440   0.00440   2.77296
   R27        2.06313   0.00009   0.00000  -0.00222  -0.00222   2.06091
   R28        2.07229   0.00035   0.00000   0.00375   0.00375   2.07603
   R29        1.91608   0.00224   0.00000   0.00294   0.00294   1.91902
   R30        1.91411   0.00200   0.00000   0.00230   0.00230   1.91640
    A1        2.11910   0.00251   0.00000   0.00290   0.00285   2.12196
    A2        2.15777  -0.00196   0.00000  -0.00288  -0.00293   2.15484
    A3        2.00623  -0.00055   0.00000  -0.00024  -0.00029   2.00594
    A4        2.11381   0.00272   0.00000  -0.02175  -0.02544   2.08837
    A5        2.12025  -0.00288   0.00000  -0.02481  -0.02832   2.09194
    A6        2.01275   0.00024   0.00000   0.00664   0.00241   2.01517
    A7        1.86647   0.00244   0.00000   0.01849   0.01846   1.88493
    A8        1.98585   0.00045   0.00000  -0.02731  -0.02731   1.95855
    A9        1.91864  -0.00168   0.00000  -0.01992  -0.01987   1.89877
   A10        1.94811  -0.00274   0.00000  -0.00241  -0.00237   1.94573
   A11        1.88660  -0.00011   0.00000   0.00939   0.00937   1.89597
   A12        1.85647   0.00153   0.00000   0.02242   0.02216   1.87863
   A13        1.95306   0.00017   0.00000  -0.00355  -0.00356   1.94950
   A14        2.17674   0.00060   0.00000  -0.00121  -0.00121   2.17553
   A15        2.15338  -0.00077   0.00000   0.00477   0.00477   2.15815
   A16        1.85929   0.00343   0.00000   0.01964   0.01964   1.87894
   A17        1.98809   0.00219   0.00000  -0.00687  -0.00689   1.98120
   A18        1.86956  -0.00135   0.00000  -0.01311  -0.01310   1.85646
   A19        1.88923  -0.00073   0.00000   0.01004   0.00997   1.89920
   A20        1.93128   0.00116   0.00000   0.03203   0.03208   1.96336
   A21        1.90241  -0.00160   0.00000  -0.01567  -0.01563   1.88678
   A22        1.87988   0.00023   0.00000  -0.00669  -0.00659   1.87329
   A23        2.30846  -0.00144   0.00000  -0.01183  -0.01192   2.29654
   A24        2.14412   0.00407   0.00000   0.01771   0.01763   2.16175
   A25        1.83034  -0.00262   0.00000  -0.00584  -0.00567   1.82468
   A26        1.93295   0.00123   0.00000   0.00369   0.00365   1.93660
   A27        2.22697  -0.00041   0.00000  -0.00348  -0.00348   2.22348
   A28        2.12326  -0.00082   0.00000  -0.00019  -0.00020   2.12307
   A29        1.83473   0.00257   0.00000   0.00640   0.00635   1.84108
   A30        1.94437  -0.00003   0.00000   0.00019   0.00033   1.94470
   A31        2.20887  -0.00118   0.00000  -0.00812  -0.00819   2.20067
   A32        2.12995   0.00121   0.00000   0.00793   0.00786   2.13781
   A33        1.88238  -0.00115   0.00000  -0.00442  -0.00471   1.87767
   A34        2.18322   0.00102   0.00000  -0.00601  -0.00668   2.17654
   A35        2.21629   0.00013   0.00000   0.00745   0.00670   2.22299
   A36        1.97306   0.00016   0.00000  -0.00386  -0.00393   1.96913
   A37        1.90415   0.00067   0.00000  -0.00224  -0.00233   1.90182
   A38        1.90601  -0.00127   0.00000   0.00430   0.00426   1.91027
   A39        1.91253  -0.00059   0.00000  -0.01162  -0.01164   1.90089
   A40        1.91121   0.00138   0.00000   0.01608   0.01608   1.92729
   A41        1.85300  -0.00039   0.00000  -0.00260  -0.00254   1.85046
   A42        1.90346   0.00134   0.00000   0.00736   0.00734   1.91080
   A43        1.90329   0.00023   0.00000  -0.00255  -0.00254   1.90075
   A44        1.90240  -0.00027   0.00000   0.00385   0.00383   1.90623
   A45        1.89622  -0.00099   0.00000  -0.00213  -0.00212   1.89410
   A46        1.98959  -0.00002   0.00000   0.00022   0.00018   1.98977
   A47        1.86723  -0.00031   0.00000  -0.00724  -0.00724   1.85998
   A48        1.91530   0.00202   0.00000   0.02199   0.02172   1.93701
   A49        1.91878   0.00104   0.00000   0.01233   0.01205   1.93083
   A50        1.84761  -0.00014   0.00000   0.01734   0.01680   1.86441
    D1       -0.13496   0.00008   0.00000  -0.02781  -0.02676  -0.16172
    D2       -2.97666  -0.00031   0.00000   0.13173   0.13064  -2.84602
    D3        3.02031   0.00056   0.00000  -0.01045  -0.00936   3.01096
    D4        0.17861   0.00017   0.00000   0.14910   0.14805   0.32666
    D5        0.00069  -0.00014   0.00000   0.24339   0.24338   0.24406
    D6       -2.13194   0.00003   0.00000   0.26249   0.26247  -1.86947
    D7        2.13297   0.00082   0.00000   0.26447   0.26445   2.39742
    D8        3.12826  -0.00059   0.00000   0.22564   0.22566  -2.92927
    D9        0.99564  -0.00042   0.00000   0.24474   0.24475   1.24039
   D10       -1.02264   0.00037   0.00000   0.24672   0.24673  -0.77591
   D11       -2.83018   0.00021   0.00000   0.17496   0.17521  -2.65497
   D12        1.29374   0.00162   0.00000   0.18252   0.18296   1.47670
   D13       -0.78611   0.00056   0.00000   0.18601   0.18600  -0.60011
   D14        0.02896   0.00003   0.00000   0.01990   0.01970   0.04866
   D15       -2.13031   0.00145   0.00000   0.02745   0.02745  -2.10286
   D16        2.07303   0.00039   0.00000   0.03095   0.03049   2.10352
   D17        3.07468  -0.00003   0.00000   0.02977   0.02985   3.10453
   D18       -0.06475  -0.00016   0.00000   0.02426   0.02435  -0.04040
   D19       -1.02616   0.00046   0.00000   0.00679   0.00679  -1.01937
   D20        2.11760   0.00032   0.00000   0.00128   0.00128   2.11888
   D21        1.00960   0.00070   0.00000   0.03837   0.03828   1.04788
   D22       -2.12983   0.00057   0.00000   0.03285   0.03277  -2.09706
   D23        1.03415   0.00234   0.00000   0.18927   0.18941   1.22355
   D24       -1.10739   0.00041   0.00000   0.16247   0.16260  -0.94479
   D25       -3.13007   0.00121   0.00000   0.17200   0.17211  -2.95796
   D26       -1.08016   0.00088   0.00000   0.18672   0.18673  -0.89343
   D27        3.06149  -0.00105   0.00000   0.15992   0.15993  -3.06177
   D28        1.03881  -0.00025   0.00000   0.16944   0.16944   1.20824
   D29       -3.13413   0.00157   0.00000   0.16323   0.16310  -2.97103
   D30        1.00752  -0.00036   0.00000   0.13643   0.13629   1.14381
   D31       -1.01516   0.00044   0.00000   0.14595   0.14581  -0.86936
   D32       -3.13012  -0.00092   0.00000  -0.05376  -0.05376   3.09930
   D33        0.00935  -0.00078   0.00000  -0.04834  -0.04833  -0.03898
   D34        1.96138  -0.00063   0.00000   0.13789   0.13795   2.09933
   D35       -1.15151  -0.00114   0.00000   0.13548   0.13550  -1.01601
   D36       -2.21443   0.00002   0.00000   0.13973   0.13979  -2.07464
   D37        0.95587  -0.00049   0.00000   0.13732   0.13734   1.09321
   D38       -0.15025   0.00000   0.00000   0.14096   0.14091  -0.00935
   D39        3.02004  -0.00051   0.00000   0.13855   0.13846  -3.12469
   D40       -3.12001  -0.00033   0.00000  -0.00043  -0.00047  -3.12048
   D41        0.01899  -0.00003   0.00000   0.01107   0.01106   0.03005
   D42       -0.00337   0.00019   0.00000   0.00199   0.00196  -0.00141
   D43        3.13563   0.00050   0.00000   0.01349   0.01349  -3.13407
   D44        3.12322   0.00002   0.00000  -0.00635  -0.00624   3.11698
   D45        0.03319   0.00004   0.00000   0.05257   0.05232   0.08552
   D46        0.00361  -0.00036   0.00000  -0.00799  -0.00793  -0.00432
   D47       -3.08642  -0.00033   0.00000   0.05093   0.05063  -3.03579
   D48        0.00179   0.00005   0.00000   0.00492   0.00497   0.00676
   D49       -3.13739  -0.00024   0.00000  -0.00578  -0.00578   3.14001
   D50        0.00059  -0.00027   0.00000  -0.01013  -0.01018  -0.00959
   D51        3.14121   0.00003   0.00000  -0.01050  -0.01063   3.13058
   D52       -0.00272   0.00041   0.00000   0.01176   0.01174   0.00902
   D53        3.08606   0.00041   0.00000  -0.04911  -0.04937   3.03668
   D54        3.13980   0.00011   0.00000   0.01212   0.01218  -3.13121
   D55       -0.05461   0.00012   0.00000  -0.04875  -0.04893  -0.10354
   D56       -3.13491   0.00015   0.00000   0.05886   0.05886  -3.07605
   D57       -1.06670  -0.00013   0.00000   0.05909   0.05908  -1.00762
   D58        0.96610  -0.00053   0.00000   0.05116   0.05114   1.01723
   D59       -1.00699   0.00069   0.00000   0.04494   0.04499  -0.96199
   D60        1.06123   0.00041   0.00000   0.04517   0.04521   1.10644
   D61        3.09402   0.00001   0.00000   0.03724   0.03727   3.13129
   D62        1.01890   0.00067   0.00000   0.04436   0.04434   1.06325
   D63        3.08712   0.00039   0.00000   0.04458   0.04456   3.13168
   D64       -1.16327  -0.00001   0.00000   0.03666   0.03662  -1.12666
   D65       -1.23557   0.00079   0.00000   0.01018   0.01032  -1.22525
   D66        3.02231  -0.00081   0.00000  -0.03064  -0.03078   2.99153
   D67        2.97498   0.00032   0.00000   0.01025   0.01040   2.98538
   D68        0.94968  -0.00128   0.00000  -0.03057  -0.03071   0.91897
   D69        0.89479   0.00142   0.00000   0.02077   0.02091   0.91570
   D70       -1.13051  -0.00018   0.00000  -0.02005  -0.02020  -1.15071
         Item               Value     Threshold  Converged?
 Maximum Force            0.008232     0.000450     NO 
 RMS     Force            0.001761     0.000300     NO 
 Maximum Displacement     1.233518     0.001800     NO 
 RMS     Displacement     0.373166     0.001200     NO 
 Predicted change in Energy=-2.132565D-03
 GradGradGradGradGradGradGradGradGradGradGradGradGradGradGradGradGradGrad

                          Input orientation:                          
 ---------------------------------------------------------------------
 Center     Atomic      Atomic             Coordinates (Angstroms)
 Number     Number       Type             X           Y           Z
 ---------------------------------------------------------------------
      1          8           0       -1.213674   -1.933481   -0.555399
      2          6           0       -1.347753   -0.762411   -0.242108
      3          7           0       -0.391745   -0.099098    0.487073
      4          6           0        0.711953   -0.843733    1.072648
      5          6           0        1.176046   -0.098738    2.308972
      6          8           0        2.169316   -0.749351    2.937283
      7          8           0        0.719210    0.951563    2.688964
      8          6           0        1.871238   -1.055967    0.070587
      9          6           0        2.615130    0.194911   -0.251896
     10          6           0        3.935836    0.537348   -0.091609
     11          7           0        4.165179    1.829195   -0.514781
     12          6           0        3.000288    2.276821   -0.921215
     13          7           0        2.026008    1.325055   -0.790835
     14          6           0       -2.541790    0.083668   -0.652923
     15          6           0       -3.698594   -0.749194   -1.194142
     16          7           0       -4.771698    0.141740   -1.650118
     17          1           0       -0.624485    0.770415    0.950435
     18          1           0        0.349795   -1.831597    1.374958
     19          1           0        2.445429   -0.206560    3.691382
     20          1           0        1.431152   -1.521243   -0.815702
     21          1           0        2.577394   -1.770197    0.495749
     22          1           0        4.730335   -0.080212    0.297884
     23          1           0        2.799229    3.262257   -1.312100
     24          1           0        1.037281    1.436277   -0.949769
     25          1           0       -2.225519    0.795632   -1.423767
     26          1           0       -2.871866    0.688253    0.200453
     27          1           0       -3.346324   -1.331644   -2.046221
     28          1           0       -4.012797   -1.472100   -0.428908
     29          1           0       -5.226811    0.595032   -0.863582
     30          1           0       -5.487449   -0.383033   -2.140777
 ---------------------------------------------------------------------
                    Distance matrix (angstroms):
                    1          2          3          4          5
     1  O    0.000000
     2  C    1.219644   0.000000
     3  N    2.264349   1.373187   0.000000
     4  C    2.747021   2.444910   1.454486   0.000000
     5  C    4.157122   3.649388   2.403598   1.516212   0.000000
     6  O    5.004559   4.741147   3.603526   2.368477   1.343376
     7  O    4.752411   3.975076   2.680753   2.415703   1.206742
     8  C    3.267807   3.247439   2.492017   1.546968   2.531787
     9  C    4.391116   4.076887   3.110275   2.540724   2.952158
    10  C    5.730405   5.443192   4.412244   3.695444   3.712659
    11  N    6.564406   6.097802   5.048522   4.646423   4.541522
    12  C    5.968076   5.348232   4.374260   4.353140   4.405139
    13  N    4.600980   4.005107   3.083307   3.146895   3.515455
    14  C    2.417084   1.519981   2.440427   3.797961   4.756931
    15  C    2.825837   2.536335   3.766213   4.959858   6.037964
    16  N    4.261982   3.810955   4.879506   6.201213   7.148977
    17  H    3.150513   2.072398   1.012386   2.099161   2.417221
    18  H    2.486181   2.576768   2.083213   1.094725   2.134917
    19  H    5.865700   5.492681   4.281203   3.204481   1.879898
    20  H    2.689386   2.937201   2.653803   2.131228   3.442701
    21  H    3.937482   4.119084   3.407116   2.161254   2.836430
    22  H    6.284420   6.140044   5.125607   4.163006   4.083845
    23  H    6.608455   5.877100   4.971724   5.186801   5.200305
    24  H    4.071559   3.320152   2.542441   3.065038   3.604847
    25  H    3.037425   2.143429   2.795456   4.189075   5.128731
    26  H    3.192868   2.150165   2.617838   3.993929   4.631501
    27  H    2.670759   2.751933   4.082436   5.141499   6.398405
    28  H    2.839712   2.764237   3.979469   4.997277   6.025462
    29  H    4.753276   4.156437   5.067934   6.409988   7.179345
    30  H    4.814818   4.570115   5.740419   6.997923   8.017684
                    6          7          8          9         10
     6  O    0.000000
     7  O    2.248906   0.000000
     8  C    2.898416   3.494746   0.000000
     9  C    3.355778   3.579901   1.490660   0.000000
    10  C    3.735020   4.271984   2.612954   1.373761   0.000000
    11  N    4.748590   4.786326   3.732155   2.267740   1.378601
    12  C    4.973554   4.471355   3.655941   2.220514   2.142256
    13  N    4.268789   3.735802   2.536783   1.383743   2.181019
    14  C    5.981473   4.749271   4.614873   5.173685   6.517710
    15  C    7.176423   6.122751   5.719849   6.453082   7.820185
    16  N    8.367555   7.045106   6.965912   7.518183   8.854751
    17  H    3.750010   2.204725   3.215344   3.503128   4.683663
    18  H    2.631116   3.099848   2.148900   3.447481   4.541190
    19  H    0.969291   2.307796   3.763156   3.967293   4.133489
    20  H    3.902000   4.347909   1.093465   2.159830   3.321980
    21  H    2.677638   3.958664   1.090662   2.102866   2.741372
    22  H    3.738047   4.782358   3.029554   2.202735   1.079033
    23  H    5.877673   5.066981   4.628180   3.250621   3.194778
    24  H    4.600831   3.684630   2.819201   2.125470   3.153749
    25  H    6.381247   5.060662   4.737608   5.016575   6.309014
    26  H    5.913583   4.376968   5.055315   5.527670   6.815635
    27  H    7.456317   6.645568   5.637360   6.410063   7.768107
    28  H    7.076167   6.163372   5.919842   6.836642   8.205633
    29  H    8.423577   6.935623   7.347161   7.875932   9.195291
    30  H    9.194941   7.976852   7.713187   8.339885   9.687337
                   11         12         13         14         15
    11  N    0.000000
    12  C    1.312451   0.000000
    13  N    2.215043   1.368240   0.000000
    14  C    6.931766   5.966283   4.735487   0.000000
    15  C    8.303526   7.355697   6.102149   1.524721   0.000000
    16  N    9.165384   8.092814   6.953230   2.443412   1.467389
    17  H    5.119448   4.348713   3.219434   2.591995   4.044573
    18  H    5.615128   5.401539   4.179090   4.017687   4.915417
    19  H    4.979321   5.267931   4.755210   6.620390   7.868406
    20  H    4.334846   4.110792   2.907900   4.287948   5.201304
    21  H    4.061755   4.308710   3.397044   5.564379   6.579225
    22  H    2.150735   3.167785   3.236274   7.335850   8.586065
    23  H    2.134292   1.079028   2.149963   6.250154   7.637235
    24  H    3.182348   2.135585   1.007576   3.837632   5.221544
    25  H    6.537241   5.454864   4.330862   1.095957   2.146897
    26  H    7.164727   6.185781   5.037592   1.096688   2.166709
    27  H    8.292097   7.386890   6.123397   2.142816   1.090587
    28  H    8.819592   7.967442   6.665000   2.152779   1.098589
    29  H    9.479151   8.397434   7.289829   2.741388   2.061956
[...]
 -0.06510346,0.01024370,-0.00004604,0.00005531,0.00007586,-0.00007709,-
 0.00009328,-0.00002666,0.00009091,-0.00006154,0.00006005,0.00014324,0.
 00041843,-0.00012406,-0.00002626,0.00002672,0.00001580,0.00003919,0.00
 002790,-0.00002823,-0.00030582,-0.00095271,-0.00019404,-0.00004273,-0.
 00000737,-0.00041040,0.00056045,0.00116118,0.00076175,0.00073391,-0.00
 059909,0.00005387,0.03089884,0.05256201,0.00007745,-0.00150848,-0.0012
 9563,0.00228979,0.00247369,0.00281943,-0.00280529,-0.00270258,0.000822
 11,-0.00080062,0.00136972,-0.00098889,-0.00061040,0.00054336,-0.000349
 47,0.00044622,-0.00017581,0.00026774,0.00024016,-0.00038181,0.00025742
 ,0.00100103,-0.00015576,-0.00049128,-0.00961094,-0.00938941,-0.0075695
 0,-0.00239042,0.00371175,-0.00063404,-0.00026438,0.00279558,0.00531314
 ,0.00651232,-0.00507122,-0.00271906,-0.17737137,0.01098927,-0.10389021
 ,-0.00014046,-0.00011044,0.00018634,0.00019020,0.00008190,-0.00003949,
 -0.00012401,0.00002421,-0.00012218,0.00091440,0.00034825,-0.00113697,0
 .00015658,-0.00011092,-0.00004354,-0.00004732,0.00001433,-0.00004132,-
 0.00011212,-0.00005038,0.00004656,-0.00000345,-0.00020221,0.00001926,-
 0.00112491,0.00010452,0.00118174,0.00030857,-0.00032087,-0.00090637,0.
 18331827,-0.00232333,0.10943953,-0.00128518,-0.00100826,0.00220282,0.0
 0681578,0.01080128,-0.02537421,-0.00253816,-0.00006235,0.00054494,-0.0
 0085522,-0.00066764,0.00094276,0.00006507,0.00004790,0.00028042,-0.000
 06570,0.00001326,-0.00010085,-0.00003893,-0.00007652,-0.00011181,-0.00
 022255,0.00014753,-0.00032941,-0.00002602,0.00021660,-0.00011041,0.000
 07486,0.00002684,0.00003613,0.00011922,-0.00005448,0.00008531,-0.00014
 112,-0.00022008,0.00002538,0.00001679,0.00004993,-0.00000108,-0.054514
 49,-0.01887812,0.04906911,-0.01010028,-0.01434392,0.02683226,0.0027871
 1,0.00112242,0.00014164,0.00016610,0.00055902,-0.00038237,0.00005493,0
 .00000404,0.00004745,0.00001031,0.00000884,-0.00000169,0.00004475,0.00
 000915,-0.00003673,-0.00012226,0.00001336,0.00007902,0.00001493,0.0000
 0404,0.00000838,-0.00000717,-0.00000986,0.00000084,-0.00028595,-0.0000
 4193,-0.00012055,0.06453902,0.00230871,0.00038993,-0.00249598,-0.00555
 987,-0.00876620,0.01767157,0.00056403,-0.00022534,-0.00061669,0.000300
 63,0.00012516,-0.00001960,0.00006559,-0.00006076,-0.00008923,-0.000008
 23,0.00001906,0.00001821,-0.00004092,0.00004346,0.00004161,0.00004552,
 0.00000797,0.00006212,0.00004265,-0.00003529,0.00002795,-0.00001053,-0
 .00000861,-0.00000223,-0.00002619,-0.00000323,-0.00001597,0.00002121,0
 .00005240,-0.00002602,0.00002291,-0.00002805,-0.00004470,-0.02164240,-
 0.08653045,0.09159261,-0.00770790,-0.01003514,0.01757205,0.00194332,0.
 00119262,-0.00079732,0.00025553,0.00016211,-0.00010069,-0.00004289,-0.
 00000833,-0.00005019,-0.00000034,-0.00000408,0.00000603,-0.00003509,-0
 .00001196,0.00004688,0.00001744,0.00000392,-0.00000444,-0.00000496,-0.
 00000110,0.00000412,-0.00001013,-0.00000108,0.00000763,0.00006858,0.00
 014412,0.00009498,0.02661355,0.09423012,-0.00014514,-0.00098079,0.0007
 9134,0.00044569,0.00319691,-0.00912585,-0.00138122,0.00059454,0.000679
 44,-0.00049789,-0.00029187,0.00034634,0.00007513,-0.00000315,0.0000369
 1,-0.00006536,0.00001424,-0.00004556,-0.00008389,-0.00000384,0.0000132
 2,-0.00010001,0.00014745,-0.00019718,-0.00004410,0.00019999,-0.0001179
 0,0.00006909,0.00002419,0.00003818,0.00013510,-0.00003979,0.00008310,-
 0.00016627,-0.00018924,-0.00000309,0.00007644,-0.00004357,0.00003987,0
 .05446882,0.09088275,-0.24796762,-0.00052291,-0.00037383,0.00237640,-0
 .00015868,-0.00101780,0.00057039,0.00058022,0.00052853,-0.00028623,0.0
 0007399,-0.00002084,0.00002387,0.00001165,0.00001055,-0.00001121,-0.00
 000660,-0.00000676,-0.00002159,-0.00006838,-0.00001668,0.00005403,0.00
 001544,0.00000124,0.00000573,-0.00001650,-0.00001252,0.00000906,-0.000
 39716,0.00005695,-0.00003723,-0.05619485,-0.10061114,0.26878518,-0.003
 96316,0.00561459,-0.00324838,0.00032780,0.01603991,0.02153084,-0.00033
 605,-0.00103850,-0.00108389,0.00023264,-0.00026029,0.00012025,-0.00007
 608,0.00022293,0.00009833,0.00007160,-0.00007492,0.00002101,0.00009693
 ,-0.00019465,-0.00005340,0.00005058,-0.00002092,0.00006786,-0.00000293
 ,0.00006182,-0.00005752,0.00001845,-0.00000768,0.00000278,0.00001441,-
 0.00003247,0.00001796,-0.00004632,-0.00004940,-0.00000451,0.00006350,-
 0.00003593,-0.00004056,-0.05509377,0.02545697,0.02079717,0.00339027,-0
 .02287405,-0.02060994,0.00228231,-0.00004837,0.00074670,-0.00153527,0.
 00079024,-0.00121576,0.00014134,-0.00004249,0.00013591,-0.00000726,0.0
 0000502,-0.00000271,0.00008103,0.00000775,-0.00004800,0.00001486,-0.00
 000500,-0.00001771,0.00000125,0.00000167,0.00000529,-0.00001078,-0.000
 00436,0.00001202,-0.00005123,0.00012006,0.00009233,-0.00145099,0.00514
 114,0.00448654,0.06013536,0.00497502,-0.00230845,0.00188097,-0.0022136
 0,-0.01568782,-0.01533669,-0.00129343,0.00129491,0.00030554,-0.0000276
 8,-0.00004117,0.00064080,0.00024013,-0.00029345,-0.00010709,-0.0001075
 5,0.00010431,-0.00003186,-0.00018514,0.00017528,0.00010319,-0.00011930
 ,0.00011322,-0.00014425,0.00000130,-0.00000362,0.00003272,-0.00000763,
 0.00000679,0.00000299,0.00000001,0.00000740,-0.00000416,0.00000863,0.0
 0001315,-0.00000202,-0.00002175,0.00000219,0.00002337,0.02751737,-0.18
 548237,-0.12167101,0.00262345,-0.01389577,-0.01186994,0.00043962,0.001
 21419,0.00099637,0.00111913,0.00087481,0.00056993,-0.00003467,0.000061
 16,-0.00008927,0.00002314,-0.00000482,0.00000707,-0.00007330,-0.000013
 79,0.00004892,-0.00005069,-0.00000040,0.00004835,0.00000340,-0.0000019
 6,-0.00000303,0.00000035,0.00000020,-0.00000209,0.00001679,-0.00002315
 ,-0.00003314,-0.00179906,0.01029600,0.00795831,-0.02773533,0.20379036,
 -0.00188655,0.00264877,0.00090292,-0.00208788,0.00783075,0.00467275,-0
 .00006696,0.00058969,-0.00020424,0.00022203,0.00010196,0.00050764,0.00
 007269,-0.00014517,-0.00008228,0.00000910,0.00003260,0.00004766,0.0000
 2114,0.00009618,0.00003850,-0.00002289,-0.00002078,-0.00003876,-0.0000
 0549,-0.00004230,0.00001182,-0.00001546,0.00000080,-0.00000951,-0.0000
 0912,0.00003749,-0.00000798,0.00003438,0.00002075,0.00002179,-0.000047
 02,0.00004231,0.00004340,0.02375749,-0.12458752,-0.15600030,0.00039897
 ,-0.00245481,-0.00241866,-0.00001997,0.00062596,0.00028965,-0.00056484
 ,0.00038904,0.00051705,-0.00000072,0.00005854,0.00000159,0.00000031,-0
 .00001162,0.00000658,0.00000335,0.00003157,0.00000804,0.00000929,0.000
 00477,0.00001923,-0.00000165,-0.00000060,-0.00000663,0.00001798,0.0000
 0291,-0.00002010,0.00003532,-0.00014493,-0.00012080,0.00436468,-0.0218
 4844,-0.01828126,-0.02187412,0.13621676,0.16788822,-0.00046529,0.00145
 190,0.00105334,0.00055114,-0.00240572,-0.00196016,0.00039657,0.0008871
 7,0.00064451,-0.00007796,0.00021342,0.00000319,0.00002740,-0.00010083,
 -0.00009132,-0.00000202,0.00002940,0.00002895,-0.00002386,0.00007957,0
 .00006632,0.00000146,-0.00001560,-0.00001488,-0.00001191,-0.00002367,0
 .00001729,-0.00000834,0.00000323,-0.00000400,0.00000576,0.00002264,-0.
 00000450,0.00000945,0.00000969,0.00000047,-0.00000298,0.00001457,0.000
 01714,0.00334972,-0.02272618,-0.01959920,-0.05413923,0.02965045,0.0283
 1787,-0.00813484,0.02392279,0.01495584,0.00039433,-0.00015517,0.000303
 39,-0.00005945,0.00000287,-0.00005523,0.00000074,-0.00000290,-0.000001
 12,-0.00003215,0.00000850,0.00001784,0.00000405,0.00000167,0.00000435,
 -0.00000104,-0.00000144,-0.00000205,0.00000472,0.00000177,-0.00000536,
 0.00002293,-0.00005098,-0.00002615,0.00149155,0.00048561,0.00028141,-0
 .00541520,-0.00292656,-0.00088930,0.06555870,0.00129282,0.00083791,0.0
 0132802,0.00105371,-0.00154771,-0.00030016,-0.00009727,0.00007599,-0.0
 0021685,0.00005007,0.00001682,0.00000577,0.00003474,-0.00002936,-0.000
 00116,-0.00002959,0.00001491,-0.00001751,-0.00002512,0.00003457,-0.000
 00131,-0.00000103,-0.00000179,-0.00001607,-0.00000018,-0.00000014,0.00
 000719,-0.00000025,0.00000369,0.00000138,-0.00000033,0.00000071,0.0000
 0310,0.00000033,-0.00000020,0.00000255,-0.00001374,0.00000982,0.000016
 65,-0.00074506,-0.01419191,-0.01268967,0.03154000,-0.19065131,-0.12384
 457,0.00602077,-0.01740115,-0.01078854,0.00002958,0.00006610,0.0001338
 4,-0.00002487,0.00002070,-0.00001216,0.00000163,-0.00000206,0.00000226
 ,-0.00001178,0.00000446,0.00000356,-0.00000329,0.00000207,0.00000707,0
 .00000128,-0.00000053,-0.00000174,0.00000290,-0.00000171,-0.00000507,0
 .00001382,-0.00002209,-0.00004126,0.00056159,0.00040645,0.00007928,-0.
 00263460,-0.00095115,0.00012600,-0.03769906,0.21266461,0.00114845,0.00
 180108,0.00061436,0.00048111,-0.00315632,-0.00096470,-0.00001034,0.000
 52336,0.00039938,-0.00001293,0.00000110,-0.00003223,0.00003345,-0.0000
 6087,-0.00006285,-0.00001811,0.00002414,-0.00000145,-0.00003275,0.0000
 5463,0.00005740,0.00000689,-0.00000703,-0.00000759,0.00000023,-0.00002
 399,0.00002119,-0.00000824,0.00000048,-0.00000337,-0.00000943,0.000012
 24,-0.00001020,0.00001715,0.00002006,0.00000124,-0.00000593,0.00000002
 ,-0.00000357,-0.00084445,-0.00188199,-0.00267039,0.02976090,-0.1303428
 0,-0.16655708,-0.00327154,0.01374160,0.01091717,0.00006338,0.00004437,
 0.00010874,-0.00000912,0.00000199,-0.00002900,0.00000322,-0.00000226,-
 0.00000019,-0.00001906,-0.00000215,0.00001809,0.,0.00000185,-0.0000005
 6,-0.00000123,-0.00000079,-0.00000183,0.00000289,0.00000280,-0.0000011
 9,0.00002579,-0.00001408,0.00000975,-0.00040086,0.00045281,0.00095188,
 -0.00070512,0.00016434,0.00136750,-0.02861906,0.13624266,0.17396898,-0
 .00005589,0.00130638,-0.00027797,0.00155659,-0.00250056,0.00145112,-0.
 00034855,0.00033396,-0.00066858,0.00004267,-0.00015283,0.00003192,-0.0
 0001080,0.00003865,0.00009271,-0.00002997,0.00000673,-0.00006330,0.000
 01101,-0.00000411,-0.00007106,-0.00002994,0.00002417,-0.00000875,0.000
 04183,-0.00006730,0.00005322,-0.00002647,-0.00000977,-0.00001209,-0.00
 006772,-0.00000107,-0.00003710,0.00007747,0.00008468,0.00000410,-0.000
 04652,0.00000120,-0.00002050,-0.01081265,-0.01100453,0.02482328,-0.067
 80316,-0.02543055,0.05808664,0.00103803,0.01732122,-0.02797992,-0.0000
 2685,-0.00002818,0.00016825,-0.00005145,0.00004238,0.00000240,-0.00000
 936,-0.00000568,0.00000854,0.00001569,-0.00001644,-0.00000330,-0.00001
 748,0.00000426,-0.00000146,-0.00000514,0.00000015,-0.00000208,0.000005
 27,0.00000521,-0.00000172,0.00013605,0.00000331,0.00002217,-0.00486641
 ,-0.00319595,-0.00086359,0.00131729,0.00037153,-0.00060940,-0.00042123
 ,-0.00216672,0.00425663,0.07802255,-0.00005347,0.00056608,0.00023867,0
 .00074538,-0.00096659,0.00038663,-0.00018053,0.00020419,-0.00041367,-0
 .00001397,-0.00005880,-0.00003148,-0.00008099,0.00009504,0.00005602,0.
 00002754,-0.00002467,-0.00001359,0.00006391,-0.00003749,-0.00005880,-0
 .00001768,-0.00000046,0.00000368,0.00001653,-0.00003849,0.00002067,-0.
 00001508,-0.00000639,-0.00000922,-0.00002818,0.00001123,-0.00002383,0.
 00003815,0.00003618,0.00000571,-0.00001313,0.00000242,-0.00001359,-0.0
 0882489,-0.00687183,0.01526036,-0.02613940,-0.08584261,0.07497200,0.00
 481082,-0.01137197,0.02086731,-0.00010537,-0.00005463,0.00011893,-0.00
 002328,0.00002480,-0.00000005,-0.00001736,-0.00000398,0.00000125,0.000
 00559,-0.00000595,-0.00000595,-0.00000369,0.00000262,-0.00000255,-0.00
 000524,0.00000100,-0.00000027,0.00000369,0.00000451,0.00000037,0.00006
 455,-0.00001488,0.00002321,-0.00290954,-0.00117345,-0.00007896,0.00098
 272,0.00031813,0.00036628,0.00624624,0.01070581,-0.02001687,0.02625027
 ,0.09386496,0.00016200,-0.00101236,0.00054674,0.00003254,0.00137670,0.
 00018506,0.00048388,-0.00028060,0.00014883,0.00002310,0.00009965,0.000
 01215,0.00004614,-0.00001922,-0.00003045,-0.00000535,-0.00000778,0.000
 02963,-0.00003253,-0.00001450,0.00003359,0.00001421,-0.00002373,0.0000
 0616,-0.00001144,0.00001913,-0.00000091,0.00000555,0.00000685,0.000008
 07,0.00000769,-0.00001838,0.00001389,-0.00001906,-0.00001371,-0.000006
 53,0.00000439,0.00000136,0.00000805,-0.00083831,-0.00251758,0.00346912
 ,0.06040927,0.07521118,-0.23173756,-0.00691082,0.01077526,-0.00885381,
 0.00001723,0.00006716,-0.00013517,0.00004210,-0.00003964,0.00000096,0.
 00001901,0.00001027,-0.00000240,-0.00000677,0.00000331,-0.00000225,0.0
 0001254,-0.00000150,-0.00000230,0.00000452,-0.00000126,-0.00000058,-0.
 00000350,-0.00000425,-0.00000004,-0.00000202,0.00001588,-0.00001612,-0
 .00148986,-0.00062017,0.00128184,0.00037411,0.00048147,0.00084804,0.00
 694910,0.00833083,-0.01929709,-0.05808088,-0.09164187,0.25221844,-0.00
 006164,-0.00108844,-0.00030290,-0.00057005,0.00109105,-0.00039875,0.00
 008362,-0.00018051,0.00001960,-0.00005720,0.00004909,-0.00002788,-0.00
 007880,0.00006289,-0.00004436,0.00006341,-0.00003959,0.00005620,0.0000
 5101,-0.00005435,0.00001938,0.00000742,-0.00000894,0.00001821,-0.00001
 424,0.00002019,-0.00002619,0.00000629,-0.00000044,0.00000251,0.0000325
 3,0.00000002,0.00001224,-0.00003677,-0.00002703,-0.00000984,0.00003951
 ,-0.00000617,-0.00000245,0.00110270,0.00135089,0.00159357,-0.00774671,
 0.01734721,0.02262879,-0.09269022,0.09271461,0.06779203,-0.00009029,0.
 00001114,-0.00007926,0.00001631,-0.00001377,0.00000515,-0.00000515,0.0
 0000569,-0.00001330,-0.00000372,0.00000746,0.00000036,0.00001306,-0.00
 000127,-0.00000148,0.00000054,-0.00000088,0.00000293,-0.00000773,-0.00
 000254,0.00000603,-0.00004028,0.00002241,0.00001833,-0.00016741,0.0000
 6895,0.00004637,-0.00059687,-0.00074796,-0.00080842,-0.00364264,0.0027
 4558,-0.00267112,0.00122287,-0.00065069,-0.00090131,0.09311935,0.00009
 687,0.00006601,0.00007406,0.00009527,-0.00025944,-0.00002538,-0.000039
 68,-0.00002588,0.00008575,0.00000492,0.00001663,-0.00001732,0.00000499
 ,0.00002059,-0.00001618,0.00000247,-0.00001395,0.00001447,-0.00001175,
 -0.00002746,0.00001794,0.00000591,0.00000212,-0.00000360,-0.00000257,0
 .00001499,-0.00000635,0.00000403,0.00000125,0.00000445,0.00001103,-0.0
 0001630,0.00000849,-0.00001797,-0.00000720,-0.00000988,0.00001199,-0.0
 0000527,0.00000002,-0.00042361,0.00123130,0.00058265,0.00831890,-0.017
 45726,-0.01578803,0.07049062,-0.19445991,-0.16413304,0.00000868,0.0000
 6839,-0.00005023,0.00000878,-0.00001092,-0.00000398,0.00000752,0.00000
 744,-0.00000606,-0.00000236,0.00000122,0.00000123,0.00000118,-0.000001
 47,0.00000175,0.00000253,-0.00000108,0.00000155,-0.00000683,-0.0000026
 5,0.00000476,-0.00001458,0.00002717,-0.00000129,-0.00015383,-0.0000388
 4,0.00023265,0.00052481,0.00030316,-0.00029475,0.00313612,-0.00090728,
 0.00293091,-0.00160631,0.00063736,-0.00055252,-0.08832280,0.22594995,-
 0.00026758,0.00005785,-0.00005442,0.00015197,0.00008884,0.00013572,0.0
 0004404,-0.00001057,-0.00011022,-0.00002500,0.00000596,0.00000269,-0.0
 0004065,0.00002170,0.00000720,0.00002593,-0.00000784,0.00000844,0.0000
 3707,-0.00000528,-0.00001715,-0.00000414,-0.00000775,0.00000956,-0.000
 00281,-0.00001089,-0.00000107,-0.00000356,-0.00000135,-0.00000496,-0.0
 0000080,0.00001732,-0.00000640,0.00000769,-0.00000232,0.00000599,0.000
 00138,0.00000478,-0.00000113,0.00068414,0.00033202,0.00062149,-0.00694
 870,0.01701678,0.00810461,0.06482674,-0.20912555,-0.21384863,-0.000052
 26,-0.00004176,0.00002886,-0.00000468,0.00000431,0.00000392,-0.0000103
 4,-0.00000399,0.00000035,-0.00000027,0.00000133,-0.00000219,0.00000316
 ,0.00000118,-0.00000266,-0.00000307,0.00000122,-0.00000012,0.00000455,
 0.00000240,-0.00000191,0.00000534,-0.00002402,0.00000850,0.00014593,-0
 .00013922,-0.00028789,0.00028558,-0.00035757,0.00000164,-0.00225778,0.
 00198062,0.00024733,-0.00004657,0.00061436,0.00176578,-0.06410654,0.19
 294813,0.21348962,0.00008042,0.00076490,0.00021143,-0.00037836,-0.0026
 3079,-0.00030973,-0.00077370,0.00057478,-0.00031187,0.00008779,-0.0002
 0736,-0.00012009,0.00002082,0.00008921,0.00012772,-0.00007232,0.000000
 20,-0.00009899,-0.00002489,-0.00002727,-0.00007406,-0.00000452,0.00002
 162,-0.00003247,0.00001993,0.00000751,0.00001760,0.00000032,-0.0000009
 1,0.00000343,-0.00002340,-0.00002252,-0.00000209,0.00001360,0.00001575
 ,0.00000178,-0.00003254,0.00000053,0.00000605,-0.00425087,0.00559836,-
 0.00214389,-0.02007763,-0.01840111,-0.00222654,-0.29115625,-0.15581416
 ,-0.10016172,0.00000723,0.00005490,0.00008418,-0.00002201,0.00001864,-
 0.00000350,-0.00000221,0.00000063,0.00000450,0.00001593,-0.00001216,-0
 .00000524,-0.00002353,-0.00000072,0.00000628,0.00000208,-0.00000009,-0
 .00000123,-0.00000026,-0.00000261,-0.00000161,0.00003177,0.00001650,-0
 .00003543,0.00048743,0.00032002,-0.00005336,0.00034632,0.00000377,-0.0
 0003696,0.00061963,0.00010407,0.00083916,0.00114226,-0.00017289,-0.000
 30549,0.01005110,0.00786567,0.00755121,0.30391585,-0.00014882,-0.00009
 878,-0.00001692,0.00072225,0.00110920,-0.00004385,0.00022586,-0.000255
 92,0.00014627,-0.00002249,0.00001892,0.00010621,0.00001685,-0.00004599
 ,-0.00002278,0.00000686,0.00000799,0.00002036,-0.00000718,0.00001431,0
 .00001357,-0.00001135,0.00000317,0.00000181,-0.00000185,-0.00000442,-0
 .00000109,-0.00000047,0.00000127,-0.00000094,-0.00000207,0.00000071,0.
 00000041,0.00000392,0.00000176,0.00000191,-0.00000249,0.00000041,-0.00
 000101,0.00243193,-0.00218764,0.00136598,0.02218968,0.01168528,0.01050
 116,-0.16338872,-0.16904376,-0.08299189,0.00002639,-0.00000934,-0.0000
 4156,0.00001455,-0.00000360,0.00000906,0.00000642,0.00000087,0.0000026
 7,0.00000006,0.00000248,-0.00000197,0.00000345,0.00000070,-0.00000039,
 0.00000033,-0.00000021,-0.00000032,0.00000222,0.00000062,-0.00000184,-
 0.00000094,-0.00000650,0.00000412,0.00002622,-0.00014143,-0.00023684,0
 .00008933,0.00013265,0.00032780,-0.00005953,0.00084376,-0.00051130,0.0
 0039589,-0.00000215,0.00037000,-0.02435181,-0.01511268,-0.00336068,0.1
 6183552,0.17308832,0.00018457,-0.00005257,-0.00018595,-0.00024192,-0.0
 0010662,0.00065721,0.00023352,-0.00010275,0.00008450,-0.00002259,0.000
 05667,-0.00000721,-0.00006433,0.00002544,-0.00004680,0.00006284,-0.000
 01804,0.00004499,0.00005041,-0.00001574,0.00001431,0.00000889,-0.00001
 280,0.00002591,-0.00001007,-0.00000146,-0.00001472,0.00000184,-0.00000
 277,-0.00000596,0.00002245,0.00001758,-0.00000209,-0.00001296,-0.00001
 402,-0.00000200,0.00003040,-0.00000623,-0.00000782,0.00054255,0.001504
 58,-0.00025204,-0.01327049,-0.00485487,-0.00730829,-0.06228751,-0.0538
 3819,-0.04221149,-0.00004974,-0.00003594,-0.00002125,-0.00000374,-0.00
 000290,0.00000007,-0.00001325,-0.00000325,-0.00000176,-0.00000954,0.00
 000637,0.00000493,0.00001429,0.00000103,-0.00000222,-0.00000361,0.0000
 0150,0.00000348,-0.00000331,0.00000306,0.00000566,-0.00003264,-0.00000
 488,0.00003058,-0.00015239,-0.00011655,0.00029583,0.00016694,0.0001710
 2,-0.00000349,0.00086909,-0.00033470,0.00096029,-0.00025272,-0.0006247
 8,-0.00049116,-0.02282790,-0.01600023,-0.01010294,0.09707090,0.0743620
 3,0.05853941\\0.00000010,-0.00000017,0.00000024,-0.00000002,-0.0000004
 2,-0.00000011,-0.00000069,-0.00000052,0.00000064,-0.00000012,0.0000005
 0,-0.00000024,-0.00000089,0.00000024,0.00000008,-0.00000025,0.00000024
 ,0.00000080,-0.00000038,-0.00000004,-0.00000013,-0.00000042,-0.0000000
 1,0.00000086,0.00000037,0.00000157,-0.00000076,-0.00000110,-0.00000043
 ,0.00000014,0.00000026,0.00000021,0.00000044,-0.00000034,-0.00000068,0
 .00000007,0.00000178,-0.00000003,0.00000086,-0.00000064,-0.00000051,-0
 .00000043,0.00000090,-0.00000017,-0.00000093,0.00000045,0.00000018,-0.
 00000034,0.00000009,0.00000003,-0.00000024,-0.00000010,0.00000024,0.00
 000013,-0.00000093,0.00000015,-0.00000017,0.00000025,0.,0.00000047,-0.
 00000004,0.,0.00000055,0.00000005,-0.00000009,0.00000082,0.00000020,-0
 .00000045,0.00000026,0.00000046,-0.00000003,0.00000012,0.00000034,0.00
 000047,-0.00000023,-0.00000007,0.00000026,-0.00000074,0.00000007,-0.00
 000007,0.00000020,-0.00000021,-0.00000017,-0.00000063,0.00000027,-0.00
 000027,-0.00000109,0.00000064,-0.00000004,-0.00000065\\\@


    WHAT WE HAVE LEARNED
 IS LIKE A HANDFUL OF EARTH;
  WHAT WE HAVE YET TO LEARN
   IS LIKE THE WHOLE WORLD.

         -- AVVAYIAR
 Job cpu time:       0 days  4 hours 41 minutes 47.1 seconds.
 File lengths (MBytes):  RWF=    542 Int=      0 D2E=      0 Chk=     17 Scr=      1
 Normal termination of Gaussian 09 at Sat Jul 24 04:41:15 2021.
