 Entering Gaussian System, Link 0=g09
 Input=opt_freq-conf-683.com
 Output=opt_freq-conf-683.log
 Initial command:
 /aerosol/software/g09/l1.exe "/scratch/nicole/10415/Gau-75296.inp" -scrdir="/scratch/nicole/10415/"
 Entering Link 1 = /aerosol/software/g09/l1.exe PID=     75300.
  
 Copyright (c) 1988,1990,1992,1993,1995,1998,2003,2009,2013,
            Gaussian, Inc.  All Rights Reserved.
  
 This is part of the Gaussian(R) 09 program.  It is based on
 the Gaussian(R) 03 system (copyright 2003, Gaussian, Inc.),
 the Gaussian(R) 98 system (copyright 1998, Gaussian, Inc.),
 the Gaussian(R) 94 system (copyright 1995, Gaussian, Inc.),
 the Gaussian 92(TM) system (copyright 1992, Gaussian, Inc.),
 the Gaussian 90(TM) system (copyright 1990, Gaussian, Inc.),
 the Gaussian 88(TM) system (copyright 1988, Gaussian, Inc.),
 the Gaussian 86(TM) system (copyright 1986, Carnegie Mellon
 University), and the Gaussian 82(TM) system (copyright 1983,
 Carnegie Mellon University). Gaussian is a federally registered
 trademark of Gaussian, Inc.
  
 This software contains proprietary and confidential information,
 including trade secrets, belonging to Gaussian, Inc.
  
 This software is provided under written license and may be
 used, copied, transmitted, or stored only in accord with that
 written license.
  
 The following legend is applicable only to US Government
 contracts under FAR:
  
                    RESTRICTED RIGHTS LEGEND
  
 Use, reproduction and disclosure by the US Government is
 subject to restrictions as set forth in subparagraphs (a)
 and (c) of the Commercial Computer Software - Restricted
 Rights clause in FAR 52.227-19.
  
 Gaussian, Inc.
 340 Quinnipiac St., Bldg. 40, Wallingford CT 06492
  
  
 ---------------------------------------------------------------
 Warning -- This program may not be used in any manner that
 competes with the business of Gaussian, Inc. or will provide
 assistance to any competitor of Gaussian, Inc.  The licensee
 of this program is prohibited from giving any competitor of
 Gaussian, Inc. access to this program.  By using this program,
 the user acknowledges that Gaussian, Inc. is engaged in the
 business of creating and licensing software in the field of
 computational chemistry and represents and warrants to the
 licensee that it is not a competitor of Gaussian, Inc. and that
 it will not use this program in any manner prohibited above.
 ---------------------------------------------------------------
  

 Cite this work as:
 Gaussian 09, Revision D.01,
 M. J. Frisch, G. W. Trucks, H. B. Schlegel, G. E. Scuseria, 
 M. A. Robb, J. R. Cheeseman, G. Scalmani, V. Barone, B. Mennucci, 
 G. A. Petersson, H. Nakatsuji, M. Caricato, X. Li, H. P. Hratchian, 
 A. F. Izmaylov, J. Bloino, G. Zheng, J. L. Sonnenberg, M. Hada, 
 M. Ehara, K. Toyota, R. Fukuda, J. Hasegawa, M. Ishida, T. Nakajima, 
 Y. Honda, O. Kitao, H. Nakai, T. Vreven, J. A. Montgomery, Jr., 
 J. E. Peralta, F. Ogliaro, M. Bearpark, J. J. Heyd, E. Brothers, 
 K. N. Kudin, V. N. Staroverov, T. Keith, R. Kobayashi, J. Normand, 
 K. Raghavachari, A. Rendell, J. C. Burant, S. S. Iyengar, J. Tomasi, 
 M. Cossi, N. Rega, J. M. Millam, M. Klene, J. E. Knox, J. B. Cross, 
 V. Bakken, C. Adamo, J. Jaramillo, R. Gomperts, R. E. Stratmann, 
 O. Yazyev, A. J. Austin, R. Cammi, C. Pomelli, J. W. Ochterski, 
 R. L. Martin, K. Morokuma, V. G. Zakrzewski, G. A. Voth, 
 P. Salvador, J. J. Dannenberg, S. Dapprich, A. D. Daniels, 
 O. Farkas, J. B. Foresman, J. V. Ortiz, J. Cioslowski, 
 and D. J. Fox, Gaussian, Inc., Wallingford CT, 2013.
 
 ******************************************
 Gaussian 09:  ES64L-G09RevD.01 24-Apr-2013
                24-Jul-2021 
 ******************************************
 %mem=2gb
 %nproc=4
 Will use up to    4 processors via shared memory.
 %chk=conf-683.chk
 ----------------------------------------------------------------------
 # B3LYP/6-311++G(d,p) EmpiricalDispersion=GD3BJ opt=calcfc freq=norama
 n nosymm integral(ultrafinegrid)
 ----------------------------------------------------------------------
 1/10=4,14=-1,18=20,19=15,26=4,38=1/1,3;
 2/9=110,12=2,15=1,17=6,18=5,40=1/2;
 3/5=4,6=6,7=1111,11=2,16=1,25=1,30=1,71=2,74=-5,75=-5,124=41,140=1/1,2,3;
 4//1;
 5/5=2,38=5/2;
 8/6=4,10=90,11=11/1;
 11/6=1,8=1,9=11,15=111,16=1,31=1/1,2,10;
 10/6=1,13=1,31=1/2;
 6/7=2,8=2,9=2,10=2,28=1/1;
 7/10=1,18=20,25=1,30=1/1,2,3,16;
 1/10=4,14=-1,18=20,19=15,26=4/3(2);
 2/9=110,15=1/2;
 99//99;
 2/9=110,15=1/2;
 3/5=4,6=6,7=1111,11=2,16=1,25=1,30=1,71=1,74=-5,75=-5,124=41/1,2,3;
 4/5=5,16=3,69=1/1;
 5/5=2,38=5/2;
 7/30=1/1,2,3,16;
 1/14=-1,18=20,19=15,26=4/3(-5);
 2/9=110,15=1/2;
 6/7=2,8=2,9=2,10=2,19=2,28=1/1;
 99/9=1/99;
 ------------------------------------------------------------
 Candidate Structure: Conf:683 OPT and FREQ calc in gas phase
 ------------------------------------------------------------
 Symbolic Z-matrix:
 Charge =  0 Multiplicity = 1
 O                    -0.48714   0.03411  -2.18319 
 C                     0.46127   0.27928  -1.44052 
 N                     0.32789   0.42795  -0.11044 
 C                    -0.9578    0.66545   0.50158 
 C                    -0.92497   2.00031   1.21365 
 O                    -2.15887   2.3984    1.57874 
 O                     0.07049   2.63591   1.45945 
 C                    -1.34629  -0.41772   1.51388 
 C                    -1.55824  -1.78505   0.92941 
 C                    -1.80804  -2.98089   1.53805 
 N                    -1.96662  -3.98554   0.60476 
 C                    -1.81522  -3.39077  -0.55338 
 N                    -1.57259  -2.06509  -0.41431 
 C                     1.88811   0.37371  -1.96848 
 C                     2.67074   1.56211  -1.4079 
 N                     2.95917   1.38592   0.02671 
 H                     1.16423   0.73916   0.38089 
 H                    -1.71051   0.71537  -0.28595 
 H                    -2.04427   3.24021   2.03676 
 H                    -0.58326  -0.47218   2.29309 
 H                    -2.2642   -0.10001   2.01323 
 H                    -1.8861   -3.18906   2.59558 
 H                    -1.86735  -3.85838  -1.52128 
 H                    -1.36912  -1.41053  -1.15988 
 H                     2.42577  -0.54795  -1.71986 
 H                     1.81067   0.4345   -3.05414 
 H                     2.07238   2.46848  -1.52499 
 H                     3.58337   1.70483  -1.9953 
 H                     3.80746   0.85703   0.17254 
 H                     3.07913   2.28043   0.48106 
 

 GradGradGradGradGradGradGradGradGradGradGradGradGradGradGradGradGradGrad
 Berny optimization.
 Initialization pass.
                           ----------------------------
                           !    Initial Parameters    !
                           ! (Angstroms and Degrees)  !
 --------------------------                            --------------------------
 ! Name  Definition              Value          Derivative Info.                !
 --------------------------------------------------------------------------------
 ! R1    R(1,2)                  1.2293         calculate D2E/DX2 analytically  !
 ! R2    R(2,3)                  1.345          calculate D2E/DX2 analytically  !
 ! R3    R(2,14)                 1.5243         calculate D2E/DX2 analytically  !
 ! R4    R(3,4)                  1.4436         calculate D2E/DX2 analytically  !
 ! R5    R(3,17)                 1.0187         calculate D2E/DX2 analytically  !
 ! R6    R(4,5)                  1.5133         calculate D2E/DX2 analytically  !
 ! R7    R(4,8)                  1.5326         calculate D2E/DX2 analytically  !
 ! R8    R(4,18)                 1.0905         calculate D2E/DX2 analytically  !
 ! R9    R(5,6)                  1.3469         calculate D2E/DX2 analytically  !
 ! R10   R(5,7)                  1.2064         calculate D2E/DX2 analytically  !
 ! R11   R(6,19)                 0.9652         calculate D2E/DX2 analytically  !
 ! R12   R(8,9)                  1.502          calculate D2E/DX2 analytically  !
 ! R13   R(8,20)                 1.0919         calculate D2E/DX2 analytically  !
 ! R14   R(8,21)                 1.0922         calculate D2E/DX2 analytically  !
 ! R15   R(9,10)                 1.3649         calculate D2E/DX2 analytically  !
 ! R16   R(9,13)                 1.3727         calculate D2E/DX2 analytically  !
 ! R17   R(10,11)                1.3804         calculate D2E/DX2 analytically  !
 ! R18   R(10,22)                1.0806         calculate D2E/DX2 analytically  !
 ! R19   R(11,12)                1.3107         calculate D2E/DX2 analytically  !
 ! R20   R(12,13)                1.3549         calculate D2E/DX2 analytically  !
 ! R21   R(12,23)                1.0762         calculate D2E/DX2 analytically  !
 ! R22   R(13,24)                1.0128         calculate D2E/DX2 analytically  !
 ! R23   R(14,15)                1.5294         calculate D2E/DX2 analytically  !
 ! R24   R(14,25)                1.0956         calculate D2E/DX2 analytically  !
 ! R25   R(14,26)                1.0901         calculate D2E/DX2 analytically  !
 ! R26   R(15,16)                1.4739         calculate D2E/DX2 analytically  !
 ! R27   R(15,27)                1.0924         calculate D2E/DX2 analytically  !
 ! R28   R(15,28)                1.0947         calculate D2E/DX2 analytically  !
 ! R29   R(16,29)                1.0102         calculate D2E/DX2 analytically  !
 ! R30   R(16,30)                1.0104         calculate D2E/DX2 analytically  !
 ! A1    A(1,2,3)              122.8875         calculate D2E/DX2 analytically  !
 ! A2    A(1,2,14)             121.6868         calculate D2E/DX2 analytically  !
 ! A3    A(3,2,14)             115.3721         calculate D2E/DX2 analytically  !
 ! A4    A(2,3,4)              121.7189         calculate D2E/DX2 analytically  !
 ! A5    A(2,3,17)             115.4249         calculate D2E/DX2 analytically  !
 ! A6    A(4,3,17)             118.4538         calculate D2E/DX2 analytically  !
 ! A7    A(3,4,5)              108.9833         calculate D2E/DX2 analytically  !
 ! A8    A(3,4,8)              112.9234         calculate D2E/DX2 analytically  !
 ! A9    A(3,4,18)             108.4268         calculate D2E/DX2 analytically  !
 ! A10   A(5,4,8)              108.549          calculate D2E/DX2 analytically  !
 ! A11   A(5,4,18)             108.3251         calculate D2E/DX2 analytically  !
 ! A12   A(8,4,18)             109.535          calculate D2E/DX2 analytically  !
 ! A13   A(4,5,6)              111.6154         calculate D2E/DX2 analytically  !
 ! A14   A(4,5,7)              125.3475         calculate D2E/DX2 analytically  !
 ! A15   A(6,5,7)              123.0221         calculate D2E/DX2 analytically  !
 ! A16   A(5,6,19)             106.1193         calculate D2E/DX2 analytically  !
 ! A17   A(4,8,9)              114.9679         calculate D2E/DX2 analytically  !
 ! A18   A(4,8,20)             109.2354         calculate D2E/DX2 analytically  !
 ! A19   A(4,8,21)             108.0247         calculate D2E/DX2 analytically  !
 ! A20   A(9,8,20)             109.3221         calculate D2E/DX2 analytically  !
 ! A21   A(9,8,21)             108.9127         calculate D2E/DX2 analytically  !
 ! A22   A(20,8,21)            105.9938         calculate D2E/DX2 analytically  !
 ! A23   A(8,9,10)             130.5325         calculate D2E/DX2 analytically  !
 ! A24   A(8,9,13)             124.618          calculate D2E/DX2 analytically  !
 ! A25   A(10,9,13)            104.8255         calculate D2E/DX2 analytically  !
 ! A26   A(9,10,11)            110.9276         calculate D2E/DX2 analytically  !
 ! A27   A(9,10,22)            128.1989         calculate D2E/DX2 analytically  !
 ! A28   A(11,10,22)           120.8735         calculate D2E/DX2 analytically  !
 ! A29   A(10,11,12)           104.7069         calculate D2E/DX2 analytically  !
 ! A30   A(11,12,13)           111.9624         calculate D2E/DX2 analytically  !
 ! A31   A(11,12,23)           126.2929         calculate D2E/DX2 analytically  !
 ! A32   A(13,12,23)           121.7446         calculate D2E/DX2 analytically  !
 ! A33   A(9,13,12)            107.5757         calculate D2E/DX2 analytically  !
 ! A34   A(9,13,24)            125.9221         calculate D2E/DX2 analytically  !
 ! A35   A(12,13,24)           126.3561         calculate D2E/DX2 analytically  !
 ! A36   A(2,14,15)            113.5898         calculate D2E/DX2 analytically  !
 ! A37   A(2,14,25)            109.187          calculate D2E/DX2 analytically  !
 ! A38   A(2,14,26)            106.3738         calculate D2E/DX2 analytically  !
 ! A39   A(15,14,25)           108.6248         calculate D2E/DX2 analytically  !
 ! A40   A(15,14,26)           110.9815         calculate D2E/DX2 analytically  !
 ! A41   A(25,14,26)           107.9245         calculate D2E/DX2 analytically  !
 ! A42   A(14,15,16)           111.3475         calculate D2E/DX2 analytically  !
 ! A43   A(14,15,27)           108.9737         calculate D2E/DX2 analytically  !
 ! A44   A(14,15,28)           109.3448         calculate D2E/DX2 analytically  !
 ! A45   A(16,15,27)           108.1028         calculate D2E/DX2 analytically  !
 ! A46   A(16,15,28)           112.0079         calculate D2E/DX2 analytically  !
 ! A47   A(27,15,28)           106.9165         calculate D2E/DX2 analytically  !
 ! A48   A(15,16,29)           111.5564         calculate D2E/DX2 analytically  !
 ! A49   A(15,16,30)           110.7986         calculate D2E/DX2 analytically  !
 ! A50   A(29,16,30)           107.3892         calculate D2E/DX2 analytically  !
 ! D1    D(1,2,3,4)            -16.8472         calculate D2E/DX2 analytically  !
 ! D2    D(1,2,3,17)          -172.909          calculate D2E/DX2 analytically  !
 ! D3    D(14,2,3,4)           165.7775         calculate D2E/DX2 analytically  !
 ! D4    D(14,2,3,17)            9.7158         calculate D2E/DX2 analytically  !
 ! D5    D(1,2,14,15)          136.0055         calculate D2E/DX2 analytically  !
 ! D6    D(1,2,14,25)         -102.5989         calculate D2E/DX2 analytically  !
 ! D7    D(1,2,14,26)           13.6252         calculate D2E/DX2 analytically  !
 ! D8    D(3,2,14,15)          -46.5847         calculate D2E/DX2 analytically  !
 ! D9    D(3,2,14,25)           74.8109         calculate D2E/DX2 analytically  !
 ! D10   D(3,2,14,26)         -168.965          calculate D2E/DX2 analytically  !
 ! D11   D(2,3,4,5)           -118.9752         calculate D2E/DX2 analytically  !
 ! D12   D(2,3,4,8)            120.312          calculate D2E/DX2 analytically  !
 ! D13   D(2,3,4,18)            -1.2603         calculate D2E/DX2 analytically  !
 ! D14   D(17,3,4,5)            36.3919         calculate D2E/DX2 analytically  !
 ! D15   D(17,3,4,8)           -84.3209         calculate D2E/DX2 analytically  !
 ! D16   D(17,3,4,18)          154.1068         calculate D2E/DX2 analytically  !
 ! D17   D(3,4,5,6)            167.8964         calculate D2E/DX2 analytically  !
 ! D18   D(3,4,5,7)            -13.4842         calculate D2E/DX2 analytically  !
 ! D19   D(8,4,5,6)            -68.7433         calculate D2E/DX2 analytically  !
 ! D20   D(8,4,5,7)            109.876          calculate D2E/DX2 analytically  !
 ! D21   D(18,4,5,6)            50.1173         calculate D2E/DX2 analytically  !
 ! D22   D(18,4,5,7)          -131.2634         calculate D2E/DX2 analytically  !
 ! D23   D(3,4,8,9)            -64.9541         calculate D2E/DX2 analytically  !
 ! D24   D(3,4,8,20)            58.3472         calculate D2E/DX2 analytically  !
 ! D25   D(3,4,8,21)           173.2087         calculate D2E/DX2 analytically  !
 ! D26   D(5,4,8,9)            174.086          calculate D2E/DX2 analytically  !
 ! D27   D(5,4,8,20)           -62.6128         calculate D2E/DX2 analytically  !
 ! D28   D(5,4,8,21)            52.2487         calculate D2E/DX2 analytically  !
 ! D29   D(18,4,8,9)            55.9903         calculate D2E/DX2 analytically  !
 ! D30   D(18,4,8,20)          179.2915         calculate D2E/DX2 analytically  !
 ! D31   D(18,4,8,21)          -65.847          calculate D2E/DX2 analytically  !
 ! D32   D(4,5,6,19)           178.8907         calculate D2E/DX2 analytically  !
 ! D33   D(7,5,6,19)             0.2338         calculate D2E/DX2 analytically  !
 ! D34   D(4,8,9,10)           174.4921         calculate D2E/DX2 analytically  !
 ! D35   D(4,8,9,13)            -7.5697         calculate D2E/DX2 analytically  !
 ! D36   D(20,8,9,10)           51.2371         calculate D2E/DX2 analytically  !
 ! D37   D(20,8,9,13)         -130.8247         calculate D2E/DX2 analytically  !
 ! D38   D(21,8,9,10)          -64.1528         calculate D2E/DX2 analytically  !
 ! D39   D(21,8,9,13)          113.7854         calculate D2E/DX2 analytically  !
 ! D40   D(8,9,10,11)          178.6096         calculate D2E/DX2 analytically  !
 ! D41   D(8,9,10,22)           -1.3372         calculate D2E/DX2 analytically  !
 ! D42   D(13,9,10,11)           0.3647         calculate D2E/DX2 analytically  !
 ! D43   D(13,9,10,22)        -179.5821         calculate D2E/DX2 analytically  !
 ! D44   D(8,9,13,12)         -178.8194         calculate D2E/DX2 analytically  !
 ! D45   D(8,9,13,24)            5.359          calculate D2E/DX2 analytically  !
 ! D46   D(10,9,13,12)          -0.4403         calculate D2E/DX2 analytically  !
 ! D47   D(10,9,13,24)        -176.2619         calculate D2E/DX2 analytically  !
 ! D48   D(9,10,11,12)          -0.1419         calculate D2E/DX2 analytically  !
 ! D49   D(22,10,11,12)        179.8093         calculate D2E/DX2 analytically  !
 ! D50   D(10,11,12,13)         -0.1505         calculate D2E/DX2 analytically  !
 ! D51   D(10,11,12,23)        179.7578         calculate D2E/DX2 analytically  !
 ! D52   D(11,12,13,9)           0.3833         calculate D2E/DX2 analytically  !
 ! D53   D(11,12,13,24)        176.1817         calculate D2E/DX2 analytically  !
 ! D54   D(23,12,13,9)        -179.5298         calculate D2E/DX2 analytically  !
 ! D55   D(23,12,13,24)         -3.7314         calculate D2E/DX2 analytically  !
 ! D56   D(2,14,15,16)          68.9177         calculate D2E/DX2 analytically  !
 ! D57   D(2,14,15,27)         -50.2361         calculate D2E/DX2 analytically  !
 ! D58   D(2,14,15,28)        -166.7754         calculate D2E/DX2 analytically  !
 ! D59   D(25,14,15,16)        -52.7915         calculate D2E/DX2 analytically  !
 ! D60   D(25,14,15,27)       -171.9453         calculate D2E/DX2 analytically  !
 ! D61   D(25,14,15,28)         71.5155         calculate D2E/DX2 analytically  !
 ! D62   D(26,14,15,16)       -171.2862         calculate D2E/DX2 analytically  !
 ! D63   D(26,14,15,27)         69.56           calculate D2E/DX2 analytically  !
 ! D64   D(26,14,15,28)        -46.9793         calculate D2E/DX2 analytically  !
 ! D65   D(14,15,16,29)         86.1649         calculate D2E/DX2 analytically  !
 ! D66   D(14,15,16,30)       -154.2452         calculate D2E/DX2 analytically  !
 ! D67   D(27,15,16,29)       -154.1633         calculate D2E/DX2 analytically  !
 ! D68   D(27,15,16,30)        -34.5734         calculate D2E/DX2 analytically  !
 ! D69   D(28,15,16,29)        -36.6262         calculate D2E/DX2 analytically  !
 ! D70   D(28,15,16,30)         82.9637         calculate D2E/DX2 analytically  !
 --------------------------------------------------------------------------------
 Trust Radius=3.00D-01 FncErr=1.00D-07 GrdErr=1.00D-06
 Number of steps in this run=    160 maximum allowed number of steps=    180.
 GradGradGradGradGradGradGradGradGradGradGradGradGradGradGradGradGradGrad

                          Input orientation:                          
 ---------------------------------------------------------------------
 Center     Atomic      Atomic             Coordinates (Angstroms)
 Number     Number       Type             X           Y           Z
 ---------------------------------------------------------------------
      1          8           0       -0.487137    0.034113   -2.183190
      2          6           0        0.461268    0.279282   -1.440517
      3          7           0        0.327894    0.427946   -0.110441
      4          6           0       -0.957804    0.665448    0.501575
      5          6           0       -0.924970    2.000307    1.213651
      6          8           0       -2.158867    2.398398    1.578742
      7          8           0        0.070491    2.635914    1.459449
      8          6           0       -1.346294   -0.417723    1.513882
      9          6           0       -1.558244   -1.785053    0.929409
     10          6           0       -1.808037   -2.980892    1.538055
     11          7           0       -1.966617   -3.985539    0.604764
     12          6           0       -1.815215   -3.390767   -0.553375
     13          7           0       -1.572589   -2.065091   -0.414312
     14          6           0        1.888109    0.373714   -1.968479
     15          6           0        2.670739    1.562111   -1.407896
     16          7           0        2.959170    1.385918    0.026709
     17          1           0        1.164234    0.739164    0.380893
     18          1           0       -1.710505    0.715370   -0.285954
     19          1           0       -2.044274    3.240207    2.036763
     20          1           0       -0.583259   -0.472180    2.293090
     21          1           0       -2.264205   -0.100005    2.013233
     22          1           0       -1.886099   -3.189059    2.595576
     23          1           0       -1.867355   -3.858382   -1.521281
     24          1           0       -1.369122   -1.410531   -1.159878
     25          1           0        2.425773   -0.547949   -1.719863
     26          1           0        1.810668    0.434499   -3.054138
     27          1           0        2.072378    2.468476   -1.524990
     28          1           0        3.583373    1.704834   -1.995297
     29          1           0        3.807463    0.857035    0.172543
     30          1           0        3.079128    2.280426    0.481062
 ---------------------------------------------------------------------
                    Distance matrix (angstroms):
                    1          2          3          4          5
     1  O    0.000000
     2  C    1.229285   0.000000
     3  N    2.261784   1.344987   0.000000
     4  C    2.797870   2.436105   1.443603   0.000000
     5  C    3.949195   3.453720   2.407323   1.513267   0.000000
     6  O    4.747279   4.524564   3.594440   2.367690   1.346949
     7  O    4.511001   3.757156   2.721384   2.420257   1.206381
     8  C    3.822388   3.532926   2.481227   1.532629   2.472755
     9  C    3.760972   3.735834   3.088069   2.559009   3.848477
    10  C    4.968168   4.964913   4.347403   3.884969   5.069258
    11  N    5.110690   5.316625   5.025450   4.760256   6.106236
    12  C    4.018694   4.408930   4.401327   4.277962   5.742699
    13  N    2.951914   3.268908   3.149509   2.944938   4.426865
    14  C    2.408987   1.524315   2.426833   3.779616   4.548095
    15  C    3.592776   2.555089   2.908375   4.197191   4.471425
    16  N    4.311387   3.101114   2.803593   4.010892   4.107657
    17  H    3.130279   2.005789   1.018691   2.126745   2.578514
    18  H    2.358018   2.497957   2.066032   1.090529   2.125310
    19  H    5.523741   5.209250   4.259868   3.188510   1.862178
    20  H    4.505847   3.949120   2.723489   2.154996   2.719402
    21  H    4.559159   4.415931   3.392300   2.139559   2.616141
    22  H    5.931487   5.816318   5.030608   4.483725   5.455547
    23  H    4.182661   4.748608   5.018186   5.038281   6.533925
    24  H    1.977894   2.506901   2.713149   2.690595   4.179082
    25  H    3.006411   2.149797   2.818458   4.225602   5.130944
    26  H    2.489732   2.109205   3.296060   4.512302   5.305609
    27  H    3.593113   2.719445   3.034458   4.066925   4.086983
    28  H    4.404050   3.476711   3.972564   5.285544   5.541643
    29  H    4.966917   3.759359   3.517328   4.780453   4.978644
    30  H    4.986221   3.814476   3.369101   4.348033   4.080190
                    6          7          8          9         10
     6  O    0.000000
     7  O    2.245146   0.000000
     8  C    2.931726   3.366740   0.000000
     9  C    4.275938   4.741167   1.502040   0.000000
    10  C    5.390871   5.923137   2.604539   1.364872   0.000000
    11  N    6.460669   6.980253   3.733712   2.261482   1.380397
    12  C    6.178872   6.627838   3.651361   2.200682   2.131227
    13  N    4.923284   5.320727   2.546167   1.372667   2.169300
    14  C    5.749794   4.491322   4.818151   4.993534   6.100054
    15  C    5.739728   4.016965   5.347250   5.877993   7.026872
    16  N    5.443181   3.458280   4.899165   5.592580   6.639236
    17  H    3.902678   2.440740   2.987441   3.752923   4.900228
    18  H    2.551608   3.147517   2.157767   2.784314   4.122969
    19  H    0.965172   2.273916   3.760456   5.168723   6.245525
    20  H    3.351574   3.283686   1.091949   2.129285   2.892022
    21  H    2.538089   3.639057   1.092180   2.124251   2.955231
    22  H    5.685774   6.248946   3.023533   2.203368   1.080637
    23  H    6.988735   7.403774   4.617560   3.224922   3.183244
    24  H    4.757276   5.030614   2.852224   2.130998   3.152383
    25  H    6.370296   5.078618   4.970166   4.941807   5.870126
    26  H    6.409187   5.314782   5.617784   5.669623   6.771126
    27  H    5.247999   3.597564   5.408531   6.107209   7.357681
    28  H    6.799125   5.014232   6.412581   6.868001   7.969184
    29  H    6.320624   4.334224   5.475893   6.028622   6.937445
    30  H    5.353074   3.183631   5.284986   6.183393   7.258310
                   11         12         13         14         15
    11  N    0.000000
    12  C    1.310710   0.000000
    13  N    2.209501   1.354852   0.000000
    14  C    6.362671   5.467033   4.509949   0.000000
    15  C    7.505484   6.736839   5.670066   1.529396   0.000000
    16  N    7.310956   6.778493   5.713213   2.480424   1.473881
    17  H    5.672316   5.177481   3.998300   2.485377   2.479227
    18  H    4.791400   4.116169   2.786837   3.987185   4.601199
    19  H    7.366685   7.122577   5.863142   6.302569   6.075609
    20  H    4.136159   4.258900   3.293352   4.998417   5.331430
    21  H    4.143636   4.197402   3.198886   5.772361   6.230604
    22  H    2.145739   3.156201   3.228160   6.911483   7.704944
    23  H    2.132155   1.076208   2.127947   5.675750   7.070283
    24  H    3.178305   2.118532   1.012776   3.800911   5.021812
    25  H    6.042682   5.237202   4.471363   1.095607   2.147018
    26  H    6.869657   5.833824   4.966192   1.090113   2.172866
    27  H    7.905925   7.098461   5.922214   2.149108   1.092357
    28  H    8.363196   7.562344   6.579954   2.155578   1.094673
    29  H    7.548333   7.084158   6.150462   2.915732   2.070521
    30  H    8.045940   7.562214   6.428350   3.324805   2.061775
                   16         17         18         19         20
    16  N    0.000000
    17  H    1.940498   0.000000
    18  H    4.727923   2.951165   0.000000
    19  H    5.702031   4.392225   3.446913   0.000000
    20  H    4.597588   2.859648   3.054902   3.997760   0.000000
    21  H    5.782551   3.888822   2.501535   3.347527   1.744251
    22  H    7.141856   5.444289   4.855781   6.455443   3.028253
    23  H    7.293442   5.826340   4.740237   7.942351   5.259723
    24  H    5.287932   3.662384   2.323735   5.683635   3.663478
    25  H    2.659862   2.767909   4.556409   6.960150   5.016354
    26  H    3.422846   3.508581   4.487805   6.974944   5.928390
    27  H    2.089522   2.729036   4.349574   5.498043   5.502509
    28  H    2.140057   3.525767   5.650313   7.091212   6.363213
    29  H    1.010241   2.654046   5.538796   6.587690   5.053907
    30  H    1.010431   2.460150   5.096891   5.439727   4.926800
                   21         22         23         24         25
    21  H    0.000000
    22  H    3.166123   0.000000
    23  H    5.174522   4.170953   0.000000
    24  H    3.547856   4.187344   2.524049   0.000000
    25  H    6.011036   6.647609   5.424882   3.931775   0.000000
    26  H    6.524457   7.662605   5.857161   4.135628   1.767441
    27  H    6.158090   8.040914   7.453230   5.198454   3.043301
    28  H    7.315731   8.656871   7.802852   5.910214   2.547731
    29  H    6.416324   7.393146   7.570188   5.806395   2.732077
    30  H    6.046917   7.683742   8.134004   6.008558   3.642890
                   26         27         28         29         30
    26  H    0.000000
    27  H    2.558095   0.000000
    28  H    2.424331   1.757112   0.000000
    29  H    3.818010   2.913568   2.338484   0.000000
    30  H    4.184982   2.252366   2.591896   1.628404   0.000000
 Symmetry turned off by external request.
 Stoichiometry    C9H14N4O3
 Framework group  C1[X(C9H14N4O3)]
 Deg. of freedom    84
 Full point group                 C1      NOp   1
 Rotational constants (GHZ):      0.6745708      0.3748381      0.2826775
 Standard basis: 6-311++G(d,p) (5D, 7F)
   450 basis functions,   702 primitive gaussians,   466 cartesian basis functions
    60 alpha electrons       60 beta electrons
       nuclear repulsion energy      1148.3601066720 Hartrees.
 NAtoms=   30 NActive=   30 NUniq=   30 SFac= 1.00D+00 NAtFMM=   60 NAOKFM=F Big=F
 Integral buffers will be    131072 words long.
 Raffenetti 2 integral format.
 Two-electron integral symmetry is turned off.
 Nuclear repulsion after empirical dispersion term =     1148.3041973030 Hartrees.
 One-electron integrals computed using PRISM.
 NBasis=   450 RedAO= T EigKep=  1.19D-06  NBF=   450
 NBsUse=   450 1.00D-06 EigRej= -1.00D+00 NBFU=   450
 ExpMin= 3.60D-02 ExpMax= 8.59D+03 ExpMxC= 1.30D+03 IAcc=3 IRadAn=         5 AccDes= 0.00D+00
 Harris functional with IExCor=  402 and IRadAn=       5 diagonalized for initial guess.
 HarFok:  IExCor=  402 AccDes= 0.00D+00 IRadAn=         5 IDoV= 1 UseB2=F ITyADJ=14
 ICtDFT=  3500011 ScaDFX=  1.000000  1.000000  1.000000  1.000000
 FoFCou: FMM=F IPFlag=           0 FMFlag=      100000 FMFlg1=           0
         NFxFlg=           0 DoJE=T BraDBF=F KetDBF=T FulRan=T
         wScrn=  0.000000 ICntrl=     500 IOpCl=  0 I1Cent=   200000004 NGrid=           0
         NMat0=    1 NMatS0=      1 NMatT0=    0 NMatD0=    1 NMtDS0=    0 NMtDT0=    0
 Symmetry not used in FoFCou.
 Requested convergence on RMS density matrix=1.00D-08 within 128 cycles.
 Requested convergence on MAX density matrix=1.00D-06.
 Requested convergence on             energy=1.00D-06.
 No special actions if energy rises.
 SCF Done:  E(RB3LYP) =  -796.394647335     A.U. after   15 cycles
            NFock= 15  Conv=0.68D-08     -V/T= 2.0036
 DoSCS=F DFT=T ScalE2(SS,OS)=  1.000000  1.000000
 Range of M.O.s used for correlation:     1   450
 NBasis=   450 NAE=    60 NBE=    60 NFC=     0 NFV=     0
 NROrb=    450 NOA=    60 NOB=    60 NVA=   390 NVB=   390

 **** Warning!!: The largest alpha MO coefficient is  0.17954455D+03

 Symmetrizing basis deriv contribution to polar:
 IMax=3 JMax=2 DiffMx= 0.00D+00
 G2DrvN: will do    31 centers at a time, making    1 passes.
 Calling FoFCou, ICntrl=  3107 FMM=F I1Cent=   0 AccDes= 0.00D+00.
 End of G2Drv F.D. properties file   721 does not exist.
 End of G2Drv F.D. properties file   722 does not exist.
 End of G2Drv F.D. properties file   788 does not exist.
          IDoAtm=111111111111111111111111111111
          Differentiating once with respect to nuclear coordinates.
          There are    93 degrees of freedom in the 1st order CPHF.  IDoFFX=6 NUNeed=     0.
     87 vectors produced by pass  0 Test12= 2.52D-14 1.08D-09 XBig12= 2.32D-01 1.04D-01.
 AX will form    87 AO Fock derivatives at one time.
     87 vectors produced by pass  1 Test12= 2.52D-14 1.08D-09 XBig12= 1.73D-02 3.33D-02.
     87 vectors produced by pass  2 Test12= 2.52D-14 1.08D-09 XBig12= 2.32D-04 2.06D-03.
     87 vectors produced by pass  3 Test12= 2.52D-14 1.08D-09 XBig12= 9.66D-07 1.25D-04.
     87 vectors produced by pass  4 Test12= 2.52D-14 1.08D-09 XBig12= 2.35D-09 5.01D-06.
     84 vectors produced by pass  5 Test12= 2.52D-14 1.08D-09 XBig12= 3.58D-12 1.72D-07.
     31 vectors produced by pass  6 Test12= 2.52D-14 1.08D-09 XBig12= 4.84D-15 6.87D-09.
     10 vectors produced by pass  7 Test12= 2.52D-14 1.08D-09 XBig12= 6.72D-16 2.34D-09.
 InvSVY:  IOpt=1 It=  1 EMax= 7.77D-16
 Solved reduced A of dimension   560 with    93 vectors.
 End of Minotr F.D. properties file   721 does not exist.
 End of Minotr F.D. properties file   722 does not exist.
 End of Minotr F.D. properties file   788 does not exist.

 **********************************************************************

            Population analysis using the SCF density.

 **********************************************************************

 Alpha  occ. eigenvalues --  -19.20104 -19.14578 -19.10641 -14.35145 -14.34535
 Alpha  occ. eigenvalues --  -14.32631 -14.28040 -10.33472 -10.28803 -10.24758
 Alpha  occ. eigenvalues --  -10.22440 -10.20824 -10.20100 -10.19855 -10.19428
 Alpha  occ. eigenvalues --  -10.16850  -1.14642  -1.06205  -1.05488  -1.00991
 Alpha  occ. eigenvalues --   -0.95232  -0.91629  -0.86282  -0.82132  -0.77901
 Alpha  occ. eigenvalues --   -0.74957  -0.68539  -0.66535  -0.63256  -0.60951
 Alpha  occ. eigenvalues --   -0.59639  -0.58350  -0.55660  -0.53550  -0.52733
 Alpha  occ. eigenvalues --   -0.52345  -0.50319  -0.49089  -0.48447  -0.47953
 Alpha  occ. eigenvalues --   -0.46307  -0.45134  -0.44232  -0.43479  -0.42183
 Alpha  occ. eigenvalues --   -0.41633  -0.40876  -0.40027  -0.39880  -0.39339
 Alpha  occ. eigenvalues --   -0.38764  -0.36825  -0.35769  -0.31678  -0.28662
 Alpha  occ. eigenvalues --   -0.28593  -0.27415  -0.27270  -0.26101  -0.21927
 Alpha virt. eigenvalues --   -0.03039  -0.02853  -0.01792  -0.00500   0.00046
 Alpha virt. eigenvalues --    0.00792   0.01058   0.01596   0.02134   0.02736
 Alpha virt. eigenvalues --    0.03030   0.03643   0.04017   0.04542   0.04872
 Alpha virt. eigenvalues --    0.05279   0.06002   0.06594   0.07074   0.07500
 Alpha virt. eigenvalues --    0.07704   0.08217   0.08796   0.09329   0.09473
 Alpha virt. eigenvalues --    0.09647   0.10208   0.10804   0.10925   0.11536
 Alpha virt. eigenvalues --    0.11947   0.12002   0.12322   0.12654   0.12757
 Alpha virt. eigenvalues --    0.13322   0.13448   0.13625   0.13865   0.14572
 Alpha virt. eigenvalues --    0.14978   0.15352   0.15493   0.16090   0.16321
 Alpha virt. eigenvalues --    0.16755   0.16924   0.17307   0.17734   0.17927
 Alpha virt. eigenvalues --    0.18754   0.18902   0.19059   0.19541   0.19983
 Alpha virt. eigenvalues --    0.20341   0.20687   0.21415   0.21628   0.22082
 Alpha virt. eigenvalues --    0.22530   0.22944   0.23450   0.23556   0.24019
 Alpha virt. eigenvalues --    0.24509   0.24916   0.25325   0.25806   0.26107
 Alpha virt. eigenvalues --    0.26543   0.27140   0.27357   0.27469   0.27836
 Alpha virt. eigenvalues --    0.28406   0.29325   0.29531   0.29937   0.30333
 Alpha virt. eigenvalues --    0.30631   0.30961   0.31068   0.31471   0.31709
 Alpha virt. eigenvalues --    0.32063   0.32841   0.32973   0.33546   0.33817
 Alpha virt. eigenvalues --    0.34209   0.35210   0.35691   0.36560   0.36915
 Alpha virt. eigenvalues --    0.37382   0.37781   0.37986   0.38392   0.39258
 Alpha virt. eigenvalues --    0.40069   0.40901   0.41459   0.42501   0.44113
 Alpha virt. eigenvalues --    0.44381   0.46133   0.46683   0.48224   0.48791
 Alpha virt. eigenvalues --    0.49133   0.50096   0.50729   0.51796   0.54036
 Alpha virt. eigenvalues --    0.54649   0.55154   0.56040   0.56832   0.57992
 Alpha virt. eigenvalues --    0.59120   0.60263   0.60928   0.61836   0.62833
 Alpha virt. eigenvalues --    0.63917   0.64824   0.65116   0.65308   0.66046
 Alpha virt. eigenvalues --    0.66486   0.66846   0.67894   0.68357   0.69333
 Alpha virt. eigenvalues --    0.70553   0.70753   0.72339   0.73208   0.73638
 Alpha virt. eigenvalues --    0.73848   0.74647   0.75216   0.75625   0.76758
 Alpha virt. eigenvalues --    0.77589   0.78319   0.79165   0.79655   0.80552
 Alpha virt. eigenvalues --    0.82979   0.83905   0.84379   0.85397   0.87924
 Alpha virt. eigenvalues --    0.89004   0.90135   0.90793   0.92019   0.92817
 Alpha virt. eigenvalues --    0.93135   0.93459   0.95224   0.96600   0.98358
 Alpha virt. eigenvalues --    1.00143   1.01620   1.02899   1.03978   1.05508
 Alpha virt. eigenvalues --    1.06037   1.07465   1.08709   1.09904   1.10098
 Alpha virt. eigenvalues --    1.11936   1.14704   1.15489   1.17446   1.17797
 Alpha virt. eigenvalues --    1.18946   1.20346   1.20538   1.21172   1.23108
 Alpha virt. eigenvalues --    1.23814   1.23944   1.25738   1.26081   1.28055
 Alpha virt. eigenvalues --    1.29626   1.29865   1.31401   1.33242   1.35127
 Alpha virt. eigenvalues --    1.36628   1.37285   1.38538   1.40927   1.41935
 Alpha virt. eigenvalues --    1.42303   1.45295   1.47958   1.48734   1.51109
 Alpha virt. eigenvalues --    1.53250   1.53809   1.54819   1.55214   1.56219
 Alpha virt. eigenvalues --    1.58576   1.59707   1.61059   1.61515   1.62765
 Alpha virt. eigenvalues --    1.63440   1.64116   1.65670   1.66047   1.66681
 Alpha virt. eigenvalues --    1.67346   1.68271   1.69183   1.69577   1.70212
 Alpha virt. eigenvalues --    1.70928   1.72650   1.74210   1.76310   1.77199
 Alpha virt. eigenvalues --    1.77633   1.80319   1.81223   1.82464   1.83297
 Alpha virt. eigenvalues --    1.83816   1.85926   1.87751   1.88032   1.90592
 Alpha virt. eigenvalues --    1.91846   1.93790   1.94492   1.95320   1.96514
 Alpha virt. eigenvalues --    1.97932   2.01034   2.02424   2.04057   2.06433
 Alpha virt. eigenvalues --    2.08055   2.09780   2.11278   2.13753   2.14413
 Alpha virt. eigenvalues --    2.15278   2.17268   2.20220   2.21387   2.22446
 Alpha virt. eigenvalues --    2.25953   2.26381   2.27402   2.27525   2.29629
 Alpha virt. eigenvalues --    2.32448   2.36726   2.37296   2.41278   2.43784
 Alpha virt. eigenvalues --    2.46922   2.47410   2.49775   2.51114   2.52589
 Alpha virt. eigenvalues --    2.53341   2.55175   2.56206   2.57524   2.58103
 Alpha virt. eigenvalues --    2.58479   2.61907   2.62747   2.63920   2.64891
 Alpha virt. eigenvalues --    2.67357   2.68119   2.68745   2.71349   2.73381
 Alpha virt. eigenvalues --    2.73616   2.74232   2.75648   2.76051   2.79335
 Alpha virt. eigenvalues --    2.79485   2.80377   2.81657   2.84650   2.85254
 Alpha virt. eigenvalues --    2.86339   2.87698   2.88086   2.89503   2.90682
 Alpha virt. eigenvalues --    2.91682   2.93580   2.93965   2.95091   2.95448
 Alpha virt. eigenvalues --    2.96365   2.98010   2.99662   3.01979   3.03356
 Alpha virt. eigenvalues --    3.04506   3.06293   3.07894   3.09458   3.12592
 Alpha virt. eigenvalues --    3.14893   3.15917   3.16999   3.18830   3.23880
 Alpha virt. eigenvalues --    3.26408   3.28707   3.34615   3.36387   3.38466
 Alpha virt. eigenvalues --    3.42930   3.47527   3.50918   3.54453   3.57972
 Alpha virt. eigenvalues --    3.59972   3.63141   3.66031   3.71627   3.73200
 Alpha virt. eigenvalues --    3.75210   3.77244   3.77946   3.84059   3.86077
 Alpha virt. eigenvalues --    3.89531   3.91745   3.93649   3.95963   4.01523
 Alpha virt. eigenvalues --    4.05851   4.07102   4.12028   4.19224   4.20118
 Alpha virt. eigenvalues --    4.31768   4.38614   4.53201   4.72470   4.81037
 Alpha virt. eigenvalues --    4.82127   4.87777   4.96411   4.97824   4.98747
 Alpha virt. eigenvalues --    5.05821   5.15553   5.18826   5.30137   5.30527
 Alpha virt. eigenvalues --    5.41556   5.60618   5.82615   5.85168  23.77936
 Alpha virt. eigenvalues --   23.80390  23.82873  23.83761  23.89191  23.92138
 Alpha virt. eigenvalues --   23.93689  23.98653  24.17212  35.57384  35.58477
 Alpha virt. eigenvalues --   35.62607  35.72733  49.86779  49.99490  50.02484
          Condensed to atoms (all electrons):
               1          2          3          4          5          6
     1  O    8.018556   0.558626  -0.172995  -0.122926   0.044702   0.000156
     2  C    0.558626   6.953285   0.182657  -0.031657  -0.168811   0.010853
     3  N   -0.172995   0.182657   7.975387  -1.482061   0.224596   0.031019
     4  C   -0.122926  -0.031657  -1.482061  18.555644  -4.323554  -0.062995
     5  C    0.044702  -0.168811   0.224596  -4.323554   8.402161   0.146947
     6  O    0.000156   0.010853   0.031019  -0.062995   0.146947   7.981900
     7  O    0.001137   0.034719   0.071108  -0.135435   0.505076  -0.131957
     8  C    0.022737  -0.272286   0.678867  -8.476310   2.223755  -0.113201
     9  C   -0.057460   0.052403   0.048312   2.858297  -0.787810   0.032199
    10  C    0.015278  -0.035571  -0.083154  -0.624894   0.013428   0.010451
    11  N   -0.000275  -0.003143  -0.002936   0.042802  -0.003746   0.000067
    12  C   -0.007002   0.007178  -0.020028   0.031833  -0.023577   0.000547
    13  N   -0.047598   0.053462   0.059924  -0.256213  -0.013052  -0.001231
    14  C   -0.011710  -0.764189  -0.624747  -0.264814  -0.022439   0.004310
    15  C    0.012672  -0.237951  -0.078899  -0.001377   0.023894  -0.002620
    16  N   -0.002026  -0.040551   0.111999  -0.174188   0.028649   0.000554
    17  H    0.002173  -0.008502   0.363568  -0.187713  -0.004144   0.001386
    18  H    0.015148   0.005599  -0.274600   0.979490  -0.189804  -0.020955
    19  H   -0.000085  -0.005900  -0.000790  -0.178662   0.191001   0.215072
    20  H   -0.000632   0.013447  -0.094853   0.483613  -0.132097  -0.006508
    21  H    0.001166   0.008488   0.067072  -0.388741   0.053351   0.021294
    22  H    0.000390  -0.001779   0.001029  -0.056367   0.007431   0.000260
    23  H   -0.002542   0.000255  -0.000346   0.010627  -0.000767   0.000043
    24  H    0.079165   0.007294  -0.003668  -0.156609   0.019417   0.001109
    25  H    0.002463  -0.118837   0.019270  -0.000775   0.005006  -0.000032
    26  H   -0.007073  -0.021751   0.013388  -0.005158  -0.000019  -0.000004
    27  H    0.001255  -0.013803   0.005303  -0.015647   0.006183   0.000733
    28  H    0.000159  -0.008758   0.006880  -0.007883   0.001064  -0.000001
    29  H   -0.000153  -0.010264   0.000616   0.008133   0.001483   0.000100
    30  H   -0.000250   0.005606  -0.013129   0.040130  -0.012275   0.000033
               7          8          9         10         11         12
     1  O    0.001137   0.022737  -0.057460   0.015278  -0.000275  -0.007002
     2  C    0.034719  -0.272286   0.052403  -0.035571  -0.003143   0.007178
     3  N    0.071108   0.678867   0.048312  -0.083154  -0.002936  -0.020028
     4  C   -0.135435  -8.476310   2.858297  -0.624894   0.042802   0.031833
     5  C    0.505076   2.223755  -0.787810   0.013428  -0.003746  -0.023577
     6  O   -0.131957  -0.113201   0.032199   0.010451   0.000067   0.000547
     7  O    7.965123  -0.054224  -0.010098  -0.008618  -0.000005   0.000452
     8  C   -0.054224  21.848740  -7.585795  -0.743244  -0.127434  -0.251567
     9  C   -0.010098  -7.585795  14.445563  -3.889026  -0.045360   0.267844
    10  C   -0.008618  -0.743244  -3.889026  11.040664   0.456338  -0.463597
    11  N   -0.000005  -0.127434  -0.045360   0.456338   6.561984   0.354250
    12  C    0.000452  -0.251567   0.267844  -0.463597   0.354250   5.402406
    13  N    0.001428   0.017062  -0.148183   0.088297   0.031669   0.133880
    14  C    0.025059  -0.047901  -0.032135  -0.036208   0.000078   0.012577
    15  C   -0.010750   0.009473  -0.024548  -0.009029  -0.000055   0.003562
    16  N    0.011275   0.079377  -0.020294  -0.005922  -0.000067   0.000429
    17  H    0.004851   0.099009   0.012029   0.031866  -0.000552  -0.007350
    18  H   -0.018457  -0.489916   0.084316   0.052224   0.000722   0.014440
    19  H   -0.011729   0.007076   0.005210   0.000734   0.000021   0.000081
    20  H   -0.005384   0.119986  -0.071535  -0.052242   0.001906   0.011278
    21  H    0.010840   0.700861  -0.061660  -0.092360  -0.000207   0.004649
    22  H   -0.000187   0.020002  -0.258421   0.608351  -0.077770   0.029165
    23  H    0.000030  -0.019222   0.092571  -0.032569  -0.068252   0.458463
    24  H   -0.000279   0.100436  -0.169429   0.071042   0.011477  -0.062188
    25  H    0.000351   0.001040  -0.002588  -0.002372  -0.000215  -0.001851
    26  H    0.000030  -0.000011  -0.001188  -0.003494   0.000071   0.000693
    27  H    0.002408  -0.000751  -0.000303   0.002199   0.000015  -0.000537
    28  H   -0.000365   0.004185  -0.000894  -0.000215  -0.000018   0.000261
    29  H    0.001839  -0.008260   0.001551  -0.000399   0.000023   0.000096
    30  H   -0.002372  -0.011231   0.000720  -0.000662   0.000011   0.000045
              13         14         15         16         17         18
     1  O   -0.047598  -0.011710   0.012672  -0.002026   0.002173   0.015148
     2  C    0.053462  -0.764189  -0.237951  -0.040551  -0.008502   0.005599
     3  N    0.059924  -0.624747  -0.078899   0.111999   0.363568  -0.274600
     4  C   -0.256213  -0.264814  -0.001377  -0.174188  -0.187713   0.979490
     5  C   -0.013052  -0.022439   0.023894   0.028649  -0.004144  -0.189804
     6  O   -0.001231   0.004310  -0.002620   0.000554   0.001386  -0.020955
     7  O    0.001428   0.025059  -0.010750   0.011275   0.004851  -0.018457
     8  C    0.017062  -0.047901   0.009473   0.079377   0.099009  -0.489916
     9  C   -0.148183  -0.032135  -0.024548  -0.020294   0.012029   0.084316
    10  C    0.088297  -0.036208  -0.009029  -0.005922   0.031866   0.052224
    11  N    0.031669   0.000078  -0.000055  -0.000067  -0.000552   0.000722
    12  C    0.133880   0.012577   0.003562   0.000429  -0.007350   0.014440
    13  N    7.030711  -0.038261  -0.005488   0.001959  -0.000954  -0.003615
    14  C   -0.038261   7.130461   0.190402   0.022154  -0.024738   0.019368
    15  C   -0.005488   0.190402   5.672241   0.160924  -0.013111  -0.005459
    16  N    0.001959   0.022154   0.160924   6.785275  -0.102765  -0.003183
    17  H   -0.000954  -0.024738  -0.013111  -0.102765   0.431444  -0.036588
    18  H   -0.003615   0.019368  -0.005459  -0.003183  -0.036588   0.582762
    19  H   -0.000452  -0.000887  -0.000362   0.000519  -0.001431   0.005775
    20  H    0.007395   0.006888   0.001746   0.003089  -0.041478   0.049885
    21  H    0.013281   0.004334  -0.000029  -0.000246   0.012284  -0.053019
    22  H    0.026466  -0.001203  -0.000142  -0.000172   0.001818  -0.001370
    23  H   -0.120762   0.001277   0.000089   0.000082  -0.000444   0.001184
    24  H    0.357724   0.031028   0.000337  -0.000735   0.002975  -0.017397
    25  H    0.000923   0.440943  -0.044983  -0.007673  -0.000945  -0.002000
    26  H    0.002188   0.406371  -0.025003   0.010484  -0.007748   0.000658
    27  H   -0.000387  -0.073387   0.446617  -0.052424   0.002840   0.000173
    28  H   -0.000176  -0.034146   0.390084  -0.055042  -0.005488  -0.000704
    29  H    0.000141  -0.008044  -0.023283   0.359093   0.006185   0.000817
    30  H   -0.000133   0.001080  -0.040689   0.367989   0.008703   0.001587
              19         20         21         22         23         24
     1  O   -0.000085  -0.000632   0.001166   0.000390  -0.002542   0.079165
     2  C   -0.005900   0.013447   0.008488  -0.001779   0.000255   0.007294
     3  N   -0.000790  -0.094853   0.067072   0.001029  -0.000346  -0.003668
     4  C   -0.178662   0.483613  -0.388741  -0.056367   0.010627  -0.156609
     5  C    0.191001  -0.132097   0.053351   0.007431  -0.000767   0.019417
     6  O    0.215072  -0.006508   0.021294   0.000260   0.000043   0.001109
     7  O   -0.011729  -0.005384   0.010840  -0.000187   0.000030  -0.000279
     8  C    0.007076   0.119986   0.700861   0.020002  -0.019222   0.100436
     9  C    0.005210  -0.071535  -0.061660  -0.258421   0.092571  -0.169429
    10  C    0.000734  -0.052242  -0.092360   0.608351  -0.032569   0.071042
    11  N    0.000021   0.001906  -0.000207  -0.077770  -0.068252   0.011477
    12  C    0.000081   0.011278   0.004649   0.029165   0.458463  -0.062188
    13  N   -0.000452   0.007395   0.013281   0.026466  -0.120762   0.357724
    14  C   -0.000887   0.006888   0.004334  -0.001203   0.001277   0.031028
    15  C   -0.000362   0.001746  -0.000029  -0.000142   0.000089   0.000337
    16  N    0.000519   0.003089  -0.000246  -0.000172   0.000082  -0.000735
    17  H   -0.001431  -0.041478   0.012284   0.001818  -0.000444   0.002975
    18  H    0.005775   0.049885  -0.053019  -0.001370   0.001184  -0.017397
    19  H    0.479375  -0.000507  -0.003704   0.000115   0.000005  -0.000470
    20  H   -0.000507   0.612365  -0.084885  -0.007234   0.000865  -0.007850
    21  H   -0.003704  -0.084885   0.579482   0.000117  -0.000254   0.008863
    22  H    0.000115  -0.007234   0.000117   0.572389  -0.001688   0.003908
    23  H    0.000005   0.000865  -0.000254  -0.001688   0.537384  -0.016226
    24  H   -0.000470  -0.007850   0.008863   0.003908  -0.016226   0.408884
    25  H    0.000006  -0.001024   0.000356  -0.000080   0.000083  -0.002222
    26  H    0.000037   0.000859  -0.000122  -0.000041   0.000050  -0.000477
    27  H    0.000192  -0.000691   0.000079   0.000035  -0.000050   0.000702
    28  H   -0.000019   0.000101  -0.000021  -0.000002   0.000030  -0.000380
    29  H    0.000038   0.000577  -0.000218  -0.000004   0.000001  -0.000218
    30  H   -0.000008   0.000814  -0.000198  -0.000034   0.000005  -0.000120
              25         26         27         28         29         30
     1  O    0.002463  -0.007073   0.001255   0.000159  -0.000153  -0.000250
     2  C   -0.118837  -0.021751  -0.013803  -0.008758  -0.010264   0.005606
     3  N    0.019270   0.013388   0.005303   0.006880   0.000616  -0.013129
     4  C   -0.000775  -0.005158  -0.015647  -0.007883   0.008133   0.040130
     5  C    0.005006  -0.000019   0.006183   0.001064   0.001483  -0.012275
     6  O   -0.000032  -0.000004   0.000733  -0.000001   0.000100   0.000033
     7  O    0.000351   0.000030   0.002408  -0.000365   0.001839  -0.002372
     8  C    0.001040  -0.000011  -0.000751   0.004185  -0.008260  -0.011231
     9  C   -0.002588  -0.001188  -0.000303  -0.000894   0.001551   0.000720
    10  C   -0.002372  -0.003494   0.002199  -0.000215  -0.000399  -0.000662
    11  N   -0.000215   0.000071   0.000015  -0.000018   0.000023   0.000011
    12  C   -0.001851   0.000693  -0.000537   0.000261   0.000096   0.000045
    13  N    0.000923   0.002188  -0.000387  -0.000176   0.000141  -0.000133
    14  C    0.440943   0.406371  -0.073387  -0.034146  -0.008044   0.001080
    15  C   -0.044983  -0.025003   0.446617   0.390084  -0.023283  -0.040689
    16  N   -0.007673   0.010484  -0.052424  -0.055042   0.359093   0.367989
    17  H   -0.000945  -0.007748   0.002840  -0.005488   0.006185   0.008703
    18  H   -0.002000   0.000658   0.000173  -0.000704   0.000817   0.001587
    19  H    0.000006   0.000037   0.000192  -0.000019   0.000038  -0.000008
    20  H   -0.001024   0.000859  -0.000691   0.000101   0.000577   0.000814
    21  H    0.000356  -0.000122   0.000079  -0.000021  -0.000218  -0.000198
    22  H   -0.000080  -0.000041   0.000035  -0.000002  -0.000004  -0.000034
    23  H    0.000083   0.000050  -0.000050   0.000030   0.000001   0.000005
    24  H   -0.002222  -0.000477   0.000702  -0.000380  -0.000218  -0.000120
    25  H    0.538637  -0.018141   0.011293  -0.011298   0.003843  -0.001344
    26  H   -0.018141   0.480214  -0.006112  -0.000410   0.000193  -0.000599
    27  H    0.011293  -0.006112   0.539000  -0.030702   0.008666  -0.011925
    28  H   -0.011298  -0.000410  -0.030702   0.581985  -0.010494   0.006590
    29  H    0.003843   0.000193   0.008666  -0.010494   0.459726  -0.031617
    30  H   -0.001344  -0.000599  -0.011925   0.006590  -0.031617   0.438818
 Mulliken charges:
               1
     1  O   -0.343058
     2  C   -0.150118
     3  N   -0.008792
     4  C   -0.056590
     5  C   -0.216048
     6  O   -0.119531
     7  O   -0.245865
     8  C   -1.731254
     9  C    1.265714
    10  C   -0.307295
    11  N   -0.131400
    12  C    0.103567
    13  N   -0.190005
    14  C   -0.311519
    15  C   -0.388263
    16  N   -0.478563
    17  H    0.462822
    18  H    0.302917
    19  H    0.299748
    20  H    0.192107
    21  H    0.199149
    22  H    0.135015
    23  H    0.160079
    24  H    0.333907
    25  H    0.192163
    26  H    0.182117
    27  H    0.179029
    28  H    0.175677
    29  H    0.239832
    30  H    0.254455
 Sum of Mulliken charges =   0.00000
 Mulliken charges with hydrogens summed into heavy atoms:
               1
     1  O   -0.343058
     2  C   -0.150118
     3  N    0.454030
     4  C    0.246327
     5  C   -0.216048
     6  O    0.180217
     7  O   -0.245865
     8  C   -1.339998
     9  C    1.265714
    10  C   -0.172280
    11  N   -0.131400
    12  C    0.263646
    13  N    0.143902
    14  C    0.062761
    15  C   -0.033556
    16  N    0.015725
 APT charges:
               1
     1  O   -0.323002
     2  C   -0.032923
     3  N   -0.471053
     4  C   -0.039592
     5  C   -0.478276
     6  O   -0.553578
     7  O   -0.134003
     8  C   -2.314671
     9  C    1.665953
    10  C   -1.079795
    11  N    0.116257
    12  C   -0.303688
    13  N   -0.636095
    14  C   -0.781309
    15  C   -1.108807
    16  N   -1.488789
    17  H    0.618693
    18  H    0.484405
    19  H    0.977482
    20  H    0.354742
    21  H    0.582983
    22  H    0.679134
    23  H    0.719345
    24  H    0.179244
    25  H    0.313455
    26  H    0.597866
    27  H    0.291640
    28  H    0.742646
    29  H    0.736641
    30  H    0.685093
 Sum of APT charges =   0.00000
 APT charges with hydrogens summed into heavy atoms:
               1
     1  O   -0.323002
     2  C   -0.032923
     3  N    0.147639
     4  C    0.444813
     5  C   -0.478276
     6  O    0.423904
     7  O   -0.134003
     8  C   -1.376946
     9  C    1.665953
    10  C   -0.400661
    11  N    0.116257
    12  C    0.415657
    13  N   -0.456851
    14  C    0.130012
    15  C   -0.074521
    16  N   -0.067055
 Electronic spatial extent (au):  <R**2>=           4042.7619
 Charge=              0.0000 electrons
 Dipole moment (field-independent basis, Debye):
    X=              4.1416    Y=              5.7677    Z=              0.5038  Tot=              7.1185
 Quadrupole moment (field-independent basis, Debye-Ang):
   XX=            -87.2471   YY=           -111.3756   ZZ=            -93.6871
   XY=             -9.5034   XZ=             -5.9500   YZ=              6.8481
 Traceless Quadrupole moment (field-independent basis, Debye-Ang):
   XX=             10.1895   YY=            -13.9390   ZZ=              3.7495
   XY=             -9.5034   XZ=             -5.9500   YZ=              6.8481
 Octapole moment (field-independent basis, Debye-Ang**2):
  XXX=            157.4119  YYY=            179.3271  ZZZ=              8.1844  XYY=             64.4925
  XXY=             59.7777  XXZ=            -12.5561  XZZ=             28.2312  YZZ=             13.9288
  YYZ=            -27.3853  XYZ=            -25.8156
 Hexadecapole moment (field-independent basis, Debye-Ang**3):
 XXXX=          -1695.3706 YYYY=          -2923.0850 ZZZZ=          -1086.8351 XXXY=           -542.4553
 XXXZ=            349.3876 YYYX=           -802.2282 YYYZ=            177.7613 ZZZX=            277.0482
 ZZZY=              5.6998 XXYY=           -764.0177 XXZZ=           -447.1258 YYZZ=           -526.4381
 XXYZ=             48.7256 YYXZ=            118.0131 ZZXY=           -175.1224
 N-N= 1.148304197303D+03 E-N=-4.157668454659D+03  KE= 7.935480318828D+02
  Exact polarizability:   0.000   0.000   0.000   0.000   0.000   0.000
 Approx polarizability: 189.531  16.393 206.855   2.854   9.276 218.721
 Calling FoFJK, ICntrl=    100147 FMM=F ISym2X=0 I1Cent= 0 IOpClX= 0 NMat=1 NMatS=1 NMatT=0.
 -------------------------------------------------------------------
 Center     Atomic                   Forces (Hartrees/Bohr)
 Number     Number              X              Y              Z
 -------------------------------------------------------------------
      1        8          -0.004563490   -0.001183293   -0.003713756
      2        6           0.006264493   -0.006607307   -0.006086965
      3        7          -0.002798749    0.003929493    0.003808405
      4        6           0.000992160   -0.002336166    0.000822518
      5        6           0.001662810    0.002863733    0.000060598
      6        8           0.000330916   -0.001053603   -0.001290822
      7        8          -0.000697392    0.000491854   -0.000433397
      8        6          -0.005941108   -0.006483766    0.003537158
      9        6           0.002742691    0.009586862    0.002563972
     10        6          -0.001512917   -0.010853579    0.007422554
     11        7          -0.000677835    0.000102490    0.004340509
     12        6          -0.000876583   -0.006409366   -0.006009431
     13        7           0.001253810    0.006719941   -0.003698240
     14        6          -0.001489065   -0.000493379    0.000873250
     15        6           0.002227644    0.002727146   -0.000165252
     16        7          -0.002361266    0.001867137   -0.000998738
     17        1           0.004228051    0.000705217    0.003516210
     18        1          -0.000503406    0.000358413   -0.000788087
     19        1          -0.002070180    0.004091090    0.002922844
     20        1           0.002608053    0.000340647    0.000388409
     21        1          -0.001104101    0.000954695   -0.000132684
     22        1           0.000274423    0.000870796   -0.000596320
     23        1          -0.000229480   -0.001682223   -0.001646039
     24        1           0.000119548    0.002898082   -0.004791473
     25        1          -0.001721796   -0.001387944   -0.000991428
     26        1           0.000736185   -0.000114327   -0.000078144
     27        1           0.000214069    0.000791550    0.000667076
     28        1           0.000293774    0.000089814   -0.001652250
     29        1           0.002532502   -0.003110652   -0.000016744
     30        1           0.000066242    0.002326644    0.002166266
 -------------------------------------------------------------------
 Cartesian Forces:  Max     0.010853579 RMS     0.003189066
 FormGI is forming the generalized inverse of G from B-inverse, IUseBI=4.

 GradGradGradGradGradGradGradGradGradGradGradGradGradGradGradGradGradGrad
 Berny optimization.
 Internal  Forces:  Max     0.010665660 RMS     0.002544321
 Search for a local minimum.
 Step number   1 out of a maximum of  160
 All quantities printed in internal units (Hartrees-Bohrs-Radians)
 Mixed Optimization -- RFO/linear search
 Second derivative matrix not updated -- analytic derivatives used.
 ITU=  0
     Eigenvalues ---    0.00020   0.00072   0.00183   0.00287   0.00545
     Eigenvalues ---    0.00576   0.00857   0.00932   0.01151   0.01847
     Eigenvalues ---    0.01980   0.01996   0.02796   0.03062   0.03065
     Eigenvalues ---    0.03799   0.03827   0.04231   0.04286   0.04396
     Eigenvalues ---    0.04549   0.05248   0.05380   0.05560   0.05655
     Eigenvalues ---    0.05835   0.06213   0.06400   0.07664   0.08339
     Eigenvalues ---    0.08420   0.10690   0.11218   0.11482   0.11852
     Eigenvalues ---    0.12637   0.13551   0.14010   0.14785   0.15507
     Eigenvalues ---    0.16266   0.17175   0.18516   0.19065   0.21307
     Eigenvalues ---    0.21589   0.22263   0.23281   0.23749   0.24342
     Eigenvalues ---    0.25197   0.25881   0.26903   0.28066   0.29998
     Eigenvalues ---    0.31685   0.32313   0.32963   0.33067   0.33275
     Eigenvalues ---    0.33940   0.34233   0.34325   0.34524   0.34859
     Eigenvalues ---    0.35568   0.36895   0.37431   0.38018   0.40791
     Eigenvalues ---    0.41156   0.41964   0.43548   0.46188   0.46260
     Eigenvalues ---    0.46484   0.48161   0.50138   0.52752   0.57471
     Eigenvalues ---    0.59566   0.63427   0.79260   0.86671
 RFO step:  Lambda=-3.66249113D-03 EMin= 1.95800699D-04
 Linear search not attempted -- first point.
 Iteration  1 RMS(Cart)=  0.08664086 RMS(Int)=  0.00237079
 Iteration  2 RMS(Cart)=  0.00443671 RMS(Int)=  0.00025754
 Iteration  3 RMS(Cart)=  0.00001177 RMS(Int)=  0.00025744
 Iteration  4 RMS(Cart)=  0.00000000 RMS(Int)=  0.00025744
 Variable       Old X    -DE/DX   Delta X   Delta X   Delta X     New X
                                 (Linear)    (Quad)   (Total)
    R1        2.32301   0.00600   0.00000   0.00848   0.00848   2.33149
    R2        2.54166   0.01067   0.00000   0.01477   0.01477   2.55643
    R3        2.88054   0.00070   0.00000  -0.00587  -0.00587   2.87467
    R4        2.72801   0.00444   0.00000   0.00583   0.00583   2.73385
    R5        1.92505   0.00538   0.00000   0.01043   0.01043   1.93547
    R6        2.85966   0.00622   0.00000   0.01736   0.01736   2.87702
    R7        2.89625   0.00455   0.00000   0.02235   0.02235   2.91860
    R8        2.06080   0.00093   0.00000   0.00336   0.00336   2.06416
    R9        2.54536   0.00293   0.00000   0.00506   0.00506   2.55042
   R10        2.27973  -0.00040   0.00000  -0.00272  -0.00272   2.27701
   R11        1.82391   0.00471   0.00000   0.00766   0.00766   1.83157
   R12        2.83844  -0.00034   0.00000  -0.00279  -0.00279   2.83565
   R13        2.06348   0.00208   0.00000   0.00540   0.00540   2.06888
   R14        2.06392   0.00115   0.00000   0.00292   0.00292   2.06684
   R15        2.57923   0.00998   0.00000   0.02020   0.02018   2.59942
   R16        2.59396   0.00942   0.00000   0.01598   0.01603   2.60999
   R17        2.60857   0.00052   0.00000  -0.00648  -0.00653   2.60204
   R18        2.04211  -0.00077   0.00000  -0.00213  -0.00213   2.03998
   R19        2.47688   0.00629   0.00000   0.00875   0.00873   2.48562
   R20        2.56030   0.00948   0.00000   0.01904   0.01908   2.57938
   R21        2.03374   0.00222   0.00000   0.00511   0.00511   2.03884
   R22        1.91387   0.00542   0.00000   0.01510   0.01510   1.92897
   R23        2.89014   0.00517   0.00000   0.01097   0.01097   2.90111
   R24        2.07040   0.00010   0.00000   0.00158   0.00158   2.07198
   R25        2.06002   0.00002   0.00000   0.00064   0.00064   2.06066
   R26        2.78523   0.00104   0.00000  -0.00083  -0.00083   2.78440
   R27        2.06426   0.00047   0.00000   0.00101   0.00101   2.06527
   R28        2.06863   0.00114   0.00000   0.00407   0.00407   2.07270
   R29        1.90908   0.00375   0.00000   0.00829   0.00829   1.91737
   R30        1.90944   0.00304   0.00000   0.00600   0.00600   1.91544
    A1        2.14479  -0.00159   0.00000   0.00159   0.00156   2.14635
    A2        2.12383  -0.00183   0.00000  -0.00483  -0.00487   2.11896
    A3        2.01362   0.00343   0.00000   0.00389   0.00385   2.01747
    A4        2.12440   0.00002   0.00000   0.01136   0.00965   2.13405
    A5        2.01454   0.00130   0.00000   0.01280   0.01102   2.02556
    A6        2.06741  -0.00062   0.00000   0.01529   0.01355   2.08096
    A7        1.90212   0.00016   0.00000  -0.00159  -0.00182   1.90029
    A8        1.97089  -0.00247   0.00000   0.00752   0.00741   1.97830
    A9        1.89240   0.00076   0.00000  -0.00670  -0.00673   1.88568
   A10        1.89454   0.00397   0.00000   0.02047   0.02042   1.91496
   A11        1.89063  -0.00139   0.00000  -0.01310  -0.01308   1.87755
   A12        1.91175  -0.00103   0.00000  -0.00757  -0.00747   1.90427
   A13        1.94806   0.00056   0.00000  -0.00441  -0.00442   1.94364
   A14        2.18773   0.00035   0.00000   0.00140   0.00138   2.18911
   A15        2.14714  -0.00089   0.00000   0.00320   0.00319   2.15033
   A16        1.85213   0.00492   0.00000   0.02511   0.02511   1.87724
   A17        2.00657  -0.00611   0.00000  -0.00907  -0.00914   1.99743
   A18        1.90652   0.00011   0.00000  -0.01431  -0.01441   1.89211
   A19        1.88539   0.00193   0.00000  -0.00469  -0.00463   1.88076
   A20        1.90803   0.00264   0.00000  -0.00099  -0.00120   1.90683
   A21        1.90089   0.00194   0.00000   0.01680   0.01679   1.91767
   A22        1.84994  -0.00008   0.00000   0.01440   0.01433   1.86427
   A23        2.27822   0.00072   0.00000  -0.00385  -0.00391   2.27431
   A24        2.17499  -0.00127   0.00000   0.00294   0.00287   2.17786
   A25        1.82955   0.00054   0.00000   0.00052   0.00056   1.83011
   A26        1.93605  -0.00109   0.00000  -0.00167  -0.00169   1.93437
   A27        2.23749  -0.00024   0.00000  -0.00842  -0.00841   2.22909
   A28        2.10964   0.00133   0.00000   0.01008   0.01009   2.11973
   A29        1.82748   0.00378   0.00000   0.00890   0.00887   1.83635
   A30        1.95411  -0.00119   0.00000  -0.00253  -0.00247   1.95165
   A31        2.20423  -0.00023   0.00000  -0.00455  -0.00458   2.19965
   A32        2.12484   0.00142   0.00000   0.00707   0.00704   2.13188
   A33        1.87755  -0.00205   0.00000  -0.00522  -0.00529   1.87226
   A34        2.19776   0.00208   0.00000   0.00783   0.00755   2.20530
   A35        2.20533   0.00000   0.00000  -0.00504  -0.00527   2.20006
   A36        1.98252   0.00554   0.00000   0.02720   0.02712   2.00964
   A37        1.90567  -0.00302   0.00000  -0.02137  -0.02164   1.88403
   A38        1.85657  -0.00136   0.00000   0.00071   0.00064   1.85722
   A39        1.89586   0.00067   0.00000   0.01455   0.01464   1.91050
   A40        1.93699  -0.00225   0.00000  -0.00902  -0.00905   1.92794
   A41        1.88364   0.00011   0.00000  -0.01486  -0.01492   1.86872
   A42        1.94338   0.00042   0.00000  -0.00170  -0.00169   1.94169
   A43        1.90195   0.00106   0.00000   0.00724   0.00724   1.90919
   A44        1.90843  -0.00133   0.00000  -0.01318  -0.01316   1.89526
   A45        1.88675  -0.00076   0.00000  -0.00663  -0.00662   1.88013
   A46        1.95491   0.00072   0.00000   0.01353   0.01353   1.96844
   A47        1.86605  -0.00009   0.00000   0.00099   0.00101   1.86706
   A48        1.94703  -0.00093   0.00000  -0.00279  -0.00281   1.94421
   A49        1.93380   0.00171   0.00000   0.01145   0.01143   1.94523
   A50        1.87429   0.00028   0.00000   0.00635   0.00631   1.88061
    D1       -0.29404   0.00073   0.00000   0.08143   0.08150  -0.21254
    D2       -3.01783  -0.00093   0.00000  -0.02402  -0.02405  -3.04188
    D3        2.89336   0.00046   0.00000   0.06571   0.06575   2.95911
    D4        0.16957  -0.00121   0.00000  -0.03973  -0.03980   0.12977
    D5        2.37374  -0.00101   0.00000   0.04012   0.04028   2.41402
    D6       -1.79069   0.00140   0.00000   0.06165   0.06150  -1.72919
    D7        0.23780  -0.00069   0.00000   0.03397   0.03400   0.27180
    D8       -0.81306  -0.00074   0.00000   0.05581   0.05594  -0.75711
    D9        1.30570   0.00168   0.00000   0.07734   0.07716   1.38286
   D10       -2.94900  -0.00042   0.00000   0.04966   0.04966  -2.89933
   D11       -2.07651  -0.00068   0.00000  -0.08008  -0.08023  -2.15674
   D12        2.09984  -0.00421   0.00000  -0.10979  -0.10989   1.98995
   D13       -0.02200  -0.00183   0.00000  -0.10041  -0.10052  -0.12252
   D14        0.63516   0.00147   0.00000   0.02782   0.02792   0.66308
   D15       -1.47168  -0.00205   0.00000  -0.00188  -0.00174  -1.47342
   D16        2.68967   0.00033   0.00000   0.00750   0.00763   2.69730
   D17        2.93035   0.00016   0.00000   0.00428   0.00428   2.93463
   D18       -0.23534   0.00049   0.00000   0.01307   0.01308  -0.22227
   D19       -1.19980  -0.00027   0.00000   0.02548   0.02552  -1.17428
   D20        1.91770   0.00006   0.00000   0.03427   0.03431   1.95201
   D21        0.87471  -0.00005   0.00000   0.02054   0.02050   0.89521
   D22       -2.29098   0.00027   0.00000   0.02934   0.02929  -2.26169
   D23       -1.13366   0.00087   0.00000   0.02047   0.02049  -1.11317
   D24        1.01835   0.00002   0.00000   0.00136   0.00147   1.01982
   D25        3.02306   0.00101   0.00000   0.00839   0.00844   3.03150
   D26        3.03837  -0.00050   0.00000   0.00342   0.00331   3.04168
   D27       -1.09280  -0.00135   0.00000  -0.01570  -0.01572  -1.10852
   D28        0.91191  -0.00035   0.00000  -0.00867  -0.00874   0.90317
   D29        0.97721  -0.00054   0.00000   0.01161   0.01157   0.98878
   D30        3.12923  -0.00139   0.00000  -0.00751  -0.00746   3.12177
   D31       -1.14925  -0.00039   0.00000  -0.00048  -0.00048  -1.14973
   D32        3.12223  -0.00013   0.00000  -0.00602  -0.00602   3.11621
   D33        0.00408  -0.00047   0.00000  -0.01455  -0.01456  -0.01048
   D34        3.04546  -0.00124   0.00000  -0.08511  -0.08511   2.96035
   D35       -0.13212  -0.00144   0.00000  -0.10194  -0.10190  -0.23402
   D36        0.89426   0.00097   0.00000  -0.05887  -0.05885   0.83540
   D37       -2.28332   0.00077   0.00000  -0.07570  -0.07565  -2.35897
   D38       -1.11968  -0.00144   0.00000  -0.08475  -0.08482  -1.20449
   D39        1.98593  -0.00165   0.00000  -0.10157  -0.10161   1.88432
   D40        3.11732  -0.00029   0.00000  -0.01692  -0.01684   3.10048
   D41       -0.02334  -0.00016   0.00000  -0.01392  -0.01390  -0.03723
   D42        0.00636  -0.00009   0.00000  -0.00266  -0.00263   0.00373
   D43       -3.13430   0.00004   0.00000   0.00034   0.00031  -3.13398
   D44       -3.12099   0.00017   0.00000   0.01301   0.01302  -3.10797
   D45        0.09353  -0.00016   0.00000   0.04810   0.04825   0.14178
   D46       -0.00768   0.00002   0.00000  -0.00031  -0.00032  -0.00801
   D47       -3.07635  -0.00031   0.00000   0.03478   0.03490  -3.04145
   D48       -0.00248   0.00013   0.00000   0.00465   0.00464   0.00216
   D49        3.13826   0.00001   0.00000   0.00190   0.00190   3.14016
   D50       -0.00263  -0.00012   0.00000  -0.00487  -0.00487  -0.00750
   D51        3.13737   0.00010   0.00000  -0.00836  -0.00830   3.12907
   D52        0.00669   0.00006   0.00000   0.00338   0.00336   0.01005
   D53        3.07495   0.00050   0.00000  -0.03121  -0.03104   3.04391
   D54       -3.13339  -0.00015   0.00000   0.00670   0.00664  -3.12674
   D55       -0.06513   0.00030   0.00000  -0.02789  -0.02776  -0.09288
   D56        1.20284   0.00008   0.00000  -0.01145  -0.01135   1.19149
   D57       -0.87679   0.00008   0.00000  -0.00685  -0.00675  -0.88353
   D58       -2.91078   0.00034   0.00000  -0.00474  -0.00462  -2.91540
   D59       -0.92139  -0.00024   0.00000  -0.01274  -0.01286  -0.93425
   D60       -3.00101  -0.00024   0.00000  -0.00814  -0.00826  -3.00927
   D61        1.24818   0.00002   0.00000  -0.00603  -0.00614   1.24205
   D62       -2.98951   0.00053   0.00000   0.00176   0.00177  -2.98774
   D63        1.21405   0.00054   0.00000   0.00636   0.00637   1.22042
   D64       -0.81994   0.00080   0.00000   0.00848   0.00849  -0.81145
   D65        1.50386  -0.00135   0.00000  -0.08503  -0.08505   1.41881
   D66       -2.69209  -0.00047   0.00000  -0.07120  -0.07120  -2.76329
   D67       -2.69066  -0.00028   0.00000  -0.08137  -0.08137  -2.77203
   D68       -0.60342   0.00060   0.00000  -0.06753  -0.06752  -0.67094
   D69       -0.63925  -0.00045   0.00000  -0.07647  -0.07647  -0.71572
   D70        1.44799   0.00043   0.00000  -0.06264  -0.06262   1.38537
         Item               Value     Threshold  Converged?
 Maximum Force            0.010666     0.000450     NO 
 RMS     Force            0.002544     0.000300     NO 
 Maximum Displacement     0.423762     0.001800     NO 
 RMS     Displacement     0.086608     0.001200     NO 
 Predicted change in Energy=-2.120708D-03
 GradGradGradGradGradGradGradGradGradGradGradGradGradGradGradGradGradGrad

                          Input orientation:                          
 ---------------------------------------------------------------------
 Center     Atomic      Atomic             Coordinates (Angstroms)
 Number     Number       Type             X           Y           Z
 ---------------------------------------------------------------------
      1          8           0       -0.499011   -0.023608   -2.141159
      2          6           0        0.448225    0.264662   -1.405059
      3          7           0        0.304801    0.510110   -0.082464
      4          6           0       -0.990600    0.708327    0.530361
      5          6           0       -1.000093    2.056794    1.237052
      6          8           0       -2.249653    2.410511    1.604435
      7          8           0       -0.028907    2.732354    1.465753
      8          6           0       -1.372197   -0.406159    1.529187
      9          6           0       -1.527638   -1.765569    0.913126
     10          6           0       -1.668051   -2.999657    1.504275
     11          7           0       -1.833906   -3.981920    0.553689
     12          6           0       -1.792321   -3.354699   -0.601717
     13          7           0       -1.616624   -2.010416   -0.443231
     14          6           0        1.873184    0.325945   -1.934036
     15          6           0        2.710193    1.505143   -1.418519
     16          7           0        3.000763    1.365615    0.019233
     17          1           0        1.144865    0.827815    0.409837
     18          1           0       -1.738566    0.747344   -0.264724
     19          1           0       -2.189004    3.260229    2.066710
     20          1           0       -0.605160   -0.448870    2.309205
     21          1           0       -2.304773   -0.110767    2.018344
     22          1           0       -1.661854   -3.231436    2.558594
     23          1           0       -1.877841   -3.811655   -1.575331
     24          1           0       -1.473848   -1.330863   -1.191423
     25          1           0        2.370623   -0.616138   -1.674760
     26          1           0        1.797019    0.359027   -3.021323
     27          1           0        2.151556    2.434298   -1.556408
     28          1           0        3.617650    1.583408   -2.029602
     29          1           0        3.783872    0.740731    0.179648
     30          1           0        3.227389    2.259434    0.440095
 ---------------------------------------------------------------------
                    Distance matrix (angstroms):
                    1          2          3          4          5
     1  O    0.000000
     2  C    1.233774   0.000000
     3  N    2.273586   1.352802   0.000000
     4  C    2.813255   2.452122   1.446689   0.000000
     5  C    3.998932   3.505725   2.415802   1.522454   0.000000
     6  O    4.797829   4.576054   3.603108   2.374086   1.349625
     7  O    4.563566   3.815589   2.728865   2.428271   1.204943
     8  C    3.792128   3.517632   2.499858   1.544457   2.507975
     9  C    3.663489   3.660581   3.086705   2.560289   3.872169
    10  C    4.848990   4.857842   4.327626   3.893147   5.107374
    11  N    4.971155   5.203679   5.015685   4.765514   6.134191
    12  C    3.890848   4.331880   4.427674   4.293313   5.770004
    13  N    2.842432   3.219425   3.189840   2.954885   4.443608
    14  C    2.406740   1.521210   2.433528   3.797463   4.615989
    15  C    3.627434   2.579821   2.925926   4.257807   4.595933
    16  N    4.341158   3.123485   2.830272   4.077286   4.238827
    17  H    3.151956   2.023931   1.024209   2.142199   2.606821
    18  H    2.377366   2.513045   2.065151   1.092307   2.124931
    19  H    5.598734   5.289761   4.289658   3.210724   1.884171
    20  H    4.471895   3.926131   2.732718   2.156839   2.753876
    21  H    4.535398   4.409040   3.407163   2.147571   2.647816
    22  H    5.807756   5.690842   4.984183   4.481745   5.490881
    23  H    4.070704   4.696375   5.066580   5.064718   6.566478
    24  H    1.887119   2.507130   2.789724   2.712261   4.195014
    25  H    2.967055   2.131704   2.841032   4.232562   5.194702
    26  H    2.488544   2.107240   3.299460   4.528498   5.370289
    27  H    3.661795   2.762528   3.047214   4.148099   4.228334
    28  H    4.420615   3.489183   3.989772   5.343701   5.676149
    29  H    4.930866   3.723503   3.496544   4.787445   5.073109
    30  H    5.075550   3.886831   3.445971   4.495054   4.306716
                    6          7          8          9         10
     6  O    0.000000
     7  O    2.248227   0.000000
     8  C    2.951139   3.414486   0.000000
     9  C    4.294050   4.773144   1.500563   0.000000
    10  C    5.442262   5.961898   2.610437   1.375553   0.000000
    11  N    6.491540   7.012229   3.735082   2.266099   1.376940
    12  C    6.189824   6.666054   3.662123   2.211366   2.139323
    13  N    4.913071   5.353404   2.554177   1.381149   2.184954
    14  C    5.819277   4.579009   4.802331   4.903708   5.951634
    15  C    5.878607   4.162661   5.385903   5.838950   6.928562
    16  N    5.583147   3.624817   4.953980   5.577614   6.561918
    17  H    3.931252   2.473857   3.018482   3.757820   4.874405
    18  H    2.553643   3.139705   2.164004   2.783263   4.144194
    19  H    0.969224   2.303437   3.794536   5.198731   6.306655
    20  H    3.372998   3.341207   1.094805   2.129248   2.878222
    21  H    2.555622   3.683512   1.093723   2.136309   3.002560
    22  H    5.752173   6.279141   3.020889   2.207792   1.079513
    23  H    6.997465   7.449215   4.635851   3.240606   3.191759
    24  H    4.734615   5.065389   2.875261   2.149648   3.176378
    25  H    6.423447   5.180054   4.931335   4.818173   5.665537
    26  H    6.479335   5.394492   5.597909   5.571997   6.615777
    27  H    5.418683   3.738544   5.477766   6.105240   7.313347
    28  H    6.950940   5.180247   6.443751   6.808031   7.837819
    29  H    6.420405   4.489756   5.451757   5.918756   6.743041
    30  H    5.601472   3.446606   5.426573   6.247775   7.263322
                   11         12         13         14         15
    11  N    0.000000
    12  C    1.315332   0.000000
    13  N    2.219885   1.364949   0.000000
    14  C    6.203950   5.362661   4.456438   0.000000
    15  C    7.392314   6.675168   5.659655   1.535204   0.000000
    16  N    7.228818   6.755783   5.738617   2.483467   1.473442
    17  H    5.659269   5.209964   4.050815   2.505207   2.500383
    18  H    4.800503   4.116213   2.766220   4.001114   4.657999
    19  H    7.407027   7.143888   5.865758   6.412282   6.263329
    20  H    4.132081   4.280965   3.322257   4.974697   5.357766
    21  H    4.165664   4.201240   3.184583   5.767786   6.290714
    22  H    2.147667   3.165404   3.240971   6.733140   7.574127
    23  H    2.136269   1.078910   2.143443   5.596301   7.024456
    24  H    3.194239   2.131922   1.020768   3.807769   5.059713
    25  H    5.828597   5.097180   4.399865   1.096443   2.163515
    26  H    6.693889   5.703474   4.890172   1.090454   2.171739
    27  H    7.842466   7.069518   5.932438   2.159919   1.092894
    28  H    8.207663   7.462676   6.544445   2.152558   1.096825
    29  H    7.348658   6.962543   6.092794   2.879311   2.071533
    30  H    8.036424   7.602720   6.517388   3.347947   2.071447
                   16         17         18         19         20
    16  N    0.000000
    17  H    1.971334   0.000000
    18  H    4.787915   2.962378   0.000000
    19  H    5.891978   4.447084   3.457321   0.000000
    20  H    4.641013   2.880991   3.056247   4.040394   0.000000
    21  H    5.858742   3.920234   2.503866   3.373330   1.757156
    22  H    7.022907   5.382596   4.879313   6.531581   2.986883
    23  H    7.290236   5.882374   4.745688   7.960705   5.293171
    24  H    5.362725   3.752543   2.290805   5.674945   3.713074
    25  H    2.682170   2.816563   4.553319   7.057975   4.975463
[...]
 105107,-0.00057482,-0.00092547,-0.00589011,-0.00187637,-0.00081223,0.0
 0026995,-0.00009096,-0.00060756,-0.00010950,0.00020152,0.00002830,-0.0
 0015915,0.00054577,0.00044641,0.00010621,-0.00005168,-0.00069286,0.000
 40965,0.00015872,0.01968023,-0.01161620,-0.00077895,-0.00294813,-0.005
 23912,0.00250178,-0.00637018,0.00431882,-0.00023476,0.00156475,0.01398
 429,-0.01606435,0.16960286,-0.26948049,-0.00077248,0.00027499,-0.00061
 296,0.00002985,0.00017233,0.00031127,-0.00014460,-0.00003423,-0.000213
 31,0.00050196,-0.00005903,-0.00011998,0.00019049,-0.00081037,0.0006619
 2,0.00004637,-0.00004127,0.00001019,0.00002713,0.00032925,0.00032849,0
 .00008648,0.00030442,-0.00007792,-0.00049358,0.00069632,0.00023641,-0.
 00013151,-0.00020103,-0.00033299,0.01782838,-0.17783501,0.26987878,-0.
 00209628,-0.00463600,0.00161214,-0.01086134,0.03148151,-0.00680981,-0.
 00057276,-0.00145975,0.00113698,0.00014133,-0.00137450,0.00062451,0.00
 017033,-0.00028213,-0.00017701,-0.00004792,0.00004774,0.00003194,0.000
 04946,0.00015504,0.00006660,-0.00040486,0.00035058,0.00004853,-0.00008
 296,0.00011953,-0.00003268,0.00002751,-0.00008715,0.00002908,0.0001233
 0,-0.00011798,0.00006737,-0.00003300,0.00002451,-0.00000476,0.00009947
 ,-0.00025653,0.00015334,-0.07581564,0.08356240,-0.01244436,0.00759589,
 -0.02288701,0.00251756,0.00128450,0.00069084,0.00163526,-0.00041945,0.
 00058620,-0.00007901,0.00003654,-0.00003606,-0.00010584,0.00001083,-0.
 00000970,-0.00000881,0.00000620,-0.00000830,0.00001059,-0.00004991,-0.
 00016582,0.00009908,-0.00000699,-0.00000522,-0.00000187,-0.00006331,-0
 .00003525,-0.00001340,0.00008336,0.00058190,-0.00028467,0.08328322,-0.
 00016376,0.00005755,-0.00040143,0.00191025,-0.00186851,-0.00029785,0.0
 0032163,0.00073351,0.00025681,0.00014334,-0.00000863,-0.00024365,-0.00
 010040,-0.00006606,-0.00000411,0.00004192,0.00000890,0.00000096,0.0000
 5832,0.00008149,-0.00002296,0.00001922,-0.00004113,0.00003529,0.000002
 58,-0.00002828,0.00001228,-0.00002443,0.00001308,-0.00000157,-0.000018
 14,0.00001526,0.00000307,0.00003815,-0.00003420,-0.00000355,0.00005843
 ,0.00004619,0.00000381,0.07932523,-0.26254364,0.03471998,0.00649860,-0
 .02288148,0.00258643,0.00052266,0.00250286,0.00107911,0.00011129,-0.00
 036520,0.00007861,-0.00002465,-0.00000043,0.00003017,-0.00000733,-0.00
 000425,0.00001190,0.00000356,-0.00000238,-0.00000794,-0.00000554,0.000
 00869,-0.00000221,0.00000586,0.00000077,-0.00000362,0.00000032,0.00000
 481,-0.00000083,0.00004128,0.00004325,-0.00008207,-0.08580061,0.289151
 71,-0.00077944,0.00045992,0.00012386,0.00485603,-0.01395642,0.00100710
 ,0.00084064,0.00078380,-0.00125083,-0.00013560,0.00094134,-0.00036732,
 -0.00009003,0.00006489,0.00008831,0.00001107,-0.00000264,0.00000796,-0
 .00000879,-0.00001946,-0.00005559,0.00030109,-0.00018998,-0.00007146,-
 0.00003168,-0.00010920,-0.00005483,-0.00003291,0.00000726,-0.00001497,
 -0.00001291,0.00000210,0.00001014,0.00002873,0.00006894,0.00004751,-0.
 00006295,-0.00000370,0.00003842,-0.01122676,0.03412704,-0.04860638,0.0
 0343474,-0.01429009,0.00049352,0.00118616,-0.00026763,0.00137971,0.000
 55577,-0.00054293,0.00010166,0.00000534,-0.00000187,-0.00000976,-0.000
 00452,0.00000525,0.00000150,0.00000028,-0.00000766,-0.00001336,0.00003
 568,0.00008961,-0.00007398,0.00001442,0.00000161,-0.00000979,-0.000018
 81,-0.00000983,-0.00000126,0.00004773,0.00001856,0.00001481,0.01380076
 ,-0.03647494,0.05132563,0.00193074,0.00104932,-0.00192302,0.00095258,-
 0.00543386,0.03542677,-0.00620999,0.00058501,0.00087515,0.00058568,0.0
 0105291,0.00087500,-0.00050465,-0.00050996,-0.00004693,-0.00007505,0.0
 0028378,0.00015160,0.00014791,0.00018534,0.00007772,-0.00003621,0.0000
 8508,-0.00002106,-0.00001197,0.00004109,0.00004402,-0.00000846,0.00003
 309,-0.00002673,0.00000659,-0.00003270,-0.00005359,-0.00000033,-0.0000
 4615,-0.00000597,0.00001287,0.00008964,-0.00004260,-0.04764535,0.00025
 661,-0.01880235,-0.00096111,0.00575023,-0.01975006,-0.00230235,-0.0046
 2522,-0.00218455,-0.00078823,-0.00042191,-0.00032131,-0.00000763,0.000
 01968,0.00003531,-0.00004097,0.00002052,0.00001061,0.00000120,-0.00000
 974,0.00001001,-0.00001876,-0.00005780,0.00003763,-0.00000635,0.000001
 12,0.00000091,-0.00000149,-0.00001281,-0.00000012,0.00001736,-0.000121
 74,0.00014779,-0.00097804,0.00132898,-0.01097365,0.05565106,-0.0015062
 3,-0.00067575,-0.00021179,0.00298347,-0.00081010,-0.00414063,0.0004402
 8,0.00066624,0.00016042,0.00027881,0.00036894,-0.00035413,-0.00008988,
 -0.00005204,-0.00002823,-0.00001398,0.00005402,0.00005297,0.00002265,0
 .00003300,0.00004572,0.00007155,-0.00000385,-0.00004977,-0.00002579,-0
 .00002678,-0.00002857,-0.00002340,0.00000183,-0.00001729,0.00000216,-0
 .00003709,-0.00000269,0.00001930,0.00005037,0.00004710,-0.00001098,-0.
 00005042,0.00004744,-0.00029887,-0.05184009,0.03923040,0.00018840,0.00
 434317,-0.02147797,-0.00264674,-0.00319531,-0.00208006,-0.00046892,-0.
 00042537,0.00007157,-0.00000974,0.00000425,-0.00000770,-0.00000659,0.0
 0000200,-0.00000465,0.00000368,-0.00000894,0.00000253,-0.00000135,0.00
 000376,-0.00000465,0.00000406,-0.00000066,-0.00000363,-0.00001534,-0.0
 0001523,0.00000061,0.00003809,0.00011163,-0.00000684,0.00132253,-0.004
 35501,0.03032435,-0.00029434,0.05430080,-0.00185087,-0.00071414,0.0032
 0443,-0.00142171,0.00155276,-0.01630236,0.00312018,0.00021953,0.000387
 46,-0.00056611,-0.00025163,-0.00015634,0.00009103,0.00020451,0.0000661
 0,0.00010937,-0.00014445,-0.00008936,0.00004450,-0.00006621,-0.0000190
 9,0.00003524,-0.00005067,-0.00002862,0.00000808,-0.00002921,-0.0000708
 6,0.00002095,-0.00003897,0.00002412,0.00001641,0.00000635,0.00006475,-
 0.00002215,0.00007635,0.00001478,-0.00003620,-0.00014392,0.00004927,-0
 .01488214,0.03844808,-0.30755702,0.00057908,0.00280568,-0.00993860,-0.
 00132511,-0.00260919,-0.00012043,-0.00036326,0.00012429,0.00042143,0.0
 0008650,-0.00003151,-0.00005644,0.00000669,0.00000569,-0.00000635,-0.0
 0000600,0.00000766,0.00000947,0.00001580,0.00004229,-0.00002207,-0.000
 00183,-0.00000564,0.00000621,0.00000640,0.00000827,0.00000083,0.000062
 08,0.00016647,-0.00012387,-0.00020847,0.00104490,-0.00366323,0.0170082
 7,-0.04074311,0.33335546,0.00028155,0.00028996,-0.00011873,0.00136964,
 -0.00106323,0.00020761,0.00012371,0.00023480,0.00003637,-0.00013559,0.
 00015631,0.00009851,-0.00018786,0.00002923,0.00009175,0.00010720,-0.00
 005122,-0.00004176,0.00007017,-0.00003502,-0.00009531,0.00004870,-0.00
 005262,-0.00001556,0.00002802,-0.00002389,-0.00000753,0.00000483,0.000
 00217,0.00000291,-0.00001873,0.00003799,0.00000010,0.00000789,-0.00000
 714,0.00000607,-0.00001978,0.00002886,-0.00002603,0.00767423,-0.022291
 31,0.00122510,-0.08935882,0.09352950,-0.00287074,-0.00250567,0.0057999
 1,-0.00344022,-0.00002293,-0.00029089,0.00017906,0.00000963,-0.0000173
 9,-0.00000578,-0.00001185,0.00001702,0.00001127,-0.00000530,0.00000783
 ,0.00000084,0.00001218,0.00003270,-0.00001924,-0.00000057,-0.00000186,
 0.00000148,0.00000867,0.00000613,0.00000249,0.00000205,-0.00006348,0.0
 0001352,-0.00262073,-0.00359505,-0.00170045,0.00055633,0.00084901,0.00
 023372,0.09451870,-0.00046994,0.00011173,0.00009542,0.00182216,0.00001
 475,-0.00090363,-0.00049923,0.00097904,0.00054572,-0.00014268,-0.00001
 264,0.00016393,-0.00031101,-0.00020357,0.00001711,0.00013873,0.0000017
 4,-0.00001491,0.00019104,0.00017346,-0.00011556,-0.00001057,-0.0000260
 3,0.00001811,0.00001494,-0.00003075,-0.00002710,0.00000051,-0.00000574
 ,0.00000481,-0.00002717,0.00002583,0.00002237,0.00000021,0.00002502,0.
 00001538,-0.00003956,-0.00001774,-0.00000765,0.00552607,-0.02061161,-0
 .00021540,0.09206239,-0.26582896,0.01233013,0.00262142,-0.00557971,0.0
 0278312,0.00045398,-0.00058011,0.00033747,-0.00000868,-0.00002343,-0.0
 0001748,-0.00001599,0.00000044,0.00002405,0.00000376,0.00000230,-0.000
 00726,-0.00000374,0.00001116,-0.00000538,0.00000825,-0.00000061,-0.000
 00091,0.00001670,0.00000880,0.00000178,0.00004984,-0.00000624,-0.00002
 186,-0.00297392,-0.00129015,-0.00215892,-0.00003775,0.00024003,-0.0003
 3930,-0.09917983,0.28990038,-0.00030691,0.00002858,-0.00019616,0.00095
 278,0.00065816,0.00033804,0.00010616,-0.00012326,0.00024362,0.00008928
 ,-0.00006732,0.00008106,0.00041785,0.00016276,0.00003702,-0.00025078,0
 .00004033,0.00002217,-0.00027718,-0.00017995,0.00011020,-0.00004132,0.
 00002747,-0.00003627,-0.00001086,0.00000567,-0.00002077,0.00000474,0.0
 0000288,-0.00000741,0.00000594,-0.00003652,0.00000558,-0.00000691,0.00
 003274,0.00000242,-0.00001130,-0.00004404,0.00004533,0.00475724,-0.012
 66235,0.00116276,0.00006378,0.00329388,-0.04972798,-0.01549108,0.03640
 562,-0.00886539,-0.00069402,0.00043822,-0.00027102,0.00001852,-0.00001
 838,-0.00001119,0.00003019,-0.00002094,-0.00001516,-0.00000302,0.00000
 611,0.00000925,-0.00000382,-0.00001596,0.00001666,-0.00000607,-0.00000
 197,0.00000773,0.00000778,0.00000378,0.00000149,0.00004382,0.00003583,
 -0.00002579,-0.00231410,-0.00158280,-0.00063892,0.00039990,0.00023214,
 0.00007885,0.00803818,-0.01285553,0.06133729,-0.00246510,0.00025052,-0
 .00008692,0.00172612,-0.00357869,-0.00322112,0.00019396,-0.00007159,0.
 00053656,0.00044212,0.00013120,-0.00006507,0.00008793,-0.00026461,-0.0
 0018031,-0.00017412,0.00017045,0.00011853,-0.00004994,0.00012047,0.000
 14163,-0.00002202,0.00008716,-0.00000472,-0.00005068,0.00001532,-0.000
 08452,-0.00000653,-0.00000177,0.00000124,0.00003134,-0.00011355,0.0000
 3790,-0.00001956,0.00013196,0.00000101,-0.00001090,-0.00014720,0.00014
 699,-0.02032390,0.00030492,0.01010711,-0.22794569,0.00638754,0.1074860
 3,0.01226569,-0.00038229,-0.00502412,-0.00033001,0.00015271,-0.0003836
 4,0.00002052,-0.00000741,-0.00003174,0.00001041,-0.00001705,-0.0000091
 8,0.00000628,-0.00001709,0.00001483,-0.00002517,-0.00004576,0.00003209
 ,0.00000273,-0.00000008,0.00000472,0.00000116,0.00000127,-0.00000143,0
 .00012117,0.00022801,-0.00012253,0.00096514,-0.00020870,0.00035726,0.0
 0005169,0.00029556,-0.00048849,-0.01067420,0.00080909,0.00606645,0.244
 06746,-0.00233219,0.00040723,0.00008422,0.00016926,-0.00360462,-0.0040
 5515,0.00018245,0.00070364,0.00076284,-0.00000970,0.00008119,0.0000839
 1,-0.00022251,-0.00021873,-0.00004173,0.00006962,0.00003688,0.00002932
 ,0.00011136,0.00018947,-0.00004567,-0.00000035,0.00001538,0.00001833,-
 0.00000994,-0.00000299,-0.00006289,0.00000533,-0.00001441,0.00001307,0
 .00002301,-0.00003620,0.00003454,-0.00001163,0.00007717,0.00000064,-0.
 00000945,-0.00008668,0.00006444,-0.02290529,-0.00039683,0.01089233,0.0
 0739130,-0.05360969,-0.00377968,-0.00529957,0.00261335,0.00789246,-0.0
 0002912,-0.00025087,0.00027918,0.00001853,-0.00002046,-0.00002167,-0.0
 0001360,0.00000093,0.00001254,0.00000013,-0.00000733,0.00000157,-0.000
 00705,-0.00000959,0.00000152,-0.00000056,-0.00000164,0.00000265,-0.000
 00361,0.00000102,-0.00000063,0.00005310,0.00013359,-0.00008455,0.00068
 838,0.00073663,0.00083886,0.00064463,0.00096552,-0.00001813,0.02579334
 ,0.00037218,-0.01555092,-0.00360857,0.05157653,-0.00118265,0.00040100,
 0.00018374,0.00015531,-0.00286680,-0.00157538,0.00026364,0.00019608,0.
 00157380,0.00021952,0.00016943,0.00028457,-0.00052567,-0.00019899,-0.0
 0010353,0.00021795,0.00002572,-0.00001287,0.00035393,0.00004536,0.0001
 3031,-0.00007767,0.00001375,-0.00004720,0.00001709,-0.00000513,-0.0000
 6647,0.00002828,-0.00002231,0.00000230,0.00001611,0.00000050,0.0000343
 5,-0.00001683,0.00005169,0.00001644,-0.00000423,-0.00005214,0.00004022
 ,-0.01201012,-0.00019514,0.00738016,0.10789795,-0.00301381,-0.11112710
 ,0.02291139,0.00319648,-0.03421280,-0.00274073,-0.00004813,-0.00100496
 ,0.00010332,-0.00002286,-0.00008109,-0.00004060,0.00002995,0.00000850,
 -0.00001183,-0.00000128,0.00005171,0.00000627,-0.00000261,0.00002307,-
 0.00001409,-0.00001172,0.00001397,0.00000304,0.00000450,0.00000250,0.0
 0002459,0.00007016,-0.00006468,0.00049373,0.00023400,0.00006271,0.0001
 1024,0.00041940,0.00066658,-0.00010918,-0.00095189,0.00163717,-0.11655
 717,0.00306038,0.13451240,0.00012143,0.00003579,-0.00009300,-0.0005187
 9,0.00026981,0.00010466,-0.00155358,-0.00137995,-0.00001078,-0.0002207
 7,-0.00016397,-0.00016867,0.00029204,0.00028202,0.00008296,-0.00012202
 ,-0.00006001,-0.00001121,-0.00024414,-0.00016968,0.00002889,-0.0000802
 7,0.00006841,-0.00008824,0.00002317,0.00008387,-0.00002165,0.00008456,
 -0.00003852,0.00001417,0.00005394,-0.00001444,-0.00001800,-0.00002650,
 -0.00001514,-0.00000671,0.00005465,-0.00002245,0.00000440,-0.00038414,
 0.00092455,-0.00007702,-0.00442498,0.00222450,0.00537091,-0.14905559,0
 .20014115,-0.04295613,0.00112684,0.00322652,-0.00062152,-0.00005592,0.
 00000159,0.00002648,0.00001032,0.00000484,-0.00001748,-0.00003076,0.00
 001877,0.00005919,0.00002608,-0.00001968,0.00003050,-0.00004295,-0.000
 01516,0.00002564,-0.00001213,-0.00000595,0.00000310,-0.00004912,0.0000
 4152,-0.00001931,-0.00002025,-0.00067881,-0.00057877,0.00017748,-0.000
 47092,0.00015268,0.00054421,-0.00025823,-0.00123871,0.00140084,-0.0012
 3072,-0.00020756,0.14454348,-0.00011727,-0.00000389,-0.00011576,-0.000
 09330,-0.00007706,0.00011603,-0.00080755,-0.00056868,-0.00022625,-0.00
 005502,-0.00001043,-0.00011235,0.00004133,0.00004810,0.00002542,-0.000
 00432,-0.00001409,-0.00000198,-0.00003914,-0.00000491,-0.00000572,-0.0
 0000498,0.00003737,-0.00001066,0.00000399,0.00004996,-0.00002779,0.000
 03828,-0.00001056,0.00001871,0.00004626,-0.00003024,-0.00000650,-0.000
 01410,0.00001210,-0.00002494,0.00002877,-0.00003271,0.00003164,-0.0002
 4028,0.00195691,0.00008523,0.00459787,-0.00570860,0.00060133,0.1584770
 9,-0.30361367,0.02324710,0.00137637,0.00080972,0.00003439,-0.00004163,
 0.00000882,0.00000770,-0.00000279,0.00000447,-0.00000004,-0.00000789,0
 .00000619,0.00001211,0.00000625,-0.00001317,0.00000659,-0.00002432,-0.
 00000408,0.00001328,-0.00001200,-0.00000404,0.00000069,-0.00001120,0.0
 0004683,-0.00002721,0.00053896,-0.00028410,0.00015726,0.00001117,-0.00
 018753,0.00004695,-0.00054254,0.00173055,0.00155870,-0.00080972,0.0005
 8951,-0.00099858,-0.18229998,0.32910880,0.00038654,0.00006852,0.000059
 03,-0.00035915,-0.00002245,0.00024624,0.00093514,0.00062811,-0.0000677
 3,-0.00004045,0.00006033,0.00009508,-0.00031580,-0.00012293,-0.0000180
 1,0.00022015,-0.00002054,-0.00005682,0.00030576,0.00007480,-0.00004144
 ,0.00006801,-0.00005744,0.00009065,0.00000718,-0.00003220,0.00006380,-
 0.00004267,0.00000926,0.00002032,-0.00003286,0.00005138,-0.00001926,0.
 00002614,-0.00005059,-0.00001190,-0.00001155,0.00008158,-0.00009557,0.
 00061038,0.00073848,0.00112124,-0.02173120,0.03514561,-0.00607278,-0.0
 2808827,0.00708370,-0.05200072,-0.00095348,-0.00163378,0.00004369,0.00
 004169,0.00001690,-0.00000455,-0.00001877,0.00000621,0.00002166,0.0000
 1843,-0.00001567,-0.00004556,-0.00000604,0.00002346,-0.00003335,0.0000
 3226,0.00001401,-0.00002690,-0.00000854,-0.00000281,-0.00000437,-0.000
 04719,-0.00009010,0.00005866,-0.00021122,-0.00109373,-0.00002092,0.000
 33344,-0.00022354,0.00008017,-0.00138526,0.00094782,-0.00695337,0.0006
 2383,0.00028644,0.00153499,0.03709852,-0.02767145,0.06023912,-0.000328
 05,0.00008606,0.00022170,0.00110815,-0.00020438,-0.00023955,-0.0021714
 4,0.00064817,0.00057680,0.00013064,0.00007982,-0.00043518,-0.00143249,
 -0.00099473,-0.00040898,0.00073311,0.00011454,-0.00003797,0.00119138,0
 .00059190,0.00030024,-0.00010225,0.00000683,0.00004490,0.00002685,-0.0
 0001384,-0.00007121,-0.00000054,-0.00001228,0.00000868,-0.00000363,0.0
 0001929,0.00004505,-0.00000946,0.00005282,0.00001674,-0.00002950,-0.00
 002616,0.00003545,-0.00003473,0.00110390,-0.00294248,-0.00582941,-0.00
 462807,0.00424620,-0.12743340,-0.15836105,-0.11523927,0.00060849,-0.00
 243675,-0.00157676,-0.00014786,0.00005869,0.00007429,-0.00010691,0.000
 06083,0.00004946,0.00000751,-0.00003393,0.00003616,-0.00001559,-0.0000
 1639,0.00002800,-0.00000019,-0.00000944,0.00000633,0.00000776,0.000007
 08,0.00000224,0.00005545,0.00004001,-0.00005448,0.00019636,0.00019580,
 0.00018154,-0.00049455,-0.00063650,-0.00042466,0.00019431,0.00025920,-
 0.00034652,0.00070328,0.00054341,0.00067595,0.00838288,0.01996168,0.01
 254497,0.12479384,0.00019450,-0.00010586,-0.00005216,-0.00035357,0.000
 12144,0.00028986,0.00047613,0.00002943,-0.00012180,-0.00005540,0.00000
 456,0.00001466,0.00028071,0.00025586,0.00008952,-0.00015760,-0.0000317
 2,-0.00000144,-0.00022053,-0.00027590,-0.00000745,0.00002239,-0.000006
 67,-0.00004125,-0.00000552,-0.00001208,0.00001581,-0.00001052,0.000007
 63,-0.00001529,0.00000238,-0.00000587,-0.00000544,0.00000337,-0.000008
 96,0.00000227,0.00000855,0.00000947,0.00000728,0.00058205,0.00020263,0
 .00157974,0.00468022,0.00849720,0.00697929,-0.12856744,-0.27134791,-0.
 12410227,-0.00071643,-0.00016152,-0.00011663,0.00001762,-0.00000808,0.
 00000903,0.00002722,0.00000079,-0.00001921,-0.00000537,0.00000210,0.00
 000278,0.00000749,0.00000752,-0.00000218,-0.00000214,-0.00000069,0.000
 00125,-0.00000177,-0.00000106,0.00000037,-0.00001023,-0.00001328,0.000
 01549,-0.00001422,0.00036875,0.00014451,0.00016577,0.00053859,0.000426
 31,0.00040071,0.00061988,0.00022707,0.00018790,-0.00024020,0.00047300,
 -0.02047974,-0.02384157,-0.01419940,0.14354347,0.28539552,-0.00003856,
 0.00005627,0.00033006,0.00007925,0.00002807,-0.00083280,0.00142471,-0.
 00027084,0.00029724,-0.00009043,-0.00004745,0.00038676,0.00053527,0.00
 040772,0.00021799,-0.00026428,-0.00006112,0.00000299,-0.00045864,-0.00
 018907,-0.00030962,0.00003767,0.00000734,0.00000838,-0.00000562,0.0000
 2388,0.00001343,0.00002116,-0.00000658,0.00001934,0.00001033,-0.000011
 96,-0.00001914,-0.00000535,-0.00001264,-0.00001695,0.00001142,-0.00001
 343,-0.00002000,0.00046038,0.00320938,-0.00658769,-0.01908923,-0.02845
 360,-0.01612662,-0.08653658,-0.10603724,-0.10893494,-0.00129532,0.0012
 1439,0.00067165,0.00012208,-0.00003497,-0.00004379,0.00004500,-0.00003
 188,0.00000189,-0.00000685,0.00002486,-0.00001793,0.00000886,0.0000053
 3,-0.00001511,-0.00000309,0.00000641,-0.00000160,-0.00000399,-0.000001
 57,-0.00000172,-0.00002084,0.00000241,0.00000356,0.00036853,0.00012595
 ,0.00014977,-0.00139244,-0.00124941,-0.00027528,-0.00031322,0.00033559
 ,0.00163280,0.00058479,-0.00069822,0.00013656,0.00313265,0.00326613,0.
 00179858,0.10268237,0.12840628,0.12753220\\-0.00000615,-0.00000529,0.0
 0000110,-0.00000309,-0.00000007,0.00000933,0.00000279,-0.00000468,-0.0
 0000356,0.00001109,0.00000135,-0.00000677,0.00000147,0.00000009,-0.000
 00262,-0.00000035,0.00000065,-0.00000047,0.00000077,-0.00000010,-0.000
 00036,-0.00001174,-0.00000345,-0.00000201,0.00000774,0.00000082,0.0000
 1670,-0.00000212,0.00000522,0.00000217,-0.00000051,-0.00000160,-0.0000
 0597,0.00000252,-0.00000833,-0.00000176,-0.00000306,0.00000318,-0.0000
 0390,0.00000246,0.00000161,0.00000258,-0.00000114,0.00000053,-0.000001
 08,0.00000041,-0.00000069,0.00000299,-0.00000362,0.00000524,-0.0000031
 9,0.00000118,0.00000096,-0.00000192,-0.00000076,0.00000063,-0.00000085
 ,0.00000013,-0.00000054,-0.00000005,0.00000098,-0.00000215,-0.00000011
 ,-0.00000067,0.00000074,0.00000054,-0.00000014,-0.00000089,-0.00000014
 ,0.00000098,0.00000765,-0.00000355,0.00000017,-0.00000054,-0.00000013,
 -0.00000089,0.00000069,0.00000083,0.00000028,-0.00000022,-0.00000132,0
 .00000041,-0.00000124,0.00000138,0.00000032,0.00000104,0.00000177,0.00
 000052,-0.00000058,0.00000037\\\@


 THE VALUE OF PHILOSOPHY IS, IN FACT, TO BE SOUGHT LARGELY IN ITS
 VERY UNCERTAINTY.  THE MAN WHO HAS NO TINCTURE OF PHILOSOPHY GOES
 THROUGH LIFE IMPRISONED IN THE PREJUDICES DERIVED FROM COMMON SENSE,
 FROM THE HABITUAL BELIEFS OF HIS AGE OR HIS NATION, AND FROM
 CONVICTIONS WHICH HAVE GROWN UP IN HIS MIND WITHOUT THE CO-OPERATION
 OR CONSENT OF HIS DELIBERATE REASON.  TO SUCH A MAN THE WORLD TENDS
 TO BE DEFINITE, FINITE, OBVIOUS; COMMON OBJECTS ROUSE NO QUESTIONS,
 AND UNFAMILIAR POSSIBILITIES ARE CONTEMPTUOUSLY REJECTED.

                             -- BERTRAND RUSSELL
 Job cpu time:       0 days  4 hours 23 minutes 38.8 seconds.
 File lengths (MBytes):  RWF=    542 Int=      0 D2E=      0 Chk=     17 Scr=      1
 Normal termination of Gaussian 09 at Sat Jul 24 03:46:57 2021.
