 Entering Gaussian System, Link 0=g09
 Input=opt_freq-conf-422.com
 Output=opt_freq-conf-422.log
 Initial command:
 /aerosol/software/g09/l1.exe "/scratch/nicole/10414/Gau-75295.inp" -scrdir="/scratch/nicole/10414/"
 Entering Link 1 = /aerosol/software/g09/l1.exe PID=     75303.
  
 Copyright (c) 1988,1990,1992,1993,1995,1998,2003,2009,2013,
            Gaussian, Inc.  All Rights Reserved.
  
 This is part of the Gaussian(R) 09 program.  It is based on
 the Gaussian(R) 03 system (copyright 2003, Gaussian, Inc.),
 the Gaussian(R) 98 system (copyright 1998, Gaussian, Inc.),
 the Gaussian(R) 94 system (copyright 1995, Gaussian, Inc.),
 the Gaussian 92(TM) system (copyright 1992, Gaussian, Inc.),
 the Gaussian 90(TM) system (copyright 1990, Gaussian, Inc.),
 the Gaussian 88(TM) system (copyright 1988, Gaussian, Inc.),
 the Gaussian 86(TM) system (copyright 1986, Carnegie Mellon
 University), and the Gaussian 82(TM) system (copyright 1983,
 Carnegie Mellon University). Gaussian is a federally registered
 trademark of Gaussian, Inc.
  
 This software contains proprietary and confidential information,
 including trade secrets, belonging to Gaussian, Inc.
  
 This software is provided under written license and may be
 used, copied, transmitted, or stored only in accord with that
 written license.
  
 The following legend is applicable only to US Government
 contracts under FAR:
  
                    RESTRICTED RIGHTS LEGEND
  
 Use, reproduction and disclosure by the US Government is
 subject to restrictions as set forth in subparagraphs (a)
 and (c) of the Commercial Computer Software - Restricted
 Rights clause in FAR 52.227-19.
  
 Gaussian, Inc.
 340 Quinnipiac St., Bldg. 40, Wallingford CT 06492
  
  
 ---------------------------------------------------------------
 Warning -- This program may not be used in any manner that
 competes with the business of Gaussian, Inc. or will provide
 assistance to any competitor of Gaussian, Inc.  The licensee
 of this program is prohibited from giving any competitor of
 Gaussian, Inc. access to this program.  By using this program,
 the user acknowledges that Gaussian, Inc. is engaged in the
 business of creating and licensing software in the field of
 computational chemistry and represents and warrants to the
 licensee that it is not a competitor of Gaussian, Inc. and that
 it will not use this program in any manner prohibited above.
 ---------------------------------------------------------------
  

 Cite this work as:
 Gaussian 09, Revision D.01,
 M. J. Frisch, G. W. Trucks, H. B. Schlegel, G. E. Scuseria, 
 M. A. Robb, J. R. Cheeseman, G. Scalmani, V. Barone, B. Mennucci, 
 G. A. Petersson, H. Nakatsuji, M. Caricato, X. Li, H. P. Hratchian, 
 A. F. Izmaylov, J. Bloino, G. Zheng, J. L. Sonnenberg, M. Hada, 
 M. Ehara, K. Toyota, R. Fukuda, J. Hasegawa, M. Ishida, T. Nakajima, 
 Y. Honda, O. Kitao, H. Nakai, T. Vreven, J. A. Montgomery, Jr., 
 J. E. Peralta, F. Ogliaro, M. Bearpark, J. J. Heyd, E. Brothers, 
 K. N. Kudin, V. N. Staroverov, T. Keith, R. Kobayashi, J. Normand, 
 K. Raghavachari, A. Rendell, J. C. Burant, S. S. Iyengar, J. Tomasi, 
 M. Cossi, N. Rega, J. M. Millam, M. Klene, J. E. Knox, J. B. Cross, 
 V. Bakken, C. Adamo, J. Jaramillo, R. Gomperts, R. E. Stratmann, 
 O. Yazyev, A. J. Austin, R. Cammi, C. Pomelli, J. W. Ochterski, 
 R. L. Martin, K. Morokuma, V. G. Zakrzewski, G. A. Voth, 
 P. Salvador, J. J. Dannenberg, S. Dapprich, A. D. Daniels, 
 O. Farkas, J. B. Foresman, J. V. Ortiz, J. Cioslowski, 
 and D. J. Fox, Gaussian, Inc., Wallingford CT, 2013.
 
 ******************************************
 Gaussian 09:  ES64L-G09RevD.01 24-Apr-2013
                24-Jul-2021 
 ******************************************
 %mem=2gb
 %nproc=4
 Will use up to    4 processors via shared memory.
 %chk=conf-422.chk
 ----------------------------------------------------------------------
 # B3LYP/6-311++G(d,p) EmpiricalDispersion=GD3BJ opt=calcfc freq=norama
 n nosymm integral(ultrafinegrid)
 ----------------------------------------------------------------------
 1/10=4,14=-1,18=20,19=15,26=4,38=1/1,3;
 2/9=110,12=2,15=1,17=6,18=5,40=1/2;
 3/5=4,6=6,7=1111,11=2,16=1,25=1,30=1,71=2,74=-5,75=-5,124=41,140=1/1,2,3;
 4//1;
 5/5=2,38=5/2;
 8/6=4,10=90,11=11/1;
 11/6=1,8=1,9=11,15=111,16=1,31=1/1,2,10;
 10/6=1,13=1,31=1/2;
 6/7=2,8=2,9=2,10=2,28=1/1;
 7/10=1,18=20,25=1,30=1/1,2,3,16;
 1/10=4,14=-1,18=20,19=15,26=4/3(2);
 2/9=110,15=1/2;
 99//99;
 2/9=110,15=1/2;
 3/5=4,6=6,7=1111,11=2,16=1,25=1,30=1,71=1,74=-5,75=-5,124=41/1,2,3;
 4/5=5,16=3,69=1/1;
 5/5=2,38=5/2;
 7/30=1/1,2,3,16;
 1/14=-1,18=20,19=15,26=4/3(-5);
 2/9=110,15=1/2;
 6/7=2,8=2,9=2,10=2,19=2,28=1/1;
 99/9=1/99;
 ------------------------------------------------------------
 Candidate Structure: Conf:422 OPT and FREQ calc in gas phase
 ------------------------------------------------------------
 Symbolic Z-matrix:
 Charge =  0 Multiplicity = 1
 O                     0.78587   0.73522   1.52987 
 C                     1.13924   0.16266   0.50415 
 N                     0.30312  -0.6476   -0.20788 
 C                    -0.93596  -1.13451   0.35649 
 C                    -0.81707  -2.6235    0.61379 
 O                    -1.7968   -3.06349   1.42956 
 O                     0.01444  -3.34827   0.13314 
 C                    -2.14447  -0.88748  -0.55894 
 C                    -2.4521    0.57028  -0.73406 
 C                    -1.92298   1.70746  -0.19576 
 N                    -2.57575   2.83084  -0.66942 
 C                    -3.49191   2.37231  -1.48728 
 N                    -3.46244   1.01624  -1.56355 
 C                     2.50615   0.36515  -0.11942 
 C                     3.56376   0.75402   0.90212 
 N                     4.8435    0.9524    0.2166 
 H                     0.71291  -1.23242  -0.92015 
 H                    -1.09373  -0.61786   1.30258 
 H                    -1.66124  -4.01486   1.51849 
 H                    -3.01463  -1.38629  -0.12674 
 H                    -1.97303  -1.34889  -1.5332 
 H                    -1.09974   1.7603    0.50126 
 H                    -4.19675   2.96499  -2.04443 
 H                    -4.06566   0.4341   -2.11923 
 H                     2.80637  -0.54103  -0.65153 
 H                     2.42751   1.16022  -0.8652 
 H                     3.59987  -0.00614   1.69242 
 H                     3.26508   1.69306   1.37245 
 H                     5.20434   0.0605   -0.10256 
 H                     5.53209   1.31249   0.86643 
 

 GradGradGradGradGradGradGradGradGradGradGradGradGradGradGradGradGradGrad
 Berny optimization.
 Initialization pass.
                           ----------------------------
                           !    Initial Parameters    !
                           ! (Angstroms and Degrees)  !
 --------------------------                            --------------------------
 ! Name  Definition              Value          Derivative Info.                !
 --------------------------------------------------------------------------------
 ! R1    R(1,2)                  1.2267         calculate D2E/DX2 analytically  !
 ! R2    R(2,3)                  1.3648         calculate D2E/DX2 analytically  !
 ! R3    R(2,14)                 1.516          calculate D2E/DX2 analytically  !
 ! R4    R(3,4)                  1.446          calculate D2E/DX2 analytically  !
 ! R5    R(3,17)                 1.0086         calculate D2E/DX2 analytically  !
 ! R6    R(4,5)                  1.5157         calculate D2E/DX2 analytically  !
 ! R7    R(4,8)                  1.5361         calculate D2E/DX2 analytically  !
 ! R8    R(4,18)                 1.0894         calculate D2E/DX2 analytically  !
 ! R9    R(5,6)                  1.3487         calculate D2E/DX2 analytically  !
 ! R10   R(5,7)                  1.2032         calculate D2E/DX2 analytically  !
 ! R11   R(6,19)                 0.9651         calculate D2E/DX2 analytically  !
 ! R12   R(8,9)                  1.5001         calculate D2E/DX2 analytically  !
 ! R13   R(8,20)                 1.0921         calculate D2E/DX2 analytically  !
 ! R14   R(8,21)                 1.0915         calculate D2E/DX2 analytically  !
 ! R15   R(9,10)                 1.3649         calculate D2E/DX2 analytically  !
 ! R16   R(9,13)                 1.3812         calculate D2E/DX2 analytically  !
 ! R17   R(10,11)                1.3829         calculate D2E/DX2 analytically  !
 ! R18   R(10,22)                1.08           calculate D2E/DX2 analytically  !
 ! R19   R(11,12)                1.3109         calculate D2E/DX2 analytically  !
 ! R20   R(12,13)                1.3585         calculate D2E/DX2 analytically  !
 ! R21   R(12,23)                1.0763         calculate D2E/DX2 analytically  !
 ! R22   R(13,24)                1.0058         calculate D2E/DX2 analytically  !
 ! R23   R(14,15)                1.521          calculate D2E/DX2 analytically  !
 ! R24   R(14,25)                1.0929         calculate D2E/DX2 analytically  !
 ! R25   R(14,26)                1.0929         calculate D2E/DX2 analytically  !
 ! R26   R(15,16)                1.4653         calculate D2E/DX2 analytically  !
 ! R27   R(15,27)                1.0971         calculate D2E/DX2 analytically  !
 ! R28   R(15,28)                1.0919         calculate D2E/DX2 analytically  !
 ! R29   R(16,29)                1.0137         calculate D2E/DX2 analytically  !
 ! R30   R(16,30)                1.013          calculate D2E/DX2 analytically  !
 ! A1    A(1,2,3)              122.4707         calculate D2E/DX2 analytically  !
 ! A2    A(1,2,14)             122.7738         calculate D2E/DX2 analytically  !
 ! A3    A(3,2,14)             114.6511         calculate D2E/DX2 analytically  !
 ! A4    A(2,3,4)              121.4169         calculate D2E/DX2 analytically  !
 ! A5    A(2,3,17)             117.6301         calculate D2E/DX2 analytically  !
 ! A6    A(4,3,17)             115.3752         calculate D2E/DX2 analytically  !
 ! A7    A(3,4,5)              109.2586         calculate D2E/DX2 analytically  !
 ! A8    A(3,4,8)              112.7937         calculate D2E/DX2 analytically  !
 ! A9    A(3,4,18)             107.659          calculate D2E/DX2 analytically  !
 ! A10   A(5,4,8)              108.7149         calculate D2E/DX2 analytically  !
 ! A11   A(5,4,18)             109.2572         calculate D2E/DX2 analytically  !
 ! A12   A(8,4,18)             109.1064         calculate D2E/DX2 analytically  !
 ! A13   A(4,5,6)              111.4804         calculate D2E/DX2 analytically  !
 ! A14   A(4,5,7)              125.3192         calculate D2E/DX2 analytically  !
 ! A15   A(6,5,7)              123.1704         calculate D2E/DX2 analytically  !
 ! A16   A(5,6,19)             105.9801         calculate D2E/DX2 analytically  !
 ! A17   A(4,8,9)              112.7792         calculate D2E/DX2 analytically  !
 ! A18   A(4,8,20)             108.5143         calculate D2E/DX2 analytically  !
 ! A19   A(4,8,21)             109.8992         calculate D2E/DX2 analytically  !
 ! A20   A(9,8,20)             109.065          calculate D2E/DX2 analytically  !
 ! A21   A(9,8,21)             109.8033         calculate D2E/DX2 analytically  !
 ! A22   A(20,8,21)            106.5766         calculate D2E/DX2 analytically  !
 ! A23   A(8,9,10)             133.1654         calculate D2E/DX2 analytically  !
 ! A24   A(8,9,13)             122.2672         calculate D2E/DX2 analytically  !
 ! A25   A(10,9,13)            104.5614         calculate D2E/DX2 analytically  !
 ! A26   A(9,10,11)            111.0225         calculate D2E/DX2 analytically  !
 ! A27   A(9,10,22)            126.2145         calculate D2E/DX2 analytically  !
 ! A28   A(11,10,22)           122.7606         calculate D2E/DX2 analytically  !
 ! A29   A(10,11,12)           105.0368         calculate D2E/DX2 analytically  !
 ! A30   A(11,12,13)           111.6547         calculate D2E/DX2 analytically  !
 ! A31   A(11,12,23)           126.0151         calculate D2E/DX2 analytically  !
 ! A32   A(13,12,23)           122.3301         calculate D2E/DX2 analytically  !
 ! A33   A(9,13,12)            107.7245         calculate D2E/DX2 analytically  !
 ! A34   A(9,13,24)            125.7077         calculate D2E/DX2 analytically  !
 ! A35   A(12,13,24)           126.5676         calculate D2E/DX2 analytically  !
 ! A36   A(2,14,15)            112.635          calculate D2E/DX2 analytically  !
 ! A37   A(2,14,25)            109.7065         calculate D2E/DX2 analytically  !
 ! A38   A(2,14,26)            108.2383         calculate D2E/DX2 analytically  !
 ! A39   A(15,14,25)           110.3638         calculate D2E/DX2 analytically  !
 ! A40   A(15,14,26)           108.8048         calculate D2E/DX2 analytically  !
 ! A41   A(25,14,26)           106.9003         calculate D2E/DX2 analytically  !
 ! A42   A(14,15,16)           109.1295         calculate D2E/DX2 analytically  !
 ! A43   A(14,15,27)           109.2413         calculate D2E/DX2 analytically  !
 ! A44   A(14,15,28)           108.6012         calculate D2E/DX2 analytically  !
 ! A45   A(16,15,27)           113.7074         calculate D2E/DX2 analytically  !
 ! A46   A(16,15,28)           108.9045         calculate D2E/DX2 analytically  !
 ! A47   A(27,15,28)           107.1327         calculate D2E/DX2 analytically  !
 ! A48   A(15,16,29)           109.8205         calculate D2E/DX2 analytically  !
 ! A49   A(15,16,30)           109.9805         calculate D2E/DX2 analytically  !
 ! A50   A(29,16,30)           105.8294         calculate D2E/DX2 analytically  !
 ! D1    D(1,2,3,4)            -14.8681         calculate D2E/DX2 analytically  !
 ! D2    D(1,2,3,17)          -167.3086         calculate D2E/DX2 analytically  !
 ! D3    D(14,2,3,4)           168.753          calculate D2E/DX2 analytically  !
 ! D4    D(14,2,3,17)           16.3125         calculate D2E/DX2 analytically  !
 ! D5    D(1,2,14,15)           27.4052         calculate D2E/DX2 analytically  !
 ! D6    D(1,2,14,25)          150.7604         calculate D2E/DX2 analytically  !
 ! D7    D(1,2,14,26)          -92.9343         calculate D2E/DX2 analytically  !
 ! D8    D(3,2,14,15)         -156.2282         calculate D2E/DX2 analytically  !
 ! D9    D(3,2,14,25)          -32.8731         calculate D2E/DX2 analytically  !
 ! D10   D(3,2,14,26)           83.4323         calculate D2E/DX2 analytically  !
 ! D11   D(2,3,4,5)           -109.934          calculate D2E/DX2 analytically  !
 ! D12   D(2,3,4,8)            129.0356         calculate D2E/DX2 analytically  !
 ! D13   D(2,3,4,18)             8.6119         calculate D2E/DX2 analytically  !
 ! D14   D(17,3,4,5)            43.0861         calculate D2E/DX2 analytically  !
 ! D15   D(17,3,4,8)           -77.9442         calculate D2E/DX2 analytically  !
 ! D16   D(17,3,4,18)          161.6321         calculate D2E/DX2 analytically  !
 ! D17   D(3,4,5,6)            164.7753         calculate D2E/DX2 analytically  !
 ! D18   D(3,4,5,7)            -17.1721         calculate D2E/DX2 analytically  !
 ! D19   D(8,4,5,6)            -71.7445         calculate D2E/DX2 analytically  !
 ! D20   D(8,4,5,7)            106.3081         calculate D2E/DX2 analytically  !
 ! D21   D(18,4,5,6)            47.2307         calculate D2E/DX2 analytically  !
 ! D22   D(18,4,5,7)          -134.7167         calculate D2E/DX2 analytically  !
 ! D23   D(3,4,8,9)            -65.9015         calculate D2E/DX2 analytically  !
 ! D24   D(3,4,8,20)           173.1523         calculate D2E/DX2 analytically  !
 ! D25   D(3,4,8,21)            56.9725         calculate D2E/DX2 analytically  !
 ! D26   D(5,4,8,9)            172.7591         calculate D2E/DX2 analytically  !
 ! D27   D(5,4,8,20)            51.8129         calculate D2E/DX2 analytically  !
 ! D28   D(5,4,8,21)           -64.3669         calculate D2E/DX2 analytically  !
 ! D29   D(18,4,8,9)            53.6893         calculate D2E/DX2 analytically  !
 ! D30   D(18,4,8,20)          -67.2569         calculate D2E/DX2 analytically  !
 ! D31   D(18,4,8,21)          176.5633         calculate D2E/DX2 analytically  !
 ! D32   D(4,5,6,19)           178.4285         calculate D2E/DX2 analytically  !
 ! D33   D(7,5,6,19)             0.3268         calculate D2E/DX2 analytically  !
 ! D34   D(4,8,9,10)            -3.9207         calculate D2E/DX2 analytically  !
 ! D35   D(4,8,9,13)           177.1137         calculate D2E/DX2 analytically  !
 ! D36   D(20,8,9,10)          116.711          calculate D2E/DX2 analytically  !
 ! D37   D(20,8,9,13)          -62.2546         calculate D2E/DX2 analytically  !
 ! D38   D(21,8,9,10)         -126.8482         calculate D2E/DX2 analytically  !
 ! D39   D(21,8,9,13)           54.1862         calculate D2E/DX2 analytically  !
 ! D40   D(8,9,10,11)         -179.1307         calculate D2E/DX2 analytically  !
 ! D41   D(8,9,10,22)            1.423          calculate D2E/DX2 analytically  !
 ! D42   D(13,9,10,11)          -0.0344         calculate D2E/DX2 analytically  !
 ! D43   D(13,9,10,22)        -179.4807         calculate D2E/DX2 analytically  !
 ! D44   D(8,9,13,12)          179.2645         calculate D2E/DX2 analytically  !
 ! D45   D(8,9,13,24)           -0.5735         calculate D2E/DX2 analytically  !
 ! D46   D(10,9,13,12)           0.044          calculate D2E/DX2 analytically  !
 ! D47   D(10,9,13,24)        -179.794          calculate D2E/DX2 analytically  !
 ! D48   D(9,10,11,12)           0.0111         calculate D2E/DX2 analytically  !
 ! D49   D(22,10,11,12)        179.4798         calculate D2E/DX2 analytically  !
 ! D50   D(10,11,12,13)          0.0182         calculate D2E/DX2 analytically  !
 ! D51   D(10,11,12,23)        179.9527         calculate D2E/DX2 analytically  !
 ! D52   D(11,12,13,9)          -0.0403         calculate D2E/DX2 analytically  !
 ! D53   D(11,12,13,24)        179.7959         calculate D2E/DX2 analytically  !
 ! D54   D(23,12,13,9)        -179.9776         calculate D2E/DX2 analytically  !
 ! D55   D(23,12,13,24)         -0.1414         calculate D2E/DX2 analytically  !
 ! D56   D(2,14,15,16)        -179.0201         calculate D2E/DX2 analytically  !
 ! D57   D(2,14,15,27)          56.1032         calculate D2E/DX2 analytically  !
 ! D58   D(2,14,15,28)         -60.4282         calculate D2E/DX2 analytically  !
 ! D59   D(25,14,15,16)         57.9915         calculate D2E/DX2 analytically  !
 ! D60   D(25,14,15,27)        -66.8853         calculate D2E/DX2 analytically  !
 ! D61   D(25,14,15,28)        176.5834         calculate D2E/DX2 analytically  !
 ! D62   D(26,14,15,16)        -59.007          calculate D2E/DX2 analytically  !
 ! D63   D(26,14,15,27)        176.1163         calculate D2E/DX2 analytically  !
 ! D64   D(26,14,15,28)         59.5849         calculate D2E/DX2 analytically  !
 ! D65   D(14,15,16,29)        -70.2728         calculate D2E/DX2 analytically  !
 ! D66   D(14,15,16,30)        173.651          calculate D2E/DX2 analytically  !
 ! D67   D(27,15,16,29)         51.9538         calculate D2E/DX2 analytically  !
 ! D68   D(27,15,16,30)        -64.1224         calculate D2E/DX2 analytically  !
 ! D69   D(28,15,16,29)        171.325          calculate D2E/DX2 analytically  !
 ! D70   D(28,15,16,30)         55.2488         calculate D2E/DX2 analytically  !
 --------------------------------------------------------------------------------
 Trust Radius=3.00D-01 FncErr=1.00D-07 GrdErr=1.00D-06
 Number of steps in this run=    160 maximum allowed number of steps=    180.
 GradGradGradGradGradGradGradGradGradGradGradGradGradGradGradGradGradGrad

                          Input orientation:                          
 ---------------------------------------------------------------------
 Center     Atomic      Atomic             Coordinates (Angstroms)
 Number     Number       Type             X           Y           Z
 ---------------------------------------------------------------------
      1          8           0        0.785871    0.735223    1.529867
      2          6           0        1.139240    0.162661    0.504155
      3          7           0        0.303118   -0.647601   -0.207881
      4          6           0       -0.935956   -1.134511    0.356493
      5          6           0       -0.817066   -2.623497    0.613794
      6          8           0       -1.796797   -3.063489    1.429557
      7          8           0        0.014438   -3.348268    0.133141
      8          6           0       -2.144474   -0.887478   -0.558942
      9          6           0       -2.452097    0.570279   -0.734056
     10          6           0       -1.922975    1.707460   -0.195764
     11          7           0       -2.575751    2.830835   -0.669422
     12          6           0       -3.491909    2.372307   -1.487278
     13          7           0       -3.462438    1.016238   -1.563554
     14          6           0        2.506147    0.365153   -0.119418
     15          6           0        3.563763    0.754017    0.902119
     16          7           0        4.843498    0.952401    0.216596
     17          1           0        0.712914   -1.232417   -0.920148
     18          1           0       -1.093734   -0.617860    1.302577
     19          1           0       -1.661238   -4.014865    1.518489
     20          1           0       -3.014626   -1.386288   -0.126735
     21          1           0       -1.973031   -1.348886   -1.533202
     22          1           0       -1.099736    1.760297    0.501259
     23          1           0       -4.196751    2.964992   -2.044427
     24          1           0       -4.065659    0.434098   -2.119228
     25          1           0        2.806372   -0.541031   -0.651533
     26          1           0        2.427514    1.160219   -0.865199
     27          1           0        3.599871   -0.006139    1.692423
     28          1           0        3.265084    1.693065    1.372450
     29          1           0        5.204337    0.060503   -0.102565
     30          1           0        5.532093    1.312491    0.866431
 ---------------------------------------------------------------------
                    Distance matrix (angstroms):
                    1          2          3          4          5
     1  O    0.000000
     2  C    1.226696   0.000000
     3  N    2.272667   1.364778   0.000000
     4  C    2.799535   2.451713   1.445995   0.000000
     5  C    3.832700   3.406146   2.415394   1.515724   0.000000
     6  O    4.594611   4.459230   3.595464   2.369277   1.348679
     7  O    4.384158   3.705327   2.737377   2.419474   1.203212
     8  C    3.947557   3.607734   2.484248   1.536086   2.480138
     9  C    3.954364   3.820605   3.057990   2.528693   3.832784
    10  C    3.355726   3.500493   3.240671   3.058757   4.542643
    11  N    4.530890   4.722033   4.538768   4.411961   5.872764
    12  C    5.484762   5.504170   5.015868   4.714887   6.043786
    13  N    5.262733   5.116587   4.334238   3.833460   4.998651
    14  C    2.411730   1.516008   2.426280   3.784648   4.529169
    15  C    2.848000   2.527131   3.718661   4.910368   5.539169
    16  N    4.270384   3.798408   4.832725   6.146288   6.707219
    17  H    3.143167   2.038782   1.008597   2.087623   2.574669
    18  H    2.327103   2.496571   2.057562   1.089449   2.138585
    19  H    5.343389   5.130621   4.263510   3.189468   1.861989
    20  H    4.657136   4.477931   3.399951   2.148900   2.628372
    21  H    4.619246   4.015199   2.725643   2.166201   2.751450
    22  H    2.379984   2.750539   2.875560   2.903049   4.394339
    23  H    6.524873   6.543786   6.055786   5.762215   7.051214
    24  H    6.078150   5.834962   4.889737   4.287746   5.231792
    25  H    3.235700   2.147120   2.544497   3.920887   4.366580
    26  H    2.934613   2.128356   2.865892   4.251029   5.199156
    27  H    2.914556   2.737732   3.858913   4.861240   5.246268
    28  H    2.662468   2.759580   4.092604   5.164890   5.989341
    29  H    4.758458   4.111393   4.953227   6.272319   6.631313
    30  H    4.827008   4.555273   5.686677   6.934228   7.474466
                    6          7          8          9         10
     6  O    0.000000
     7  O    2.245521   0.000000
     8  C    2.968170   3.345947   0.000000
     9  C    4.279593   4.710715   1.500118   0.000000
    10  C    5.041780   5.424217   2.629575   1.364884   0.000000
    11  N    6.305200   6.747925   3.744872   2.264858   1.382910
    12  C    6.397595   6.902551   3.647409   2.212658   2.138126
    13  N    5.327030   5.832354   2.523967   1.381208   2.172230
    14  C    5.715789   4.479050   4.836377   5.000405   4.628687
    15  C    6.602057   5.478848   6.116631   6.237099   5.676152
    16  N    7.854436   6.467034   7.267624   7.367188   6.820946
    17  H    3.895201   2.464571   2.900710   3.647141   4.014414
    18  H    2.547847   3.170292   2.154531   2.721158   2.887868
    19  H    0.965091   2.274078   3.785470   5.169426   5.979312
    20  H    2.591941   3.618305   1.092144   2.124484   3.281424
    21  H    3.427661   3.274791   1.091546   2.133386   3.336540
    22  H    4.961506   5.241595   3.037469   2.184268   1.079979
    23  H    7.360091   7.895135   4.610861   3.239682   3.188887
    24  H    5.474918   6.002220   2.805709   2.130922   3.148374
    25  H    5.646494   4.036234   4.963817   5.375251   5.256440
    26  H    6.399252   5.210189   5.018957   4.916892   4.435580
    27  H    6.208101   5.143589   6.232407   6.545714   6.083050
    28  H    6.946273   6.125163   6.297047   6.195496   5.419913
    29  H    7.818095   6.213721   7.423744   7.699327   7.315718
    30  H    8.554469   7.259814   8.111796   8.176780   7.540710
                   11         12         13         14         15
    11  N    0.000000
    12  C    1.310909   0.000000
    13  N    2.208721   1.358532   0.000000
    14  C    5.675190   6.471197   6.175229   0.000000
    15  C    6.669074   7.623031   7.450893   1.520955   0.000000
    16  N    7.704465   8.625447   8.494797   2.433305   1.465270
    17  H    5.233373   5.567424   4.785811   2.531617   3.923508
    18  H    4.240125   4.740848   4.061496   3.993436   4.871826
    19  H    7.244784   7.292596   6.168898   6.263737   7.100900
    20  H    4.274488   4.025657   2.834980   5.791937   6.993901
    21  H    4.310390   4.019500   2.795187   4.999975   6.403833
    22  H    2.166833   3.170383   3.224816   3.915873   4.787642
    23  H    2.129854   1.076333   2.137311   7.442692   8.590467
    24  H    3.172714   2.117830   1.005751   6.869689   8.212123
    25  H    6.351145   6.989589   6.523408   1.092909   2.159774
    26  H    5.278441   6.074184   5.932956   1.092933   2.139971
    27  H    7.194792   8.127783   7.843650   2.148687   1.097142
    28  H    6.291193   7.368607   7.371416   2.136588   1.091894
    29  H    8.278033   9.104206   8.840866   2.715386   2.044953
    30  H    8.390551   9.385935   9.321706   3.320497   2.046336
                   16         17         18         19         20
    16  N    0.000000
    17  H    4.809089   0.000000
    18  H    6.236649   2.929533   0.000000
    19  H    8.287354   4.396085   3.450843   0.000000
    20  H    8.205940   3.814149   2.514606   3.383465   0.000000
    21  H    7.404240   2.757480   3.057647   4.064169   1.750562
    22  H    6.004644   3.776563   2.509537   5.890886   3.736600
    23  H    9.533564   6.556451   5.802412   8.236601   4.899857
    24  H    9.224846   5.200944   4.652709   6.229566   2.896291
    25  H    2.670930   2.220976   4.362944   6.061028   5.905412
    26  H    2.655268   2.944075   4.501111   7.012942   6.053669
    27  H    2.154871   4.082132   4.749327   6.616601   6.997551
    28  H    2.091883   4.508660   4.934019   7.541249   7.152952
    29  H    1.013682   4.744783   6.488474   8.146936   8.345367
    30  H    1.012973   5.735234   6.915061   8.974961   9.017550
                   21         22         23         24         25
    21  H    0.000000
    22  H    3.816896   0.000000
    23  H    4.880147   4.186085   0.000000
    24  H    2.810970   4.174021   2.535391   0.000000
    25  H    4.926729   4.677897   7.954626   7.094350   0.000000
    26  H    5.109465   3.829985   6.966252   6.652904   1.755972
    27  H    6.577603   5.159988   9.142154   8.572213   2.531774
    28  H    6.718193   4.451420   8.304928   8.216848   3.049280
    29  H    7.453034   6.557075  10.029324   9.494173   2.532478
    30  H    8.316733   6.656954  10.288550  10.089726   3.628955
                   26         27         28         29         30
    26  H    0.000000
    27  H    3.045692   0.000000
    28  H    2.447963   1.761181   0.000000
    29  H    3.082488   2.408471   2.932854   0.000000
    30  H    3.558110   2.480832   2.353768   1.616741   0.000000
 Symmetry turned off by external request.
 Stoichiometry    C9H14N4O3
 Framework group  C1[X(C9H14N4O3)]
 Deg. of freedom    84
 Full point group                 C1      NOp   1
 Rotational constants (GHZ):      0.5777314      0.3337382      0.2304002
 Standard basis: 6-311++G(d,p) (5D, 7F)
   450 basis functions,   702 primitive gaussians,   466 cartesian basis functions
    60 alpha electrons       60 beta electrons
       nuclear repulsion energy      1109.2545423011 Hartrees.
 NAtoms=   30 NActive=   30 NUniq=   30 SFac= 1.00D+00 NAtFMM=   60 NAOKFM=F Big=F
 Integral buffers will be    131072 words long.
 Raffenetti 2 integral format.
 Two-electron integral symmetry is turned off.
 Nuclear repulsion after empirical dispersion term =     1109.2013106689 Hartrees.
 One-electron integrals computed using PRISM.
 NBasis=   450 RedAO= T EigKep=  3.36D-06  NBF=   450
 NBsUse=   449 1.00D-06 EigRej=  9.69D-07 NBFU=   449
 ExpMin= 3.60D-02 ExpMax= 8.59D+03 ExpMxC= 1.30D+03 IAcc=3 IRadAn=         5 AccDes= 0.00D+00
 Harris functional with IExCor=  402 and IRadAn=       5 diagonalized for initial guess.
 HarFok:  IExCor=  402 AccDes= 0.00D+00 IRadAn=         5 IDoV= 1 UseB2=F ITyADJ=14
 ICtDFT=  3500011 ScaDFX=  1.000000  1.000000  1.000000  1.000000
 FoFCou: FMM=F IPFlag=           0 FMFlag=      100000 FMFlg1=           0
         NFxFlg=           0 DoJE=T BraDBF=F KetDBF=T FulRan=T
         wScrn=  0.000000 ICntrl=     500 IOpCl=  0 I1Cent=   200000004 NGrid=           0
         NMat0=    1 NMatS0=      1 NMatT0=    0 NMatD0=    1 NMtDS0=    0 NMtDT0=    0
 Symmetry not used in FoFCou.
 Requested convergence on RMS density matrix=1.00D-08 within 128 cycles.
 Requested convergence on MAX density matrix=1.00D-06.
 Requested convergence on             energy=1.00D-06.
 No special actions if energy rises.
 SCF Done:  E(RB3LYP) =  -796.380814876     A.U. after   15 cycles
            NFock= 15  Conv=0.52D-08     -V/T= 2.0037
 DoSCS=F DFT=T ScalE2(SS,OS)=  1.000000  1.000000
 Range of M.O.s used for correlation:     1   449
 NBasis=   450 NAE=    60 NBE=    60 NFC=     0 NFV=     0
 NROrb=    449 NOA=    60 NOB=    60 NVA=   389 NVB=   389

 **** Warning!!: The largest alpha MO coefficient is  0.11606145D+03

 Symmetrizing basis deriv contribution to polar:
 IMax=3 JMax=2 DiffMx= 0.00D+00
 G2DrvN: will do    31 centers at a time, making    1 passes.
 Calling FoFCou, ICntrl=  3107 FMM=F I1Cent=   0 AccDes= 0.00D+00.
 End of G2Drv F.D. properties file   721 does not exist.
 End of G2Drv F.D. properties file   722 does not exist.
 End of G2Drv F.D. properties file   788 does not exist.
          IDoAtm=111111111111111111111111111111
          Differentiating once with respect to nuclear coordinates.
          There are    93 degrees of freedom in the 1st order CPHF.  IDoFFX=6 NUNeed=     0.
     87 vectors produced by pass  0 Test12= 2.51D-14 1.08D-09 XBig12= 2.10D-01 8.97D-02.
 AX will form    87 AO Fock derivatives at one time.
     87 vectors produced by pass  1 Test12= 2.51D-14 1.08D-09 XBig12= 1.30D-02 2.56D-02.
     87 vectors produced by pass  2 Test12= 2.51D-14 1.08D-09 XBig12= 1.95D-04 2.35D-03.
     87 vectors produced by pass  3 Test12= 2.51D-14 1.08D-09 XBig12= 7.39D-07 9.61D-05.
     87 vectors produced by pass  4 Test12= 2.51D-14 1.08D-09 XBig12= 1.78D-09 4.66D-06.
     84 vectors produced by pass  5 Test12= 2.51D-14 1.08D-09 XBig12= 2.48D-12 1.77D-07.
     33 vectors produced by pass  6 Test12= 2.51D-14 1.08D-09 XBig12= 3.61D-15 5.81D-09.
      3 vectors produced by pass  7 Test12= 2.51D-14 1.08D-09 XBig12= 2.32D-16 1.73D-09.
      3 vectors produced by pass  8 Test12= 2.51D-14 1.08D-09 XBig12= 2.79D-16 2.80D-09.
      3 vectors produced by pass  9 Test12= 2.51D-14 1.08D-09 XBig12= 2.56D-15 4.45D-09.
      3 vectors produced by pass 10 Test12= 2.51D-14 1.08D-09 XBig12= 5.14D-16 2.42D-09.
      3 vectors produced by pass 11 Test12= 2.51D-14 1.08D-09 XBig12= 3.70D-15 5.40D-09.
      3 vectors produced by pass 12 Test12= 2.51D-14 1.08D-09 XBig12= 1.37D-15 3.74D-09.
      3 vectors produced by pass 13 Test12= 2.51D-14 1.08D-09 XBig12= 7.40D-16 3.20D-09.
      3 vectors produced by pass 14 Test12= 2.51D-14 1.08D-09 XBig12= 4.94D-15 6.20D-09.
      3 vectors produced by pass 15 Test12= 2.51D-14 1.08D-09 XBig12= 1.60D-15 4.50D-09.
      3 vectors produced by pass 16 Test12= 2.51D-14 1.08D-09 XBig12= 3.79D-15 5.30D-09.
      2 vectors produced by pass 17 Test12= 2.51D-14 1.08D-09 XBig12= 1.39D-15 3.63D-09.
 InvSVY:  IOpt=1 It=  1 EMax= 5.55D-16
 Solved reduced A of dimension   584 with    93 vectors.
 End of Minotr F.D. properties file   721 does not exist.
 End of Minotr F.D. properties file   722 does not exist.
 End of Minotr F.D. properties file   788 does not exist.

 **********************************************************************

            Population analysis using the SCF density.

 **********************************************************************

 Alpha  occ. eigenvalues --  -19.20128 -19.14734 -19.09971 -14.37315 -14.35255
 Alpha  occ. eigenvalues --  -14.29827 -14.29219 -10.33463 -10.28415 -10.24832
 Alpha  occ. eigenvalues --  -10.22480 -10.21139 -10.20946 -10.19633 -10.18298
 Alpha  occ. eigenvalues --  -10.17668  -1.14700  -1.05888  -1.05161  -1.02326
 Alpha  occ. eigenvalues --   -0.94986  -0.89178  -0.87619  -0.82587  -0.77139
 Alpha  occ. eigenvalues --   -0.75011  -0.69417  -0.65894  -0.62229  -0.61727
 Alpha  occ. eigenvalues --   -0.60378  -0.59079  -0.55655  -0.53371  -0.52521
 Alpha  occ. eigenvalues --   -0.51211  -0.49628  -0.49447  -0.48865  -0.46352
 Alpha  occ. eigenvalues --   -0.45937  -0.44983  -0.44386  -0.43229  -0.42650
 Alpha  occ. eigenvalues --   -0.41790  -0.41081  -0.40559  -0.39595  -0.39077
 Alpha  occ. eigenvalues --   -0.36634  -0.35894  -0.35401  -0.31742  -0.28716
 Alpha  occ. eigenvalues --   -0.28322  -0.27252  -0.26896  -0.25044  -0.23205
 Alpha virt. eigenvalues --   -0.03073  -0.02600  -0.01598  -0.01103  -0.00225
 Alpha virt. eigenvalues --    0.00138   0.01084   0.01300   0.02119   0.02428
 Alpha virt. eigenvalues --    0.02496   0.03307   0.04073   0.04507   0.05173
 Alpha virt. eigenvalues --    0.05553   0.06088   0.06178   0.06905   0.07239
 Alpha virt. eigenvalues --    0.07726   0.08101   0.08335   0.08992   0.09540
 Alpha virt. eigenvalues --    0.09913   0.10270   0.10691   0.10744   0.11375
 Alpha virt. eigenvalues --    0.11475   0.12045   0.12284   0.13040   0.13388
 Alpha virt. eigenvalues --    0.13423   0.14050   0.14541   0.14783   0.15000
 Alpha virt. eigenvalues --    0.15145   0.15598   0.15937   0.16575   0.16830
 Alpha virt. eigenvalues --    0.16961   0.17214   0.17691   0.17952   0.18325
 Alpha virt. eigenvalues --    0.18618   0.18959   0.19116   0.19493   0.19999
 Alpha virt. eigenvalues --    0.20528   0.20907   0.21163   0.21270   0.21800
 Alpha virt. eigenvalues --    0.22135   0.22321   0.22362   0.23482   0.23716
 Alpha virt. eigenvalues --    0.24584   0.24685   0.24946   0.25569   0.25800
 Alpha virt. eigenvalues --    0.26363   0.26619   0.27324   0.27864   0.28125
 Alpha virt. eigenvalues --    0.28398   0.28439   0.28734   0.29498   0.30250
 Alpha virt. eigenvalues --    0.30543   0.31076   0.31576   0.31715   0.32034
 Alpha virt. eigenvalues --    0.32395   0.32895   0.33326   0.34039   0.34367
 Alpha virt. eigenvalues --    0.34988   0.35464   0.35733   0.36000   0.36580
 Alpha virt. eigenvalues --    0.37198   0.37468   0.38100   0.38660   0.39884
 Alpha virt. eigenvalues --    0.40055   0.41216   0.42164   0.43299   0.43479
 Alpha virt. eigenvalues --    0.44835   0.46755   0.47736   0.47893   0.48638
 Alpha virt. eigenvalues --    0.49318   0.50771   0.51677   0.53732   0.54184
 Alpha virt. eigenvalues --    0.54569   0.56405   0.56792   0.58259   0.58370
 Alpha virt. eigenvalues --    0.59167   0.60374   0.61562   0.62132   0.62698
 Alpha virt. eigenvalues --    0.63999   0.64581   0.65552   0.66162   0.66605
 Alpha virt. eigenvalues --    0.68136   0.68649   0.68893   0.69790   0.70604
 Alpha virt. eigenvalues --    0.70850   0.71896   0.71931   0.72250   0.73318
 Alpha virt. eigenvalues --    0.73775   0.74693   0.75549   0.76094   0.76608
 Alpha virt. eigenvalues --    0.77385   0.78089   0.80802   0.81222   0.83342
 Alpha virt. eigenvalues --    0.83982   0.84333   0.85487   0.86707   0.87741
 Alpha virt. eigenvalues --    0.89214   0.89826   0.91385   0.92550   0.93020
 Alpha virt. eigenvalues --    0.94333   0.95064   0.95213   0.96010   0.96834
 Alpha virt. eigenvalues --    0.99907   1.01172   1.02514   1.04004   1.05268
 Alpha virt. eigenvalues --    1.06436   1.06630   1.07226   1.08995   1.10809
 Alpha virt. eigenvalues --    1.12433   1.13756   1.15855   1.16143   1.17732
 Alpha virt. eigenvalues --    1.18416   1.19889   1.21257   1.22127   1.23152
 Alpha virt. eigenvalues --    1.23239   1.24876   1.26591   1.27316   1.28049
 Alpha virt. eigenvalues --    1.29632   1.30422   1.31212   1.33276   1.35571
 Alpha virt. eigenvalues --    1.37460   1.38863   1.39773   1.39824   1.41889
 Alpha virt. eigenvalues --    1.42449   1.45984   1.46820   1.48129   1.49143
 Alpha virt. eigenvalues --    1.51874   1.52386   1.55509   1.55908   1.58200
 Alpha virt. eigenvalues --    1.58827   1.59394   1.59924   1.61704   1.63139
 Alpha virt. eigenvalues --    1.63889   1.64297   1.65213   1.66749   1.67465
 Alpha virt. eigenvalues --    1.67864   1.68077   1.68588   1.70215   1.71645
 Alpha virt. eigenvalues --    1.72431   1.73788   1.74988   1.76106   1.77717
 Alpha virt. eigenvalues --    1.79317   1.80966   1.82365   1.82940   1.83347
 Alpha virt. eigenvalues --    1.84769   1.85780   1.87078   1.89577   1.91684
 Alpha virt. eigenvalues --    1.92415   1.94135   1.95161   1.96769   1.99649
 Alpha virt. eigenvalues --    2.00659   2.02181   2.03293   2.05688   2.07817
 Alpha virt. eigenvalues --    2.08424   2.10819   2.11530   2.12393   2.15062
 Alpha virt. eigenvalues --    2.15233   2.17406   2.19580   2.23612   2.24418
 Alpha virt. eigenvalues --    2.24796   2.25807   2.28112   2.29049   2.32089
 Alpha virt. eigenvalues --    2.33758   2.36910   2.40052   2.42562   2.46088
 Alpha virt. eigenvalues --    2.46946   2.48066   2.48901   2.52426   2.53091
 Alpha virt. eigenvalues --    2.54062   2.54913   2.55689   2.57119   2.59865
 Alpha virt. eigenvalues --    2.61612   2.62293   2.62380   2.64160   2.65767
 Alpha virt. eigenvalues --    2.66951   2.67976   2.69162   2.71806   2.72799
 Alpha virt. eigenvalues --    2.74470   2.75188   2.77567   2.79188   2.80106
 Alpha virt. eigenvalues --    2.80390   2.81896   2.82087   2.83464   2.85552
 Alpha virt. eigenvalues --    2.86134   2.87559   2.89299   2.90164   2.90961
 Alpha virt. eigenvalues --    2.91509   2.93435   2.94645   2.95769   2.96362
 Alpha virt. eigenvalues --    2.96874   2.98116   2.99938   3.00592   3.02267
 Alpha virt. eigenvalues --    3.03761   3.05994   3.07642   3.09714   3.13421
 Alpha virt. eigenvalues --    3.15181   3.15881   3.18127   3.21253   3.25243
 Alpha virt. eigenvalues --    3.30571   3.31828   3.36195   3.37187   3.43294
 Alpha virt. eigenvalues --    3.44371   3.52079   3.53989   3.57290   3.59127
 Alpha virt. eigenvalues --    3.63330   3.65609   3.69304   3.70612   3.73220
 Alpha virt. eigenvalues --    3.76444   3.79881   3.83189   3.83504   3.87585
 Alpha virt. eigenvalues --    3.88186   3.93215   3.96043   3.99195   4.06260
 Alpha virt. eigenvalues --    4.08723   4.09882   4.15125   4.21112   4.31882
 Alpha virt. eigenvalues --    4.34907   4.52765   4.72888   4.79237   4.82794
 Alpha virt. eigenvalues --    4.86092   4.94247   4.96094   4.98429   5.05574
 Alpha virt. eigenvalues --    5.13407   5.17953   5.28224   5.30146   5.41178
 Alpha virt. eigenvalues --    5.60170   5.80727   5.84134  23.77486  23.80089
 Alpha virt. eigenvalues --   23.83296  23.86246  23.88274  23.91756  23.92952
 Alpha virt. eigenvalues --   23.96605  24.15748  35.56116  35.60187  35.61796
 Alpha virt. eigenvalues --   35.71015  49.86337  49.99374  50.03333
          Condensed to atoms (all electrons):
               1          2          3          4          5          6
     1  O    7.998844   0.449676  -0.172296  -0.094241   0.010000   0.000090
     2  C    0.449676   9.161612  -0.221397  -0.996800   0.048448   0.015187
     3  N   -0.172296  -0.221397   8.044826  -1.015802   0.240258   0.026650
     4  C   -0.094241  -0.996800  -1.015802  15.143012  -3.603636  -0.077000
     5  C    0.010000   0.048448   0.240258  -3.603636   8.740350   0.128915
     6  O    0.000090   0.015187   0.026650  -0.077000   0.128915   7.993728
     7  O    0.002309   0.048509   0.037430  -0.097069   0.495787  -0.136755
     8  C   -0.014541  -0.066792   0.203927  -0.496506  -0.454321  -0.082348
     9  C   -0.018433   0.271736   0.004255  -1.670173   0.788510   0.026677
    10  C   -0.025911  -0.339284   0.426556  -1.266717  -0.184173   0.002541
    11  N    0.002379   0.032183  -0.012349   0.003144   0.011107   0.000233
    12  C   -0.000426  -0.004624  -0.001783  -0.182960  -0.039255   0.000881
    13  N   -0.000023   0.005347  -0.000019   0.010437  -0.027829  -0.000869
    14  C    0.094052  -2.127860  -0.749960   0.257205  -0.126352   0.002518
    15  C   -0.000552   0.437034   0.000647  -0.041008  -0.021458  -0.000404
    16  N    0.002800  -0.058369  -0.007660   0.007948  -0.003823   0.000015
    17  H   -0.000319   0.011085   0.291861  -0.159720   0.042079   0.002213
    18  H    0.008989  -0.056421  -0.193511   0.667726  -0.016727  -0.012976
    19  H   -0.000021  -0.007105   0.002533  -0.179462   0.192733   0.212307
    20  H    0.001914   0.007935   0.067914  -0.270531  -0.054297   0.022037
    21  H   -0.001406   0.003273  -0.101391   0.389013  -0.071164  -0.005414
    22  H    0.044278   0.076606   0.011172  -0.174246   0.009417   0.000355
    23  H   -0.000034  -0.000692  -0.000737  -0.000630  -0.000516   0.000015
    24  H    0.000039  -0.000220   0.001938  -0.026770   0.001139   0.000107
    25  H    0.010156  -0.205617  -0.011622   0.114664  -0.023195  -0.000450
    26  H   -0.002514  -0.077261   0.013898   0.014529  -0.007186   0.000197
    27  H   -0.015651   0.029312  -0.003489  -0.004652   0.001703   0.000319
    28  H    0.000306  -0.033008  -0.001212  -0.002331   0.002289  -0.000040
    29  H   -0.000135  -0.008217  -0.002676  -0.004139   0.000546   0.000003
    30  H    0.000407   0.009215   0.000270   0.000795  -0.000519  -0.000001
               7          8          9         10         11         12
     1  O    0.002309  -0.014541  -0.018433  -0.025911   0.002379  -0.000426
     2  C    0.048509  -0.066792   0.271736  -0.339284   0.032183  -0.004624
     3  N    0.037430   0.203927   0.004255   0.426556  -0.012349  -0.001783
     4  C   -0.097069  -0.496506  -1.670173  -1.266717   0.003144  -0.182960
     5  C    0.495787  -0.454321   0.788510  -0.184173   0.011107  -0.039255
     6  O   -0.136755  -0.082348   0.026677   0.002541   0.000233   0.000881
     7  O    7.970380  -0.066651  -0.011538   0.002596  -0.000050  -0.000188
     8  C   -0.066651   6.450003   0.195951   0.065187  -0.029192   0.018363
     9  C   -0.011538   0.195951   8.739260  -1.872721   0.074912  -0.430492
    10  C    0.002596   0.065187  -1.872721   9.613370   0.426034  -0.238441
    11  N   -0.000050  -0.029192   0.074912   0.426034   6.524107   0.224401
    12  C   -0.000188   0.018363  -0.430492  -0.238441   0.224401   5.759942
    13  N    0.000395  -0.056892   0.071404  -0.054173   0.014773   0.164821
    14  C    0.013893  -0.137712  -0.002273  -0.262700  -0.002288  -0.012518
    15  C   -0.000054  -0.000350   0.011379  -0.014394   0.000578   0.000286
    16  N    0.000033  -0.001578   0.001134  -0.001793   0.000023  -0.000019
    17  H    0.011357   0.009243   0.037500   0.007506  -0.000717  -0.001919
    18  H   -0.013504  -0.083065   0.034511  -0.164596   0.002365   0.003562
    19  H   -0.011661  -0.003767   0.016038  -0.001962   0.000044  -0.000045
    20  H    0.009385   0.409416   0.026138   0.113749  -0.000260   0.004629
    21  H   -0.005796   0.344074  -0.200593  -0.102634   0.001646   0.014215
    22  H   -0.000785  -0.018675  -0.252418   0.616734  -0.081067   0.091915
    23  H   -0.000012   0.008625   0.050553  -0.034227  -0.075122   0.461423
    24  H    0.000018  -0.005549  -0.025716  -0.008733   0.008553   0.001001
    25  H   -0.005028  -0.017931  -0.006980  -0.012638   0.000054   0.000187
    26  H    0.001308  -0.000424   0.002614  -0.003697  -0.001053  -0.002311
    27  H    0.000524   0.001242   0.001460  -0.001387   0.000037   0.000107
    28  H   -0.000114  -0.000314   0.002570  -0.000331   0.000105  -0.000088
    29  H    0.000083   0.000189   0.000237  -0.000165   0.000006   0.000001
    30  H    0.000003  -0.000112   0.000199  -0.000317   0.000008  -0.000001
              13         14         15         16         17         18
     1  O   -0.000023   0.094052  -0.000552   0.002800  -0.000319   0.008989
     2  C    0.005347  -2.127860   0.437034  -0.058369   0.011085  -0.056421
     3  N   -0.000019  -0.749960   0.000647  -0.007660   0.291861  -0.193511
     4  C    0.010437   0.257205  -0.041008   0.007948  -0.159720   0.667726
     5  C   -0.027829  -0.126352  -0.021458  -0.003823   0.042079  -0.016727
     6  O   -0.000869   0.002518  -0.000404   0.000015   0.002213  -0.012976
     7  O    0.000395   0.013893  -0.000054   0.000033   0.011357  -0.013504
     8  C   -0.056892  -0.137712  -0.000350  -0.001578   0.009243  -0.083065
     9  C    0.071404  -0.002273   0.011379   0.001134   0.037500   0.034511
    10  C   -0.054173  -0.262700  -0.014394  -0.001793   0.007506  -0.164596
    11  N    0.014773  -0.002288   0.000578   0.000023  -0.000717   0.002365
    12  C    0.164821  -0.012518   0.000286  -0.000019  -0.001919   0.003562
    13  N    6.797616  -0.001523   0.001135  -0.000005   0.001487   0.001722
    14  C   -0.001523   8.795982  -0.567518  -0.031412   0.052122   0.040671
    15  C    0.001135  -0.567518   6.035034   0.148764  -0.021155  -0.000505
    16  N   -0.000005  -0.031412   0.148764   6.627615  -0.004751   0.001290
    17  H    0.001487   0.052122  -0.021155  -0.004751   0.457287  -0.015343
    18  H    0.001722   0.040671  -0.000505   0.001290  -0.015343   0.501122
    19  H   -0.000385  -0.003335  -0.000009  -0.000007  -0.000294   0.008764
    20  H    0.000301   0.000556   0.000100   0.000000   0.006754  -0.041472
    21  H    0.003794   0.013091  -0.000044   0.000182  -0.019664   0.034150
    22  H    0.004117  -0.037378  -0.003055  -0.001505   0.002467  -0.026190
    23  H   -0.122845  -0.000093  -0.000053  -0.000001  -0.000172   0.000787
    24  H    0.352685  -0.000829   0.000095  -0.000001   0.000929  -0.001087
    25  H   -0.000332   0.427258   0.008898   0.013462  -0.019361   0.006896
    26  H    0.000559   0.484580  -0.106120   0.007623   0.007890  -0.000628
    27  H    0.000004   0.028244   0.331481  -0.136529   0.008156  -0.000484
    28  H   -0.000088  -0.045507   0.438752  -0.034828  -0.001299   0.000933
    29  H    0.000003   0.015353  -0.061735   0.395433   0.001131  -0.000142
    30  H    0.000002  -0.015560  -0.039558   0.407929  -0.000635   0.000054
              19         20         21         22         23         24
     1  O   -0.000021   0.001914  -0.001406   0.044278  -0.000034   0.000039
     2  C   -0.007105   0.007935   0.003273   0.076606  -0.000692  -0.000220
     3  N    0.002533   0.067914  -0.101391   0.011172  -0.000737   0.001938
     4  C   -0.179462  -0.270531   0.389013  -0.174246  -0.000630  -0.026770
     5  C    0.192733  -0.054297  -0.071164   0.009417  -0.000516   0.001139
     6  O    0.212307   0.022037  -0.005414   0.000355   0.000015   0.000107
     7  O   -0.011661   0.009385  -0.005796  -0.000785  -0.000012   0.000018
     8  C   -0.003767   0.409416   0.344074  -0.018675   0.008625  -0.005549
     9  C    0.016038   0.026138  -0.200593  -0.252418   0.050553  -0.025716
    10  C   -0.001962   0.113749  -0.102634   0.616734  -0.034227  -0.008733
    11  N    0.000044  -0.000260   0.001646  -0.081067  -0.075122   0.008553
    12  C   -0.000045   0.004629   0.014215   0.091915   0.461423   0.001001
    13  N   -0.000385   0.000301   0.003794   0.004117  -0.122845   0.352685
    14  C   -0.003335   0.000556   0.013091  -0.037378  -0.000093  -0.000829
    15  C   -0.000009   0.000100  -0.000044  -0.003055  -0.000053   0.000095
    16  N   -0.000007   0.000000   0.000182  -0.001505  -0.000001  -0.000001
    17  H   -0.000294   0.006754  -0.019664   0.002467  -0.000172   0.000929
    18  H    0.008764  -0.041472   0.034150  -0.026190   0.000787  -0.001087
    19  H    0.486694  -0.005650  -0.000179  -0.000360  -0.000003  -0.000009
    20  H   -0.005650   0.569684  -0.073587   0.006781  -0.001033   0.001966
    21  H   -0.000179  -0.073587   0.611029  -0.006370   0.001233  -0.004319
    22  H   -0.000360   0.006781  -0.006370   0.578182   0.000626   0.002089
    23  H   -0.000003  -0.001033   0.001233   0.000626   0.533199  -0.000249
    24  H   -0.000009   0.001966  -0.004319   0.002089  -0.000249   0.401680
    25  H   -0.000244  -0.000819   0.004871  -0.008087   0.000015  -0.000128
    26  H    0.000027   0.000263  -0.000546  -0.004546  -0.000110  -0.000001
    27  H    0.000043  -0.000074  -0.000155   0.003173   0.000006   0.000004
    28  H    0.000007  -0.000036  -0.000006  -0.004426   0.000004  -0.000004
    29  H    0.000002   0.000005  -0.000037   0.000004   0.000000   0.000001
    30  H   -0.000002   0.000004   0.000008  -0.000262  -0.000001   0.000000
              25         26         27         28         29         30
     1  O    0.010156  -0.002514  -0.015651   0.000306  -0.000135   0.000407
     2  C   -0.205617  -0.077261   0.029312  -0.033008  -0.008217   0.009215
     3  N   -0.011622   0.013898  -0.003489  -0.001212  -0.002676   0.000270
     4  C    0.114664   0.014529  -0.004652  -0.002331  -0.004139   0.000795
     5  C   -0.023195  -0.007186   0.001703   0.002289   0.000546  -0.000519
     6  O   -0.000450   0.000197   0.000319  -0.000040   0.000003  -0.000001
     7  O   -0.005028   0.001308   0.000524  -0.000114   0.000083   0.000003
     8  C   -0.017931  -0.000424   0.001242  -0.000314   0.000189  -0.000112
     9  C   -0.006980   0.002614   0.001460   0.002570   0.000237   0.000199
    10  C   -0.012638  -0.003697  -0.001387  -0.000331  -0.000165  -0.000317
    11  N    0.000054  -0.001053   0.000037   0.000105   0.000006   0.000008
    12  C    0.000187  -0.002311   0.000107  -0.000088   0.000001  -0.000001
    13  N   -0.000332   0.000559   0.000004  -0.000088   0.000003   0.000002
    14  C    0.427258   0.484580   0.028244  -0.045507   0.015353  -0.015560
    15  C    0.008898  -0.106120   0.331481   0.438752  -0.061735  -0.039558
    16  N    0.013462   0.007623  -0.136529  -0.034828   0.395433   0.407929
    17  H   -0.019361   0.007890   0.008156  -0.001299   0.001131  -0.000635
    18  H    0.006896  -0.000628  -0.000484   0.000933  -0.000142   0.000054
    19  H   -0.000244   0.000027   0.000043   0.000007   0.000002  -0.000002
    20  H   -0.000819   0.000263  -0.000074  -0.000036   0.000005   0.000004
    21  H    0.004871  -0.000546  -0.000155  -0.000006  -0.000037   0.000008
    22  H   -0.008087  -0.004546   0.003173  -0.004426   0.000004  -0.000262
    23  H    0.000015  -0.000110   0.000006   0.000004   0.000000  -0.000001
    24  H   -0.000128  -0.000001   0.000004  -0.000004   0.000001   0.000000
    25  H    0.696952  -0.067947  -0.058595   0.021309   0.006873   0.003121
    26  H   -0.067947   0.516516   0.019243  -0.015147  -0.000704   0.000683
    27  H   -0.058595   0.019243   0.731279  -0.073469  -0.006903   0.002076
    28  H    0.021309  -0.015147  -0.073469   0.542249   0.012244  -0.012892
    29  H    0.006873  -0.000704  -0.006903   0.012244   0.514759  -0.062808
    30  H    0.003121   0.000683   0.002076  -0.012892  -0.062808   0.470922
 Mulliken charges:
               1
     1  O   -0.279735
     2  C   -0.403495
     3  N    0.121770
     4  C   -0.244082
     5  C   -0.078827
     6  O   -0.118732
     7  O   -0.244804
     8  C   -0.169501
     9  C    0.134297
    10  C   -0.683276
    11  N   -0.124596
    12  C    0.169337
    13  N   -0.165620
    14  C   -0.100710
    15  C   -0.536211
    16  N   -0.331971
    17  H    0.294279
    18  H    0.313110
    19  H    0.295311
    20  H    0.198227
    21  H    0.172728
    22  H    0.171452
    23  H    0.180043
    24  H    0.301370
    25  H    0.124259
    26  H    0.220266
    27  H    0.142977
    28  H    0.204373
    29  H    0.200791
    30  H    0.236971
 Sum of Mulliken charges =   0.00000
 Mulliken charges with hydrogens summed into heavy atoms:
               1
     1  O   -0.279735
     2  C   -0.403495
     3  N    0.416049
     4  C    0.069027
     5  C   -0.078827
     6  O    0.176579
     7  O   -0.244804
     8  C    0.201454
     9  C    0.134297
    10  C   -0.511823
    11  N   -0.124596
    12  C    0.349380
    13  N    0.135751
    14  C    0.243814
    15  C   -0.188861
    16  N    0.105791
 APT charges:
               1
     1  O   -0.301634
     2  C   -0.325018
     3  N   -0.310736
     4  C   -0.629765
     5  C   -0.462808
     6  O   -0.590999
     7  O   -0.065647
     8  C   -0.722910
     9  C   -0.239377
    10  C   -0.211772
    11  N   -0.470204
    12  C   -0.228331
    13  N   -0.621252
    14  C   -0.508425
    15  C   -0.508080
    16  N   -1.849918
    17  H    0.512530
    18  H    0.401053
    19  H    1.025849
    20  H    0.594659
    21  H    0.381595
    22  H    0.090596
    23  H    1.077243
    24  H    0.901484
    25  H    0.367668
    26  H    0.341335
    27  H    0.355295
    28  H    0.345486
    29  H    0.581792
    30  H    1.070291
 Sum of APT charges =   0.00000
 APT charges with hydrogens summed into heavy atoms:
               1
     1  O   -0.301634
     2  C   -0.325018
     3  N    0.201794
     4  C   -0.228711
     5  C   -0.462808
     6  O    0.434851
     7  O   -0.065647
     8  C    0.253343
     9  C   -0.239377
    10  C   -0.121175
    11  N   -0.470204
    12  C    0.848913
    13  N    0.280232
    14  C    0.200577
    15  C    0.192701
    16  N   -0.197836
 Electronic spatial extent (au):  <R**2>=           4717.1433
 Charge=              0.0000 electrons
 Dipole moment (field-independent basis, Debye):
    X=             -1.6220    Y=             -5.5070    Z=             -2.2986  Tot=              6.1840
 Quadrupole moment (field-independent basis, Debye-Ang):
   XX=            -75.0017   YY=           -105.6949   ZZ=            -92.9786
   XY=              7.2198   XZ=             13.0365   YZ=             -3.4786
 Traceless Quadrupole moment (field-independent basis, Debye-Ang):
   XX=             16.2234   YY=            -14.4698   ZZ=             -1.7535
   XY=              7.2198   XZ=             13.0365   YZ=             -3.4786
 Octapole moment (field-independent basis, Debye-Ang**2):
  XXX=             73.2813  YYY=            -62.7123  ZZZ=            -18.6043  XYY=             18.9654
  XXY=            -25.3316  XXZ=            -19.8501  XZZ=              5.8991  YZZ=             -8.6088
  YYZ=             22.8166  XYZ=             23.0002
 Hexadecapole moment (field-independent basis, Debye-Ang**3):
 XXXX=          -3142.0687 YYYY=          -1930.7564 ZZZZ=           -579.9853 XXXY=            -43.8093
 XXXZ=             40.4452 YYYX=            256.6294 YYYZ=             98.1130 ZZZX=           -289.3362
 ZZZY=            184.7618 XXYY=           -944.9719 XXZZ=           -605.9625 YYZZ=           -363.6711
 XXYZ=             74.2973 YYXZ=           -103.7671 ZZXY=             -0.2805
 N-N= 1.109201310669D+03 E-N=-4.079458859454D+03  KE= 7.934535151737D+02
  Exact polarizability:   0.000   0.000   0.000   0.000   0.000   0.000
 Approx polarizability: 201.936  -0.382 220.138  10.132  14.878 193.445
 Calling FoFJK, ICntrl=    100147 FMM=F ISym2X=0 I1Cent= 0 IOpClX= 0 NMat=1 NMatS=1 NMatT=0.
 -------------------------------------------------------------------
 Center     Atomic                   Forces (Hartrees/Bohr)
 Number     Number              X              Y              Z
 -------------------------------------------------------------------
      1        8           0.002184929   -0.004843229   -0.004810404
      2        6           0.000683338    0.008986132    0.005404961
      3        7          -0.002780647   -0.004492751    0.000649761
      4        6           0.000501288    0.002221891   -0.003375425
      5        6          -0.002939981    0.001365061    0.002676942
      6        8           0.001285609    0.001485341   -0.000962744
      7        8           0.002832824   -0.002024274   -0.001427280
      8        6          -0.006735946    0.008140568   -0.000592871
      9        6           0.001464341   -0.006515362    0.000289562
     10        6           0.006669857    0.003916807    0.005647698
     11        7           0.000948117   -0.002410165    0.000644169
     12        6          -0.001152350    0.009039590   -0.000109976
     13        7          -0.001633569   -0.009199143   -0.002776777
     14        6          -0.002034668   -0.000120661    0.000583387
     15        6          -0.001077936    0.001672510    0.000381008
     16        7           0.001146197   -0.000087009    0.001711432
     17        1           0.001229958   -0.000350294   -0.000788992
     18        1           0.000678988    0.000120070    0.001274223
     19        1          -0.001779660   -0.005131293    0.002222905
     20        1          -0.000645701   -0.002084978    0.001464771
     21        1           0.002472831   -0.002485842   -0.002733640
     22        1          -0.001544563    0.003270348   -0.000102290
     23        1          -0.001440205    0.001326132   -0.001104898
     24        1          -0.001643160   -0.000312973   -0.001382938
     25        1           0.000904959   -0.001341861   -0.001366880
     26        1          -0.000439992    0.000643948   -0.001395595
     27        1          -0.000024194   -0.000511080    0.001450882
     28        1           0.000654324   -0.000843288    0.000293243
     29        1           0.000929864   -0.001559182   -0.002315851
     30        1           0.001285147    0.002124985    0.000551617
 -------------------------------------------------------------------
 Cartesian Forces:  Max     0.009199143 RMS     0.002988610
 FormGI is forming the generalized inverse of G from B-inverse, IUseBI=4.

 GradGradGradGradGradGradGradGradGradGradGradGradGradGradGradGradGradGrad
 Berny optimization.
 Internal  Forces:  Max     0.008884748 RMS     0.001982285
 Search for a local minimum.
 Step number   1 out of a maximum of  160
 All quantities printed in internal units (Hartrees-Bohrs-Radians)
 Mixed Optimization -- RFO/linear search
 Second derivative matrix not updated -- analytic derivatives used.
 ITU=  0
     Eigenvalues ---   -0.00020   0.00084   0.00198   0.00222   0.00249
     Eigenvalues ---    0.00361   0.00452   0.00527   0.00713   0.00885
     Eigenvalues ---    0.01600   0.02015   0.02047   0.02673   0.03273
     Eigenvalues ---    0.03402   0.03921   0.04075   0.04187   0.04361
     Eigenvalues ---    0.04460   0.04540   0.05087   0.05106   0.05287
     Eigenvalues ---    0.05459   0.05741   0.06154   0.07660   0.08111
     Eigenvalues ---    0.08212   0.10325   0.10778   0.11105   0.11757
     Eigenvalues ---    0.11829   0.12311   0.13540   0.15054   0.15399
     Eigenvalues ---    0.15725   0.16657   0.17882   0.18243   0.18577
     Eigenvalues ---    0.20184   0.21194   0.21804   0.23050   0.23292
     Eigenvalues ---    0.24194   0.24301   0.24706   0.26748   0.29539
     Eigenvalues ---    0.30041   0.31496   0.32818   0.32989   0.33269
     Eigenvalues ---    0.33632   0.33785   0.33916   0.34168   0.34240
     Eigenvalues ---    0.35065   0.36051   0.36964   0.37392   0.37510
     Eigenvalues ---    0.40252   0.40856   0.42595   0.45024   0.45090
     Eigenvalues ---    0.45441   0.46494   0.47005   0.48236   0.48522
     Eigenvalues ---    0.52763   0.58960   0.78389   0.88295
 RFO step:  Lambda=-2.71823173D-03 EMin=-1.97742035D-04
 Linear search not attempted -- first point.
 Iteration  1 RMS(Cart)=  0.13406994 RMS(Int)=  0.02523279
 Iteration  2 RMS(Cart)=  0.06636964 RMS(Int)=  0.00248535
 Iteration  3 RMS(Cart)=  0.00337746 RMS(Int)=  0.00023382
 Iteration  4 RMS(Cart)=  0.00000658 RMS(Int)=  0.00023378
 Iteration  5 RMS(Cart)=  0.00000000 RMS(Int)=  0.00023378
 Variable       Old X    -DE/DX   Delta X   Delta X   Delta X     New X
                                 (Linear)    (Quad)   (Total)
    R1        2.31812  -0.00691   0.00000  -0.00927  -0.00927   2.30885
    R2        2.57906   0.00528   0.00000   0.00900   0.00900   2.58805
    R3        2.86484   0.00125   0.00000   0.00111   0.00111   2.86596
    R4        2.73253   0.00190   0.00000  -0.00245  -0.00245   2.73008
    R5        1.90597   0.00126   0.00000   0.00070   0.00070   1.90667
    R6        2.86430   0.00461   0.00000   0.01370   0.01370   2.87801
    R7        2.90278   0.00343   0.00000   0.01365   0.01365   2.91644
    R8        2.05876   0.00107   0.00000   0.00357   0.00357   2.06233
    R9        2.54863   0.00231   0.00000   0.00074   0.00074   2.54937
   R10        2.27374   0.00375   0.00000   0.00356   0.00356   2.27730
   R11        1.82376   0.00501   0.00000   0.00817   0.00817   1.83193
   R12        2.83481  -0.00133   0.00000  -0.01114  -0.01114   2.82367
   R13        2.06385   0.00205   0.00000   0.00569   0.00569   2.06954
   R14        2.06272   0.00388   0.00000   0.01163   0.01163   2.07435
   R15        2.57926   0.00888   0.00000   0.01587   0.01586   2.59512
   R16        2.61010   0.00492   0.00000   0.00758   0.00757   2.61768
   R17        2.61332   0.00022   0.00000  -0.00212  -0.00212   2.61120
   R18        2.04086  -0.00108   0.00000  -0.00258  -0.00258   2.03828
   R19        2.47726   0.00168   0.00000  -0.00133  -0.00132   2.47594
   R20        2.56725   0.00864   0.00000   0.02100   0.02100   2.58825
   R21        2.03397   0.00225   0.00000   0.00541   0.00541   2.03938
   R22        1.90059   0.00193   0.00000   0.00371   0.00371   1.90431
   R23        2.87419   0.00362   0.00000   0.01381   0.01381   2.88800
   R24        2.06530   0.00203   0.00000   0.00417   0.00417   2.06947
   R25        2.06534   0.00145   0.00000   0.00391   0.00391   2.06925
   R26        2.76896   0.00303   0.00000   0.00096   0.00096   2.76992
   R27        2.07330   0.00140   0.00000   0.00721   0.00721   2.08051
   R28        2.06338  -0.00078   0.00000  -0.00289  -0.00289   2.06049
   R29        1.91558   0.00243   0.00000   0.00310   0.00310   1.91868
   R30        1.91424   0.00198   0.00000   0.00213   0.00213   1.91637
    A1        2.13752  -0.00138   0.00000  -0.00218  -0.00220   2.13532
    A2        2.14281  -0.00039   0.00000  -0.00769  -0.00771   2.13510
    A3        2.00104   0.00181   0.00000   0.01057   0.01055   2.01159
    A4        2.11912   0.00145   0.00000   0.00955   0.00809   2.12721
    A5        2.05303  -0.00157   0.00000   0.00873   0.00711   2.06015
    A6        2.01368   0.00057   0.00000   0.02281   0.02138   2.03506
    A7        1.90692   0.00020   0.00000   0.00492   0.00491   1.91183
    A8        1.96862  -0.00036   0.00000  -0.00280  -0.00282   1.96580
    A9        1.87900  -0.00008   0.00000  -0.00669  -0.00669   1.87232
   A10        1.89743   0.00046   0.00000   0.00713   0.00712   1.90456
   A11        1.90690  -0.00075   0.00000  -0.01159  -0.01160   1.89529
   A12        1.90427   0.00048   0.00000   0.00844   0.00846   1.91273
   A13        1.94570   0.00179   0.00000   0.00233   0.00233   1.94803
   A14        2.18723  -0.00117   0.00000  -0.00482  -0.00483   2.18241
   A15        2.14973  -0.00062   0.00000   0.00259   0.00259   2.15232
   A16        1.84970   0.00556   0.00000   0.02876   0.02876   1.87846
   A17        1.96837   0.00269   0.00000   0.00210   0.00207   1.97044
   A18        1.89393  -0.00110   0.00000  -0.00496  -0.00508   1.88885
   A19        1.91810  -0.00304   0.00000  -0.02872  -0.02877   1.88934
   A20        1.90354   0.00000   0.00000   0.02079   0.02074   1.92428
   A21        1.91643   0.00060   0.00000   0.00725   0.00712   1.92355
   A22        1.86011   0.00076   0.00000   0.00397   0.00368   1.86379
   A23        2.32418   0.00298   0.00000   0.00967   0.00968   2.33385
   A24        2.13396  -0.00350   0.00000  -0.01298  -0.01297   2.12099
   A25        1.82494   0.00052   0.00000   0.00326   0.00324   1.82818
   A26        1.93771  -0.00204   0.00000  -0.00725  -0.00725   1.93046
   A27        2.20286   0.00446   0.00000   0.02844   0.02844   2.23130
   A28        2.14258  -0.00242   0.00000  -0.02118  -0.02118   2.12140
   A29        1.83324   0.00419   0.00000   0.01348   0.01349   1.84673
   A30        1.94874  -0.00140   0.00000  -0.00626  -0.00626   1.94248
   A31        2.19938   0.00059   0.00000   0.00459   0.00459   2.20397
   A32        2.13506   0.00081   0.00000   0.00167   0.00167   2.13673
   A33        1.88015  -0.00127   0.00000  -0.00322  -0.00323   1.87692
   A34        2.19401   0.00158   0.00000   0.00759   0.00760   2.20161
   A35        2.20902  -0.00031   0.00000  -0.00438  -0.00437   2.20465
   A36        1.96585  -0.00050   0.00000  -0.01441  -0.01451   1.95134
   A37        1.91474   0.00075   0.00000   0.02592   0.02598   1.94072
   A38        1.88911  -0.00042   0.00000  -0.01375  -0.01388   1.87524
   A39        1.92621  -0.00010   0.00000   0.00193   0.00198   1.92819
   A40        1.89900   0.00064   0.00000  -0.00117  -0.00139   1.89761
   A41        1.86576  -0.00037   0.00000   0.00166   0.00174   1.86750
   A42        1.90467   0.00163   0.00000   0.01216   0.01215   1.91682
   A43        1.90662  -0.00034   0.00000  -0.00154  -0.00157   1.90505
   A44        1.89545   0.00001   0.00000  -0.00409  -0.00408   1.89136
   A45        1.98457  -0.00023   0.00000  -0.00002  -0.00004   1.98452
   A46        1.90074  -0.00092   0.00000  -0.00366  -0.00365   1.89709
   A47        1.86982  -0.00018   0.00000  -0.00345  -0.00347   1.86635
   A48        1.91673   0.00178   0.00000   0.02136   0.02105   1.93778
   A49        1.91952   0.00100   0.00000   0.01384   0.01352   1.93304
   A50        1.84707   0.00007   0.00000   0.02024   0.01963   1.86670
    D1       -0.25950   0.00200   0.00000   0.12362   0.12353  -0.13597
    D2       -2.92009   0.00080   0.00000   0.02243   0.02255  -2.89754
    D3        2.94530   0.00140   0.00000   0.11165   0.11153   3.05683
    D4        0.28471   0.00020   0.00000   0.01046   0.01055   0.29526
    D5        0.47831  -0.00024   0.00000   0.28898   0.28908   0.76739
    D6        2.63126  -0.00017   0.00000   0.30039   0.30041   2.93167
    D7       -1.62201  -0.00044   0.00000   0.30876   0.30866  -1.31335
    D8       -2.72670   0.00033   0.00000   0.30122   0.30130  -2.42540
    D9       -0.57374   0.00039   0.00000   0.31262   0.31263  -0.26112
   D10        1.45617   0.00012   0.00000   0.32099   0.32088   1.77705
   D11       -1.91871   0.00021   0.00000  -0.06071  -0.06094  -1.97965
   D12        2.25210  -0.00029   0.00000  -0.07135  -0.07158   2.18051
   D13        0.15031  -0.00062   0.00000  -0.07565  -0.07590   0.07441
   D14        0.75199   0.00081   0.00000   0.03482   0.03506   0.78705
   D15       -1.36038   0.00031   0.00000   0.02417   0.02442  -1.33596
   D16        2.82101  -0.00002   0.00000   0.01988   0.02011   2.84112
   D17        2.87587  -0.00018   0.00000  -0.00612  -0.00613   2.86974
   D18       -0.29971  -0.00002   0.00000  -0.00288  -0.00289  -0.30260
   D19       -1.25218  -0.00019   0.00000  -0.00187  -0.00184  -1.25401
   D20        1.85543  -0.00004   0.00000   0.00138   0.00141   1.85684
   D21        0.82433   0.00023   0.00000   0.00579   0.00577   0.83010
   D22       -2.35125   0.00038   0.00000   0.00904   0.00901  -2.34224
   D23       -1.15020   0.00002   0.00000   0.00265   0.00261  -1.14759
   D24        3.02208  -0.00095   0.00000  -0.02148  -0.02141   3.00067
   D25        0.99436   0.00044   0.00000  -0.00759  -0.00760   0.98676
   D26        3.01521  -0.00033   0.00000  -0.00673  -0.00676   3.00845
   D27        0.90431  -0.00130   0.00000  -0.03085  -0.03078   0.87352
   D28       -1.12341   0.00009   0.00000  -0.01696  -0.01697  -1.14038
   D29        0.93706   0.00002   0.00000  -0.00181  -0.00187   0.93518
   D30       -1.17385  -0.00094   0.00000  -0.02594  -0.02589  -1.19975
   D31        3.08161   0.00045   0.00000  -0.01205  -0.01208   3.06953
   D32        3.11416  -0.00002   0.00000  -0.00097  -0.00096   3.11320
   D33        0.00570  -0.00015   0.00000  -0.00396  -0.00397   0.00173
   D34       -0.06843  -0.00124   0.00000  -0.11049  -0.11055  -0.17898
   D35        3.09122  -0.00113   0.00000  -0.10643  -0.10649   2.98473
   D36        2.03699  -0.00089   0.00000  -0.10100  -0.10102   1.93597
   D37       -1.08655  -0.00078   0.00000  -0.09694  -0.09696  -1.18351
   D38       -2.21392   0.00037   0.00000  -0.08019  -0.08011  -2.29402
   D39        0.94573   0.00048   0.00000  -0.07613  -0.07605   0.86968
   D40       -3.12642   0.00017   0.00000   0.00528   0.00531  -3.12111
   D41        0.02484  -0.00031   0.00000   0.00409   0.00409   0.02893
   D42       -0.00060   0.00004   0.00000   0.00160   0.00160   0.00100
   D43       -3.13253  -0.00044   0.00000   0.00040   0.00038  -3.13215
   D44        3.12876  -0.00006   0.00000  -0.00501  -0.00499   3.12377
   D45       -0.01001  -0.00002   0.00000  -0.00403  -0.00401  -0.01402
   D46        0.00077  -0.00002   0.00000  -0.00207  -0.00207  -0.00130
   D47       -3.13800   0.00002   0.00000  -0.00108  -0.00109  -3.13909
   D48        0.00019  -0.00004   0.00000  -0.00049  -0.00048  -0.00029
   D49        3.13251   0.00046   0.00000   0.00098   0.00097   3.13348
   D50        0.00032   0.00003   0.00000  -0.00089  -0.00089  -0.00058
   D51        3.14077  -0.00001   0.00000   0.00062   0.00063   3.14139
   D52       -0.00070  -0.00001   0.00000   0.00192   0.00192   0.00122
   D53        3.13803  -0.00004   0.00000   0.00095   0.00096   3.13899
   D54       -3.14120   0.00003   0.00000   0.00047   0.00047  -3.14074
   D55       -0.00247  -0.00001   0.00000  -0.00050  -0.00049  -0.00296
   D56       -3.12449   0.00073   0.00000   0.05329   0.05327  -3.07122
   D57        0.97919   0.00016   0.00000   0.04622   0.04620   1.02539
   D58       -1.05467   0.00056   0.00000   0.05347   0.05345  -1.00122
   D59        1.01214   0.00019   0.00000   0.02853   0.02853   1.04068
   D60       -1.16737  -0.00038   0.00000   0.02146   0.02146  -1.14591
   D61        3.08196   0.00002   0.00000   0.02871   0.02871   3.11067
   D62       -1.02987   0.00031   0.00000   0.02610   0.02612  -1.00374
   D63        3.07381  -0.00026   0.00000   0.01903   0.01905   3.09286
   D64        1.03995   0.00015   0.00000   0.02628   0.02630   1.06625
   D65       -1.22649   0.00075   0.00000   0.00492   0.00508  -1.22142
   D66        3.03078  -0.00095   0.00000  -0.04002  -0.04020   2.99059
   D67        0.90677   0.00135   0.00000   0.01190   0.01207   0.91883
   D68       -1.11915  -0.00035   0.00000  -0.03305  -0.03321  -1.15235
   D69        2.99019   0.00033   0.00000   0.00496   0.00512   2.99531
   D70        0.96427  -0.00137   0.00000  -0.03999  -0.04015   0.92413
         Item               Value     Threshold  Converged?
 Maximum Force            0.008885     0.000450     NO 
 RMS     Force            0.001982     0.000300     NO 
 Maximum Displacement     0.675015     0.001800     NO 
 RMS     Displacement     0.177208     0.001200     NO 
 Predicted change in Energy=-1.653630D-03
 GradGradGradGradGradGradGradGradGradGradGradGradGradGradGradGradGradGrad

                          Input orientation:                          
 ---------------------------------------------------------------------
 Center     Atomic      Atomic             Coordinates (Angstroms)
 Number     Number       Type             X           Y           Z
 ---------------------------------------------------------------------
      1          8           0        0.757525    0.761775    1.566694
      2          6           0        1.110055    0.220041    0.529864
      3          7           0        0.309637   -0.663629   -0.144001
      4          6           0       -0.936418   -1.140255    0.410367
      5          6           0       -0.826630   -2.630799    0.703076
      6          8           0       -1.815882   -3.051323    1.518264
      7          8           0        0.011920   -3.365791    0.246045
      8          6           0       -2.136222   -0.896565   -0.529258
      9          6           0       -2.433918    0.554178   -0.727806
     10          6           0       -1.990333    1.705334   -0.124510
     11          7           0       -2.608858    2.811941   -0.674228
     12          6           0       -3.415601    2.348484   -1.596737
     13          7           0       -3.350162    0.982602   -1.674257
     14          6           0        2.435675    0.531355   -0.137883
     15          6           0        3.578802    0.599784    0.874131
     16          7           0        4.817722    0.996349    0.198618
     17          1           0        0.731319   -1.232566   -0.862689
     18          1           0       -1.095581   -0.611589    1.351746
     19          1           0       -1.706217   -4.006195    1.644596
     20          1           0       -3.008869   -1.408769   -0.110332
     21          1           0       -1.920475   -1.374854   -1.493436
     22          1           0       -1.260547    1.800290    0.664034
     23          1           0       -4.061976    2.933862   -2.232498
     24          1           0       -3.874915    0.394637   -2.302291
     25          1           0        2.663286   -0.195935   -0.924345
     26          1           0        2.337236    1.507802   -0.623568
     27          1           0        3.651536   -0.363341    1.402535
     28          1           0        3.331334    1.354168    1.621498
     29          1           0        5.155660    0.255016   -0.407267
     30          1           0        5.550917    1.183904    0.873636
 ---------------------------------------------------------------------
                    Distance matrix (angstroms):
                    1          2          3          4          5
     1  O    0.000000
     2  C    1.221790   0.000000
     3  N    2.271312   1.369538   0.000000
     4  C    2.797186   2.460231   1.444697   0.000000
     5  C    3.842517   3.450803   2.424541   1.522976   0.000000
     6  O    4.600488   4.498875   3.603060   2.377620   1.349071
     7  O    4.397367   3.760937   2.746352   2.424739   1.205096
     8  C    3.939147   3.592612   2.486948   1.543312   2.498249
     9  C    3.936132   3.775332   3.057937   2.531610   3.843810
    10  C    3.361726   3.499530   3.301853   3.081268   4.565212
    11  N    4.534032   4.690213   4.569283   4.426427   5.890393
    12  C    5.471739   5.434544   5.006063   4.727168   6.065078
    13  N    5.236948   5.033209   4.294869   3.831233   5.007654
    14  C    2.403095   1.516598   2.438865   3.803402   4.620505
    15  C    2.909551   2.521395   3.649690   4.861072   5.465689
    16  N    4.290904   3.802522   4.816196   6.141664   6.728253
    17  H    3.143244   2.047611   1.008968   2.100128   2.614169
    18  H    2.316534   2.496384   2.052951   1.091337   2.137830
    19  H    5.367460   5.199527   4.293657   3.213957   1.884634
    20  H    4.659334   4.475311   3.401301   2.153667   2.630049
    21  H    4.593611   3.977630   2.701891   2.155892   2.756549
    22  H    2.442524   2.852182   3.031385   2.969211   4.452456
    23  H    6.509948   6.461066   6.034466   5.775144   7.074640
    24  H    6.046762   5.735984   4.825829   4.283593   5.241902
    25  H    3.279391   2.168014   2.523358   3.953614   4.555938
    26  H    2.801659   2.120072   3.009361   4.335670   5.375691
    27  H    3.109363   2.749730   3.694622   4.757868   5.067995
    28  H    2.641671   2.722497   4.039696   5.089469   5.831992
    29  H    4.847362   4.152873   4.939347   6.303072   6.734135
    30  H    4.861597   4.557242   5.649776   6.906652   7.433313
                    6          7          8          9         10
     6  O    0.000000
     7  O    2.249065   0.000000
     8  C    2.989641   3.363434   0.000000
     9  C    4.292603   4.721934   1.494221   0.000000
    10  C    5.035369   5.464672   2.637230   1.373279   0.000000
    11  N    6.309810   6.773460   3.741312   2.265165   1.381789
    12  C    6.435857   6.913514   3.647830   2.222223   2.147669
    13  N    5.368311   5.822343   2.513154   1.385215   2.184764
    14  C    5.801220   4.605403   4.805660   4.905249   4.579078
    15  C    6.545847   5.370560   6.072072   6.222627   5.764962
    16  N    7.882248   6.490474   7.243636   7.323938   6.852495
    17  H    3.932563   2.509476   2.906349   3.637221   4.072291
    18  H    2.549287   3.167770   2.168484   2.733989   2.889299
    19  H    0.969415   2.306091   3.818422   5.191805   5.985986
    20  H    2.602600   3.616919   1.095155   2.136587   3.276470
    21  H    3.448453   3.274717   1.097701   2.137984   3.371409
    22  H    4.957445   5.336880   3.076326   2.206086   1.078613
    23  H    7.411856   7.900977   4.613212   3.252318   3.200718
    24  H    5.541742   5.978488   2.798911   2.140310   3.164222
    25  H    5.846583   4.295060   4.866441   5.155850   5.090258
    26  H    6.528512   5.469482   5.079538   4.866640   4.360727
    27  H    6.093546   4.857878   6.124891   6.512522   6.200159
    28  H    6.775902   5.931981   6.291718   6.276731   5.611774
    29  H    7.952480   6.324169   7.383262   7.602232   7.297163
    30  H    8.521879   7.195420   8.086319   8.168155   7.624869
                   11         12         13         14         15
    11  N    0.000000
    12  C    1.310210   0.000000
    13  N    2.212707   1.369644   0.000000
    14  C    5.562019   6.298225   6.003331   0.000000
    15  C    6.751162   7.621339   7.392657   1.528265   0.000000
    16  N    7.694954   8.534587   8.379868   2.450225   1.465778
    17  H    5.248842   5.528082   4.714245   2.557653   3.805549
    18  H    4.256188   4.778920   4.096496   3.999386   4.852360
    19  H    7.258008   7.335542   6.213327   6.397019   7.052664
    20  H    4.276960   4.061007   2.877673   5.779956   6.957072
    21  H    4.321369   4.013642   2.763024   4.944411   6.304491
    22  H    2.152284   3.171097   3.240789   3.989401   4.990456
    23  H    2.134156   1.079195   2.150751   7.237329   8.572080
    24  H    3.177553   2.127508   1.007717   6.672848   8.104914
    25  H    6.074980   6.624126   6.173563   1.095116   2.169298
[...]
 95,0.00000248,-0.00000148,-0.00001037,0.00000410,0.00002092,0.00001208
 ,0.00002185,-0.00015100,0.00010076,-0.00010684,0.00001606,-0.00000968,
 0.00003821,-0.00002057,-0.00021242,0.00033852,0.00048374,-0.00046960,-
 0.00043127,0.00005252,0.00101497,0.00011528,0.00052886,-0.00011876,0.0
 0073424,0.10681823,0.18243113,0.00003246,0.00014640,0.00007275,-0.0001
 6715,-0.00028776,-0.00019865,0.00037821,0.00017638,0.00008249,-0.00031
 650,-0.00017899,-0.00003517,-0.00011232,0.00038198,0.00016438,0.000062
 82,-0.00007067,0.00000031,0.00012852,-0.00021593,-0.00012231,0.0010067
 8,-0.00006032,0.00055140,-0.00005716,-0.01516226,-0.00917052,-0.003815
 07,0.00130995,-0.00242155,-0.00215338,0.00162494,0.00380540,0.00655042
 ,0.00037257,0.00015908,-0.16026318,-0.14602714,-0.22920905,0.00002314,
 0.00004302,0.00000727,-0.00003171,-0.00001067,-0.00001594,0.00003352,0
 .00002142,-0.00001710,0.00000871,-0.00000334,0.00004196,0.00003426,-0.
 00003591,0.00002059,-0.00000364,0.00002373,-0.00001889,-0.00001048,0.0
 0054564,-0.00039503,-0.00019230,0.00021536,0.00004780,-0.00083530,-0.0
 0082728,0.00069427,0.00046995,-0.00000924,-0.00052076,0.15920562,0.158
 03694,0.23645912,-0.00561676,-0.00296392,0.00521341,-0.00272674,0.0269
 0457,0.01449090,-0.00016536,-0.00128889,-0.00081626,0.00043789,-0.0002
 7406,-0.00042031,-0.00026189,0.00019250,0.00021155,0.00009307,-0.00002
 949,-0.00009416,0.00017679,-0.00010925,-0.00010466,0.00007767,0.000037
 63,-0.00002752,0.00003485,0.00005177,0.00004841,0.00004427,0.00002258,
 0.00008882,-0.00002836,-0.00003255,-0.00003023,-0.00001483,0.00001370,
 -0.00001891,-0.00004501,-0.00002495,-0.00009475,-0.06930985,0.05055708
 ,0.03882775,0.00633999,-0.02092451,-0.01547798,0.00223170,0.00046824,0
 .00000712,-0.00196080,-0.00112890,0.00022796,0.00037238,0.00026694,0.0
 0011303,-0.00001206,-0.00000258,0.00001677,0.00002538,-0.00002128,0.00
 001269,-0.00003373,-0.00001974,-0.00003233,0.00008300,-0.00006072,0.00
 000724,-0.00000637,-0.00000270,-0.00000618,-0.00001219,0.00001084,0.00
 000579,0.07519001,-0.00135969,0.00105470,0.00203940,-0.00392843,0.0035
 0791,0.00426787,-0.00044868,-0.00003156,0.00068784,0.00038278,0.000613
 93,0.00004128,0.00011051,-0.00008542,-0.00004623,-0.00001982,0.0000269
 1,0.00001186,-0.00002143,0.00007048,0.00004970,0.00001195,-0.00000265,
 -0.00004538,-0.00003389,-0.00003805,-0.00004605,-0.00000591,-0.0000124
 4,-0.00004818,0.00004353,0.00004078,0.00001395,-0.00001308,-0.00002805
 ,-0.00001771,0.00003895,0.00003575,0.00009397,0.05385158,-0.19386866,-
 0.11360588,0.00185435,-0.00577554,-0.00420222,-0.00002159,0.00061292,0
 .00076704,-0.00027448,0.00065734,0.00031645,-0.00008655,0.00004066,0.0
 0015554,-0.00000206,-0.00000371,-0.00000977,0.00001316,0.00000968,0.00
 000615,0.00001289,0.00002325,0.00001729,-0.00005088,-0.00001190,0.0000
 3161,0.00000625,-0.00000070,0.00000279,0.00001298,-0.00000631,-0.00001
 251,-0.05466084,0.21060992,0.00450068,0.00113876,-0.00100627,0.0013833
 0,-0.01351474,-0.01201958,-0.00162418,0.00021145,0.00058309,0.00006269
 ,0.00066063,-0.00008466,0.00038619,-0.00019197,-0.00023124,-0.00014514
 ,-0.00000157,0.00013429,-0.00027025,0.00011480,0.00005666,-0.00010574,
 -0.00002390,0.00008231,-0.00001648,-0.00004029,0.00000192,-0.00002181,
 -0.00001956,-0.00004320,0.00000449,0.00001986,0.00002341,0.00000182,0.
 00000549,0.00000028,0.00002219,0.00002073,0.00002742,0.04008494,-0.111
 63583,-0.13041928,0.00627979,-0.01777426,-0.01371812,0.00071944,0.0012
 6791,0.00102229,0.00056591,0.00021034,0.00116634,-0.00018993,-0.000087
 79,0.00003846,0.00002591,0.00001446,-0.00001196,-0.00002839,0.00001235
 ,-0.00003191,0.00002425,-0.00000131,0.00001542,-0.00003259,0.00003392,
 -0.00003082,0.00000112,0.00000316,0.00000318,0.00000120,-0.00000769,0.
 00000642,-0.04274289,0.12582627,0.14395646,-0.00213247,0.00276067,-0.0
 0113498,0.00569524,-0.02593663,0.01790005,-0.00241197,0.00075083,-0.00
 069781,-0.00058074,0.00090032,-0.00111214,0.00020241,0.00026689,-0.000
 16293,-0.00003859,-0.00003439,0.00003991,0.00001196,-0.00014190,0.0000
 1306,-0.00032697,-0.00028560,0.00038594,0.00004366,-0.00019722,-0.0000
 9866,0.00015084,0.00004134,0.00001918,-0.00000089,0.00012289,-0.000106
 13,-0.00006846,0.00003832,-0.00003637,0.00004403,0.00005001,0.00005705
 ,-0.04853640,0.02730366,-0.01697296,-0.00549712,0.02023236,-0.01685367
 ,0.00210388,0.00045520,0.00118276,0.00000120,-0.00043541,0.00056048,0.
 00005276,0.00007236,0.00002621,0.00000463,0.00001300,-0.00001477,-0.00
 017609,0.00006896,-0.00010812,0.00001307,0.00000655,0.00000712,0.00000
 463,-0.00008064,0.00010992,-0.00000095,0.00000636,-0.00000065,-0.00001
 429,-0.00001897,0.00001601,-0.00151883,0.00759347,-0.00537046,0.055018
 87,0.00042126,-0.00003451,-0.00109302,-0.00084810,-0.00619549,0.003740
 40,-0.00117801,0.00074874,-0.00002299,-0.00043740,0.00022922,-0.000339
 40,0.00018357,-0.00001874,-0.00010328,-0.00005494,0.00000678,0.0000447
 4,-0.00009975,0.00003487,0.00000840,-0.00010020,-0.00004670,0.00016122
 ,-0.00001482,-0.00008645,-0.00000365,0.00001722,0.00002938,0.00001300,
 -0.00001595,0.00000939,-0.00001715,-0.00000107,0.00002463,0.00000619,0
 .00001876,0.00001324,-0.00004146,0.03221705,-0.21052341,0.12069685,-0.
 00151546,0.00588824,-0.00411197,0.00045480,0.00024125,-0.00067698,0.00
 039991,-0.00043137,0.00070198,-0.00000707,-0.00000991,-0.00000582,0.00
 001268,0.00000676,-0.00000125,-0.00003038,0.00002343,-0.00003624,-0.00
 000580,-0.00001537,-0.00000537,-0.00006518,0.00002013,-0.00001656,-0.0
 0000430,0.00000504,0.00000493,-0.00002112,-0.00000847,0.00001125,0.003
 19557,-0.01966934,0.01374142,-0.03145168,0.22779809,0.00207334,-0.0019
 6250,0.00090496,-0.00191742,0.01270887,-0.01063994,-0.00017749,-0.0007
 0219,0.00001800,0.00036941,0.00003162,0.00008544,-0.00002571,-0.000006
 84,0.00001097,-0.00003398,-0.00005824,0.00004537,-0.00003654,-0.000007
 28,0.00001971,-0.00000306,0.00002847,-0.00005429,0.00003912,0.00004081
 ,0.00003706,-0.00002261,-0.00003167,-0.00000590,-0.00001642,-0.0000380
 1,0.00001834,0.00001856,0.00001312,0.00002870,-0.00002697,-0.00003631,
 -0.00006056,-0.02073289,0.12089078,-0.13154502,-0.00605761,0.01861657,
 -0.01692418,0.00192402,-0.00052988,0.00202314,0.00010348,-0.00011152,0
 .00020426,-0.00005323,-0.00005114,-0.00002569,-0.00000698,0.00000076,-
 0.00000098,0.00000229,-0.00002384,0.00000252,0.00000427,-0.00001119,0.
 00000060,0.00003295,0.00005805,-0.00004896,-0.00000518,0.00000220,0.00
 000108,-0.00000304,0.00000227,0.00000615,0.00227214,-0.01572787,0.0116
 9269,0.02464940,-0.13175575,0.14586871,-0.00016512,-0.00009785,0.00125
 504,0.00169421,0.00089799,-0.00235942,-0.00041657,-0.00043286,0.000309
 74,0.00012190,0.00001557,-0.00011692,-0.00008248,0.00012780,-0.0000387
 8,-0.00001527,-0.00006683,0.00003975,0.00005358,-0.00007859,0.00003636
 ,-0.00003714,-0.00001152,0.00002227,0.00000913,0.00002019,0.00002620,-
 0.00002081,-0.00001524,0.00000704,-0.00001757,-0.00000958,0.00001373,0
 .00000984,0.00000065,0.00000229,-0.00001530,-0.00001063,-0.00001226,-0
 .00634560,0.01939756,-0.01471876,-0.05670864,0.03432600,-0.02482430,-0
 .00461950,-0.02759473,0.02447322,0.00002170,0.00014517,-0.00002366,-0.
 00002328,0.00001474,0.00000614,-0.00001019,-0.00000456,-0.00000651,-0.
 00002264,0.00000052,-0.00000662,0.00001283,0.00000522,0.00000199,0.000
 02020,0.00000583,-0.00002341,0.00000083,-0.00000085,-0.00000288,0.0000
 1233,0.00000323,0.00000066,0.00101920,-0.00055248,0.00058645,-0.003584
 05,-0.00151720,-0.00338347,0.06692105,0.00012532,0.00043055,-0.0011142
 0,-0.00009250,0.00060640,0.00138151,0.00041975,-0.00007843,-0.00022117
 ,0.00001268,0.00004458,0.00005417,0.00008784,-0.00009574,0.00003604,-0
 .00001809,0.00003152,-0.00003302,-0.00007167,0.00005120,-0.00003774,0.
 00003332,0.00000232,-0.00000881,0.00000119,-0.00001253,-0.00000233,-0.
 00000145,-0.00000688,0.00000177,0.00001620,0.00002031,-0.00000572,-0.0
 0001569,-0.00000203,-0.00002243,0.00000620,0.00001987,0.00000959,-0.00
 158760,0.00576280,-0.00539701,0.03663231,-0.19900120,0.10540236,-0.007
 54224,-0.00349986,0.00805134,-0.00003073,-0.00010542,0.00004427,0.0000
 2630,-0.00001451,0.00000359,0.00002250,0.00001102,0.00001491,0.0000078
 9,0.00000198,0.00000377,-0.00000626,0.00000204,-0.00000444,-0.00000887
 ,-0.00002175,0.00000306,-0.00000322,0.00000014,0.00000070,-0.00000390,
 -0.00000271,0.00000649,0.00047627,0.00096262,0.00048470,-0.00176586,0.
 00097652,-0.00136350,-0.03084656,0.21308597,-0.00025959,0.00022548,0.0
 0107978,0.00134016,0.00023158,-0.00162826,-0.00040557,-0.00039141,0.00
 033659,0.00006562,-0.00006125,-0.00008765,-0.00023198,0.00019407,0.000
 04897,0.00006116,-0.00005045,-0.00001644,0.00017039,-0.00013137,0.0000
 2015,-0.00003430,-0.00000954,0.00000639,0.00000995,0.00002096,0.000013
 54,-0.00001887,-0.00000096,-0.00000649,-0.00001203,-0.00001864,0.00001
 953,0.00001291,-0.00000372,0.00001122,-0.00000820,-0.00001208,-0.00000
 009,-0.00804002,0.01715833,-0.01347390,-0.02618068,0.10473438,-0.13050
 406,0.00821868,0.01424831,-0.01095012,-0.00005493,0.00017959,-0.000112
 80,-0.00001958,0.00001418,0.00000547,-0.00002939,-0.00001321,-0.000004
 02,-0.00001425,-0.00000084,-0.00000263,0.00000901,0.00000437,0.0000022
 8,0.00000750,0.00000033,-0.00001346,0.00000437,-0.00000093,-0.00000223
 ,0.00000946,0.00000536,-0.00000575,0.00103185,0.00015310,0.00046337,-0
 .00306442,-0.00092885,-0.00216446,0.02494296,-0.12213578,0.14489208,-0
 .00105531,0.00084607,0.00099247,0.00058523,-0.00184882,-0.00167346,0.0
 0032742,0.00062091,0.00081966,-0.00014602,0.00011123,0.00021102,0.0000
 6795,-0.00009942,-0.00002509,-0.00001466,0.00003175,0.00000802,-0.0000
 4981,0.00006566,0.00002291,0.00001982,-0.00000456,-0.00001926,-0.00002
 059,-0.00001797,-0.00001484,-0.00000501,-0.00000118,-0.00005259,0.0000
 2096,0.00000878,0.00001969,-0.00000164,-0.00000592,0.00000605,0.000027
 81,0.00001507,0.00004363,0.00692142,-0.01998643,-0.01520902,-0.0680928
 4,0.05751068,0.04019900,-0.01386259,0.02152878,0.02135252,0.00043346,0
 .00024913,-0.00006391,-0.00010185,-0.00007339,-0.00001216,0.00000145,-
 0.00000267,-0.00000250,0.00000846,0.00000309,0.00000153,0.00000372,0.0
 0000520,0.00000654,-0.00004927,-0.00000437,0.00000562,0.00000536,0.000
 00137,0.00000264,0.00000183,-0.00000408,-0.00000393,-0.00422135,-0.001
 45672,-0.00336761,0.00127091,0.00036036,0.00057659,-0.00049659,0.00539
 794,0.00266805,0.08260752,0.00098025,0.00120184,0.00197094,0.00116068,
 -0.00133411,-0.00313478,-0.00003788,0.00036998,0.00056948,-0.00000580,
 0.00000523,0.00003263,0.00010069,-0.00009731,-0.00005193,-0.00004314,0
 .00000519,0.00004299,-0.00009126,0.00007953,0.00001520,0.00000155,0.00
 000456,-0.00000023,-0.00001440,-0.00000354,-0.00000412,-0.00001678,-0.
 00000662,-0.00002667,-0.00000092,-0.00000046,0.00001782,0.00000832,-0.
 00000393,0.00000988,0.00001002,0.00000344,0.00001818,0.00007309,-0.005
 82930,-0.00372946,0.06050434,-0.21216982,-0.11677593,-0.00395260,0.010
 68617,0.00815358,0.00008890,0.00015223,0.00006374,-0.00005200,-0.00002
 666,0.00000551,0.00000809,0.00000017,-0.00000426,0.00000231,0.00000060
 ,-0.00000173,0.00000703,0.00000045,0.00000748,-0.00001890,0.00001726,-
 0.00001183,0.00000331,0.00000060,0.00000085,0.00000515,-0.00000150,-0.
 00000364,-0.00122916,0.00127234,-0.00046982,-0.00033457,0.00103526,0.0
 0028808,0.00674728,-0.02036060,-0.01318376,-0.06218693,0.22310328,0.00
 079135,0.00136004,0.00075016,0.00113674,-0.00057730,-0.00106881,-0.000
 10243,-0.00015381,0.00009450,0.00005852,0.00007594,0.00003833,0.000014
 48,0.00000124,-0.00000862,-0.00001693,-0.00001304,0.00001229,-0.000015
 08,0.00000242,0.00002757,0.00000650,-0.00001918,-0.00000408,-0.0000118
 4,-0.00002533,-0.00001097,0.00000571,-0.00000935,-0.00002150,0.0000267
 2,0.00002826,0.00000368,-0.00001687,-0.00000776,-0.00002225,0.00002042
 ,0.00002692,0.00004041,0.00330088,-0.01847827,-0.01429448,0.04186586,-
 0.11074231,-0.13107892,0.00727503,-0.01185223,-0.01143092,0.00011634,0
 .00015819,0.00004198,-0.00003776,-0.00001215,0.00003165,-0.00000218,-0
 .00000028,-0.00000116,-0.00000700,0.00000998,-0.00000287,0.00000342,0.
 00000913,0.00000377,-0.00002853,-0.00001671,0.00001637,0.00000100,0.00
 000017,0.00000148,0.00000133,-0.00000429,0.00000041,-0.00311689,-0.000
 65870,-0.00209331,0.00079361,0.00005232,0.00056455,-0.00547046,0.01536
 301,0.01164968,-0.04906093,0.12438266,0.14639213,0.00008371,-0.0004412
 5,-0.00104317,-0.00074068,-0.00029255,0.00111828,0.00011797,-0.0000036
 6,-0.00016136,-0.00008491,-0.00002469,0.00003167,-0.00008045,-0.000029
 17,0.00007311,0.00006044,0.00004467,-0.00006182,0.00006049,0.00000740,
 -0.00003960,-0.00000005,0.00000944,-0.00000623,0.00000547,0.00000858,-
 0.00000607,0.00000895,0.00000744,0.00000192,0.00000782,-0.00001189,-0.
 00000780,0.00000186,0.00000150,0.00000851,0.00000061,-0.00000946,-0.00
 001276,0.00102078,0.00168915,0.00107830,-0.01254077,0.02877578,0.01371
 683,-0.12164766,0.11201931,0.08179694,-0.00009218,-0.00006274,-0.00001
 239,0.00001305,-0.00000178,-0.00001445,-0.00000583,-0.00000730,0.00000
 946,0.00001269,-0.00000460,0.00000294,-0.00000551,-0.00000766,-0.00000
 202,-0.00000329,0.00000954,0.00000777,-0.00000192,-0.00000023,0.000001
 81,-0.00001052,0.00000120,-0.00000019,-0.00053016,-0.00090435,-0.00080
 401,-0.00012343,0.00000892,0.00004658,0.00161524,-0.00084993,-0.000285
 04,-0.00483956,-0.00264798,0.00256932,0.12583898,-0.00025367,-0.000049
 41,0.00006040,0.00014608,0.00010947,0.00004429,0.00003066,-0.00007640,
 -0.00001113,-0.00002029,-0.00000116,0.00000261,-0.00006541,0.00003578,
 0.00002634,0.00003407,0.00000648,-0.00002028,0.00005747,-0.00002759,-0
 .00000027,-0.00000287,-0.00000106,-0.00000887,-0.00000041,0.00000617,-
 0.00000546,-0.00000294,0.00000102,-0.00000280,0.00000578,-0.00000332,0
 .00000813,-0.00000044,-0.00000821,0.00000047,0.00000298,0.00000316,0.0
 0001046,0.00048691,0.00082190,0.00056999,-0.00774547,0.00755662,0.0111
 3734,0.11384340,-0.27787400,-0.17397625,-0.00003661,0.00001580,-0.0000
 3810,0.00000197,0.00000451,-0.00000122,-0.00001080,-0.00000503,-0.0000
 0145,0.00000243,-0.00000108,0.00000162,-0.00000115,0.00000138,0.000001
 66,-0.00000315,-0.00000192,0.00000046,0.00000272,-0.00000087,-0.000000
 23,0.00000143,0.00000185,-0.00000535,0.00044267,-0.00008964,-0.0002133
 8,0.00012540,-0.00025874,-0.00008444,-0.00042793,0.00173175,0.00033686
 ,-0.00194859,0.00107905,0.00126077,-0.11427721,0.28089495,0.00016667,0
 .00001486,-0.00017996,-0.00004149,-0.00012643,-0.00000097,-0.00001280,
 0.00008713,-0.00006164,-0.00002174,-0.00001860,0.00001487,0.00003382,-
 0.00007315,0.00002885,-0.00000207,0.00002494,-0.00002316,-0.00004171,0
 .00004483,-0.00004168,0.00000682,0.00000685,0.00001119,0.00000332,-0.0
 0000733,0.00000089,0.00000468,0.00000110,0.00000236,0.00000267,0.00000
 137,-0.00001362,-0.00000188,0.00001121,0.00000010,0.00000308,-0.000003
 28,-0.00001590,-0.00059545,0.00103499,0.00115029,0.01048708,-0.0151247
 0,-0.01218337,0.06007939,-0.12860765,-0.10076398,-0.00002571,-0.000061
 51,0.00007593,0.00001099,-0.00000435,-0.00000252,0.00001211,0.00000147
 ,0.00001299,0.00000545,-0.00000035,-0.00000081,-0.00000416,-0.00000609
 ,-0.00000475,-0.00000227,0.00000202,0.00000425,-0.00000472,0.00000101,
 0.00000205,-0.00001054,-0.00000194,0.00000845,0.00030317,-0.00040456,0
 .00034106,-0.00018835,0.00025275,-0.00008117,-0.00135707,-0.00089577,0
 .00026502,0.00285883,0.00215881,-0.00055486,-0.08284127,0.16281153,0.1
 2527711,-0.00000786,0.00029016,0.00072009,-0.00001549,-0.00070300,-0.0
 0275407,-0.00094982,-0.00024033,0.00048885,0.00013145,-0.00015693,-0.0
 0015839,-0.00005334,0.00016503,-0.00003914,-0.00004212,-0.00009769,0.0
 0005653,0.00000927,-0.00008726,0.00001454,-0.00002195,-0.00003489,0.00
 003679,0.00000245,-0.00002130,0.00001210,-0.00000361,-0.00000987,0.000
 01103,-0.00000210,0.00002370,0.00000065,-0.00001649,0.00000331,-0.0000
 2760,0.00000209,0.00001976,0.00000928,-0.00564534,-0.00137687,0.005422
 20,-0.02010654,-0.00821352,-0.02375421,-0.22958192,-0.10588344,-0.1523
 3991,-0.00000195,0.00007704,0.00004121,0.00000869,0.00000935,0.0000102
 7,-0.00000283,0.00000165,-0.00000045,-0.00003095,0.00001235,-0.0000149
 6,0.00000254,0.00000684,-0.00000430,0.00001566,-0.00002374,-0.00001120
 ,-0.00000109,0.00000044,-0.00000200,0.00000560,-0.00000118,0.00000544,
 0.00033808,-0.00009152,0.00006911,0.00039318,0.00007831,0.00039044,0.0
 0106873,-0.00042117,0.00010679,0.00065378,0.00093130,-0.00010032,0.011
 85886,0.00961298,0.01117317,0.24199301,0.00019110,-0.00018930,0.000004
 86,-0.00015591,0.00062136,-0.00012411,0.00029978,0.00008201,-0.0000574
 4,-0.00002565,0.00000651,0.00004516,-0.00007409,-0.00001082,0.00005457
 ,0.00005908,0.00003528,-0.00003839,0.00006312,-0.00000252,-0.00001158,
 -0.00000186,0.00002088,-0.00002227,0.00000504,0.00001896,-0.00000499,0
 .00000057,0.00001278,-0.00001059,-0.00000513,-0.00003387,0.00000106,0.
 00001969,0.00000648,0.00003165,-0.00000304,-0.00002810,-0.00001472,0.0
 0060012,0.00019859,0.00124265,-0.00857570,-0.00572130,-0.00366169,-0.0
 7632103,-0.07221750,-0.08929542,-0.00003557,-0.00001495,-0.00004236,-0
 .00000660,0.00000191,-0.00000656,-0.00001553,-0.00000541,-0.00000244,0
 .00001663,-0.00000940,0.00000806,-0.00000024,-0.00000779,0.00000053,-0
 .00000798,0.00002334,0.00000310,0.00000237,0.00000080,0.00000144,-0.00
 000531,0.00000343,-0.00000509,0.00013318,0.00008476,0.00021586,-0.0001
 2570,0.00020752,-0.00017944,-0.00004034,-0.00053992,-0.00056412,0.0008
 8503,0.00081666,-0.00016035,-0.02300649,-0.01387145,-0.02111916,0.1061
 3048,0.09051105,-0.00019020,0.00006664,0.00006071,0.00060164,-0.000064
 06,0.00069175,0.00006164,0.00003420,-0.00012580,0.00001573,0.00008004,
 -0.00004047,0.00005198,-0.00000577,-0.00002555,-0.00002257,-0.00000300
 ,0.00000764,-0.00002721,0.00000239,0.00000900,-0.00000760,-0.00000963,
 0.00000970,-0.00000336,-0.00000288,0.00000403,0.00000456,-0.00000487,0
 .00000586,-0.00000105,0.00001021,-0.00000489,-0.00000493,-0.00000198,-
 0.00000679,-0.00000281,0.00000490,-0.00000202,0.00159354,0.00066923,-0
 .00119057,0.01811742,0.01249086,0.01019399,-0.16630651,-0.12517425,-0.
 20037547,0.00003230,-0.00001901,0.00001204,0.00000708,0.00000563,0.000
 00735,0.00000873,0.00000591,0.00000011,-0.00000562,0.00000356,-0.00000
 137,0.00000143,0.00000313,-0.00000048,0.00000362,-0.00000602,0.0000042
 6,-0.00000120,-0.00000036,-0.00000114,0.00000323,-0.00000112,0.0000024
 6,0.00010448,0.00034298,0.00007527,0.00016171,-0.00027572,0.00001889,0
 .00062068,0.00038061,0.00015830,-0.00028946,-0.00033967,0.00092376,-0.
 01516530,-0.00190370,-0.01326700,0.16063805,0.11371176,0.20285642\\0.0
 0000018,0.00000008,0.00000047,0.00000012,0.00000003,-0.00000071,0.0000
 0015,-0.00000024,0.00000069,-0.00000054,0.00000006,-0.00000038,-0.0000
 0034,-0.00000006,-0.00000024,-0.00000024,0.,-0.00000025,-0.00000028,0.
 00000007,-0.00000015,0.00000008,0.,-0.00000005,0.00000002,0.00000039,-
 0.00000014,-0.00000003,-0.00000009,-0.00000013,0.00000006,0.00000031,-
 0.00000020,0.00000029,0.00000030,0.00000010,0.00000011,0.00000014,-0.0
 0000003,-0.00000003,0.00000013,0.00000012,-0.00000002,-0.00000048,0.00
 000024,0.00000002,-0.00000036,0.00000033,-0.00000003,0.00000019,-0.000
 00039,-0.00000011,-0.00000005,-0.00000008,-0.00000028,0.00000013,-0.00
 000035,-0.00000012,0.00000021,-0.00000022,-0.00000002,0.00000020,-0.00
 000018,0.00000031,-0.00000015,0.00000028,0.00000031,0.00000031,0.,0.00
 000016,0.00000038,-0.00000013,0.00000004,-0.00000024,0.00000016,0.0000
 0019,-0.00000025,0.00000026,-0.00000009,-0.00000023,0.00000010,0.,-0.0
 0000018,0.00000029,0.,-0.00000026,0.00000028,0.00000004,-0.00000038,0.
 00000029\\\@


 WE TEND TO MEET ANY NEW SITUATION BY REORGANIZING. IT CAN BE A
 WONDERFUL METHOD FOR CREATING THE ILLUSION OF PROGRESS WHILE PRODUCING
 CONFUSION, INEFFICIENCY, AND DEMORALIZATION.
     -- PETRONIUS ARBITER, 210 B.C.
 Job cpu time:       0 days  4 hours 10 minutes 52.6 seconds.
 File lengths (MBytes):  RWF=    542 Int=      0 D2E=      0 Chk=     19 Scr=      1
 Normal termination of Gaussian 09 at Sat Jul 24 03:35:50 2021.
