 Entering Gaussian System, Link 0=g09
 Input=opt_freq-conf-609.com
 Output=opt_freq-conf-609.log
 Initial command:
 /aerosol/software/g09/l1.exe "/scratch/nicole/10420/Gau-72452.inp" -scrdir="/scratch/nicole/10420/"
 Entering Link 1 = /aerosol/software/g09/l1.exe PID=     72457.
  
 Copyright (c) 1988,1990,1992,1993,1995,1998,2003,2009,2013,
            Gaussian, Inc.  All Rights Reserved.
  
 This is part of the Gaussian(R) 09 program.  It is based on
 the Gaussian(R) 03 system (copyright 2003, Gaussian, Inc.),
 the Gaussian(R) 98 system (copyright 1998, Gaussian, Inc.),
 the Gaussian(R) 94 system (copyright 1995, Gaussian, Inc.),
 the Gaussian 92(TM) system (copyright 1992, Gaussian, Inc.),
 the Gaussian 90(TM) system (copyright 1990, Gaussian, Inc.),
 the Gaussian 88(TM) system (copyright 1988, Gaussian, Inc.),
 the Gaussian 86(TM) system (copyright 1986, Carnegie Mellon
 University), and the Gaussian 82(TM) system (copyright 1983,
 Carnegie Mellon University). Gaussian is a federally registered
 trademark of Gaussian, Inc.
  
 This software contains proprietary and confidential information,
 including trade secrets, belonging to Gaussian, Inc.
  
 This software is provided under written license and may be
 used, copied, transmitted, or stored only in accord with that
 written license.
  
 The following legend is applicable only to US Government
 contracts under FAR:
  
                    RESTRICTED RIGHTS LEGEND
  
 Use, reproduction and disclosure by the US Government is
 subject to restrictions as set forth in subparagraphs (a)
 and (c) of the Commercial Computer Software - Restricted
 Rights clause in FAR 52.227-19.
  
 Gaussian, Inc.
 340 Quinnipiac St., Bldg. 40, Wallingford CT 06492
  
  
 ---------------------------------------------------------------
 Warning -- This program may not be used in any manner that
 competes with the business of Gaussian, Inc. or will provide
 assistance to any competitor of Gaussian, Inc.  The licensee
 of this program is prohibited from giving any competitor of
 Gaussian, Inc. access to this program.  By using this program,
 the user acknowledges that Gaussian, Inc. is engaged in the
 business of creating and licensing software in the field of
 computational chemistry and represents and warrants to the
 licensee that it is not a competitor of Gaussian, Inc. and that
 it will not use this program in any manner prohibited above.
 ---------------------------------------------------------------
  

 Cite this work as:
 Gaussian 09, Revision D.01,
 M. J. Frisch, G. W. Trucks, H. B. Schlegel, G. E. Scuseria, 
 M. A. Robb, J. R. Cheeseman, G. Scalmani, V. Barone, B. Mennucci, 
 G. A. Petersson, H. Nakatsuji, M. Caricato, X. Li, H. P. Hratchian, 
 A. F. Izmaylov, J. Bloino, G. Zheng, J. L. Sonnenberg, M. Hada, 
 M. Ehara, K. Toyota, R. Fukuda, J. Hasegawa, M. Ishida, T. Nakajima, 
 Y. Honda, O. Kitao, H. Nakai, T. Vreven, J. A. Montgomery, Jr., 
 J. E. Peralta, F. Ogliaro, M. Bearpark, J. J. Heyd, E. Brothers, 
 K. N. Kudin, V. N. Staroverov, T. Keith, R. Kobayashi, J. Normand, 
 K. Raghavachari, A. Rendell, J. C. Burant, S. S. Iyengar, J. Tomasi, 
 M. Cossi, N. Rega, J. M. Millam, M. Klene, J. E. Knox, J. B. Cross, 
 V. Bakken, C. Adamo, J. Jaramillo, R. Gomperts, R. E. Stratmann, 
 O. Yazyev, A. J. Austin, R. Cammi, C. Pomelli, J. W. Ochterski, 
 R. L. Martin, K. Morokuma, V. G. Zakrzewski, G. A. Voth, 
 P. Salvador, J. J. Dannenberg, S. Dapprich, A. D. Daniels, 
 O. Farkas, J. B. Foresman, J. V. Ortiz, J. Cioslowski, 
 and D. J. Fox, Gaussian, Inc., Wallingford CT, 2013.
 
 ******************************************
 Gaussian 09:  ES64L-G09RevD.01 24-Apr-2013
                24-Jul-2021 
 ******************************************
 %mem=2gb
 %nproc=4
 Will use up to    4 processors via shared memory.
 %chk=conf-609.chk
 ----------------------------------------------------------------------
 # B3LYP/6-311++G(d,p) EmpiricalDispersion=GD3BJ opt=calcfc freq=norama
 n nosymm integral(ultrafinegrid)
 ----------------------------------------------------------------------
 1/10=4,14=-1,18=20,19=15,26=4,38=1/1,3;
 2/9=110,12=2,15=1,17=6,18=5,40=1/2;
 3/5=4,6=6,7=1111,11=2,16=1,25=1,30=1,71=2,74=-5,75=-5,124=41,140=1/1,2,3;
 4//1;
 5/5=2,38=5/2;
 8/6=4,10=90,11=11/1;
 11/6=1,8=1,9=11,15=111,16=1,31=1/1,2,10;
 10/6=1,13=1,31=1/2;
 6/7=2,8=2,9=2,10=2,28=1/1;
 7/10=1,18=20,25=1,30=1/1,2,3,16;
 1/10=4,14=-1,18=20,19=15,26=4/3(2);
 2/9=110,15=1/2;
 99//99;
 2/9=110,15=1/2;
 3/5=4,6=6,7=1111,11=2,16=1,25=1,30=1,71=1,74=-5,75=-5,124=41/1,2,3;
 4/5=5,16=3,69=1/1;
 5/5=2,38=5/2;
 7/30=1/1,2,3,16;
 1/14=-1,18=20,19=15,26=4/3(-5);
 2/9=110,15=1/2;
 6/7=2,8=2,9=2,10=2,19=2,28=1/1;
 99/9=1/99;
 ------------------------------------------------------------
 Candidate Structure: Conf:609 OPT and FREQ calc in gas phase
 ------------------------------------------------------------
 Symbolic Z-matrix:
 Charge =  0 Multiplicity = 1
 O                     1.4177    0.85748  -0.67657 
 C                     1.59436  -0.0041    0.17026 
 N                     0.53894  -0.70679   0.68996 
 C                    -0.76947  -0.61446   0.04509 
 C                    -0.64827  -1.10746  -1.38772 
 O                    -1.61879  -0.61874  -2.20018 
 O                     0.17932  -1.88567  -1.77113 
 C                    -1.37787   0.79834   0.19937 
 C                    -2.85873   0.80124   0.37903 
 C                    -3.64977   1.26082   1.39423 
 N                    -4.98461   1.02988   1.11578 
 C                    -4.99278   0.43648  -0.05264 
 N                    -3.73342   0.27218  -0.53474 
 C                     2.94924  -0.35503   0.76111 
 C                     4.10813   0.28615  -0.00412 
 N                     5.43796  -0.03063   0.50635 
 H                     0.73699  -1.56765   1.16964 
 H                    -1.39207  -1.34935   0.56809 
 H                    -1.43624  -0.99233  -3.07559 
 H                    -0.94483   1.25313   1.08786 
 H                    -1.07567   1.42915  -0.63282 
 H                    -3.34519   1.74821   2.30793 
 H                    -5.85793   0.10731  -0.60024 
 H                    -3.44962  -0.1468   -1.40521 
 H                     2.9628   -0.0272    1.80781 
 H                     3.05558  -1.44622   0.77465 
 H                     4.05694  -0.02324  -1.04839 
 H                     3.98105   1.36867   0.00486 
 H                     5.59424  -1.03199   0.48736 
 H                     5.52208   0.25863   1.47443 
 

 GradGradGradGradGradGradGradGradGradGradGradGradGradGradGradGradGradGrad
 Berny optimization.
 Initialization pass.
                           ----------------------------
                           !    Initial Parameters    !
                           ! (Angstroms and Degrees)  !
 --------------------------                            --------------------------
 ! Name  Definition              Value          Derivative Info.                !
 --------------------------------------------------------------------------------
 ! R1    R(1,2)                  1.2209         calculate D2E/DX2 analytically  !
 ! R2    R(2,3)                  1.3703         calculate D2E/DX2 analytically  !
 ! R3    R(2,14)                 1.5192         calculate D2E/DX2 analytically  !
 ! R4    R(3,4)                  1.4616         calculate D2E/DX2 analytically  !
 ! R5    R(3,17)                 1.0052         calculate D2E/DX2 analytically  !
 ! R6    R(4,5)                  1.5201         calculate D2E/DX2 analytically  !
 ! R7    R(4,8)                  1.5459         calculate D2E/DX2 analytically  !
 ! R8    R(4,18)                 1.096          calculate D2E/DX2 analytically  !
 ! R9    R(5,6)                  1.3568         calculate D2E/DX2 analytically  !
 ! R10   R(5,7)                  1.199          calculate D2E/DX2 analytically  !
 ! R11   R(6,19)                 0.9691         calculate D2E/DX2 analytically  !
 ! R12   R(8,9)                  1.4917         calculate D2E/DX2 analytically  !
 ! R13   R(8,20)                 1.088          calculate D2E/DX2 analytically  !
 ! R14   R(8,21)                 1.0871         calculate D2E/DX2 analytically  !
 ! R15   R(9,10)                 1.3666         calculate D2E/DX2 analytically  !
 ! R16   R(9,13)                 1.3711         calculate D2E/DX2 analytically  !
 ! R17   R(10,11)                1.383          calculate D2E/DX2 analytically  !
 ! R18   R(10,22)                1.0794         calculate D2E/DX2 analytically  !
 ! R19   R(11,12)                1.3105         calculate D2E/DX2 analytically  !
 ! R20   R(12,13)                1.3584         calculate D2E/DX2 analytically  !
 ! R21   R(12,23)                1.0755         calculate D2E/DX2 analytically  !
 ! R22   R(13,24)                1.0069         calculate D2E/DX2 analytically  !
 ! R23   R(14,15)                1.5296         calculate D2E/DX2 analytically  !
 ! R24   R(14,25)                1.0969         calculate D2E/DX2 analytically  !
 ! R25   R(14,26)                1.0964         calculate D2E/DX2 analytically  !
 ! R26   R(15,16)                1.4592         calculate D2E/DX2 analytically  !
 ! R27   R(15,27)                1.0903         calculate D2E/DX2 analytically  !
 ! R28   R(15,28)                1.09           calculate D2E/DX2 analytically  !
 ! R29   R(16,29)                1.0137         calculate D2E/DX2 analytically  !
 ! R30   R(16,30)                1.0139         calculate D2E/DX2 analytically  !
 ! A1    A(1,2,3)              120.8952         calculate D2E/DX2 analytically  !
 ! A2    A(1,2,14)             124.1813         calculate D2E/DX2 analytically  !
 ! A3    A(3,2,14)             114.8943         calculate D2E/DX2 analytically  !
 ! A4    A(2,3,4)              119.3244         calculate D2E/DX2 analytically  !
 ! A5    A(2,3,17)             117.9301         calculate D2E/DX2 analytically  !
 ! A6    A(4,3,17)             116.1694         calculate D2E/DX2 analytically  !
 ! A7    A(3,4,5)              108.9051         calculate D2E/DX2 analytically  !
 ! A8    A(3,4,8)              111.4689         calculate D2E/DX2 analytically  !
 ! A9    A(3,4,18)             104.8106         calculate D2E/DX2 analytically  !
 ! A10   A(5,4,8)              114.9501         calculate D2E/DX2 analytically  !
 ! A11   A(5,4,18)             106.1182         calculate D2E/DX2 analytically  !
 ! A12   A(8,4,18)             109.9739         calculate D2E/DX2 analytically  !
 ! A13   A(4,5,6)              112.9903         calculate D2E/DX2 analytically  !
 ! A14   A(4,5,7)              124.5388         calculate D2E/DX2 analytically  !
 ! A15   A(6,5,7)              122.4154         calculate D2E/DX2 analytically  !
 ! A16   A(5,6,19)             105.5045         calculate D2E/DX2 analytically  !
 ! A17   A(4,8,9)              113.8582         calculate D2E/DX2 analytically  !
 ! A18   A(4,8,20)             107.8698         calculate D2E/DX2 analytically  !
 ! A19   A(4,8,21)             110.151          calculate D2E/DX2 analytically  !
 ! A20   A(9,8,20)             107.2145         calculate D2E/DX2 analytically  !
 ! A21   A(9,8,21)             111.5329         calculate D2E/DX2 analytically  !
 ! A22   A(20,8,21)            105.7795         calculate D2E/DX2 analytically  !
 ! A23   A(8,9,10)             131.6629         calculate D2E/DX2 analytically  !
 ! A24   A(8,9,13)             123.5236         calculate D2E/DX2 analytically  !
 ! A25   A(10,9,13)            104.8078         calculate D2E/DX2 analytically  !
 ! A26   A(9,10,11)            110.668          calculate D2E/DX2 analytically  !
 ! A27   A(9,10,22)            128.1211         calculate D2E/DX2 analytically  !
 ! A28   A(11,10,22)           121.2102         calculate D2E/DX2 analytically  !
 ! A29   A(10,11,12)           105.1382         calculate D2E/DX2 analytically  !
 ! A30   A(11,12,13)           111.4322         calculate D2E/DX2 analytically  !
 ! A31   A(11,12,23)           126.6952         calculate D2E/DX2 analytically  !
 ! A32   A(13,12,23)           121.8722         calculate D2E/DX2 analytically  !
 ! A33   A(9,13,12)            107.9521         calculate D2E/DX2 analytically  !
 ! A34   A(9,13,24)            123.8417         calculate D2E/DX2 analytically  !
 ! A35   A(12,13,24)           128.2027         calculate D2E/DX2 analytically  !
 ! A36   A(2,14,15)            112.5997         calculate D2E/DX2 analytically  !
 ! A37   A(2,14,25)            108.2457         calculate D2E/DX2 analytically  !
 ! A38   A(2,14,26)            108.7351         calculate D2E/DX2 analytically  !
 ! A39   A(15,14,25)           110.0428         calculate D2E/DX2 analytically  !
 ! A40   A(15,14,26)           110.4801         calculate D2E/DX2 analytically  !
 ! A41   A(25,14,26)           106.5261         calculate D2E/DX2 analytically  !
 ! A42   A(14,15,16)           115.1154         calculate D2E/DX2 analytically  !
 ! A43   A(14,15,27)           108.9426         calculate D2E/DX2 analytically  !
 ! A44   A(14,15,28)           108.8971         calculate D2E/DX2 analytically  !
 ! A45   A(16,15,27)           108.4343         calculate D2E/DX2 analytically  !
 ! A46   A(16,15,28)           108.6001         calculate D2E/DX2 analytically  !
 ! A47   A(27,15,28)           106.5126         calculate D2E/DX2 analytically  !
 ! A48   A(15,16,29)           110.3896         calculate D2E/DX2 analytically  !
 ! A49   A(15,16,30)           110.346          calculate D2E/DX2 analytically  !
 ! A50   A(29,16,30)           106.6742         calculate D2E/DX2 analytically  !
 ! D1    D(1,2,3,4)             12.0744         calculate D2E/DX2 analytically  !
 ! D2    D(1,2,3,17)           162.572          calculate D2E/DX2 analytically  !
 ! D3    D(14,2,3,4)          -169.8126         calculate D2E/DX2 analytically  !
 ! D4    D(14,2,3,17)          -19.315          calculate D2E/DX2 analytically  !
 ! D5    D(1,2,14,15)          -11.2469         calculate D2E/DX2 analytically  !
 ! D6    D(1,2,14,25)          110.6307         calculate D2E/DX2 analytically  !
 ! D7    D(1,2,14,26)         -134.0235         calculate D2E/DX2 analytically  !
 ! D8    D(3,2,14,15)          170.7105         calculate D2E/DX2 analytically  !
 ! D9    D(3,2,14,25)          -67.4119         calculate D2E/DX2 analytically  !
 ! D10   D(3,2,14,26)           47.9339         calculate D2E/DX2 analytically  !
 ! D11   D(2,3,4,5)             60.0931         calculate D2E/DX2 analytically  !
 ! D12   D(2,3,4,8)            -67.7728         calculate D2E/DX2 analytically  !
 ! D13   D(2,3,4,18)           173.3023         calculate D2E/DX2 analytically  !
 ! D14   D(17,3,4,5)           -90.908          calculate D2E/DX2 analytically  !
 ! D15   D(17,3,4,8)           141.2261         calculate D2E/DX2 analytically  !
 ! D16   D(17,3,4,18)           22.3011         calculate D2E/DX2 analytically  !
 ! D17   D(3,4,5,6)           -156.8426         calculate D2E/DX2 analytically  !
 ! D18   D(3,4,5,7)             25.8192         calculate D2E/DX2 analytically  !
 ! D19   D(8,4,5,6)            -30.9674         calculate D2E/DX2 analytically  !
 ! D20   D(8,4,5,7)            151.6944         calculate D2E/DX2 analytically  !
 ! D21   D(18,4,5,6)            90.8097         calculate D2E/DX2 analytically  !
 ! D22   D(18,4,5,7)           -86.5285         calculate D2E/DX2 analytically  !
 ! D23   D(3,4,8,9)           -143.8929         calculate D2E/DX2 analytically  !
 ! D24   D(3,4,8,20)           -25.0377         calculate D2E/DX2 analytically  !
 ! D25   D(3,4,8,21)            89.965          calculate D2E/DX2 analytically  !
 ! D26   D(5,4,8,9)             91.5679         calculate D2E/DX2 analytically  !
 ! D27   D(5,4,8,20)          -149.5769         calculate D2E/DX2 analytically  !
 ! D28   D(5,4,8,21)           -34.5742         calculate D2E/DX2 analytically  !
 ! D29   D(18,4,8,9)           -28.0945         calculate D2E/DX2 analytically  !
 ! D30   D(18,4,8,20)           90.7606         calculate D2E/DX2 analytically  !
 ! D31   D(18,4,8,21)         -154.2367         calculate D2E/DX2 analytically  !
 ! D32   D(4,5,6,19)           179.6235         calculate D2E/DX2 analytically  !
 ! D33   D(7,5,6,19)            -2.9738         calculate D2E/DX2 analytically  !
 ! D34   D(4,8,9,10)           119.8815         calculate D2E/DX2 analytically  !
 ! D35   D(4,8,9,13)           -59.1069         calculate D2E/DX2 analytically  !
 ! D36   D(20,8,9,10)            0.6533         calculate D2E/DX2 analytically  !
 ! D37   D(20,8,9,13)         -178.3351         calculate D2E/DX2 analytically  !
 ! D38   D(21,8,9,10)         -114.7065         calculate D2E/DX2 analytically  !
 ! D39   D(21,8,9,13)           66.3052         calculate D2E/DX2 analytically  !
 ! D40   D(8,9,10,11)         -179.4414         calculate D2E/DX2 analytically  !
 ! D41   D(8,9,10,22)            0.862          calculate D2E/DX2 analytically  !
 ! D42   D(13,9,10,11)          -0.3138         calculate D2E/DX2 analytically  !
 ! D43   D(13,9,10,22)         179.9897         calculate D2E/DX2 analytically  !
 ! D44   D(8,9,13,12)          179.6249         calculate D2E/DX2 analytically  !
 ! D45   D(8,9,13,24)           -1.0112         calculate D2E/DX2 analytically  !
 ! D46   D(10,9,13,12)           0.4067         calculate D2E/DX2 analytically  !
 ! D47   D(10,9,13,24)         179.7705         calculate D2E/DX2 analytically  !
 ! D48   D(9,10,11,12)           0.0957         calculate D2E/DX2 analytically  !
 ! D49   D(22,10,11,12)        179.8165         calculate D2E/DX2 analytically  !
 ! D50   D(10,11,12,13)          0.172          calculate D2E/DX2 analytically  !
 ! D51   D(10,11,12,23)       -179.599          calculate D2E/DX2 analytically  !
 ! D52   D(11,12,13,9)          -0.3752         calculate D2E/DX2 analytically  !
 ! D53   D(11,12,13,24)       -179.7028         calculate D2E/DX2 analytically  !
 ! D54   D(23,12,13,9)         179.4086         calculate D2E/DX2 analytically  !
 ! D55   D(23,12,13,24)          0.081          calculate D2E/DX2 analytically  !
 ! D56   D(2,14,15,16)        -179.1721         calculate D2E/DX2 analytically  !
 ! D57   D(2,14,15,27)         -57.159          calculate D2E/DX2 analytically  !
 ! D58   D(2,14,15,28)          58.633          calculate D2E/DX2 analytically  !
 ! D59   D(25,14,15,16)         59.9738         calculate D2E/DX2 analytically  !
 ! D60   D(25,14,15,27)       -178.0131         calculate D2E/DX2 analytically  !
 ! D61   D(25,14,15,28)        -62.2211         calculate D2E/DX2 analytically  !
 ! D62   D(26,14,15,16)        -57.3794         calculate D2E/DX2 analytically  !
 ! D63   D(26,14,15,27)         64.6337         calculate D2E/DX2 analytically  !
 ! D64   D(26,14,15,28)       -179.5743         calculate D2E/DX2 analytically  !
 ! D65   D(14,15,16,29)         59.1042         calculate D2E/DX2 analytically  !
 ! D66   D(14,15,16,30)        -58.5613         calculate D2E/DX2 analytically  !
 ! D67   D(27,15,16,29)        -63.1825         calculate D2E/DX2 analytically  !
 ! D68   D(27,15,16,30)        179.152          calculate D2E/DX2 analytically  !
 ! D69   D(28,15,16,29)       -178.5413         calculate D2E/DX2 analytically  !
 ! D70   D(28,15,16,30)         63.7932         calculate D2E/DX2 analytically  !
 --------------------------------------------------------------------------------
 Trust Radius=3.00D-01 FncErr=1.00D-07 GrdErr=1.00D-06
 Number of steps in this run=    160 maximum allowed number of steps=    180.
 GradGradGradGradGradGradGradGradGradGradGradGradGradGradGradGradGradGrad

                          Input orientation:                          
 ---------------------------------------------------------------------
 Center     Atomic      Atomic             Coordinates (Angstroms)
 Number     Number       Type             X           Y           Z
 ---------------------------------------------------------------------
      1          8           0        1.417701    0.857484   -0.676571
      2          6           0        1.594364   -0.004096    0.170265
      3          7           0        0.538935   -0.706795    0.689955
      4          6           0       -0.769472   -0.614461    0.045092
      5          6           0       -0.648268   -1.107456   -1.387719
      6          8           0       -1.618787   -0.618740   -2.200176
      7          8           0        0.179315   -1.885674   -1.771125
      8          6           0       -1.377870    0.798338    0.199367
      9          6           0       -2.858733    0.801239    0.379029
     10          6           0       -3.649774    1.260823    1.394234
     11          7           0       -4.984605    1.029882    1.115776
     12          6           0       -4.992777    0.436482   -0.052640
     13          7           0       -3.733425    0.272184   -0.534742
     14          6           0        2.949245   -0.355035    0.761106
     15          6           0        4.108125    0.286154   -0.004116
     16          7           0        5.437961   -0.030629    0.506347
     17          1           0        0.736987   -1.567649    1.169641
     18          1           0       -1.392069   -1.349352    0.568090
     19          1           0       -1.436240   -0.992330   -3.075593
     20          1           0       -0.944825    1.253127    1.087858
     21          1           0       -1.075666    1.429147   -0.632825
     22          1           0       -3.345191    1.748206    2.307926
     23          1           0       -5.857934    0.107305   -0.600236
     24          1           0       -3.449616   -0.146799   -1.405213
     25          1           0        2.962802   -0.027195    1.807808
     26          1           0        3.055580   -1.446224    0.774651
     27          1           0        4.056937   -0.023239   -1.048389
     28          1           0        3.981055    1.368669    0.004859
     29          1           0        5.594239   -1.031986    0.487363
     30          1           0        5.522075    0.258626    1.474429
 ---------------------------------------------------------------------
                    Distance matrix (angstroms):
                    1          2          3          4          5
     1  O    0.000000
     2  C    1.220926   0.000000
     3  N    2.255347   1.370326   0.000000
     4  C    2.733340   2.444573   1.461610   0.000000
     5  C    2.938529   2.945185   2.426255   1.520092   0.000000
     6  O    3.704169   4.039940   3.607821   2.400537   1.356774
     7  O    3.202588   3.051507   2.752454   2.411395   1.198965
     8  C    2.930185   3.078786   2.486009   1.545946   2.585191
     9  C    4.405150   4.530146   3.730281   2.545728   3.413308
    10  C    5.489100   5.531646   4.681113   3.692291   4.728324
    11  N    6.650696   6.726510   5.805762   4.649470   5.444219
    12  C    6.454516   6.605621   5.697225   4.353199   4.800098
    13  N    5.186212   5.381329   4.550972   3.147596   3.485566
    14  C    2.425437   1.519195   2.436881   3.795898   4.257427
    15  C    2.831430   2.536464   3.769191   4.960291   5.145851
    16  N    4.283751   3.858354   4.948875   6.251867   6.464459
    17  H    3.123001   2.044149   1.005183   2.107747   2.944622
    18  H    3.783400   3.299509   2.038752   1.096001   2.106405
    19  H    4.161983   4.549369   4.261713   3.213415   1.866299
    20  H    2.975109   2.978266   2.490214   2.146159   3.433480
    21  H    2.558435   3.134995   2.986458   2.174778   2.680837
    22  H    5.690848   5.660332   4.871478   4.163765   5.393143
    23  H    7.314606   7.492851   6.576267   5.179752   5.407069
    24  H    5.022975   5.286230   4.540029   3.083060   2.961540
    25  H    3.056490   2.134175   2.754375   4.169163   4.941476
    26  H    3.177383   2.140133   2.624391   3.981848   4.302220
    27  H    2.807042   2.747681   3.983143   4.983921   4.840416
    28  H    2.701192   2.758285   4.077388   5.148003   5.431491
    29  H    4.729515   4.141994   5.069802   6.392711   6.518475
    30  H    4.672399   4.146900   5.136061   6.510673   6.937666
                    6          7          8          9         10
     6  O    0.000000
     7  O    2.241066   0.000000
     8  C    2.797134   3.675811   0.000000
     9  C    3.194700   4.590469   1.491725   0.000000
    10  C    4.536238   5.880635   2.608284   1.366603   0.000000
    11  N    5.004221   6.595509   3.728533   2.261505   1.382985
    12  C    4.136329   5.924200   3.641703   2.207607   2.139309
    13  N    2.835333   4.636220   2.522775   1.371116   2.169182
    14  C    5.450289   4.053093   4.513285   5.934270   6.823408
    15  C    6.199922   4.824387   5.513609   6.996373   7.942944
    16  N    7.580820   6.023407   6.872916   8.339266   9.221883
    17  H    4.219687   3.010024   3.318425   4.377888   5.224402
    18  H    2.872018   2.868592   2.179158   2.609959   3.548628
    19  H    0.969148   2.260469   3.732997   4.144248   5.473188
    20  H    3.843082   4.391988   1.088015   2.090380   2.722255
    21  H    2.635415   3.722733   1.087102   2.144165   3.280752
    22  H    5.376420   6.501222   3.036218   2.203187   1.079419
    23  H    4.588826   6.464621   4.603027   3.230434   3.191313
    24  H    2.051007   4.040634   2.785694   2.105098   3.139804
    25  H    6.115947   4.900051   4.702129   6.051280   6.749533
    26  H    5.602145   3.866134   5.002448   6.339299   7.257669
    27  H    5.821947   4.361991   5.636401   7.109415   8.185879
    28  H    6.337996   5.310188   5.392698   6.873477   7.757032
    29  H    7.708526   5.928824   7.214107   8.650156   9.567192
    30  H    8.078639   6.608837   7.037494   8.469491   9.226790
                   11         12         13         14         15
    11  N    0.000000
    12  C    1.310491   0.000000
    13  N    2.205395   1.358449   0.000000
    14  C    8.061623   8.022743   6.835986   0.000000
    15  C    9.191574   9.102273   7.859495   1.529605   0.000000
    16  N   10.494092  10.456145   9.235252   2.522667   1.459242
    17  H    6.283844   6.191988   5.125865   2.555664   4.022296
    18  H    4.343620   4.066892   3.054106   4.457907   5.766666
    19  H    5.852164   4.881466   3.651299   5.861645   6.465947
    20  H    4.046040   4.284106   3.372146   4.225723   5.259254
    21  H    4.300793   4.082372   2.900322   4.618036   5.345409
    22  H    2.150556   3.163453   3.226473   6.814411   7.939462
    23  H    2.135075   1.075506   2.131903   8.923755   9.985473
    24  H    3.177445   2.133312   1.006884   6.758826   7.698699
    25  H    8.047211   8.183368   7.100466   1.096926   2.166338
    26  H    8.419741   8.306928   7.124466   1.096442   2.171513
    27  H    9.356397   9.115930   7.812864   2.147404   1.090344
    28  H    9.040574   9.022303   7.810675   2.146555   1.089984
    29  H   10.796210  10.702005   9.473694   2.743937   2.046358
    30  H   10.541053  10.626650   9.471073   2.739501   2.045998
                   16         17         18         19         20
    16  N    0.000000
    17  H    4.990145   0.000000
    18  H    6.956447   2.223151   0.000000
    19  H    7.810877   4.803740   3.661399   0.000000
    20  H    6.536524   3.285112   2.691298   4.755827   0.000000
    21  H    6.771705   3.938956   3.043413   3.458422   1.734604
    22  H    9.140771   5.380963   4.054205   6.335370   2.737777
    23  H   11.350806   7.030712   4.840535   5.185361   5.319887
    24  H    9.091566   5.116281   3.094117   2.749323   3.801207
    25  H    2.796466   2.781098   4.716980   6.643091   4.174578
    26  H    2.784176   2.355129   4.453497   5.933536   4.836097
    27  H    2.079540   4.280996   5.836373   5.934954   5.586617
    28  H    2.081370   4.527986   6.047754   6.664126   5.044852
    29  H    1.013657   4.934099   6.993979   7.881869   6.952820
    30  H    1.013867   5.130813   7.156287   8.407481   6.554332
                   21         22         23         24         25
    21  H    0.000000
    22  H    3.728345   0.000000
    23  H    4.961694   4.178975   0.000000
    24  H    2.952258   4.170054   2.551970   0.000000
    25  H    4.938303   6.572134   9.144514   7.173347   0.000000
    26  H    5.226465   7.316090   9.151748   6.982685   1.757743
    27  H    5.350302   8.318315   9.925852   7.516044   3.058596
    28  H    5.097129   7.689086   9.937951   7.713612   2.497179
    29  H    7.197196   9.537155  11.559979   9.282064   3.110891
    30  H    7.024302   9.030059  11.568567   9.431222   2.596674
                   26         27         28         29         30
    26  H    0.000000
    27  H    2.520135   0.000000
    28  H    3.061488   1.747140   0.000000
    29  H    2.588227   2.395706   2.932290   0.000000
    30  H    3.078929   2.930988   2.401370   1.626404   0.000000
 Symmetry turned off by external request.
 Stoichiometry    C9H14N4O3
 Framework group  C1[X(C9H14N4O3)]
 Deg. of freedom    84
 Full point group                 C1      NOp   1
 Rotational constants (GHZ):      1.2523698      0.2304720      0.2066994
 Standard basis: 6-311++G(d,p) (5D, 7F)
   450 basis functions,   702 primitive gaussians,   466 cartesian basis functions
    60 alpha electrons       60 beta electrons
       nuclear repulsion energy      1113.3337131870 Hartrees.
 NAtoms=   30 NActive=   30 NUniq=   30 SFac= 1.00D+00 NAtFMM=   60 NAOKFM=F Big=F
 Integral buffers will be    131072 words long.
 Raffenetti 2 integral format.
 Two-electron integral symmetry is turned off.
 Nuclear repulsion after empirical dispersion term =     1113.2796995233 Hartrees.
 One-electron integrals computed using PRISM.
 NBasis=   450 RedAO= T EigKep=  3.31D-06  NBF=   450
 NBsUse=   449 1.00D-06 EigRej=  7.09D-07 NBFU=   449
 ExpMin= 3.60D-02 ExpMax= 8.59D+03 ExpMxC= 1.30D+03 IAcc=3 IRadAn=         5 AccDes= 0.00D+00
 Harris functional with IExCor=  402 and IRadAn=       5 diagonalized for initial guess.
 HarFok:  IExCor=  402 AccDes= 0.00D+00 IRadAn=         5 IDoV= 1 UseB2=F ITyADJ=14
 ICtDFT=  3500011 ScaDFX=  1.000000  1.000000  1.000000  1.000000
 FoFCou: FMM=F IPFlag=           0 FMFlag=      100000 FMFlg1=           0
         NFxFlg=           0 DoJE=T BraDBF=F KetDBF=T FulRan=T
         wScrn=  0.000000 ICntrl=     500 IOpCl=  0 I1Cent=   200000004 NGrid=           0
         NMat0=    1 NMatS0=      1 NMatT0=    0 NMatD0=    1 NMtDS0=    0 NMtDT0=    0
 Symmetry not used in FoFCou.
 Requested convergence on RMS density matrix=1.00D-08 within 128 cycles.
 Requested convergence on MAX density matrix=1.00D-06.
 Requested convergence on             energy=1.00D-06.
 No special actions if energy rises.
 SCF Done:  E(RB3LYP) =  -796.378798707     A.U. after   15 cycles
            NFock= 15  Conv=0.28D-08     -V/T= 2.0037
 DoSCS=F DFT=T ScalE2(SS,OS)=  1.000000  1.000000
 Range of M.O.s used for correlation:     1   449
 NBasis=   450 NAE=    60 NBE=    60 NFC=     0 NFV=     0
 NROrb=    449 NOA=    60 NOB=    60 NVA=   389 NVB=   389

 **** Warning!!: The largest alpha MO coefficient is  0.99109906D+02

 Symmetrizing basis deriv contribution to polar:
 IMax=3 JMax=2 DiffMx= 0.00D+00
 G2DrvN: will do    31 centers at a time, making    1 passes.
 Calling FoFCou, ICntrl=  3107 FMM=F I1Cent=   0 AccDes= 0.00D+00.
 End of G2Drv F.D. properties file   721 does not exist.
 End of G2Drv F.D. properties file   722 does not exist.
 End of G2Drv F.D. properties file   788 does not exist.
          IDoAtm=111111111111111111111111111111
          Differentiating once with respect to nuclear coordinates.
          There are    93 degrees of freedom in the 1st order CPHF.  IDoFFX=6 NUNeed=     0.
     87 vectors produced by pass  0 Test12= 2.51D-14 1.08D-09 XBig12= 1.97D-01 1.12D-01.
 AX will form    87 AO Fock derivatives at one time.
     87 vectors produced by pass  1 Test12= 2.51D-14 1.08D-09 XBig12= 2.35D-02 3.31D-02.
     87 vectors produced by pass  2 Test12= 2.51D-14 1.08D-09 XBig12= 3.27D-04 2.09D-03.
     87 vectors produced by pass  3 Test12= 2.51D-14 1.08D-09 XBig12= 1.34D-06 1.30D-04.
     87 vectors produced by pass  4 Test12= 2.51D-14 1.08D-09 XBig12= 2.93D-09 6.01D-06.
     82 vectors produced by pass  5 Test12= 2.51D-14 1.08D-09 XBig12= 4.69D-12 2.15D-07.
     33 vectors produced by pass  6 Test12= 2.51D-14 1.08D-09 XBig12= 6.94D-15 7.62D-09.
      5 vectors produced by pass  7 Test12= 2.51D-14 1.08D-09 XBig12= 2.52D-16 1.37D-09.
      4 vectors produced by pass  8 Test12= 2.51D-14 1.08D-09 XBig12= 3.16D-16 1.89D-09.
      4 vectors produced by pass  9 Test12= 2.51D-14 1.08D-09 XBig12= 4.86D-15 7.14D-09.
      4 vectors produced by pass 10 Test12= 2.51D-14 1.08D-09 XBig12= 1.11D-15 3.55D-09.
      3 vectors produced by pass 11 Test12= 2.51D-14 1.08D-09 XBig12= 1.23D-15 3.05D-09.
      3 vectors produced by pass 12 Test12= 2.51D-14 1.08D-09 XBig12= 1.70D-15 3.84D-09.
      3 vectors produced by pass 13 Test12= 2.51D-14 1.08D-09 XBig12= 7.16D-16 2.34D-09.
      3 vectors produced by pass 14 Test12= 2.51D-14 1.08D-09 XBig12= 1.66D-15 3.32D-09.
      3 vectors produced by pass 15 Test12= 2.51D-14 1.08D-09 XBig12= 9.23D-16 2.08D-09.
      3 vectors produced by pass 16 Test12= 2.51D-14 1.08D-09 XBig12= 4.58D-15 5.06D-09.
      3 vectors produced by pass 17 Test12= 2.51D-14 1.08D-09 XBig12= 7.63D-16 2.15D-09.
      3 vectors produced by pass 18 Test12= 2.51D-14 1.08D-09 XBig12= 3.31D-15 5.26D-09.
      3 vectors produced by pass 19 Test12= 2.51D-14 1.08D-09 XBig12= 9.98D-16 2.97D-09.
      3 vectors produced by pass 20 Test12= 2.51D-14 1.08D-09 XBig12= 2.44D-15 4.14D-09.
      3 vectors produced by pass 21 Test12= 2.51D-14 1.08D-09 XBig12= 2.43D-15 3.33D-09.
      3 vectors produced by pass 22 Test12= 2.51D-14 1.08D-09 XBig12= 5.49D-16 1.79D-09.
      3 vectors produced by pass 23 Test12= 2.51D-14 1.08D-09 XBig12= 2.69D-15 3.61D-09.
      1 vectors produced by pass 24 Test12= 2.51D-14 1.08D-09 XBig12= 2.04D-16 1.14D-09.
 InvSVY:  IOpt=1 It=  1 EMax= 6.11D-16
 Solved reduced A of dimension   607 with    93 vectors.
 End of Minotr F.D. properties file   721 does not exist.
 End of Minotr F.D. properties file   722 does not exist.
 End of Minotr F.D. properties file   788 does not exist.

 **********************************************************************

            Population analysis using the SCF density.

 **********************************************************************

 Alpha  occ. eigenvalues --  -19.20960 -19.14612 -19.11080 -14.36494 -14.35930
 Alpha  occ. eigenvalues --  -14.30187 -14.29182 -10.33760 -10.29221 -10.25754
 Alpha  occ. eigenvalues --  -10.22247 -10.20598 -10.20005 -10.19736 -10.19359
 Alpha  occ. eigenvalues --  -10.18035  -1.15098  -1.06764  -1.05815  -1.02199
 Alpha  occ. eigenvalues --   -0.95298  -0.89644  -0.87485  -0.82167  -0.77513
 Alpha  occ. eigenvalues --   -0.74958  -0.69273  -0.66713  -0.62769  -0.61977
 Alpha  occ. eigenvalues --   -0.60178  -0.59495  -0.55702  -0.53714  -0.52767
 Alpha  occ. eigenvalues --   -0.52242  -0.51646  -0.49364  -0.48422  -0.46456
 Alpha  occ. eigenvalues --   -0.45900  -0.44568  -0.44278  -0.43614  -0.42957
 Alpha  occ. eigenvalues --   -0.41864  -0.41167  -0.40147  -0.39892  -0.39128
 Alpha  occ. eigenvalues --   -0.38981  -0.36214  -0.35548  -0.31618  -0.29546
 Alpha  occ. eigenvalues --   -0.28532  -0.28298  -0.27144  -0.25087  -0.23172
 Alpha virt. eigenvalues --   -0.03930  -0.02665  -0.01989  -0.01363  -0.00639
 Alpha virt. eigenvalues --    0.00664   0.00912   0.01383   0.01818   0.01980
 Alpha virt. eigenvalues --    0.02362   0.03127   0.03924   0.04429   0.04831
 Alpha virt. eigenvalues --    0.04964   0.05187   0.06134   0.06449   0.07140
 Alpha virt. eigenvalues --    0.07623   0.07956   0.08292   0.08643   0.08825
 Alpha virt. eigenvalues --    0.09009   0.09814   0.10341   0.10730   0.11281
 Alpha virt. eigenvalues --    0.11832   0.12266   0.12456   0.12540   0.12792
 Alpha virt. eigenvalues --    0.12873   0.13006   0.13370   0.14192   0.14607
 Alpha virt. eigenvalues --    0.14943   0.15158   0.15407   0.16025   0.16118
 Alpha virt. eigenvalues --    0.16199   0.16560   0.16911   0.17365   0.17896
 Alpha virt. eigenvalues --    0.18262   0.18370   0.18817   0.19156   0.19373
 Alpha virt. eigenvalues --    0.19612   0.19970   0.20978   0.21271   0.21599
 Alpha virt. eigenvalues --    0.22034   0.22678   0.23017   0.23424   0.23664
 Alpha virt. eigenvalues --    0.24198   0.24704   0.25132   0.25230   0.25960
 Alpha virt. eigenvalues --    0.26012   0.26598   0.27254   0.27454   0.27881
 Alpha virt. eigenvalues --    0.28101   0.28885   0.29456   0.29682   0.29873
 Alpha virt. eigenvalues --    0.30386   0.30779   0.31052   0.31222   0.31683
 Alpha virt. eigenvalues --    0.32212   0.32450   0.33371   0.33754   0.33991
 Alpha virt. eigenvalues --    0.34493   0.34596   0.35462   0.35703   0.35952
 Alpha virt. eigenvalues --    0.36810   0.37082   0.37413   0.38122   0.38845
 Alpha virt. eigenvalues --    0.39393   0.40556   0.41595   0.42843   0.44040
 Alpha virt. eigenvalues --    0.45273   0.46019   0.46966   0.47774   0.48231
 Alpha virt. eigenvalues --    0.48784   0.49173   0.50161   0.52279   0.53142
 Alpha virt. eigenvalues --    0.54785   0.55258   0.56483   0.57702   0.58439
 Alpha virt. eigenvalues --    0.59452   0.59930   0.60696   0.61291   0.62061
 Alpha virt. eigenvalues --    0.62740   0.63867   0.64917   0.65689   0.66119
 Alpha virt. eigenvalues --    0.66804   0.67480   0.68667   0.68819   0.69345
 Alpha virt. eigenvalues --    0.70674   0.71369   0.72439   0.73315   0.73961
 Alpha virt. eigenvalues --    0.74594   0.74617   0.75332   0.76631   0.76902
 Alpha virt. eigenvalues --    0.77776   0.78249   0.79619   0.81038   0.82354
 Alpha virt. eigenvalues --    0.84324   0.84956   0.85796   0.86708   0.87381
 Alpha virt. eigenvalues --    0.88015   0.88946   0.89480   0.90482   0.91182
 Alpha virt. eigenvalues --    0.92379   0.93473   0.94762   0.95098   0.97164
 Alpha virt. eigenvalues --    0.98587   1.00496   1.01415   1.03470   1.04512
 Alpha virt. eigenvalues --    1.05725   1.07260   1.08712   1.09007   1.10867
 Alpha virt. eigenvalues --    1.12075   1.13047   1.15068   1.16147   1.18134
 Alpha virt. eigenvalues --    1.19046   1.19607   1.20497   1.21989   1.23039
 Alpha virt. eigenvalues --    1.24442   1.25518   1.25958   1.27299   1.28257
 Alpha virt. eigenvalues --    1.29402   1.30706   1.31845   1.32751   1.33785
 Alpha virt. eigenvalues --    1.35701   1.36252   1.38889   1.40287   1.41834
 Alpha virt. eigenvalues --    1.43657   1.46080   1.47303   1.47506   1.49203
 Alpha virt. eigenvalues --    1.52020   1.54386   1.56015   1.56529   1.57354
 Alpha virt. eigenvalues --    1.57563   1.58817   1.60737   1.61138   1.62702
 Alpha virt. eigenvalues --    1.63513   1.65115   1.65644   1.66687   1.68235
 Alpha virt. eigenvalues --    1.68694   1.69864   1.70439   1.71967   1.74084
 Alpha virt. eigenvalues --    1.74846   1.74984   1.75284   1.76137   1.77600
 Alpha virt. eigenvalues --    1.79429   1.80767   1.81673   1.82750   1.83572
 Alpha virt. eigenvalues --    1.83851   1.86141   1.86668   1.87277   1.88755
 Alpha virt. eigenvalues --    1.90698   1.93659   1.94447   1.96841   1.96944
 Alpha virt. eigenvalues --    1.99674   2.00519   2.02181   2.03772   2.05622
 Alpha virt. eigenvalues --    2.06960   2.09474   2.11543   2.12556   2.13543
 Alpha virt. eigenvalues --    2.15359   2.18525   2.20362   2.21097   2.24874
 Alpha virt. eigenvalues --    2.25081   2.27780   2.28562   2.30336   2.32802
 Alpha virt. eigenvalues --    2.34199   2.35301   2.37528   2.41327   2.44511
 Alpha virt. eigenvalues --    2.47684   2.49222   2.50639   2.51907   2.53173
 Alpha virt. eigenvalues --    2.53846   2.54350   2.57576   2.58146   2.59972
 Alpha virt. eigenvalues --    2.60727   2.61425   2.62015   2.62852   2.63633
 Alpha virt. eigenvalues --    2.65559   2.67755   2.68171   2.71499   2.72864
 Alpha virt. eigenvalues --    2.73111   2.74223   2.76711   2.78662   2.79718
 Alpha virt. eigenvalues --    2.79772   2.81186   2.82494   2.83829   2.84708
 Alpha virt. eigenvalues --    2.86147   2.86833   2.88786   2.90192   2.90957
 Alpha virt. eigenvalues --    2.92510   2.92843   2.93795   2.94084   2.96316
 Alpha virt. eigenvalues --    2.97054   2.98441   2.99885   3.01038   3.02329
 Alpha virt. eigenvalues --    3.04397   3.05690   3.07406   3.10013   3.12722
 Alpha virt. eigenvalues --    3.14259   3.15063   3.16745   3.23200   3.24461
 Alpha virt. eigenvalues --    3.33352   3.34081   3.36769   3.37404   3.42658
 Alpha virt. eigenvalues --    3.45781   3.52252   3.55518   3.58969   3.59716
 Alpha virt. eigenvalues --    3.60709   3.62182   3.69172   3.70497   3.73286
 Alpha virt. eigenvalues --    3.79348   3.81248   3.84498   3.84643   3.86869
 Alpha virt. eigenvalues --    3.89504   3.90981   3.93932   3.97942   4.03491
 Alpha virt. eigenvalues --    4.06618   4.09396   4.13760   4.26407   4.26734
 Alpha virt. eigenvalues --    4.35611   4.51605   4.72730   4.78711   4.83018
 Alpha virt. eigenvalues --    4.86362   4.94873   4.96241   5.00472   5.06416
 Alpha virt. eigenvalues --    5.12794   5.19972   5.29406   5.30902   5.44320
 Alpha virt. eigenvalues --    5.58270   5.79809   5.83279  23.75892  23.79329
 Alpha virt. eigenvalues --   23.81361  23.85895  23.88589  23.91673  23.94005
 Alpha virt. eigenvalues --   23.97475  24.16034  35.56168  35.58824  35.61265
 Alpha virt. eigenvalues --   35.71223  49.85045  50.00044  50.02142
          Condensed to atoms (all electrons):
               1          2          3          4          5          6
     1  O    7.923059   0.359146  -0.260875   0.341087  -0.120885  -0.007521
     2  C    0.359146   8.192344  -0.108798  -0.915116  -0.098362  -0.008127
     3  N   -0.260875  -0.108798   8.338786  -2.509887   1.050688   0.044082
     4  C    0.341087  -0.915116  -2.509887  16.516254  -4.762062  -0.240607
     5  C   -0.120885  -0.098362   1.050688  -4.762062   8.409223   0.306068
     6  O   -0.007521  -0.008127   0.044082  -0.240607   0.306068   8.143188
     7  O    0.000873   0.090352  -0.049182  -0.077123   0.495913  -0.152714
     8  C   -0.067497   0.056124   0.402709  -1.494203   0.448691  -0.027557
     9  C   -0.026418   0.091235   0.288594  -1.775704   0.484750  -0.020505
    10  C   -0.000655  -0.085574   0.042068   0.007849   0.014188  -0.012191
    11  N   -0.000073   0.002589   0.001396  -0.009576  -0.003510   0.001439
    12  C   -0.000753   0.006219   0.005686   0.024971   0.019117  -0.010271
    13  N   -0.000261   0.016449  -0.001750  -0.034970   0.008000   0.042226
    14  C    0.161365  -1.482355  -0.513687   0.631542  -0.205473  -0.000101
    15  C   -0.046680   0.093372   0.063957  -0.178091   0.055768   0.001738
    16  N    0.007222   0.099484  -0.011434   0.035824  -0.008852  -0.000056
    17  H   -0.001520   0.021036   0.322722  -0.065923  -0.007112  -0.003826
    18  H    0.007203   0.015875  -0.193420   0.815241  -0.200607   0.004873
    19  H   -0.001510  -0.002135   0.012305  -0.114801   0.116026   0.201423
    20  H   -0.012595   0.001640   0.020156  -0.009329  -0.031123   0.000809
    21  H   -0.012690   0.033067  -0.015789  -0.009615  -0.091059  -0.013219
    22  H    0.000290   0.000865   0.001196  -0.018706   0.003621  -0.000320
    23  H   -0.000015   0.000510  -0.000240   0.003159   0.000041   0.000850
    24  H    0.001112   0.001081   0.000932   0.010848  -0.015327  -0.037776
    25  H   -0.002940  -0.028045   0.007361   0.031198  -0.015522   0.000178
    26  H    0.008910  -0.181632   0.013525   0.026723   0.005194  -0.000388
    27  H   -0.012870   0.004001  -0.015158   0.035021  -0.016662   0.000044
    28  H   -0.003054  -0.032823  -0.004570   0.002797   0.002852  -0.000240
    29  H    0.000344   0.003587   0.000032   0.000417   0.000174  -0.000004
    30  H    0.000474   0.014594   0.001300  -0.001304   0.000405  -0.000002
               7          8          9         10         11         12
     1  O    0.000873  -0.067497  -0.026418  -0.000655  -0.000073  -0.000753
     2  C    0.090352   0.056124   0.091235  -0.085574   0.002589   0.006219
     3  N   -0.049182   0.402709   0.288594   0.042068   0.001396   0.005686
     4  C   -0.077123  -1.494203  -1.775704   0.007849  -0.009576   0.024971
     5  C    0.495913   0.448691   0.484750   0.014188  -0.003510   0.019117
     6  O   -0.152714  -0.027557  -0.020505  -0.012191   0.001439  -0.010271
     7  O    7.963315   0.016722  -0.007753   0.002590   0.000092   0.001686
     8  C    0.016722   6.225841   0.932224  -0.295531   0.000750  -0.031035
     9  C   -0.007753   0.932224   7.584108  -1.042129  -0.145707  -0.109512
    10  C    0.002590  -0.295531  -1.042129   7.192822   0.515194  -0.289049
    11  N    0.000092   0.000750  -0.145707   0.515194   6.550404   0.340680
    12  C    0.001686  -0.031035  -0.109512  -0.289049   0.340680   5.480222
    13  N    0.003653  -0.161690  -0.087317   0.065600   0.027137   0.092639
    14  C   -0.048796  -0.252451  -0.035714  -0.005211   0.000046  -0.003046
    15  C   -0.000247  -0.041988   0.002460  -0.001205   0.000017   0.000254
    16  N    0.000173   0.002694  -0.000628   0.000053   0.000000  -0.000009
    17  H   -0.005057   0.013921   0.003860   0.001558   0.000106   0.001924
    18  H    0.000386  -0.089375  -0.065038  -0.016408  -0.002260  -0.019780
    19  H   -0.015055  -0.004153   0.020683  -0.004809  -0.000062  -0.000935
    20  H    0.001665   0.339771  -0.058638  -0.039183   0.002483   0.021500
    21  H    0.000835   0.378274  -0.014743   0.006684   0.001842  -0.005366
    22  H   -0.000031  -0.020321  -0.135977   0.504951  -0.076817   0.027759
    23  H    0.000028   0.008336   0.082243  -0.038611  -0.069947   0.455289
    24  H    0.004280  -0.024622  -0.079498   0.043626   0.011645  -0.042534
    25  H    0.000322   0.005845  -0.000352  -0.000087  -0.000014  -0.000026
    26  H   -0.003906  -0.009856  -0.001277  -0.000070   0.000010  -0.000107
    27  H   -0.001609  -0.001914  -0.001770  -0.000199  -0.000004   0.000002
    28  H    0.000437   0.001256  -0.000204   0.000194  -0.000001  -0.000045
    29  H    0.000057   0.000033   0.000001  -0.000004   0.000000  -0.000001
    30  H   -0.000013   0.000288   0.000031   0.000013   0.000000   0.000000
              13         14         15         16         17         18
     1  O   -0.000261   0.161365  -0.046680   0.007222  -0.001520   0.007203
     2  C    0.016449  -1.482355   0.093372   0.099484   0.021036   0.015875
     3  N   -0.001750  -0.513687   0.063957  -0.011434   0.322722  -0.193420
     4  C   -0.034970   0.631542  -0.178091   0.035824  -0.065923   0.815241
     5  C    0.008000  -0.205473   0.055768  -0.008852  -0.007112  -0.200607
     6  O    0.042226  -0.000101   0.001738  -0.000056  -0.003826   0.004873
     7  O    0.003653  -0.048796  -0.000247   0.000173  -0.005057   0.000386
     8  C   -0.161690  -0.252451  -0.041988   0.002694   0.013921  -0.089375
     9  C   -0.087317  -0.035714   0.002460  -0.000628   0.003860  -0.065038
    10  C    0.065600  -0.005211  -0.001205   0.000053   0.001558  -0.016408
    11  N    0.027137   0.000046   0.000017   0.000000   0.000106  -0.002260
    12  C    0.092639  -0.003046   0.000254  -0.000009   0.001924  -0.019780
    13  N    6.939262  -0.004976   0.000123  -0.000004   0.000581   0.012753
    14  C   -0.004976   7.380211  -0.294379  -0.058856   0.000052   0.013721
    15  C    0.000123  -0.294379   6.612542  -0.125187   0.003683  -0.004754
    16  N   -0.000004  -0.058856  -0.125187   6.626737  -0.002814   0.001093
    17  H    0.000581   0.000052   0.003683  -0.002814   0.427730  -0.015501
    18  H    0.012753   0.013721  -0.004754   0.001093  -0.015501   0.512342
    19  H   -0.007835   0.001521   0.000708  -0.000060  -0.000658  -0.001854
    20  H    0.012984   0.007351   0.006827  -0.000834   0.005918  -0.013145
    21  H    0.010817  -0.001037   0.000387   0.000201  -0.003475   0.012169
    22  H    0.024265  -0.000795  -0.000190   0.000011   0.000016  -0.000312
    23  H   -0.125106   0.000090   0.000006   0.000000   0.000021  -0.001025
    24  H    0.375757  -0.001647  -0.000065   0.000000   0.000574   0.002492
    25  H    0.000078   0.397556  -0.066451   0.001243  -0.005001   0.000506
    26  H   -0.000150   0.528353  -0.057416   0.006431   0.003358   0.000596
    27  H    0.000058  -0.009620   0.339811  -0.022571   0.000137   0.000758
    28  H   -0.000058   0.024669   0.332186  -0.018427   0.000675   0.000265
    29  H   -0.000001  -0.004844  -0.049507   0.404950   0.000052   0.000006
    30  H    0.000000  -0.020252  -0.034196   0.397391  -0.000005  -0.000060
              19         20         21         22         23         24
     1  O   -0.001510  -0.012595  -0.012690   0.000290  -0.000015   0.001112
     2  C   -0.002135   0.001640   0.033067   0.000865   0.000510   0.001081
     3  N    0.012305   0.020156  -0.015789   0.001196  -0.000240   0.000932
     4  C   -0.114801  -0.009329  -0.009615  -0.018706   0.003159   0.010848
     5  C    0.116026  -0.031123  -0.091059   0.003621   0.000041  -0.015327
     6  O    0.201423   0.000809  -0.013219  -0.000320   0.000850  -0.037776
     7  O   -0.015055   0.001665   0.000835  -0.000031   0.000028   0.004280
     8  C   -0.004153   0.339771   0.378274  -0.020321   0.008336  -0.024622
     9  C    0.020683  -0.058638  -0.014743  -0.135977   0.082243  -0.079498
    10  C   -0.004809  -0.039183   0.006684   0.504951  -0.038611   0.043626
    11  N   -0.000062   0.002483   0.001842  -0.076817  -0.069947   0.011645
    12  C   -0.000935   0.021500  -0.005366   0.027759   0.455289  -0.042534
    13  N   -0.007835   0.012984   0.010817   0.024265  -0.125106   0.375757
    14  C    0.001521   0.007351  -0.001037  -0.000795   0.000090  -0.001647
    15  C    0.000708   0.006827   0.000387  -0.000190   0.000006  -0.000065
    16  N   -0.000060  -0.000834   0.000201   0.000011   0.000000   0.000000
    17  H   -0.000658   0.005918  -0.003475   0.000016   0.000021   0.000574
    18  H   -0.001854  -0.013145   0.012169  -0.000312  -0.001025   0.002492
    19  H    0.472443  -0.001993  -0.000487   0.000071   0.000047   0.000644
    20  H   -0.001993   0.584881  -0.022436  -0.008736   0.001863  -0.003371
    21  H   -0.000487  -0.022436   0.465852   0.002086  -0.001341   0.002116
    22  H    0.000071  -0.008736   0.002086   0.562195  -0.001939   0.002676
    23  H    0.000047   0.001863  -0.001341  -0.001939   0.544426  -0.009562
    24  H    0.000644  -0.003371   0.002116   0.002676  -0.009562   0.395509
    25  H   -0.000044  -0.000220   0.000844   0.000003  -0.000004  -0.000029
    26  H    0.000047   0.001113  -0.000269  -0.000053   0.000005  -0.000062
    27  H   -0.000221   0.000095  -0.000016  -0.000008   0.000000  -0.000042
    28  H   -0.000015  -0.001725  -0.000383   0.000046  -0.000001   0.000038
    29  H   -0.000004  -0.000017   0.000000   0.000000   0.000000   0.000000
    30  H    0.000001   0.000060  -0.000032   0.000000   0.000000  -0.000001
              25         26         27         28         29         30
     1  O   -0.002940   0.008910  -0.012870  -0.003054   0.000344   0.000474
     2  C   -0.028045  -0.181632   0.004001  -0.032823   0.003587   0.014594
     3  N    0.007361   0.013525  -0.015158  -0.004570   0.000032   0.001300
     4  C    0.031198   0.026723   0.035021   0.002797   0.000417  -0.001304
     5  C   -0.015522   0.005194  -0.016662   0.002852   0.000174   0.000405
     6  O    0.000178  -0.000388   0.000044  -0.000240  -0.000004  -0.000002
     7  O    0.000322  -0.003906  -0.001609   0.000437   0.000057  -0.000013
     8  C    0.005845  -0.009856  -0.001914   0.001256   0.000033   0.000288
     9  C   -0.000352  -0.001277  -0.001770  -0.000204   0.000001   0.000031
    10  C   -0.000087  -0.000070  -0.000199   0.000194  -0.000004   0.000013
    11  N   -0.000014   0.000010  -0.000004  -0.000001   0.000000   0.000000
    12  C   -0.000026  -0.000107   0.000002  -0.000045  -0.000001   0.000000
    13  N    0.000078  -0.000150   0.000058  -0.000058  -0.000001   0.000000
    14  C    0.397556   0.528353  -0.009620   0.024669  -0.004844  -0.020252
    15  C   -0.066451  -0.057416   0.339811   0.332186  -0.049507  -0.034196
    16  N    0.001243   0.006431  -0.022571  -0.018427   0.404950   0.397391
    17  H   -0.005001   0.003358   0.000137   0.000675   0.000052  -0.000005
    18  H    0.000506   0.000596   0.000758   0.000265   0.000006  -0.000060
    19  H   -0.000044   0.000047  -0.000221  -0.000015  -0.000004   0.000001
    20  H   -0.000220   0.001113   0.000095  -0.001725  -0.000017   0.000060
    21  H    0.000844  -0.000269  -0.000016  -0.000383   0.000000  -0.000032
    22  H    0.000003  -0.000053  -0.000008   0.000046   0.000000   0.000000
    23  H   -0.000004   0.000005   0.000000  -0.000001   0.000000   0.000000
    24  H   -0.000029  -0.000062  -0.000042   0.000038   0.000000  -0.000001
    25  H    0.583726  -0.083921   0.016650  -0.024195  -0.005223   0.013582
    26  H   -0.083921   0.624044  -0.023886   0.017939   0.014602  -0.006021
    27  H    0.016650  -0.023886   0.573782  -0.042832  -0.025997   0.017416
    28  H   -0.024195   0.017939  -0.042832   0.559484   0.017327  -0.026348
    29  H   -0.005223   0.014602  -0.025997   0.017327   0.491406  -0.075551
    30  H    0.013582  -0.006021   0.017416  -0.026348  -0.075551   0.493891
 Mulliken charges:
               1
     1  O   -0.232272
     2  C   -0.160603
     3  N    0.067293
     4  C   -0.265915
     5  C    0.155840
     6  O   -0.211492
     7  O   -0.221890
     8  C   -0.311285
     9  C    0.118695
    10  C   -0.566475
    11  N   -0.147854
    12  C    0.034521
    13  N   -0.208265
    14  C   -0.203235
    15  C   -0.613483
    16  N   -0.333772
    17  H    0.302967
    18  H    0.223259
    19  H    0.330711
    20  H    0.194229
    21  H    0.276783
    22  H    0.134154
    23  H    0.150877
    24  H    0.361204
    25  H    0.172985
    26  H    0.118162
    27  H    0.187603
    28  H    0.194757
    29  H    0.228165
    30  H    0.224338
 Sum of Mulliken charges =   0.00000
 Mulliken charges with hydrogens summed into heavy atoms:
               1
     1  O   -0.232272
     2  C   -0.160603
     3  N    0.370261
     4  C   -0.042655
     5  C    0.155840
     6  O    0.119218
     7  O   -0.221890
     8  C    0.159727
     9  C    0.118695
    10  C   -0.432321
    11  N   -0.147854
    12  C    0.185398
    13  N    0.152939
    14  C    0.087913
    15  C   -0.231123
    16  N    0.118730
 APT charges:
               1
     1  O   -0.341936
     2  C   -0.073705
     3  N   -0.335583
     4  C   -1.076339
     5  C    0.126939
     6  O   -0.547224
     7  O   -0.107307
     8  C   -0.493138
     9  C   -0.124435
    10  C   -0.650176
    11  N    0.055684
    12  C   -0.425994
    13  N   -0.587393
    14  C   -0.297710
    15  C   -1.091501
    16  N   -0.816024
    17  H    0.622145
    18  H    0.474789
    19  H    0.856796
    20  H    0.289280
    21  H    0.372774
    22  H    0.446865
    23  H    1.054489
    24  H    0.306650
    25  H    0.402153
    26  H    0.379671
    27  H    0.287281
    28  H    0.307070
    29  H    0.491795
    30  H    0.494086
 Sum of APT charges =   0.00000
 APT charges with hydrogens summed into heavy atoms:
               1
     1  O   -0.341936
     2  C   -0.073705
     3  N    0.286561
     4  C   -0.601550
     5  C    0.126939
     6  O    0.309573
     7  O   -0.107307
     8  C    0.168915
     9  C   -0.124435
    10  C   -0.203311
    11  N    0.055684
    12  C    0.628495
    13  N   -0.280743
    14  C    0.484113
    15  C   -0.497150
    16  N    0.169857
 Electronic spatial extent (au):  <R**2>=           5202.9989
 Charge=              0.0000 electrons
 Dipole moment (field-independent basis, Debye):
    X=              1.0488    Y=             -3.7505    Z=             -0.0993  Tot=              3.8957
 Quadrupole moment (field-independent basis, Debye-Ang):
   XX=           -121.7126   YY=            -97.9229   ZZ=            -87.9241
   XY=              4.1981   XZ=             26.1983   YZ=             -0.9487
 Traceless Quadrupole moment (field-independent basis, Debye-Ang):
   XX=            -19.1927   YY=              4.5970   ZZ=             14.5957
   XY=              4.1981   XZ=             26.1983   YZ=             -0.9487
 Octapole moment (field-independent basis, Debye-Ang**2):
  XXX=            161.5014  YYY=             -9.3943  ZZZ=            -12.4169  XYY=             54.2671
  XXY=            -86.6492  XXZ=            -44.4340  XZZ=             41.7572  YZZ=             -6.6050
  YYZ=             17.7646  XYZ=              1.3763
 Hexadecapole moment (field-independent basis, Debye-Ang**3):
 XXXX=          -7034.5793 YYYY=           -555.8929 ZZZZ=           -583.2914 XXXY=            344.5035
 XXXZ=            609.5986 YYYX=            265.6411 YYYZ=           -164.4650 ZZZX=             80.9805
 ZZZY=           -103.1321 XXYY=          -1086.8732 XXZZ=          -1062.1281 YYZZ=           -206.4242
 XXYZ=            -74.2140 YYXZ=             19.9459 ZZXY=            112.9858
 N-N= 1.113279699523D+03 E-N=-4.087309817030D+03  KE= 7.934811775925D+02
  Exact polarizability:   0.000   0.000   0.000   0.000   0.000   0.000
 Approx polarizability: 224.740  -6.128 183.340  -2.337   6.479 207.819
 Calling FoFJK, ICntrl=    100147 FMM=F ISym2X=0 I1Cent= 0 IOpClX= 0 NMat=1 NMatS=1 NMatT=0.
 -------------------------------------------------------------------
 Center     Atomic                   Forces (Hartrees/Bohr)
 Number     Number              X              Y              Z
 -------------------------------------------------------------------
      1        8           0.002978418   -0.001250545    0.000353876
      2        6           0.000054593    0.001519307    0.000579171
      3        7          -0.005108100   -0.000868775   -0.002740805
      4        6           0.008445673    0.002024281    0.009765803
      5        6           0.000394601   -0.000771959    0.000538070
      6        8           0.001430748   -0.001595929   -0.003560125
      7        8           0.001399785   -0.002409251   -0.002832122
      8        6          -0.006431272    0.001566953    0.001987185
      9        6           0.008854591    0.000309387    0.001392687
     10        6          -0.006718785    0.002024789    0.006051209
     11        7           0.000776333    0.002264709    0.003090149
     12        6          -0.004460503   -0.000310262    0.000518058
     13        7           0.000674559   -0.003145277   -0.008003483
     14        6          -0.001559572    0.000531958    0.000123107
     15        6          -0.000485691    0.000790981   -0.001403822
     16        7          -0.000356634   -0.000714616    0.001287558
     17        1           0.002027694   -0.001884220    0.001673633
     18        1          -0.003136159    0.003031755   -0.001594312
     19        1          -0.001913222    0.000604204   -0.002109401
     20        1           0.001229170   -0.001145888    0.001532171
     21        1           0.001090934   -0.000488733   -0.002670155
     22        1           0.000452091   -0.000205046   -0.000350620
     23        1          -0.003102502   -0.000652258   -0.000146613
     24        1          -0.000597192    0.000145560   -0.002044067
     25        1          -0.000277218   -0.000181698    0.000003084
     26        1           0.000519352    0.000024080   -0.000016524
     27        1           0.000276213    0.000494184   -0.001408411
     28        1           0.000097793    0.000912998   -0.000935061
     29        1           0.001747699   -0.001662033   -0.000497880
     30        1           0.001696603    0.001041344    0.001417639
 -------------------------------------------------------------------
 Cartesian Forces:  Max     0.009765803 RMS     0.002728450
 FormGI is forming the generalized inverse of G from B-inverse, IUseBI=4.

 GradGradGradGradGradGradGradGradGradGradGradGradGradGradGradGradGradGrad
 Berny optimization.
 Internal  Forces:  Max     0.010074307 RMS     0.002292072
 Search for a local minimum.
 Step number   1 out of a maximum of  160
 All quantities printed in internal units (Hartrees-Bohrs-Radians)
 Mixed Optimization -- RFO/linear search
 Second derivative matrix not updated -- analytic derivatives used.
 ITU=  0
     Eigenvalues ---   -0.00107   0.00025   0.00202   0.00251   0.00275
     Eigenvalues ---    0.00398   0.00578   0.00917   0.01079   0.01165
     Eigenvalues ---    0.01875   0.01962   0.01994   0.02477   0.03000
     Eigenvalues ---    0.03320   0.04095   0.04130   0.04214   0.04351
     Eigenvalues ---    0.04365   0.04664   0.04972   0.05035   0.05378
     Eigenvalues ---    0.05529   0.06188   0.06302   0.07610   0.08041
     Eigenvalues ---    0.08709   0.10370   0.10694   0.10807   0.11592
     Eigenvalues ---    0.11879   0.12139   0.13609   0.14594   0.15624
     Eigenvalues ---    0.16583   0.17882   0.18273   0.18637   0.18918
     Eigenvalues ---    0.20637   0.20946   0.22643   0.23143   0.23408
     Eigenvalues ---    0.24029   0.25061   0.25266   0.26875   0.28345
     Eigenvalues ---    0.30145   0.32259   0.32651   0.32994   0.33264
     Eigenvalues ---    0.33607   0.33650   0.34264   0.34476   0.34722
     Eigenvalues ---    0.35320   0.36852   0.37072   0.37212   0.37561
     Eigenvalues ---    0.38310   0.41667   0.44329   0.45042   0.45050
     Eigenvalues ---    0.45119   0.47156   0.47894   0.48046   0.51123
     Eigenvalues ---    0.57510   0.59748   0.80960   0.90126
 RFO step:  Lambda=-3.24277095D-03 EMin=-1.07204132D-03
 Linear search not attempted -- first point.
 Iteration  1 RMS(Cart)=  0.15995391 RMS(Int)=  0.02534072
 Iteration  2 RMS(Cart)=  0.05948469 RMS(Int)=  0.00199927
 Iteration  3 RMS(Cart)=  0.00274618 RMS(Int)=  0.00011439
 Iteration  4 RMS(Cart)=  0.00000513 RMS(Int)=  0.00011435
 Iteration  5 RMS(Cart)=  0.00000000 RMS(Int)=  0.00011435
 Variable       Old X    -DE/DX   Delta X   Delta X   Delta X     New X
                                 (Linear)    (Quad)   (Total)
    R1        2.30721  -0.00156   0.00000  -0.00064  -0.00064   2.30658
    R2        2.58954   0.00458   0.00000   0.00533   0.00533   2.59488
    R3        2.87086   0.00064   0.00000  -0.00108  -0.00108   2.86978
    R4        2.76204   0.00083   0.00000  -0.01173  -0.01173   2.75032
    R5        1.89952   0.00281   0.00000   0.00469   0.00469   1.90421
    R6        2.87256   0.00896   0.00000   0.02769   0.02769   2.90025
    R7        2.92141   0.00371   0.00000   0.01144   0.01144   2.93285
    R8        2.07114  -0.00101   0.00000  -0.00327  -0.00327   2.06787
    R9        2.56393   0.00338   0.00000   0.00601   0.00601   2.56994
   R10        2.26572   0.00344   0.00000   0.00286   0.00286   2.26858
   R11        1.83142   0.00131   0.00000   0.00116   0.00116   1.83259
   R12        2.81895   0.00415   0.00000   0.00087   0.00087   2.81982
   R13        2.05605   0.00126   0.00000   0.00467   0.00467   2.06072
   R14        2.05432   0.00206   0.00000   0.00597   0.00597   2.06029
   R15        2.58251   0.00827   0.00000   0.01516   0.01516   2.59766
   R16        2.59103   0.01007   0.00000   0.02048   0.02050   2.61154
   R17        2.61346  -0.00085   0.00000  -0.00864  -0.00866   2.60480
   R18        2.03981  -0.00026   0.00000  -0.00022  -0.00022   2.03958
   R19        2.47647   0.00346   0.00000   0.00552   0.00551   2.48198
   R20        2.56710   0.00829   0.00000   0.01544   0.01545   2.58255
   R21        2.03241   0.00277   0.00000   0.00679   0.00679   2.03921
   R22        1.90273   0.00154   0.00000   0.00346   0.00346   1.90620
   R23        2.89054   0.00339   0.00000   0.01357   0.01357   2.90410
   R24        2.07289  -0.00005   0.00000   0.00055   0.00055   2.07344
   R25        2.07197   0.00003   0.00000  -0.00158  -0.00158   2.07040
   R26        2.75757   0.00388   0.00000   0.00398   0.00398   2.76155
   R27        2.06045   0.00120   0.00000   0.00516   0.00516   2.06561
   R28        2.05977   0.00089   0.00000   0.00064   0.00064   2.06042
   R29        1.91553   0.00192   0.00000   0.00209   0.00209   1.91763
   R30        1.91593   0.00179   0.00000   0.00173   0.00173   1.91766
    A1        2.11002   0.00233   0.00000   0.00214   0.00213   2.11215
    A2        2.16737  -0.00389   0.00000  -0.01630  -0.01631   2.15106
    A3        2.00528   0.00157   0.00000   0.01398   0.01397   2.01926
    A4        2.08260   0.00285   0.00000   0.00124   0.00095   2.08356
    A5        2.05827  -0.00296   0.00000  -0.00296  -0.00336   2.05491
    A6        2.02754   0.00053   0.00000   0.02171   0.02149   2.04903
    A7        1.90075  -0.00343   0.00000  -0.00229  -0.00251   1.89824
    A8        1.94550   0.00159   0.00000   0.01499   0.01495   1.96045
    A9        1.82929   0.00197   0.00000   0.02931   0.02955   1.85884
   A10        2.00626   0.00376   0.00000   0.01275   0.01256   2.01882
   A11        1.85211   0.00007   0.00000  -0.01276  -0.01290   1.83921
   A12        1.91941  -0.00419   0.00000  -0.04179  -0.04186   1.87754
   A13        1.97205   0.00335   0.00000   0.00777   0.00777   1.97982
   A14        2.17361   0.00054   0.00000  -0.00205  -0.00205   2.17156
   A15        2.13655  -0.00389   0.00000  -0.00584  -0.00584   2.13071
   A16        1.84140   0.00475   0.00000   0.01851   0.01851   1.85991
   A17        1.98720   0.00545   0.00000   0.00810   0.00811   1.99531
   A18        1.88268  -0.00355   0.00000  -0.02605  -0.02608   1.85660
   A19        1.92250  -0.00215   0.00000  -0.00929  -0.00936   1.91314
   A20        1.87125  -0.00133   0.00000   0.00120   0.00119   1.87243
   A21        1.94662  -0.00045   0.00000   0.00925   0.00925   1.95587
   A22        1.84620   0.00166   0.00000   0.01646   0.01629   1.86249
   A23        2.29795  -0.00305   0.00000  -0.00492  -0.00496   2.29299
   A24        2.15589   0.00508   0.00000   0.00969   0.00965   2.16554
   A25        1.82924  -0.00203   0.00000  -0.00460  -0.00459   1.82465
   A26        1.93152   0.00182   0.00000   0.00499   0.00498   1.93650
   A27        2.23614  -0.00147   0.00000  -0.01069  -0.01069   2.22545
   A28        2.11552  -0.00035   0.00000   0.00569   0.00570   2.12121
   A29        1.83501   0.00190   0.00000   0.00438   0.00435   1.83936
   A30        1.94486   0.00025   0.00000   0.00078   0.00078   1.94564
   A31        2.21125  -0.00166   0.00000  -0.01173  -0.01174   2.19951
   A32        2.12707   0.00141   0.00000   0.01097   0.01096   2.13803
   A33        1.88412  -0.00193   0.00000  -0.00550  -0.00549   1.87863
   A34        2.16144   0.00192   0.00000   0.00501   0.00496   2.16640
   A35        2.23756   0.00000   0.00000   0.00064   0.00059   2.23815
   A36        1.96523   0.00125   0.00000  -0.00080  -0.00088   1.96436
   A37        1.88924  -0.00074   0.00000  -0.01436  -0.01438   1.87487
   A38        1.89779   0.00011   0.00000   0.02713   0.02715   1.92494
   A39        1.92061   0.00006   0.00000  -0.00441  -0.00450   1.91611
   A40        1.92824  -0.00086   0.00000  -0.00593  -0.00604   1.92220
   A41        1.85923   0.00013   0.00000  -0.00154  -0.00149   1.85774
   A42        2.00914   0.00001   0.00000   0.00100   0.00099   2.01013
   A43        1.90141   0.00045   0.00000   0.00355   0.00355   1.90496
   A44        1.90061   0.00038   0.00000   0.00217   0.00217   1.90278
   A45        1.89253  -0.00017   0.00000  -0.00375  -0.00375   1.88879
   A46        1.89543  -0.00016   0.00000   0.00238   0.00238   1.89781
   A47        1.85899  -0.00057   0.00000  -0.00599  -0.00599   1.85300
   A48        1.92666   0.00192   0.00000   0.02142   0.02104   1.94770
   A49        1.92590   0.00209   0.00000   0.01952   0.01915   1.94505
   A50        1.86182  -0.00070   0.00000   0.01475   0.01405   1.87586
    D1        0.21074  -0.00121   0.00000  -0.06280  -0.06265   0.14809
    D2        2.83742  -0.00021   0.00000  -0.01502  -0.01513   2.82229
    D3       -2.96379  -0.00097   0.00000  -0.06914  -0.06903  -3.03282
    D4       -0.33711   0.00003   0.00000  -0.02136  -0.02151  -0.35862
    D5       -0.19629  -0.00002   0.00000  -0.28109  -0.28105  -0.47735
    D6        1.93087   0.00035   0.00000  -0.29715  -0.29707   1.63380
    D7       -2.33915   0.00016   0.00000  -0.29235  -0.29242  -2.63157
    D8        2.97946  -0.00041   0.00000  -0.27494  -0.27493   2.70453
    D9       -1.17656  -0.00004   0.00000  -0.29099  -0.29095  -1.46751
   D10        0.83660  -0.00023   0.00000  -0.28619  -0.28629   0.55031
   D11        1.04882   0.00085   0.00000  -0.01694  -0.01680   1.03203
   D12       -1.18286  -0.00261   0.00000  -0.04291  -0.04269  -1.22555
   D13        3.02470   0.00040   0.00000  -0.01827  -0.01824   3.00645
   D14       -1.58664   0.00088   0.00000  -0.05696  -0.05708  -1.64373
   D15        2.46486  -0.00257   0.00000  -0.08293  -0.08297   2.38189
   D16        0.38923   0.00043   0.00000  -0.05830  -0.05853   0.33070
   D17       -2.73742  -0.00032   0.00000   0.07785   0.07787  -2.65955
   D18        0.45063  -0.00024   0.00000   0.08095   0.08097   0.53160
   D19       -0.54048   0.00184   0.00000   0.10572   0.10573  -0.43476
   D20        2.64757   0.00193   0.00000   0.10882   0.10883   2.75640
   D21        1.58493  -0.00107   0.00000   0.05142   0.05138   1.63631
   D22       -1.51021  -0.00098   0.00000   0.05452   0.05448  -1.45572
   D23       -2.51140   0.00099   0.00000  -0.02152  -0.02137  -2.53278
   D24       -0.43699   0.00024   0.00000  -0.03285  -0.03272  -0.46971
   D25        1.57019  -0.00090   0.00000  -0.03265  -0.03244   1.53775
   D26        1.59816   0.00134   0.00000  -0.04110  -0.04112   1.55704
   D27       -2.61061   0.00058   0.00000  -0.05243  -0.05247  -2.66308
   D28       -0.60343  -0.00055   0.00000  -0.05222  -0.05218  -0.65562
   D29       -0.49034   0.00179   0.00000  -0.00223  -0.00240  -0.49274
   D30        1.58407   0.00104   0.00000  -0.01356  -0.01375   1.57032
   D31       -2.69194  -0.00010   0.00000  -0.01336  -0.01346  -2.70540
   D32        3.13502   0.00013   0.00000   0.00269   0.00269   3.13771
   D33       -0.05190   0.00018   0.00000  -0.00023  -0.00023  -0.05213
   D34        2.09233  -0.00172   0.00000  -0.12453  -0.12455   1.96778
   D35       -1.03161  -0.00213   0.00000  -0.13958  -0.13961  -1.17122
   D36        0.01140   0.00033   0.00000  -0.09770  -0.09766  -0.08626
   D37       -3.11253  -0.00009   0.00000  -0.11275  -0.11273   3.05793
   D38       -2.00201  -0.00064   0.00000  -0.12303  -0.12302  -2.12503
   D39        1.15724  -0.00106   0.00000  -0.13808  -0.13808   1.01916
   D40       -3.13184  -0.00018   0.00000  -0.00917  -0.00907  -3.14092
   D41        0.01505  -0.00023   0.00000  -0.00669  -0.00663   0.00841
   D42       -0.00548   0.00024   0.00000   0.00393   0.00393  -0.00155
   D43        3.14141   0.00019   0.00000   0.00641   0.00637  -3.13540
   D44        3.13505  -0.00010   0.00000   0.00609   0.00616   3.14120
   D45       -0.01765  -0.00024   0.00000   0.01936   0.01943   0.00178
   D46        0.00710  -0.00039   0.00000  -0.00549  -0.00548   0.00162
   D47        3.13759  -0.00054   0.00000   0.00777   0.00780  -3.13780
   D48        0.00167   0.00000   0.00000  -0.00082  -0.00082   0.00085
   D49        3.13839   0.00004   0.00000  -0.00316  -0.00314   3.13525
   D50        0.00300  -0.00024   0.00000  -0.00275  -0.00278   0.00023
   D51       -3.13459  -0.00004   0.00000  -0.00794  -0.00788   3.14071
   D52       -0.00655   0.00040   0.00000   0.00534   0.00535  -0.00120
   D53       -3.13641   0.00054   0.00000  -0.00872  -0.00867   3.13811
   D54        3.13127   0.00021   0.00000   0.01018   0.01019   3.14146
   D55        0.00141   0.00035   0.00000  -0.00388  -0.00383  -0.00242
   D56       -3.12714  -0.00023   0.00000  -0.04767  -0.04765   3.10839
   D57       -0.99761  -0.00010   0.00000  -0.04915  -0.04913  -1.04674
   D58        1.02334  -0.00033   0.00000  -0.05316  -0.05314   0.97020
   D59        1.04674  -0.00017   0.00000  -0.02572  -0.02571   1.02103
   D60       -3.10691  -0.00004   0.00000  -0.02720  -0.02719  -3.13411
   D61       -1.08596  -0.00027   0.00000  -0.03120  -0.03120  -1.11716
   D62       -1.00146   0.00015   0.00000  -0.01756  -0.01758  -1.01904
   D63        1.12807   0.00028   0.00000  -0.01904  -0.01906   1.10901
   D64       -3.13416   0.00006   0.00000  -0.02304  -0.02307   3.12595
   D65        1.03156   0.00080   0.00000   0.00181   0.00200   1.03356
   D66       -1.02209  -0.00080   0.00000  -0.04147  -0.04166  -1.06374
   D67       -1.10274   0.00034   0.00000  -0.00063  -0.00044  -1.10318
   D68        3.12679  -0.00126   0.00000  -0.04391  -0.04409   3.08270
   D69       -3.11613   0.00119   0.00000   0.00717   0.00736  -3.10878
   D70        1.11340  -0.00042   0.00000  -0.03611  -0.03630   1.07711
         Item               Value     Threshold  Converged?
 Maximum Force            0.010074     0.000450     NO 
 RMS     Force            0.002292     0.000300     NO 
 Maximum Displacement     0.990343     0.001800     NO 
 RMS     Displacement     0.206346     0.001200     NO 
 Predicted change in Energy=-2.323983D-03
 GradGradGradGradGradGradGradGradGradGradGradGradGradGradGradGradGradGrad

                          Input orientation:                          
 ---------------------------------------------------------------------
 Center     Atomic      Atomic             Coordinates (Angstroms)
 Number     Number       Type             X           Y           Z
 ---------------------------------------------------------------------
      1          8           0        1.436331    0.857865   -0.699741
      2          6           0        1.607491    0.036067    0.186366
      3          7           0        0.554276   -0.678577    0.701693
      4          6           0       -0.749760   -0.590324    0.061456
      5          6           0       -0.616712   -1.053928   -1.395530
      6          8           0       -1.532217   -0.490130   -2.228268
      7          8           0        0.174041   -1.872337   -1.777721
      8          6           0       -1.415077    0.796605    0.267570
      9          6           0       -2.899832    0.751063    0.409168
     10          6           0       -3.719475    1.024448    1.478298
     11          7           0       -5.044141    0.843764    1.142729
     12          6           0       -5.036473    0.463804   -0.114494
     13          7           0       -3.763898    0.390428   -0.607278
     14          6           0        2.959017   -0.229355    0.826006
     15          6           0        4.129788    0.080402   -0.120066
     16          7           0        5.460039   -0.113797    0.452875
     17          1           0        0.764513   -1.522018    1.211394
     18          1           0       -1.385501   -1.337162    0.546730
     19          1           0       -1.357004   -0.845845   -3.113259
     20          1           0       -1.012833    1.195096    1.199541
     21          1           0       -1.099938    1.475183   -0.525452
     22          1           0       -3.426156    1.346849    2.465675
     23          1           0       -5.904045    0.230302   -0.712202
     24          1           0       -3.467705    0.124696   -1.534189
     25          1           0        3.028215    0.401085    1.721350
     26          1           0        3.018297   -1.267146    1.172169
     27          1           0        4.046459   -0.547306   -1.011049
     28          1           0        4.044332    1.110980   -0.465629
     29          1           0        5.597628   -1.070581    0.761713
     30          1           0        5.610405    0.489877    1.254593
 ---------------------------------------------------------------------
                    Distance matrix (angstroms):
                    1          2          3          4          5
     1  O    0.000000
     2  C    1.220588   0.000000
     3  N    2.258914   1.373149   0.000000
     4  C    2.730506   2.442253   1.455405   0.000000
     5  C    2.890339   2.938973   2.431141   1.534744   0.000000
     6  O    3.600800   3.995636   3.601894   2.421800   1.359952
     7  O    3.195219   3.091023   2.777973   2.424776   1.200481
     8  C    3.011639   3.117840   2.498595   1.551999   2.612998
     9  C    4.476985   4.569116   3.749708   2.557936   3.424553
    10  C    5.599458   5.569788   4.665657   3.665261   4.712289
    11  N    6.737314   6.768397   5.818446   4.654833   5.444824
    12  C    6.511143   6.664512   5.764345   4.417924   4.845498
    13  N    5.222013   5.441255   4.637112   3.239461   3.551377
    14  C    2.414234   1.518622   2.449497   3.803928   4.289637
    15  C    2.862724   2.541230   3.746415   4.928774   5.044084
    16  N    4.296845   3.864662   4.944431   6.240344   6.420853
    17  H    3.125319   2.046685   1.007664   2.117412   2.987130
    18  H    3.786102   3.312645   2.054382   1.094269   2.107992
    19  H    4.065762   4.522557   4.270226   3.242353   1.882000
    20  H    3.117595   3.039073   2.492856   2.133581   3.456792
    21  H    2.616126   3.147683   2.980100   2.175640   2.717894
    22  H    5.822606   5.678996   4.801856   4.086074   5.344680
    23  H    7.367164   7.567583   6.673460   5.276232   5.483800
    24  H    5.028261   5.359643   4.671269   3.231805   3.088129
    25  H    2.933330   2.123174   2.885436   4.243964   5.011735
    26  H    3.243816   2.158830   2.576657   3.986229   4.455540
    27  H    2.980636   2.778974   3.891794   4.914859   4.706343
    28  H    2.630693   2.742031   4.092145   5.114252   5.222727
    29  H    4.813642   4.180537   5.058919   6.403931   6.578145
    30  H    4.623606   4.167778   5.218756   6.560648   6.941432
                    6          7          8          9         10
     6  O    0.000000
     7  O    2.241608   0.000000
     8  C    2.810448   3.719108   0.000000
     9  C    3.219783   4.594933   1.492187   0.000000
    10  C    4.562530   5.844013   2.613049   1.374625   0.000000
    11  N    5.047425   6.567774   3.733394   2.268208   1.378403
    12  C    4.202124   5.947549   3.656670   2.218552   2.141446
    13  N    2.895408   4.690139   2.539153   1.381966   2.180272
    14  C    5.437627   4.151491   4.527377   5.954922   6.826402
    15  C    6.068634   4.712637   5.604350   7.081344   8.065787
    16  N    7.498120   6.000816   6.937607   8.404602   9.306480
    17  H    4.262750   3.066951   3.319251   4.386102   5.163514
    18  H    2.905100   2.849852   2.152154   2.583178   3.448544
    19  H    0.969764   2.276279   3.759125   4.163884   5.491964
    20  H    3.854818   4.436429   1.090488   2.093471   2.726305
    21  H    2.636077   3.794350   1.090259   2.153481   3.328686
    22  H    5.384663   6.428918   3.029665   2.204813   1.079301
    23  H    4.682986   6.519168   4.629415   3.248685   3.193948
    24  H    2.146129   4.160500   2.812664   2.119305   3.154049
    25  H    6.098465   5.055517   4.691775   6.081615   6.780779
    26  H    5.733577   4.142209   4.973145   6.299174   7.123390
    27  H    5.710212   4.164026   5.767958   7.207894   8.305239
    28  H    6.063691   5.059735   5.517387   7.008297   8.003939
    29  H    7.753167   6.042088   7.273829   8.697672   9.576588
    30  H    8.006733   6.658005   7.101105   8.556114   9.347858
                   11         12         13         14         15
    11  N    0.000000
    12  C    1.313406   0.000000
    13  N    2.215189   1.366627   0.000000
    14  C    8.080992   8.080401   6.901886   0.000000
    15  C    9.291843   9.174277   7.914782   1.536784   0.000000
    16  N   10.570270  10.527691   9.298343   2.531341   1.461349
[...]
 0002225,-0.00000329,-0.00004041,-0.00001056,-0.00000101,0.00001969,-0.
 00000244,0.00002126,0.00008399,-0.00013515,0.00020344,0.00034925,0.000
 35926,-0.00043933,0.00003751,-0.00028176,0.00012618,-0.00072797,-0.000
 24093,-0.00000631,-0.00009918,0.00180991,-0.00022349,0.00011199,-0.001
 19640,-0.00001052,-0.00315189,0.01767143,0.00007774,0.00002599,-0.0002
 6938,-0.00019378,-0.00019276,0.00028627,0.00037229,-0.00008997,-0.0003
 2724,-0.00051649,0.00045133,0.00003181,0.00110971,-0.00134333,0.003576
 46,0.00044587,0.00040482,-0.00565782,-0.00088322,0.00080691,-0.0007280
 9,-0.00035259,0.00021228,0.00068537,0.01223149,0.00078802,-0.01341103,
 -0.00278980,-0.00106675,-0.00302557,-0.00105146,-0.00077895,0.00358846
 ,0.00168707,0.00163428,0.00149383,0.12488349,-0.03008884,-0.40474500,0
 .00002874,0.00002608,-0.00000665,-0.00002607,0.00003369,0.00005155,0.0
 0002973,-0.00001925,-0.00003089,0.00002164,0.00001455,0.00003237,-0.00
 011320,0.00004295,-0.00016260,0.00148650,-0.00033470,-0.00023872,0.000
 35773,-0.00003962,0.00007294,-0.00025504,-0.00006708,0.00006334,0.0006
 4445,-0.00008888,-0.00011081,-0.00003493,0.00019111,-0.00008157,-0.137
 15781,0.02947340,0.41890817,0.00198360,0.00229923,0.00278151,-0.013134
 25,-0.03123737,-0.00987034,-0.00443994,0.00203623,-0.00175108,-0.00072
 137,0.00020337,0.00117100,0.00006062,0.00002739,0.00054544,-0.00004502
 ,0.00005778,-0.00020026,0.00005166,-0.00004237,-0.00019942,-0.00028419
 ,-0.00023801,-0.00016144,-0.00005567,0.00017338,0.00002192,0.00002150,
 0.00002310,-0.00004386,-0.00006276,-0.00002174,-0.00001411,-0.00003860
 ,-0.00001229,0.00001922,0.00002823,0.00002450,0.00004955,-0.07440275,-
 0.08030640,-0.03186238,0.00552832,0.02038899,0.00818599,0.00297346,-0.
 00021582,-0.00046356,0.00034081,0.00016838,-0.00070965,-0.00024734,-0.
 00000876,-0.00011986,-0.00001461,-0.00000877,0.00000055,-0.00002976,-0
 .00003280,0.00001045,-0.00001147,0.00002277,-0.00003163,-0.00000065,-0
 .00000522,0.00000338,-0.00000185,-0.00000361,0.00000088,0.00001956,-0.
 00001371,0.00000756,0.08530226,0.00059540,0.00070751,-0.00030530,0.001
 22503,0.00360121,0.00335189,0.00023426,0.00003393,-0.00065084,0.000291
 31,0.00008205,-0.00005058,0.00007699,-0.00014818,0.00004459,-0.0000840
 3,0.00007913,-0.00009856,-0.00010774,0.00007683,-0.00001976,-0.0000535
 9,-0.00005536,-0.00003453,0.00000392,0.00003349,-0.00001052,0.00000356
 ,0.00000466,-0.00001217,-0.00001991,-0.00000295,0.00000299,-0.00000197
 ,-0.00000043,-0.00000104,-0.00000542,0.00000808,0.00001999,-0.08120858
 ,-0.25208666,-0.06876111,-0.00387678,-0.01158268,-0.00555328,-0.000384
 43,0.00182394,0.00152627,0.00049871,0.00022447,-0.00011240,0.00003309,
 0.00000352,-0.00000780,0.00000553,-0.00000699,0.00000908,-0.00000448,-
 0.00001395,-0.00000213,-0.00001871,0.00001591,-0.00000540,0.00000057,-
 0.00000259,0.00000033,-0.00000044,-0.00000222,0.00000044,0.00001443,-0
 .00000819,-0.00000064,0.08624508,0.27216633,0.00003307,0.00187831,0.00
 053079,-0.00232943,-0.01186923,-0.00361123,-0.00097739,0.00071122,-0.0
 0034640,0.00007795,-0.00029890,0.00024531,0.00008295,-0.00008268,0.000
 08711,-0.00005571,0.00005590,-0.00008706,-0.00008358,0.00001748,-0.000
 00838,-0.00001505,-0.00001085,0.00005109,0.00000124,0.00001287,-0.0000
 1269,0.00000469,0.00000091,-0.00000114,-0.00001753,-0.00000252,0.00000
 001,-0.00000403,-0.00000244,-0.00000496,-0.00000839,0.00000472,0.00001
 116,-0.03126333,-0.06773149,-0.07025206,-0.00663009,-0.02407063,-0.010
 63463,-0.00186400,0.00212847,0.00115018,-0.00035028,-0.00018533,0.0000
 8659,-0.00008856,0.00001536,-0.00003710,0.00000382,-0.00000469,0.00001
 375,0.00000474,-0.00000395,-0.00001700,0.00001359,-0.00001006,-0.00000
 865,0.00000211,0.00000081,-0.00000159,-0.00000148,-0.00000092,-0.00000
 016,0.00001231,-0.00000686,0.00000166,0.03018565,0.07832337,0.07595128
 ,-0.00808069,0.00219350,-0.00457287,0.00746584,0.02038305,-0.02282442,
 -0.00036197,-0.00070381,0.00141926,0.00049906,0.00018419,0.00011228,0.
 00025067,0.00041112,-0.00015933,-0.00005355,-0.00011346,0.00006737,-0.
 00000183,-0.00015710,0.00003733,0.00003149,0.00009492,-0.00001935,0.00
 001678,-0.00007838,0.00001520,-0.00000734,-0.00001524,-0.00001152,-0.0
 0001686,0.00000641,0.00000843,0.00000420,0.00000241,-0.00000195,-0.000
 00618,0.00000103,0.00001804,-0.04998317,-0.00885758,0.00451303,-0.0019
 0196,-0.01320498,0.01767337,0.00236563,-0.00082326,-0.00074476,-0.0015
 7909,-0.00060941,-0.00074423,0.00005391,-0.00001161,0.00005504,0.00001
 318,0.00001230,0.00003055,0.00000104,0.00000322,-0.00000353,0.00008849
 ,-0.00007745,0.00002625,-0.00000219,0.00000358,0.00000244,-0.00000042,
 0.00000010,0.00000054,0.00001490,0.00000586,-0.00000493,-0.00051715,-0
 .00649774,0.00954808,0.05422621,0.00252477,0.00224397,0.00115537,-0.00
 349278,-0.00647974,0.00223745,-0.00054384,0.00015500,-0.00128452,0.000
 33973,0.00020446,-0.00019082,-0.00029170,-0.00014162,-0.00004044,0.000
 09738,0.00001104,-0.00001516,0.00007515,0.00007030,-0.00002462,0.00001
 662,0.00001077,0.00005161,-0.00000934,0.00001433,-0.00000694,0.0000088
 2,0.00001168,0.00002594,0.00003112,0.00000231,-0.00001995,-0.00000941,
 -0.00000096,0.00000649,0.00000845,-0.00000519,-0.00004197,-0.00452489,
 -0.14889241,0.12415843,0.00163820,0.00770485,-0.01046662,-0.00179964,0
 .00070595,-0.00052142,-0.00011530,0.00106552,0.00013408,0.00005447,0.0
 0001472,0.00001581,-0.00002987,-0.00001525,-0.00003284,0.00000529,-0.0
 0002199,0.00001124,-0.00005191,0.00003202,-0.00000707,0.00000287,-0.00
 000504,-0.00000320,0.00000033,-0.00000022,-0.00000082,-0.00002662,0.00
 000175,0.00000776,0.00006160,-0.01654410,0.02222122,0.00491976,0.15877
 406,-0.00383524,0.00065457,0.00022223,0.00629286,0.00763141,-0.0102521
 7,0.00052977,-0.00040079,0.00117826,-0.00027971,-0.00028568,0.00005930
 ,0.00018160,0.00022386,-0.00008834,-0.00002139,-0.00007037,0.00009158,
 -0.00004291,-0.00015596,0.00008779,0.00003774,0.00004938,0.00001851,0.
 00001351,-0.00006911,0.00001515,-0.00000892,-0.00001200,-0.00000939,-0
 .00001583,0.00000149,0.00001441,0.00001142,0.00000324,-0.00000878,-0.0
 0000967,-0.00000269,0.00001830,0.00111322,0.12397639,-0.19938067,0.000
 58978,0.01526675,-0.02021504,-0.00135473,-0.00077749,0.00242239,-0.001
 10171,-0.00081127,0.00032632,-0.00004327,0.00000880,0.00000798,0.00003
 616,0.00002737,0.00001846,0.00000512,0.00002014,-0.00001231,0.00007951
 ,-0.00006387,0.00001742,-0.00000154,0.00000482,0.00000204,-0.00000072,
 0.00000159,0.00000006,0.00001490,0.00000781,-0.00000678,0.00029717,-0.
 00586489,0.00821094,-0.00593732,-0.13647359,0.21846753,-0.00025075,-0.
 00014185,-0.00050425,0.00190421,0.00083329,0.00080685,0.00000066,-0.00
 036638,-0.00016553,-0.00005914,-0.00000191,0.00003112,-0.00029623,0.00
 031101,0.00003685,0.00015385,-0.00016136,0.00011079,0.00021695,-0.0001
 3283,-0.00005675,0.00000712,0.00001880,0.00000146,-0.00000127,-0.00001
 399,0.00001292,0.00000043,-0.00000112,0.00000476,0.00001162,0.00000251
 ,-0.00000656,-0.00000619,-0.00000078,0.00000195,0.00000770,-0.00000550
 ,-0.00001556,0.00558483,0.01888793,0.00734745,-0.07460617,-0.07244708,
 -0.02705068,-0.02187186,-0.03095661,-0.01040586,-0.00006994,0.00005987
 ,0.00022053,-0.00001228,-0.00000610,-0.00000783,-0.00000764,0.00000403
 ,-0.00003203,0.00001014,0.00000194,-0.00000863,0.00001118,-0.00000288,
 0.00000708,0.00000027,0.00000059,-0.00000082,0.00000044,0.00000078,-0.
 00000027,-0.00001988,0.00000733,0.00000469,-0.00250838,0.00175643,0.00
 341285,0.00062379,-0.00065861,-0.00058756,0.09515542,0.00085931,0.0000
 1582,0.00061437,-0.00170821,-0.00052947,-0.00122886,0.00083530,0.00054
 889,0.00026022,-0.00000528,-0.00001608,-0.00008451,0.00073913,-0.00076
 856,-0.00028099,-0.00030198,0.00033645,-0.00014647,-0.00080446,0.00028
 307,0.00025108,0.00004401,-0.00000250,0.00003716,-0.00000188,0.0000044
 9,-0.00003601,-0.00000353,0.00000209,-0.00000091,-0.00001267,0.0000022
 1,0.00002373,0.00003015,0.00000387,-0.00001108,-0.00002115,0.00001294,
 0.00003075,-0.00136726,-0.01001898,-0.00342942,-0.07842491,-0.25261467
 ,-0.07130628,0.00169154,0.00739040,0.00177570,0.00009028,-0.00011705,-
 0.00022400,0.00003746,0.00002182,0.00002598,0.00004579,-0.00002580,0.0
 0005263,-0.00002010,0.00001077,0.00002120,-0.00002148,-0.00000070,-0.0
 0001429,-0.00000042,-0.00000222,0.00000250,0.00000109,-0.00000204,0.00
 000022,0.00004358,-0.00002163,-0.00001689,0.00149337,0.00089519,-0.001
 40966,0.00025587,0.00098110,-0.00025579,0.08206049,0.26843250,0.000195
 91,-0.00014995,0.00048677,-0.00204519,-0.00049392,-0.00058559,0.000362
 88,0.00049406,0.00013535,0.00010166,0.00001640,-0.00004399,-0.00006872
 ,0.00001192,0.00010347,0.00001018,0.00001775,-0.00002602,0.00007257,0.
 00002504,-0.00014476,-0.00001525,-0.00001232,-0.00002876,-0.00000476,0
 .00001406,0.00000318,0.00000003,0.00000223,-0.00000186,0.00000667,0.00
 000244,-0.00000442,-0.00000397,0.00000003,0.00000505,0.00000480,0.0000
 0184,-0.00000585,-0.00342124,-0.02300799,-0.00910062,-0.02756209,-0.06
 904605,-0.07602277,-0.00768314,-0.00885436,-0.00200351,0.00023208,-0.0
 0013102,-0.00021536,0.00003292,-0.00000554,0.00000109,-0.00002049,-0.0
 0000002,-0.00000154,-0.00000484,-0.00001224,0.00000551,-0.00001420,0.0
 0001119,-0.00000610,-0.00000077,-0.00000255,0.00000034,0.00000040,-0.0
 0000127,0.00000042,-0.00000695,-0.00000154,0.00000284,0.00311856,-0.00
 169957,-0.00254023,-0.00101555,0.00048376,0.00069414,0.03029493,0.0813
 1379,0.08061517,0.00031511,0.00084101,-0.00175099,0.00068229,-0.002618
 79,0.00307717,-0.00012203,0.00052557,-0.00048223,0.00006625,-0.0000090
 6,0.00000378,-0.00027110,0.00000623,0.00012634,0.00006022,-0.00000401,
 -0.00003312,0.00016247,0.00004987,-0.00012419,-0.00001762,-0.00001758,
 0.00000987,-0.00000582,0.00001932,-0.00000033,0.00000473,0.00000427,0.
 00000665,0.00001295,-0.00000014,-0.00001145,-0.00001193,-0.00000143,0.
 00000459,0.00000748,-0.00000212,-0.00001884,-0.00200171,-0.01156341,0.
 01632109,-0.04702947,-0.00776165,0.00470851,-0.00748942,0.02708162,-0.
 02812062,0.00028775,0.00017155,0.00008190,0.00000765,-0.00000028,-0.00
 002131,-0.00003983,-0.00001730,-0.00001919,0.00000511,-0.00000948,-0.0
 0000438,-0.00001741,0.00002385,-0.00000531,0.00000090,-0.00000144,-0.0
 0000157,-0.00000002,-0.00000043,-0.00000009,-0.00001889,0.00000226,0.0
 0000767,0.00084424,0.00024674,-0.00075230,-0.00249258,0.00191051,0.002
 81448,0.00033493,-0.00684815,0.00906914,0.06137577,-0.00008794,-0.0002
 9679,-0.00059688,-0.00005609,0.00034068,0.00031495,0.00006262,0.000120
 80,0.00015425,0.00000964,0.00000505,0.00009363,-0.00014748,0.00017892,
 0.00012457,0.00005448,-0.00004477,0.00001613,0.00020764,-0.00000118,-0
 .00015779,-0.00002475,-0.00000593,-0.00001829,-0.00000151,-0.00000211,
 0.00001387,0.00000026,0.00000035,-0.00000124,0.00000756,0.00000036,-0.
 00001014,-0.00001137,-0.00000080,0.00000668,0.00000836,-0.00000258,-0.
 00001340,0.00149639,0.00743955,-0.01085291,-0.00376223,-0.15768309,0.1
 2976503,0.00230691,-0.00184443,0.00270146,-0.00005378,-0.00008846,-0.0
 0015020,-0.00000379,-0.00000938,-0.00001016,-0.00003964,-0.00000664,0.
 00000095,0.00000274,-0.00000346,-0.00000810,0.00000899,0.00000264,0.00
 000703,-0.00000043,-0.00000028,-0.00000061,-0.00000041,0.00000020,0.00
 000031,-0.00001664,0.00000588,0.00000792,-0.00070460,0.00108319,0.0001
 9712,0.00218158,0.00029914,-0.00235709,-0.00037327,-0.01740889,0.02141
 001,-0.00188138,0.16550990,-0.00089878,-0.00112905,0.00184266,-0.00148
 322,0.00215874,-0.00254572,0.00019325,-0.00017780,0.00049019,-0.000057
 64,0.00007413,0.00007050,0.00013431,0.00001849,-0.00007102,-0.00001694
 ,-0.00000376,0.00004198,-0.00004737,0.00000052,0.00004002,0.00000432,0
 .00002388,-0.00001690,0.00000266,-0.00002141,0.00000590,-0.00000402,-0
 .00000490,-0.00000411,0.00000062,0.00000004,0.00000525,0.00000512,0.00
 000200,-0.00000023,0.00000022,-0.00000157,0.00000577,0.00556277,0.0138
 3360,-0.02085340,0.00125207,0.12708316,-0.20390302,-0.00446174,0.00722
 971,-0.00624064,-0.00013110,-0.00024431,-0.00010103,0.00001073,-0.0000
 0177,0.00001635,0.00000473,0.00000278,0.00000954,-0.00000498,0.0000097
 3,-0.00000030,0.00001265,-0.00001353,0.00001042,-0.00000179,0.00000280
 ,0.00000144,0.00000028,0.00000087,0.00000031,0.00000214,0.00000407,-0.
 00000331,-0.00084988,0.00009597,0.00082297,0.00275962,-0.00196477,-0.0
 0223951,0.00058326,-0.00659317,0.00951853,-0.00104417,-0.13965791,0.22
 328590,0.00023443,-0.00041381,0.00097810,-0.00098011,0.00011150,-0.000
 95255,0.00034921,0.00002265,0.00010722,-0.00013826,0.00003953,-0.00002
 247,0.00000801,-0.00004698,-0.00019582,0.00005651,-0.00002204,0.000119
 88,-0.00001673,0.00003514,0.00010806,0.00001478,0.00001856,0.00001588,
 -0.00001756,-0.00002268,0.00000224,-0.00000776,-0.00000498,0.00000720,
 0.00003756,0.00000571,0.00000252,0.00001023,0.00000393,0.00000717,0.00
 000878,-0.00000414,-0.00001981,0.00216358,0.00060422,-0.00169925,-0.00
 492168,0.02773974,-0.02957061,-0.04648343,-0.01418185,-0.02026165,-0.0
 0010631,-0.00004243,0.00000972,0.00001119,0.00000784,0.00001090,-0.000
 00176,-0.00000411,-0.00001715,-0.00001228,0.00001188,0.00000977,-0.000
 00312,-0.00000246,-0.00000161,-0.00000485,0.00000278,0.00000398,0.0000
 0218,0.00000072,0.00000068,-0.00001731,0.00000496,-0.00000692,-0.00009
 922,0.00000048,0.00023983,-0.00055748,-0.00024619,0.00106206,0.0010661
 1,-0.00066420,0.00033295,-0.00596414,0.00039176,-0.00163834,0.05476388
 ,-0.00050703,0.00025237,-0.00056997,0.00104136,0.00037961,0.00063868,-
 0.00051397,-0.00026315,-0.00007264,0.00013606,-0.00005399,0.00001181,-
 0.00007555,0.00017324,0.00021298,-0.00001376,-0.00003363,-0.00009152,0
 .00006498,-0.00015191,-0.00012223,-0.00001556,-0.00001014,-0.00001626,
 0.00002266,0.00001516,0.00000377,0.00000799,-0.00000015,-0.00000537,-0
 .00003609,-0.00000926,-0.00000565,-0.00001508,-0.00000287,-0.00000546,
 -0.00000612,-0.00000311,0.00001548,-0.00208633,0.00008983,-0.00007710,
 0.00216664,-0.00197482,0.00346625,0.00065161,-0.19889412,0.17591863,0.
 00000308,0.00008807,0.00002592,-0.00002915,-0.00000791,-0.00001082,0.0
 0000611,0.00002000,0.00001274,0.00001625,-0.00000871,-0.00001478,0.000
 01059,-0.00000504,0.00000707,0.00000417,0.00000079,-0.00000411,-0.0000
 0300,0.00000089,-0.00000082,0.00001253,0.00000244,0.00000784,0.0001357
 3,-0.00030020,-0.00001633,0.00064620,-0.00005395,-0.00029527,-0.000005
 33,0.00050194,-0.00057135,0.00012756,0.00194869,-0.00069135,-0.0042400
 2,0.22036006,-0.00019097,-0.00002184,0.00005200,0.00087067,0.00016915,
 -0.00017085,-0.00031137,-0.00020255,0.00004300,0.00012783,-0.00000465,
 0.00001383,-0.00001832,0.00009978,0.00011225,-0.00001738,-0.00002259,-
 0.00006014,0.00000881,-0.00010893,-0.00006337,-0.00001069,-0.00000584,
 -0.00001277,0.00001569,0.00001014,0.00000107,0.00000525,0.00000076,-0.
 00000369,-0.00002843,-0.00000677,-0.00000210,-0.00000825,-0.00000198,-
 0.00000542,-0.00000645,-0.00000134,0.00001359,0.00018394,-0.00103644,0
 .00237930,0.00578902,0.00459173,-0.01151482,-0.04025161,0.21647552,-0.
 25540822,0.00000615,0.00006131,0.00003306,-0.00001251,-0.00000432,-0.0
 0000015,0.00001299,0.00001901,0.00000850,0.00001125,-0.00000698,-0.000
 00963,0.00000736,-0.00000426,0.00000325,0.00000333,-0.00000008,-0.0000
 0296,-0.00000212,0.00000065,-0.00000069,0.00001249,0.00000151,0.000004
 30,0.00001873,-0.00004946,-0.00004855,-0.00036310,0.00048966,0.0004082
 0,-0.00013315,-0.00016894,-0.00034640,-0.00374737,-0.00067519,0.000229
 67,0.03589545,-0.20652720,0.25792064,0.00039069,-0.00014503,0.00048605
 ,-0.00055443,0.00046841,-0.00086341,0.00070883,0.00013441,0.00023244,-
 0.00008620,0.00004825,-0.00011858,0.00006960,-0.00017633,-0.00023248,0
 .00001219,0.00004328,0.00008993,-0.00010350,0.00010058,0.00014639,0.00
 002077,0.00001725,0.00002480,-0.00002112,-0.00002377,-0.00000570,-0.00
 000982,-0.00000305,0.00000888,0.00004138,0.00000579,0.00000700,0.00001
 701,0.00000516,0.00000536,0.00000599,-0.00000184,-0.00001821,0.0017494
 7,-0.00174166,-0.00001580,-0.01898226,-0.03367022,-0.01158881,-0.09684
 447,-0.11655575,-0.05619645,-0.00001936,-0.00007088,-0.00003241,0.0000
 4364,0.00001409,0.00002293,-0.00000156,-0.00000934,-0.00001326,-0.0000
 1676,0.00000884,0.00001658,-0.00001259,0.00000198,-0.00000766,-0.00000
 502,0.00000178,0.00000454,0.00000260,0.00000071,0.00000074,-0.00001273
 ,0.00000148,-0.00001012,-0.00053930,0.00103230,0.00081826,-0.00009272,
 0.00010503,0.00016121,-0.00537994,0.00197834,-0.00196855,0.00131410,0.
 00042635,0.00011122,0.00060554,0.00249348,0.00213277,0.11769997,-0.000
 03262,-0.00012101,0.00011937,0.00023591,0.00005441,-0.00028014,0.00006
 310,-0.00003095,0.00006755,-0.00000236,0.00002826,0.00001105,0.0000249
 3,-0.00001276,-0.00003315,-0.00000588,-0.00000337,0.00001102,-0.000016
 81,0.00001631,0.00001527,0.00000281,0.00000345,-0.00000290,0.00000039,
 0.00000005,-0.00000134,-0.00000046,-0.00000154,-0.00000090,-0.00000240
 ,-0.00000010,0.00000272,0.00000280,-0.00000089,-0.00000196,-0.00000167
 ,0.00000021,0.00000424,0.00119692,0.00121174,0.00125303,0.00662673,0.0
 0571249,-0.00084651,-0.14490280,-0.33712822,-0.07175641,-0.00000064,-0
 .00001229,-0.00000007,0.00000620,-0.00000201,0.00000411,0.00000444,0.0
 0000092,-0.00000025,0.00000002,0.00000234,-0.00000068,0.00000162,-0.00
 000075,0.00000066,0.00000019,0.00000061,-0.00000011,0.00000023,0.00000
 039,-0.00000002,0.00000212,0.00000095,-0.00000127,-0.00050942,-0.00008
 496,0.00013878,-0.00015507,-0.00014250,0.00001825,0.00133061,0.0020850
 6,0.00018517,-0.00027372,0.00046342,-0.00003521,-0.00910553,-0.0220601
 3,-0.01306987,0.14551037,0.35002087,-0.00019623,0.00032405,-0.00038391
 ,0.00074813,-0.00053503,0.00047693,-0.00028795,0.00005813,-0.00013058,
 0.00008990,-0.00002901,0.00005254,0.00018525,-0.00012860,0.00012520,-0
 .00012132,0.00009198,-0.00014838,-0.00016849,0.00004381,-0.00006150,-0
 .00001028,-0.00002133,-0.00000280,0.00001657,0.00002281,-0.00000151,0.
 00000749,0.00000472,-0.00000521,-0.00003674,-0.00000442,-0.00000373,-0
 .00000954,-0.00000307,-0.00000517,-0.00001024,0.00000530,0.00001741,0.
 00015159,0.00162876,0.00083025,0.00064687,-0.01293296,-0.00531043,-0.0
 7933919,-0.10196668,-0.06707926,0.00005528,0.00004550,-0.00003758,-0.0
 0002002,-0.00000314,-0.00000976,0.00000705,-0.00000977,0.00003597,0.00
 000867,-0.00000487,-0.00000835,0.00000430,-0.00000261,0.00000322,0.000
 00448,-0.00000317,-0.00000365,-0.00000249,-0.00000171,-0.00000056,0.00
 002181,-0.00001023,0.00000611,-0.00014012,-0.00013493,0.00044898,0.000
 11601,0.00009591,-0.00006801,-0.00390201,0.00079794,-0.00049408,-0.000
 09372,-0.00030401,-0.00041822,0.01547257,0.02877705,0.00642712,0.06680
 236,0.08419956,0.06574895\\0.00000099,-0.00000049,0.00000061,0.0000023
 3,0.00000236,-0.00000228,0.00000178,-0.00000154,-0.00000088,-0.0000021
 2,-0.00000109,-0.00000116,-0.00000282,-0.00000134,0.00000008,-0.000003
 01,0.00000081,0.00000210,0.00000085,0.00000089,0.00000018,-0.00000031,
 0.00000136,0.00000040,-0.00000001,-0.00000242,0.00000122,0.00000132,0.
 00000005,-0.00000065,-0.00000024,-0.00000045,-0.00000097,-0.00000026,0
 .00000019,-0.00000011,0.00000137,0.00000087,-0.00000020,-0.00000176,-0
 .00000330,-0.00000001,-0.00000124,0.00000114,-0.00000108,-0.00000008,0
 .00000018,0.00000023,-0.00000058,0.00000035,0.00000086,0.00000073,-0.0
 0000030,-0.00000063,0.00000031,0.00000061,0.00000044,-0.00000041,0.000
 00044,-0.00000075,-0.00000073,0.00000051,0.00000020,-0.00000006,-0.000
 00037,0.00000003,0.00000036,0.00000007,-0.00000002,0.00000146,-0.00000
 104,-0.00000063,0.00000195,0.00000050,0.00000189,0.00000014,0.00000156
 ,0.00000062,-0.00000036,0.00000066,0.00000005,0.00000096,-0.00000025,0
 .00000036,-0.00000023,0.00000025,-0.00000009,-0.00000033,-0.00000021,0
 .00000017\\\@


 In the beginning the Universe was created.
 This has made a lot of people very angry
 and been widely regarded as a bad move.
                               -D.Adams
 Job cpu time:       0 days  4 hours 40 minutes 43.9 seconds.
 File lengths (MBytes):  RWF=    541 Int=      0 D2E=      0 Chk=     17 Scr=      1
 Normal termination of Gaussian 09 at Sat Jul 24 04:18:13 2021.
