 Entering Gaussian System, Link 0=g09
 Input=opt_freq-conf-661.com
 Output=opt_freq-conf-661.log
 Initial command:
 /aerosol/software/g09/l1.exe "/scratch/nicole/10464/Gau-73872.inp" -scrdir="/scratch/nicole/10464/"
 Entering Link 1 = /aerosol/software/g09/l1.exe PID=     73874.
  
 Copyright (c) 1988,1990,1992,1993,1995,1998,2003,2009,2013,
            Gaussian, Inc.  All Rights Reserved.
  
 This is part of the Gaussian(R) 09 program.  It is based on
 the Gaussian(R) 03 system (copyright 2003, Gaussian, Inc.),
 the Gaussian(R) 98 system (copyright 1998, Gaussian, Inc.),
 the Gaussian(R) 94 system (copyright 1995, Gaussian, Inc.),
 the Gaussian 92(TM) system (copyright 1992, Gaussian, Inc.),
 the Gaussian 90(TM) system (copyright 1990, Gaussian, Inc.),
 the Gaussian 88(TM) system (copyright 1988, Gaussian, Inc.),
 the Gaussian 86(TM) system (copyright 1986, Carnegie Mellon
 University), and the Gaussian 82(TM) system (copyright 1983,
 Carnegie Mellon University). Gaussian is a federally registered
 trademark of Gaussian, Inc.
  
 This software contains proprietary and confidential information,
 including trade secrets, belonging to Gaussian, Inc.
  
 This software is provided under written license and may be
 used, copied, transmitted, or stored only in accord with that
 written license.
  
 The following legend is applicable only to US Government
 contracts under FAR:
  
                    RESTRICTED RIGHTS LEGEND
  
 Use, reproduction and disclosure by the US Government is
 subject to restrictions as set forth in subparagraphs (a)
 and (c) of the Commercial Computer Software - Restricted
 Rights clause in FAR 52.227-19.
  
 Gaussian, Inc.
 340 Quinnipiac St., Bldg. 40, Wallingford CT 06492
  
  
 ---------------------------------------------------------------
 Warning -- This program may not be used in any manner that
 competes with the business of Gaussian, Inc. or will provide
 assistance to any competitor of Gaussian, Inc.  The licensee
 of this program is prohibited from giving any competitor of
 Gaussian, Inc. access to this program.  By using this program,
 the user acknowledges that Gaussian, Inc. is engaged in the
 business of creating and licensing software in the field of
 computational chemistry and represents and warrants to the
 licensee that it is not a competitor of Gaussian, Inc. and that
 it will not use this program in any manner prohibited above.
 ---------------------------------------------------------------
  

 Cite this work as:
 Gaussian 09, Revision D.01,
 M. J. Frisch, G. W. Trucks, H. B. Schlegel, G. E. Scuseria, 
 M. A. Robb, J. R. Cheeseman, G. Scalmani, V. Barone, B. Mennucci, 
 G. A. Petersson, H. Nakatsuji, M. Caricato, X. Li, H. P. Hratchian, 
 A. F. Izmaylov, J. Bloino, G. Zheng, J. L. Sonnenberg, M. Hada, 
 M. Ehara, K. Toyota, R. Fukuda, J. Hasegawa, M. Ishida, T. Nakajima, 
 Y. Honda, O. Kitao, H. Nakai, T. Vreven, J. A. Montgomery, Jr., 
 J. E. Peralta, F. Ogliaro, M. Bearpark, J. J. Heyd, E. Brothers, 
 K. N. Kudin, V. N. Staroverov, T. Keith, R. Kobayashi, J. Normand, 
 K. Raghavachari, A. Rendell, J. C. Burant, S. S. Iyengar, J. Tomasi, 
 M. Cossi, N. Rega, J. M. Millam, M. Klene, J. E. Knox, J. B. Cross, 
 V. Bakken, C. Adamo, J. Jaramillo, R. Gomperts, R. E. Stratmann, 
 O. Yazyev, A. J. Austin, R. Cammi, C. Pomelli, J. W. Ochterski, 
 R. L. Martin, K. Morokuma, V. G. Zakrzewski, G. A. Voth, 
 P. Salvador, J. J. Dannenberg, S. Dapprich, A. D. Daniels, 
 O. Farkas, J. B. Foresman, J. V. Ortiz, J. Cioslowski, 
 and D. J. Fox, Gaussian, Inc., Wallingford CT, 2013.
 
 ******************************************
 Gaussian 09:  ES64L-G09RevD.01 24-Apr-2013
                24-Jul-2021 
 ******************************************
 %mem=2gb
 %nproc=4
 Will use up to    4 processors via shared memory.
 %chk=conf-661.chk
 ----------------------------------------------------------------------
 # B3LYP/6-311G(2df,2pd) EmpiricalDispersion=GD3BJ opt=calcfc freq=nora
 man nosymm integral(ultrafinegrid)
 ----------------------------------------------------------------------
 1/10=4,14=-1,18=20,19=15,26=4,38=1/1,3;
 2/9=110,12=2,15=1,17=6,18=5,40=1/2;
 3/5=4,6=6,7=404,11=2,16=1,25=1,30=1,71=2,74=-5,75=-5,124=41,140=1/1,2,3;
 4//1;
 5/5=2,38=5/2;
 8/6=4,10=90,11=11/1;
 11/6=1,8=1,9=11,15=111,16=1,31=1/1,2,10;
 10/6=1,13=1,31=1/2;
 6/7=2,8=2,9=2,10=2,28=1/1;
 7/10=1,18=20,25=1,30=1/1,2,3,16;
 1/10=4,14=-1,18=20,19=15,26=4/3(2);
 2/9=110,15=1/2;
 99//99;
 2/9=110,15=1/2;
 3/5=4,6=6,7=404,11=2,16=1,25=1,30=1,71=1,74=-5,75=-5,124=41/1,2,3;
 4/5=5,16=3,69=1/1;
 5/5=2,38=5/2;
 7/30=1/1,2,3,16;
 1/14=-1,18=20,19=15,26=4/3(-5);
 2/9=110,15=1/2;
 6/7=2,8=2,9=2,10=2,19=2,28=1/1;
 99/9=1/99;
 ------------------------------------------------------------
 Candidate Structure: Conf:661 OPT and FREQ calc in gas phase
 ------------------------------------------------------------
 Symbolic Z-matrix:
 Charge =  1 Multiplicity = 1
 O                     1.32423   1.81349   0.5401 
 C                     1.12207   1.00651  -0.35344 
 N                     0.17682   0.02404  -0.25786 
 C                    -0.31161  -0.34442   1.05573 
 C                     0.59774  -1.40463   1.66885 
 O                     0.55837  -1.51997   3.00838 
 O                     1.29808  -2.13154   1.01585 
 C                    -1.74475  -0.88705   0.99962 
 C                    -2.7214    0.07774   0.39446 
 C                    -3.37941   0.07444  -0.80347 
 N                    -4.15506   1.20955  -0.94796 
 C                    -3.97043   1.8909    0.15893 
 N                    -3.11353   1.25308   1.00056 
 C                     1.92472   0.99132  -1.63242 
 C                     3.26497   0.28644  -1.39996 
 N                     3.12214  -1.17546  -1.18576 
 H                     0.26239  -0.73584  -0.91142 
 H                    -0.2515    0.56273   1.65523 
 H                    -0.03134  -0.85479   3.38157 
 H                    -2.05656  -1.16569   2.00948 
 H                    -1.75475  -1.79756   0.3993 
 H                    -3.32711  -0.68071  -1.57624 
 H                    -4.42189   2.83492   0.40909 
 H                    -2.82052   1.58386   1.90623 
 H                     2.11161   2.02859  -1.9138 
 H                     1.37537   0.49569  -2.4359 
 H                     3.74155   0.73644  -0.52457 
 H                     3.92106   0.46505  -2.25448 
 H                     4.03225  -1.62419  -1.05353 
 H                     2.55445  -1.40133  -0.36187 
 H                     2.67164  -1.61148  -1.9907 
 

 GradGradGradGradGradGradGradGradGradGradGradGradGradGradGradGradGradGrad
 Berny optimization.
 Initialization pass.
                           ----------------------------
                           !    Initial Parameters    !
                           ! (Angstroms and Degrees)  !
 --------------------------                            --------------------------
 ! Name  Definition              Value          Derivative Info.                !
 --------------------------------------------------------------------------------
 ! R1    R(1,2)                  1.2209         calculate D2E/DX2 analytically  !
 ! R2    R(2,3)                  1.3667         calculate D2E/DX2 analytically  !
 ! R3    R(2,14)                 1.5101         calculate D2E/DX2 analytically  !
 ! R4    R(3,4)                  1.4491         calculate D2E/DX2 analytically  !
 ! R5    R(3,17)                 1.0059         calculate D2E/DX2 analytically  !
 ! R6    R(4,5)                  1.5254         calculate D2E/DX2 analytically  !
 ! R7    R(4,8)                  1.5335         calculate D2E/DX2 analytically  !
 ! R8    R(4,18)                 1.089          calculate D2E/DX2 analytically  !
 ! R9    R(5,6)                  1.3451         calculate D2E/DX2 analytically  !
 ! R10   R(5,7)                  1.2022         calculate D2E/DX2 analytically  !
 ! R11   R(6,19)                 0.9641         calculate D2E/DX2 analytically  !
 ! R12   R(8,9)                  1.5003         calculate D2E/DX2 analytically  !
 ! R13   R(8,20)                 1.093          calculate D2E/DX2 analytically  !
 ! R14   R(8,21)                 1.0907         calculate D2E/DX2 analytically  !
 ! R15   R(9,10)                 1.3668         calculate D2E/DX2 analytically  !
 ! R16   R(9,13)                 1.3793         calculate D2E/DX2 analytically  !
 ! R17   R(10,11)                1.3824         calculate D2E/DX2 analytically  !
 ! R18   R(10,22)                1.0817         calculate D2E/DX2 analytically  !
 ! R19   R(11,12)                1.3128         calculate D2E/DX2 analytically  !
 ! R20   R(12,13)                1.3599         calculate D2E/DX2 analytically  !
 ! R21   R(12,23)                1.0759         calculate D2E/DX2 analytically  !
 ! R22   R(13,24)                1.0077         calculate D2E/DX2 analytically  !
 ! R23   R(14,15)                1.532          calculate D2E/DX2 analytically  !
 ! R24   R(14,25)                1.0909         calculate D2E/DX2 analytically  !
 ! R25   R(14,26)                1.0923         calculate D2E/DX2 analytically  !
 ! R26   R(15,16)                1.4844         calculate D2E/DX2 analytically  !
 ! R27   R(15,27)                1.0936         calculate D2E/DX2 analytically  !
 ! R28   R(15,28)                1.092          calculate D2E/DX2 analytically  !
 ! R29   R(16,29)                1.0233         calculate D2E/DX2 analytically  !
 ! R30   R(16,30)                1.0257         calculate D2E/DX2 analytically  !
 ! R31   R(16,31)                1.0203         calculate D2E/DX2 analytically  !
 ! A1    A(1,2,3)              122.5816         calculate D2E/DX2 analytically  !
 ! A2    A(1,2,14)             122.584          calculate D2E/DX2 analytically  !
 ! A3    A(3,2,14)             114.8107         calculate D2E/DX2 analytically  !
 ! A4    A(2,3,4)              118.6396         calculate D2E/DX2 analytically  !
 ! A5    A(2,3,17)             116.0248         calculate D2E/DX2 analytically  !
 ! A6    A(4,3,17)             115.1862         calculate D2E/DX2 analytically  !
 ! A7    A(3,4,5)              109.886          calculate D2E/DX2 analytically  !
 ! A8    A(3,4,8)              111.8279         calculate D2E/DX2 analytically  !
 ! A9    A(3,4,18)             105.582          calculate D2E/DX2 analytically  !
 ! A10   A(5,4,8)              109.0202         calculate D2E/DX2 analytically  !
 ! A11   A(5,4,18)             108.9531         calculate D2E/DX2 analytically  !
 ! A12   A(8,4,18)             111.4993         calculate D2E/DX2 analytically  !
 ! A13   A(4,5,6)              116.2593         calculate D2E/DX2 analytically  !
 ! A14   A(4,5,7)              123.3129         calculate D2E/DX2 analytically  !
 ! A15   A(6,5,7)              120.4069         calculate D2E/DX2 analytically  !
 ! A16   A(5,6,19)             110.1352         calculate D2E/DX2 analytically  !
 ! A17   A(4,8,9)              113.3029         calculate D2E/DX2 analytically  !
 ! A18   A(4,8,20)             108.8461         calculate D2E/DX2 analytically  !
 ! A19   A(4,8,21)             108.9124         calculate D2E/DX2 analytically  !
 ! A20   A(9,8,20)             110.5424         calculate D2E/DX2 analytically  !
 ! A21   A(9,8,21)             107.9907         calculate D2E/DX2 analytically  !
 ! A22   A(20,8,21)            107.044          calculate D2E/DX2 analytically  !
 ! A23   A(8,9,10)             131.712          calculate D2E/DX2 analytically  !
 ! A24   A(8,9,13)             123.7646         calculate D2E/DX2 analytically  !
 ! A25   A(10,9,13)            104.4972         calculate D2E/DX2 analytically  !
 ! A26   A(9,10,11)            111.0856         calculate D2E/DX2 analytically  !
 ! A27   A(9,10,22)            127.1963         calculate D2E/DX2 analytically  !
 ! A28   A(11,10,22)           121.7136         calculate D2E/DX2 analytically  !
 ! A29   A(10,11,12)           105.0176         calculate D2E/DX2 analytically  !
 ! A30   A(11,12,13)           111.5303         calculate D2E/DX2 analytically  !
 ! A31   A(11,12,23)           126.3273         calculate D2E/DX2 analytically  !
 ! A32   A(13,12,23)           122.1422         calculate D2E/DX2 analytically  !
 ! A33   A(9,13,12)            107.8687         calculate D2E/DX2 analytically  !
 ! A34   A(9,13,24)            126.2962         calculate D2E/DX2 analytically  !
 ! A35   A(12,13,24)           125.8351         calculate D2E/DX2 analytically  !
 ! A36   A(2,14,15)            109.9447         calculate D2E/DX2 analytically  !
 ! A37   A(2,14,25)            107.4551         calculate D2E/DX2 analytically  !
 ! A38   A(2,14,26)            111.1172         calculate D2E/DX2 analytically  !
 ! A39   A(15,14,25)           109.0712         calculate D2E/DX2 analytically  !
 ! A40   A(15,14,26)           110.0499         calculate D2E/DX2 analytically  !
 ! A41   A(25,14,26)           109.1402         calculate D2E/DX2 analytically  !
 ! A42   A(14,15,16)           113.0066         calculate D2E/DX2 analytically  !
 ! A43   A(14,15,27)           108.2627         calculate D2E/DX2 analytically  !
 ! A44   A(14,15,28)           109.3657         calculate D2E/DX2 analytically  !
 ! A45   A(16,15,27)           109.3707         calculate D2E/DX2 analytically  !
 ! A46   A(16,15,28)           109.3779         calculate D2E/DX2 analytically  !
 ! A47   A(27,15,28)           107.2924         calculate D2E/DX2 analytically  !
 ! A48   A(15,16,29)           111.4043         calculate D2E/DX2 analytically  !
 ! A49   A(15,16,30)           112.7081         calculate D2E/DX2 analytically  !
 ! A50   A(15,16,31)           110.4579         calculate D2E/DX2 analytically  !
 ! A51   A(29,16,30)           106.9705         calculate D2E/DX2 analytically  !
 ! A52   A(29,16,31)           107.8933         calculate D2E/DX2 analytically  !
 ! A53   A(30,16,31)           107.1698         calculate D2E/DX2 analytically  !
 ! D1    D(1,2,3,4)            -19.3676         calculate D2E/DX2 analytically  !
 ! D2    D(1,2,3,17)          -163.0987         calculate D2E/DX2 analytically  !
 ! D3    D(14,2,3,4)           158.905          calculate D2E/DX2 analytically  !
 ! D4    D(14,2,3,17)           15.1739         calculate D2E/DX2 analytically  !
 ! D5    D(1,2,14,15)           80.1502         calculate D2E/DX2 analytically  !
 ! D6    D(1,2,14,25)          -38.4355         calculate D2E/DX2 analytically  !
 ! D7    D(1,2,14,26)         -157.7689         calculate D2E/DX2 analytically  !
 ! D8    D(3,2,14,15)          -98.1224         calculate D2E/DX2 analytically  !
 ! D9    D(3,2,14,25)          143.292          calculate D2E/DX2 analytically  !
 ! D10   D(3,2,14,26)           23.9586         calculate D2E/DX2 analytically  !
 ! D11   D(2,3,4,5)            -86.6939         calculate D2E/DX2 analytically  !
 ! D12   D(2,3,4,8)            152.0936         calculate D2E/DX2 analytically  !
 ! D13   D(2,3,4,18)            30.657          calculate D2E/DX2 analytically  !
 ! D14   D(17,3,4,5)            57.3305         calculate D2E/DX2 analytically  !
 ! D15   D(17,3,4,8)           -63.882          calculate D2E/DX2 analytically  !
 ! D16   D(17,3,4,18)          174.6814         calculate D2E/DX2 analytically  !
 ! D17   D(3,4,5,6)            158.3706         calculate D2E/DX2 analytically  !
 ! D18   D(3,4,5,7)            -23.2929         calculate D2E/DX2 analytically  !
 ! D19   D(8,4,5,6)            -78.7465         calculate D2E/DX2 analytically  !
 ! D20   D(8,4,5,7)             99.59           calculate D2E/DX2 analytically  !
 ! D21   D(18,4,5,6)            43.1413         calculate D2E/DX2 analytically  !
 ! D22   D(18,4,5,7)          -138.5222         calculate D2E/DX2 analytically  !
 ! D23   D(3,4,8,9)            -57.6001         calculate D2E/DX2 analytically  !
 ! D24   D(3,4,8,20)           178.9828         calculate D2E/DX2 analytically  !
 ! D25   D(3,4,8,21)            62.6025         calculate D2E/DX2 analytically  !
 ! D26   D(5,4,8,9)           -179.3124         calculate D2E/DX2 analytically  !
 ! D27   D(5,4,8,20)            57.2706         calculate D2E/DX2 analytically  !
 ! D28   D(5,4,8,21)           -59.1097         calculate D2E/DX2 analytically  !
 ! D29   D(18,4,8,9)            60.3545         calculate D2E/DX2 analytically  !
 ! D30   D(18,4,8,20)          -63.0626         calculate D2E/DX2 analytically  !
 ! D31   D(18,4,8,21)         -179.4429         calculate D2E/DX2 analytically  !
 ! D32   D(4,5,6,19)            -2.9337         calculate D2E/DX2 analytically  !
 ! D33   D(7,5,6,19)           178.6781         calculate D2E/DX2 analytically  !
 ! D34   D(4,8,9,10)           108.6852         calculate D2E/DX2 analytically  !
 ! D35   D(4,8,9,13)           -69.1483         calculate D2E/DX2 analytically  !
 ! D36   D(20,8,9,10)         -128.8347         calculate D2E/DX2 analytically  !
 ! D37   D(20,8,9,13)           53.3319         calculate D2E/DX2 analytically  !
 ! D38   D(21,8,9,10)          -12.0404         calculate D2E/DX2 analytically  !
 ! D39   D(21,8,9,13)          170.1262         calculate D2E/DX2 analytically  !
 ! D40   D(8,9,10,11)         -177.9618         calculate D2E/DX2 analytically  !
 ! D41   D(8,9,10,22)            1.267          calculate D2E/DX2 analytically  !
 ! D42   D(13,9,10,11)           0.1779         calculate D2E/DX2 analytically  !
 ! D43   D(13,9,10,22)         179.4068         calculate D2E/DX2 analytically  !
 ! D44   D(8,9,13,12)          178.3006         calculate D2E/DX2 analytically  !
 ! D45   D(8,9,13,24)           -1.761          calculate D2E/DX2 analytically  !
 ! D46   D(10,9,13,12)          -0.0291         calculate D2E/DX2 analytically  !
 ! D47   D(10,9,13,24)         179.9094         calculate D2E/DX2 analytically  !
 ! D48   D(9,10,11,12)          -0.2599         calculate D2E/DX2 analytically  !
 ! D49   D(22,10,11,12)       -179.5378         calculate D2E/DX2 analytically  !
 ! D50   D(10,11,12,13)          0.239          calculate D2E/DX2 analytically  !
 ! D51   D(10,11,12,23)       -179.5856         calculate D2E/DX2 analytically  !
 ! D52   D(11,12,13,9)          -0.1372         calculate D2E/DX2 analytically  !
 ! D53   D(11,12,13,24)        179.9239         calculate D2E/DX2 analytically  !
 ! D54   D(23,12,13,9)         179.6958         calculate D2E/DX2 analytically  !
 ! D55   D(23,12,13,24)         -0.243          calculate D2E/DX2 analytically  !
 ! D56   D(2,14,15,16)          69.9412         calculate D2E/DX2 analytically  !
 ! D57   D(2,14,15,27)         -51.3624         calculate D2E/DX2 analytically  !
 ! D58   D(2,14,15,28)        -167.9634         calculate D2E/DX2 analytically  !
 ! D59   D(25,14,15,16)       -172.4727         calculate D2E/DX2 analytically  !
 ! D60   D(25,14,15,27)         66.2237         calculate D2E/DX2 analytically  !
 ! D61   D(25,14,15,28)        -50.3773         calculate D2E/DX2 analytically  !
 ! D62   D(26,14,15,16)        -52.7714         calculate D2E/DX2 analytically  !
 ! D63   D(26,14,15,27)       -174.075          calculate D2E/DX2 analytically  !
 ! D64   D(26,14,15,28)         69.324          calculate D2E/DX2 analytically  !
 ! D65   D(14,15,16,29)        178.7588         calculate D2E/DX2 analytically  !
 ! D66   D(14,15,16,30)        -60.9842         calculate D2E/DX2 analytically  !
 ! D67   D(14,15,16,31)         58.8614         calculate D2E/DX2 analytically  !
 ! D68   D(27,15,16,29)        -60.5662         calculate D2E/DX2 analytically  !
 ! D69   D(27,15,16,30)         59.6908         calculate D2E/DX2 analytically  !
 ! D70   D(27,15,16,31)        179.5363         calculate D2E/DX2 analytically  !
 ! D71   D(28,15,16,29)         56.6703         calculate D2E/DX2 analytically  !
 ! D72   D(28,15,16,30)        176.9273         calculate D2E/DX2 analytically  !
 ! D73   D(28,15,16,31)        -63.2272         calculate D2E/DX2 analytically  !
 --------------------------------------------------------------------------------
 Trust Radius=3.00D-01 FncErr=1.00D-07 GrdErr=1.00D-06
 Number of steps in this run=    167 maximum allowed number of steps=    186.
 GradGradGradGradGradGradGradGradGradGradGradGradGradGradGradGradGradGrad

                          Input orientation:                          
 ---------------------------------------------------------------------
 Center     Atomic      Atomic             Coordinates (Angstroms)
 Number     Number       Type             X           Y           Z
 ---------------------------------------------------------------------
      1          8           0        1.324230    1.813489    0.540098
      2          6           0        1.122074    1.006515   -0.353441
      3          7           0        0.176817    0.024036   -0.257862
      4          6           0       -0.311607   -0.344423    1.055726
      5          6           0        0.597744   -1.404631    1.668846
      6          8           0        0.558372   -1.519972    3.008380
      7          8           0        1.298083   -2.131538    1.015852
      8          6           0       -1.744746   -0.887049    0.999625
      9          6           0       -2.721402    0.077743    0.394459
     10          6           0       -3.379410    0.074437   -0.803466
     11          7           0       -4.155064    1.209552   -0.947962
     12          6           0       -3.970433    1.890901    0.158934
     13          7           0       -3.113529    1.253076    1.000558
     14          6           0        1.924723    0.991316   -1.632417
     15          6           0        3.264969    0.286443   -1.399957
     16          7           0        3.122144   -1.175457   -1.185759
     17          1           0        0.262385   -0.735838   -0.911425
     18          1           0       -0.251500    0.562729    1.655229
     19          1           0       -0.031336   -0.854794    3.381571
     20          1           0       -2.056564   -1.165693    2.009484
     21          1           0       -1.754749   -1.797564    0.399302
     22          1           0       -3.327112   -0.680712   -1.576235
     23          1           0       -4.421885    2.834916    0.409089
     24          1           0       -2.820524    1.583857    1.906229
     25          1           0        2.111610    2.028590   -1.913800
     26          1           0        1.375365    0.495690   -2.435900
     27          1           0        3.741549    0.736445   -0.524567
     28          1           0        3.921059    0.465053   -2.254483
     29          1           0        4.032249   -1.624195   -1.053526
     30          1           0        2.554447   -1.401334   -0.361874
     31          1           0        2.671637   -1.611483   -1.990702
 ---------------------------------------------------------------------
                    Distance matrix (angstroms):
                    1          2          3          4          5
     1  O    0.000000
     2  C    1.220855   0.000000
     3  N    2.270560   1.366716   0.000000
     4  C    2.756524   2.422030   1.449081   0.000000
     5  C    3.486854   3.190327   2.435256   1.525410   0.000000
     6  O    4.217928   4.242963   3.632888   2.439597   1.345067
     7  O    3.973697   3.428311   2.743371   2.405509   1.202193
     8  C    4.113719   3.692564   2.470577   1.533453   2.490584
     9  C    4.404675   4.024212   2.971209   2.534287   3.852042
    10  C    5.191695   4.618945   3.598190   3.611572   4.910980
    11  N    5.709792   5.314402   4.543884   4.604538   6.022527
    12  C    5.308930   5.194064   4.567120   4.380401   5.831690
    13  N    4.496642   4.453587   3.731024   3.225804   4.613412
    14  C    2.399246   1.510051   2.424914   3.743192   4.289495
    15  C    3.140406   2.491124   3.303017   4.384093   4.403563
    16  N    3.891642   3.074741   3.312812   4.183960   3.817575
    17  H    3.119856   2.021436   1.005919   2.086230   2.686549
    18  H    2.300184   2.473542   2.033117   1.089010   2.142874
    19  H    4.126895   4.329566   3.749819   2.397620   1.905647
    20  H    4.739662   4.517261   3.397691   2.151514   2.686723
    21  H    4.747593   4.087247   2.735148   2.150621   2.701918
    22  H    5.686377   4.912964   3.809500   4.016663   5.143841
    23  H    5.837663   5.887274   5.430832   5.236480   6.690099
    24  H    4.370129   4.580776   4.012528   3.276626   4.546643
    25  H    2.586087   2.111525   3.240955   4.507911   5.187884
    26  H    3.255115   2.159105   2.530381   3.967760   4.589646
    27  H    2.852537   2.638915   3.644993   4.482598   4.390760
    28  H    4.046169   3.426581   4.266186   5.433986   5.471073
    29  H    4.657325   3.984955   4.267798   4.995583   4.388090
    30  H    3.558381   2.801695   2.774099   3.367628   2.820021
    31  H    4.466642   3.454806   3.449896   4.448136   4.211426
                    6          7          8          9         10
     6  O    0.000000
     7  O    2.211640   0.000000
     8  C    3.120904   3.287526   0.000000
     9  C    4.488005   4.628533   1.500302   0.000000
    10  C    5.707752   5.482261   2.616814   1.366751   0.000000
    11  N    6.731970   6.690013   3.741452   2.266820   1.382391
    12  C    6.345350   6.683681   3.657519   2.214292   2.138940
    13  N    5.020358   5.560411   2.540414   1.379322   2.171264
    14  C    5.450731   4.142248   4.890900   5.150662   5.446251
    15  C    5.479255   3.943527   5.677352   6.253010   6.674468
    16  N    4.927719   3.014694   5.342817   6.181798   6.631635
    17  H    4.008408   2.595197   2.775527   3.357117   3.732408
    18  H    2.612384   3.173183   2.182076   2.815168   4.008420
    19  H    0.964100   2.999009   2.934362   4.126611   5.439449
    20  H    2.821559   3.629576   1.093019   2.143933   3.346720
    21  H    3.497838   3.132324   1.090654   2.109791   2.755098
    22  H    6.067951   5.496930   3.030101   2.196764   1.081738
    23  H    7.108046   7.599465   4.622643   3.239423   3.190186
    24  H    4.718625   5.617816   2.843343   2.136271   3.151690
    25  H    6.263600   5.152800   5.644508   5.700164   5.933199
    26  H    5.862640   4.338536   4.842509   4.996911   5.044817
    27  H    5.263625   4.070472   5.921008   6.561116   7.157101
    28  H    6.553298   4.931266   6.672237   7.161647   7.453514
    29  H    5.345817   3.466322   6.175151   7.113723   7.607928
    30  H    3.918801   2.002443   4.538858   5.531211   6.130544
    31  H    5.428175   3.346113   5.382500   6.134114   6.392732
                   11         12         13         14         15
    11  N    0.000000
    12  C    1.312839   0.000000
    13  N    2.209847   1.359939   0.000000
    14  C    6.122084   6.226641   5.690787   0.000000
    15  C    7.490883   7.573340   6.883465   1.532039   0.000000
    16  N    7.661760   7.843175   7.039984   2.515596   1.484396
    17  H    4.826980   5.095309   4.359846   2.503249   3.209242
    18  H    4.736328   4.222961   3.016021   3.965886   4.666482
    19  H    6.325466   5.782794   4.428572   5.689847   5.918704
    20  H    4.334972   4.053418   2.825872   5.810919   6.484729
    21  H    4.076688   4.309502   3.393258   5.044229   5.725206
    22  H    2.157158   3.168259   3.228780   5.511860   6.664983
    23  H    2.134149   1.075896   2.136317   6.917083   8.297897
    24  H    3.172934   2.114144   1.007724   5.948990   7.046089
    25  H    6.393346   6.427008   6.032991   1.090890   2.151592
    26  H    5.771413   6.103879   5.703775   1.092256   2.165079
    27  H    7.922096   7.827810   7.041663   2.143163   1.093589
    28  H    8.214928   8.374561   7.791130   2.156218   1.092048
    29  H    8.664489   8.824334   7.972459   3.408471   2.087886
    30  H    7.223418   7.326944   6.405316   2.781295   2.105005
    31  H    7.459853   7.810552   7.114878   2.731449   2.074403
                   16         17         18         19         20
    16  N    0.000000
    17  H    2.906328   0.000000
    18  H    4.740673   2.921997   0.000000
    19  H    5.559475   4.304675   2.244571   0.000000
    20  H    6.085121   3.754199   2.524123   2.465934   0.000000
    21  H    5.165609   2.629467   3.067262   3.571119   1.755859
    22  H    6.479980   3.650959   4.631187   5.955861   3.834955
    23  H    8.691318   6.036259   4.909970   6.459607   4.915372
    24  H    7.244963   4.777497   2.775893   3.987884   2.855577
    25  H    3.437606   3.473679   4.524490   6.398990   6.555096
    26  H    2.721547   2.253755   4.403241   6.135600   5.856601
    27  H    2.115705   3.797612   4.552597   5.659030   6.607395
    28  H    2.114642   4.078215   5.718885   7.009174   7.521485
    29  H    1.023300   3.875725   5.520009   6.064222   6.831245
    30  H    1.025712   2.449171   3.974870   4.582397   5.190404
    31  H    1.020298   2.781383   5.154100   6.061349   6.209356
                   21         22         23         24         25
    21  H    0.000000
    22  H    2.760875   0.000000
    23  H    5.345427   4.183262   0.000000
    24  H    3.852365   4.184789   2.524071   0.000000
    25  H    5.910890   6.085554   6.980869   6.254306   0.000000
    26  H    4.805726   4.923031   6.868337   6.135444   1.778884
    27  H    6.122420   7.285623   8.480387   7.048949   2.501261
    28  H    6.661592   7.369449   9.072794   8.000761   2.415537
    29  H    5.969096   7.437982   9.669297   8.124791   4.215657
    30  H    4.393809   6.048695   8.198135   6.553317   3.790640
    31  H    5.033849   6.084662   8.709049   7.453865   3.683705
                   26         27         28         29         30
    26  H    0.000000
    27  H    3.051226   0.000000
    28  H    2.552333   1.760251   0.000000
    29  H    3.669319   2.436580   2.412388   0.000000
    30  H    3.048035   2.450669   2.988812   1.646799   0.000000
    31  H    2.513703   2.967664   2.437753   1.652188   1.646504
                   31
    31  H    0.000000
 Symmetry turned off by external request.
 Stoichiometry    C9H15N4O3(1+)
 Framework group  C1[X(C9H15N4O3)]
 Deg. of freedom    87
 Full point group                 C1      NOp   1
 Rotational constants (GHZ):      0.7596368      0.3268271      0.2692534
 Standard basis: 6-311G(2df,2pd) (5D, 7F)
   690 basis functions,  1023 primitive gaussians,   785 cartesian basis functions
    60 alpha electrons       60 beta electrons
       nuclear repulsion energy      1156.3936016042 Hartrees.
 NAtoms=   31 NActive=   31 NUniq=   31 SFac= 1.00D+00 NAtFMM=   60 NAOKFM=F Big=F
 Integral buffers will be    131072 words long.
 Raffenetti 2 integral format.
 Two-electron integral symmetry is turned off.
 Nuclear repulsion after empirical dispersion term =     1156.3362067588 Hartrees.
 One-electron integrals computed using PRISM.
 NBasis=   690 RedAO= T EigKep=  1.77D-04  NBF=   690
 NBsUse=   690 1.00D-06 EigRej= -1.00D+00 NBFU=   690
 ExpMin= 1.03D-01 ExpMax= 8.59D+03 ExpMxC= 1.30D+03 IAcc=3 IRadAn=         5 AccDes= 0.00D+00
 Harris functional with IExCor=  402 and IRadAn=       5 diagonalized for initial guess.
 HarFok:  IExCor=  402 AccDes= 0.00D+00 IRadAn=         5 IDoV= 1 UseB2=F ITyADJ=14
 ICtDFT=  3500011 ScaDFX=  1.000000  1.000000  1.000000  1.000000
 FoFCou: FMM=F IPFlag=           0 FMFlag=      100000 FMFlg1=           0
         NFxFlg=           0 DoJE=T BraDBF=F KetDBF=T FulRan=T
         wScrn=  0.000000 ICntrl=     500 IOpCl=  0 I1Cent=   200000004 NGrid=           0
         NMat0=    1 NMatS0=      1 NMatT0=    0 NMatD0=    1 NMtDS0=    0 NMtDT0=    0
 Symmetry not used in FoFCou.
 Requested convergence on RMS density matrix=1.00D-08 within 128 cycles.
 Requested convergence on MAX density matrix=1.00D-06.
 Requested convergence on             energy=1.00D-06.
 No special actions if energy rises.
 Integral accuracy reduced to 1.0D-05 until final iterations.
 Initial convergence to 1.0D-05 achieved.  Increase integral accuracy.
 SCF Done:  E(RB3LYP) =  -796.781536610     A.U. after   14 cycles
            NFock= 14  Conv=0.53D-08     -V/T= 2.0038
 DoSCS=F DFT=T ScalE2(SS,OS)=  1.000000  1.000000
 Range of M.O.s used for correlation:     1   690
 NBasis=   690 NAE=    60 NBE=    60 NFC=     0 NFV=     0
 NROrb=    690 NOA=    60 NOB=    60 NVA=   630 NVB=   630

 **** Warning!!: The largest alpha MO coefficient is  0.10544874D+02

 Symmetrizing basis deriv contribution to polar:
 IMax=3 JMax=2 DiffMx= 0.00D+00
 G2DrvN: will do    32 centers at a time, making    1 passes.
 Calling FoFCou, ICntrl=  3107 FMM=F I1Cent=   0 AccDes= 0.00D+00.
 End of G2Drv F.D. properties file   721 does not exist.
 End of G2Drv F.D. properties file   722 does not exist.
 End of G2Drv F.D. properties file   788 does not exist.
          IDoAtm=1111111111111111111111111111111
          Differentiating once with respect to nuclear coordinates.
          There are    96 degrees of freedom in the 1st order CPHF.  IDoFFX=6 NUNeed=     0.
     90 vectors produced by pass  0 Test12= 3.94D-14 1.04D-09 XBig12= 1.53D-01 7.81D-02.
 AX will form    90 AO Fock derivatives at one time.
     90 vectors produced by pass  1 Test12= 3.94D-14 1.04D-09 XBig12= 1.32D-02 3.16D-02.
     90 vectors produced by pass  2 Test12= 3.94D-14 1.04D-09 XBig12= 2.23D-04 3.00D-03.
     90 vectors produced by pass  3 Test12= 3.94D-14 1.04D-09 XBig12= 1.17D-06 1.49D-04.
     90 vectors produced by pass  4 Test12= 3.94D-14 1.04D-09 XBig12= 3.17D-09 7.19D-06.
     87 vectors produced by pass  5 Test12= 3.94D-14 1.04D-09 XBig12= 5.54D-12 3.44D-07.
     40 vectors produced by pass  6 Test12= 3.94D-14 1.04D-09 XBig12= 6.34D-15 8.14D-09.
      1 vectors produced by pass  7 Test12= 3.94D-14 1.04D-09 XBig12= 2.30D-16 1.06D-09.
 InvSVY:  IOpt=1 It=  1 EMax= 4.72D-16
 Solved reduced A of dimension   578 with    96 vectors.
 End of Minotr F.D. properties file   721 does not exist.
 End of Minotr F.D. properties file   722 does not exist.
 End of Minotr F.D. properties file   788 does not exist.

 **********************************************************************

            Population analysis using the SCF density.

 **********************************************************************

 Alpha  occ. eigenvalues --  -19.31517 -19.26845 -19.23621 -14.62408 -14.49070
 Alpha  occ. eigenvalues --  -14.46376 -14.37903 -10.45678 -10.42257 -10.41501
 Alpha  occ. eigenvalues --  -10.37096 -10.35376 -10.32314 -10.31359 -10.30506
 Alpha  occ. eigenvalues --  -10.27650  -1.25968  -1.20211  -1.19068  -1.18189
 Alpha  occ. eigenvalues --   -1.11304  -1.08630  -0.97293  -0.96545  -0.93311
 Alpha  occ. eigenvalues --   -0.86670  -0.84140  -0.79241  -0.78292  -0.77875
 Alpha  occ. eigenvalues --   -0.76574  -0.74403  -0.71386  -0.71109  -0.69032
 Alpha  occ. eigenvalues --   -0.68591  -0.65931  -0.64528  -0.63710  -0.61181
 Alpha  occ. eigenvalues --   -0.60534  -0.60023  -0.58411  -0.57393  -0.56094
 Alpha  occ. eigenvalues --   -0.55125  -0.54263  -0.54066  -0.53158  -0.51895
 Alpha  occ. eigenvalues --   -0.51339  -0.50811  -0.50108  -0.47909  -0.44528
 Alpha  occ. eigenvalues --   -0.42292  -0.40604  -0.37818  -0.36072  -0.32950
 Alpha virt. eigenvalues --   -0.17590  -0.15310  -0.14258  -0.12345  -0.11331
 Alpha virt. eigenvalues --   -0.09406  -0.08731  -0.07402  -0.07156  -0.05819
 Alpha virt. eigenvalues --   -0.05117  -0.04833  -0.03794  -0.03642  -0.02703
 Alpha virt. eigenvalues --   -0.01299  -0.00876  -0.00321   0.01088   0.01762
 Alpha virt. eigenvalues --    0.03021   0.04185   0.05091   0.06677   0.07210
 Alpha virt. eigenvalues --    0.07717   0.08733   0.09783   0.10508   0.11002
 Alpha virt. eigenvalues --    0.12095   0.13086   0.14075   0.14641   0.16151
 Alpha virt. eigenvalues --    0.17355   0.18507   0.19227   0.19845   0.20642
 Alpha virt. eigenvalues --    0.21463   0.22320   0.23479   0.24232   0.24695
 Alpha virt. eigenvalues --    0.24992   0.25956   0.26340   0.27314   0.28119
 Alpha virt. eigenvalues --    0.28831   0.28978   0.29563   0.30046   0.30899
 Alpha virt. eigenvalues --    0.31351   0.31637   0.32574   0.33244   0.33400
 Alpha virt. eigenvalues --    0.33843   0.34319   0.34823   0.35591   0.35907
 Alpha virt. eigenvalues --    0.36841   0.37712   0.38306   0.38687   0.39869
 Alpha virt. eigenvalues --    0.40256   0.40562   0.40821   0.42180   0.42569
 Alpha virt. eigenvalues --    0.43203   0.44697   0.45243   0.45541   0.46294
 Alpha virt. eigenvalues --    0.47649   0.48229   0.49294   0.50466   0.51500
 Alpha virt. eigenvalues --    0.52065   0.53145   0.54083   0.55804   0.56578
 Alpha virt. eigenvalues --    0.57557   0.58310   0.58760   0.59764   0.60969
 Alpha virt. eigenvalues --    0.61309   0.61872   0.62695   0.64156   0.64250
 Alpha virt. eigenvalues --    0.65785   0.66042   0.66384   0.67866   0.68810
 Alpha virt. eigenvalues --    0.69717   0.69814   0.71516   0.72969   0.73938
 Alpha virt. eigenvalues --    0.74558   0.74578   0.75727   0.76459   0.77582
 Alpha virt. eigenvalues --    0.78193   0.79249   0.80366   0.80597   0.82131
 Alpha virt. eigenvalues --    0.82887   0.83067   0.84249   0.85624   0.86329
 Alpha virt. eigenvalues --    0.87036   0.87408   0.88626   0.88924   0.89525
 Alpha virt. eigenvalues --    0.90586   0.91520   0.92732   0.93491   0.93911
 Alpha virt. eigenvalues --    0.94403   0.95284   0.95775   0.96762   0.97016
 Alpha virt. eigenvalues --    0.97668   0.99723   1.00198   1.01196   1.01983
 Alpha virt. eigenvalues --    1.02785   1.03354   1.03967   1.04564   1.05278
 Alpha virt. eigenvalues --    1.06688   1.07300   1.07648   1.08866   1.09787
 Alpha virt. eigenvalues --    1.10035   1.11059   1.11887   1.12686   1.13296
 Alpha virt. eigenvalues --    1.14928   1.16037   1.16525   1.16808   1.17472
 Alpha virt. eigenvalues --    1.18005   1.18848   1.19655   1.20187   1.20566
 Alpha virt. eigenvalues --    1.21885   1.22598   1.23187   1.24066   1.24171
 Alpha virt. eigenvalues --    1.24622   1.25128   1.26507   1.27248   1.28332
 Alpha virt. eigenvalues --    1.28665   1.29328   1.31000   1.31733   1.32500
 Alpha virt. eigenvalues --    1.33445   1.35164   1.36260   1.37148   1.37927
 Alpha virt. eigenvalues --    1.39820   1.40363   1.41229   1.41823   1.42734
 Alpha virt. eigenvalues --    1.43869   1.45358   1.46910   1.47116   1.48079
 Alpha virt. eigenvalues --    1.50769   1.51856   1.52661   1.54903   1.55721
 Alpha virt. eigenvalues --    1.56246   1.58191   1.60059   1.60594   1.61035
 Alpha virt. eigenvalues --    1.62528   1.64199   1.66153   1.67595   1.68663
 Alpha virt. eigenvalues --    1.69697   1.71963   1.72893   1.74290   1.74805
 Alpha virt. eigenvalues --    1.77271   1.77885   1.82445   1.85262   1.89578
 Alpha virt. eigenvalues --    1.90984   1.92395   1.94667   1.96754   1.98479
 Alpha virt. eigenvalues --    2.02147   2.03325   2.04476   2.07129   2.09893
 Alpha virt. eigenvalues --    2.13670   2.15751   2.17793   2.18920   2.21138
 Alpha virt. eigenvalues --    2.25112   2.27320   2.30880   2.32620   2.35604
 Alpha virt. eigenvalues --    2.37987   2.39167   2.42059   2.44737   2.45390
 Alpha virt. eigenvalues --    2.46201   2.48324   2.49409   2.51166   2.51468
 Alpha virt. eigenvalues --    2.53357   2.53671   2.54203   2.56416   2.57983
 Alpha virt. eigenvalues --    2.59041   2.59580   2.60440   2.60734   2.61484
 Alpha virt. eigenvalues --    2.63896   2.64786   2.65329   2.66543   2.67992
 Alpha virt. eigenvalues --    2.68823   2.70206   2.71474   2.71806   2.72747
 Alpha virt. eigenvalues --    2.74469   2.75007   2.75875   2.76735   2.78082
 Alpha virt. eigenvalues --    2.78346   2.79709   2.80202   2.80430   2.80960
 Alpha virt. eigenvalues --    2.81755   2.83040   2.84049   2.84297   2.85171
 Alpha virt. eigenvalues --    2.86165   2.87187   2.88162   2.89023   2.89392
 Alpha virt. eigenvalues --    2.90711   2.91048   2.92455   2.93054   2.93536
 Alpha virt. eigenvalues --    2.94300   2.94974   2.95810   2.96100   2.96937
 Alpha virt. eigenvalues --    2.97659   2.97965   2.98892   2.99415   3.00577
 Alpha virt. eigenvalues --    3.00826   3.02056   3.03065   3.03846   3.04055
 Alpha virt. eigenvalues --    3.04913   3.05860   3.06438   3.07040   3.08202
 Alpha virt. eigenvalues --    3.08331   3.09427   3.10243   3.11097   3.11616
 Alpha virt. eigenvalues --    3.12025   3.12540   3.12845   3.14132   3.14466
 Alpha virt. eigenvalues --    3.15240   3.15261   3.16018   3.16529   3.17896
 Alpha virt. eigenvalues --    3.19837   3.20231   3.20728   3.21581   3.22472
 Alpha virt. eigenvalues --    3.22799   3.24019   3.24833   3.25660   3.26527
 Alpha virt. eigenvalues --    3.27580   3.28387   3.29154   3.29283   3.30554
 Alpha virt. eigenvalues --    3.31049   3.31468   3.32810   3.33164   3.34021
 Alpha virt. eigenvalues --    3.34544   3.35926   3.36786   3.37930   3.38413
 Alpha virt. eigenvalues --    3.39397   3.39962   3.41592   3.42117   3.42422
 Alpha virt. eigenvalues --    3.43233   3.43793   3.44223   3.45152   3.45629
 Alpha virt. eigenvalues --    3.46230   3.47939   3.48514   3.49407   3.50630
 Alpha virt. eigenvalues --    3.51182   3.51878   3.52411   3.54353   3.54969
 Alpha virt. eigenvalues --    3.55781   3.56825   3.57256   3.58238   3.58729
 Alpha virt. eigenvalues --    3.59267   3.60064   3.62139   3.62503   3.63368
 Alpha virt. eigenvalues --    3.63534   3.64140   3.65813   3.66688   3.67670
 Alpha virt. eigenvalues --    3.68680   3.69014   3.71065   3.71720   3.72887
 Alpha virt. eigenvalues --    3.74524   3.75115   3.76224   3.76902   3.77333
 Alpha virt. eigenvalues --    3.77729   3.78354   3.79858   3.80634   3.81071
 Alpha virt. eigenvalues --    3.81975   3.82411   3.83872   3.84843   3.85487
 Alpha virt. eigenvalues --    3.86653   3.86877   3.87306   3.88287   3.89531
 Alpha virt. eigenvalues --    3.89793   3.91633   3.92674   3.93313   3.93564
 Alpha virt. eigenvalues --    3.94731   3.94811   3.95630   3.97499   3.97878
 Alpha virt. eigenvalues --    3.99157   3.99244   4.00546   4.00820   4.01803
 Alpha virt. eigenvalues --    4.03397   4.05336   4.05942   4.06041   4.07438
 Alpha virt. eigenvalues --    4.08354   4.10000   4.11127   4.11550   4.13033
 Alpha virt. eigenvalues --    4.14275   4.15523   4.17343   4.17787   4.20479
 Alpha virt. eigenvalues --    4.21279   4.21599   4.22936   4.23317   4.25420
 Alpha virt. eigenvalues --    4.27725   4.29261   4.30634   4.31101   4.33695
 Alpha virt. eigenvalues --    4.34993   4.36492   4.37573   4.38644   4.39729
 Alpha virt. eigenvalues --    4.42246   4.43704   4.44969   4.45918   4.47286
 Alpha virt. eigenvalues --    4.48192   4.50319   4.51154   4.54330   4.56811
 Alpha virt. eigenvalues --    4.57443   4.61274   4.62911   4.65236   4.66789
 Alpha virt. eigenvalues --    4.68500   4.68684   4.69161   4.70345   4.70705
 Alpha virt. eigenvalues --    4.72623   4.73598   4.74282   4.75852   4.77829
 Alpha virt. eigenvalues --    4.79147   4.80535   4.81394   4.82386   4.82713
 Alpha virt. eigenvalues --    4.84148   4.86375   4.87324   4.88373   4.89597
 Alpha virt. eigenvalues --    4.90419   4.91471   4.92153   4.93375   4.94053
 Alpha virt. eigenvalues --    4.94777   4.95623   4.96659   4.97175   4.97720
 Alpha virt. eigenvalues --    4.98083   4.98976   5.00502   5.00759   5.02628
 Alpha virt. eigenvalues --    5.03161   5.03927   5.04496   5.04901   5.07647
 Alpha virt. eigenvalues --    5.08518   5.09184   5.10210   5.12324   5.13035
 Alpha virt. eigenvalues --    5.14570   5.15096   5.15510   5.17709   5.18386
 Alpha virt. eigenvalues --    5.18796   5.19393   5.23111   5.23614   5.24335
 Alpha virt. eigenvalues --    5.25534   5.28103   5.29476   5.30347   5.32742
 Alpha virt. eigenvalues --    5.33540   5.35747   5.37478   5.39396   5.40289
 Alpha virt. eigenvalues --    5.41802   5.42642   5.44067   5.45433   5.47320
 Alpha virt. eigenvalues --    5.49429   5.51024   5.52731   5.54501   5.55964
 Alpha virt. eigenvalues --    5.58046   5.60304   5.61622   5.64016   5.66660
 Alpha virt. eigenvalues --    5.68391   5.71422   5.74095   5.76683   5.77333
 Alpha virt. eigenvalues --    5.79671   5.81214   5.83734   5.85205   5.87460
 Alpha virt. eigenvalues --    5.92651   5.93724   5.96516   6.01965   6.03284
 Alpha virt. eigenvalues --    6.09096   6.10437   6.15859   6.16546   6.20981
 Alpha virt. eigenvalues --    6.23706   6.26823   6.27072   6.30529   6.33482
 Alpha virt. eigenvalues --    6.34572   6.40944   6.42175   6.53115   6.61770
 Alpha virt. eigenvalues --    6.72667   6.75645   6.76421   6.78463   6.82370
 Alpha virt. eigenvalues --    6.82408   6.82941   6.90415   6.95446   7.00125
 Alpha virt. eigenvalues --    7.01720   7.05817   7.06700   7.07351   7.14254
 Alpha virt. eigenvalues --    7.17125   7.21427   7.25991   7.36129   7.37706
 Alpha virt. eigenvalues --    7.43556   7.45208   7.60184   7.82211  24.33471
 Alpha virt. eigenvalues --   24.48831  24.54774  24.68380  24.77368  24.83928
 Alpha virt. eigenvalues --   24.89797  24.92684  24.97941  35.87371  36.09546
 Alpha virt. eigenvalues --   36.14373  36.36849  50.03025  50.06798  50.14698
          Condensed to atoms (all electrons):
               1          2          3          4          5          6
     1  O    7.826162   0.687677  -0.115015  -0.019060   0.002827  -0.000085
     2  C    0.687677   4.511507   0.282011  -0.068647   0.013135  -0.000703
     3  N   -0.115015   0.282011   6.740117   0.207381  -0.032856   0.003622
     4  C   -0.019060  -0.068647   0.207381   5.495822   0.219811  -0.104841
     5  C    0.002827   0.013135  -0.032856   0.219811   4.381011   0.380884
     6  O   -0.000085  -0.000703   0.003622  -0.104841   0.380884   7.726748
     7  O   -0.000154   0.003926  -0.011409  -0.103685   0.615831  -0.058841
     8  C    0.000774   0.001168  -0.030507   0.221502  -0.048775   0.007472
     9  C   -0.000334   0.001931  -0.015310  -0.067687  -0.004368   0.000108
    10  C   -0.000026   0.000548   0.008835  -0.007366  -0.000103  -0.000005
    11  N    0.000000  -0.000014  -0.000049  -0.000527   0.000001   0.000000
    12  C   -0.000001   0.000020   0.000232   0.000591  -0.000002   0.000000
    13  N   -0.000016   0.000558  -0.001164   0.005637   0.000248  -0.000001
    14  C   -0.067646   0.335384  -0.077084   0.006361  -0.001271  -0.000008
    15  C    0.001632  -0.072678  -0.000903   0.000301   0.000586  -0.000003
    16  N   -0.000503   0.000741   0.002667  -0.000981   0.000555   0.000006
    17  H    0.005476  -0.011858   0.317802  -0.063058   0.002401   0.000526
    18  H    0.044907  -0.014822  -0.035847   0.342635  -0.016549   0.002489
    19  H   -0.000291  -0.000006   0.000517   0.007363  -0.051812   0.319410
    20  H    0.000020   0.000329   0.004831  -0.060606   0.003736   0.005484
    21  H   -0.000045  -0.000881  -0.003390  -0.046142   0.000223  -0.000184
    22  H   -0.000001   0.000042   0.000348   0.000047  -0.000006   0.000000
    23  H    0.000000   0.000002   0.000009  -0.000005   0.000000   0.000000
    24  H   -0.000071  -0.000047  -0.000060   0.000560  -0.000056   0.000002
    25  H    0.005886  -0.021119   0.005629  -0.000268  -0.000012   0.000001
    26  H    0.003515  -0.040807   0.006679  -0.000169   0.000132  -0.000003
    27  H    0.012566  -0.003758   0.001693  -0.000044   0.000274  -0.000008
    28  H   -0.000249   0.004650  -0.000456   0.000015  -0.000009   0.000000
    29  H   -0.000037  -0.000158   0.000127  -0.000011   0.000072  -0.000001
    30  H    0.000067   0.002186  -0.000731   0.003433  -0.006744   0.000001
    31  H   -0.000019   0.000126   0.000599  -0.000387   0.000155   0.000010
               7          8          9         10         11         12
     1  O   -0.000154   0.000774  -0.000334  -0.000026   0.000000  -0.000001
     2  C    0.003926   0.001168   0.001931   0.000548  -0.000014   0.000020
     3  N   -0.011409  -0.030507  -0.015310   0.008835  -0.000049   0.000232
     4  C   -0.103685   0.221502  -0.067687  -0.007366  -0.000527   0.000591
     5  C    0.615831  -0.048775  -0.004368  -0.000103   0.000001  -0.000002
     6  O   -0.058841   0.007472   0.000108  -0.000005   0.000000   0.000000
     7  O    7.898009   0.004454  -0.000042  -0.000013   0.000000   0.000000
     8  C    0.004454   4.838419   0.293123  -0.029316   0.010842  -0.001051
     9  C   -0.000042   0.293123   5.207149   0.487032  -0.053326  -0.122965
    10  C   -0.000013  -0.029316   0.487032   4.704346   0.482207  -0.151211
    11  N    0.000000   0.010842  -0.053326   0.482207   6.478606   0.577893
    12  C    0.000000  -0.001051  -0.122965  -0.151211   0.577893   4.559127
    13  N    0.000000  -0.056871   0.356268  -0.047181  -0.129957   0.478082
    14  C   -0.001291  -0.000281  -0.000155  -0.000075  -0.000001   0.000004
    15  C    0.000167  -0.000008   0.000007   0.000003   0.000000   0.000000
    16  N   -0.009732   0.000010  -0.000001   0.000000   0.000000   0.000000
    17  H    0.016678   0.002428   0.001608   0.001437   0.000001  -0.000100
    18  H    0.001548  -0.021660  -0.003857  -0.001526   0.000066   0.000103
    19  H    0.003809   0.000558   0.000077   0.000009   0.000000  -0.000002
    20  H   -0.000518   0.399552  -0.028318   0.001991  -0.000514   0.000625
    21  H    0.003951   0.409329  -0.037719  -0.005102   0.000442  -0.000406
    22  H   -0.000007  -0.000765  -0.059943   0.437886  -0.017292   0.006321
    23  H    0.000000  -0.000238   0.004959   0.003791  -0.015293   0.427545
    24  H    0.000001   0.006975  -0.031128   0.002895   0.007439  -0.027309
    25  H   -0.000007   0.000017   0.000006  -0.000008   0.000000   0.000000
    26  H   -0.000178  -0.000030   0.000060   0.000141   0.000000  -0.000002
    27  H    0.000135  -0.000002   0.000000   0.000000   0.000000   0.000000
    28  H   -0.000023   0.000000   0.000000   0.000000   0.000000   0.000000
    29  H    0.000019   0.000000   0.000000   0.000000   0.000000   0.000000
    30  H    0.057922   0.000167  -0.000005  -0.000005   0.000000   0.000000
    31  H    0.000576   0.000003   0.000000  -0.000003   0.000000   0.000000
              13         14         15         16         17         18
     1  O   -0.000016  -0.067646   0.001632  -0.000503   0.005476   0.044907
     2  C    0.000558   0.335384  -0.072678   0.000741  -0.011858  -0.014822
     3  N   -0.001164  -0.077084  -0.000903   0.002667   0.317802  -0.035847
     4  C    0.005637   0.006361   0.000301  -0.000981  -0.063058   0.342635
     5  C    0.000248  -0.001271   0.000586   0.000555   0.002401  -0.016549
     6  O   -0.000001  -0.000008  -0.000003   0.000006   0.000526   0.002489
     7  O    0.000000  -0.001291   0.000167  -0.009732   0.016678   0.001548
     8  C   -0.056871  -0.000281  -0.000008   0.000010   0.002428  -0.021660
     9  C    0.356268  -0.000155   0.000007  -0.000001   0.001608  -0.003857
    10  C   -0.047181  -0.000075   0.000003   0.000000   0.001437  -0.001526
    11  N   -0.129957  -0.000001   0.000000   0.000000   0.000001   0.000066
    12  C    0.478082   0.000004   0.000000   0.000000  -0.000100   0.000103
    13  N    6.275142   0.000006   0.000000   0.000000  -0.000130   0.004577
    14  C    0.000006   4.860576   0.305354  -0.038299  -0.002013   0.003580
    15  C    0.000000   0.305354   4.766287   0.236033  -0.002892  -0.000284
    16  N    0.000000  -0.038299   0.236033   5.677553   0.002119   0.000080
    17  H   -0.000130  -0.002013  -0.002892   0.002119   0.627461   0.009504
    18  H    0.004577   0.003580  -0.000284   0.000080   0.009504   0.631396
    19  H    0.000007  -0.000009   0.000001   0.000005  -0.000122   0.001558
    20  H    0.000464   0.000012   0.000001  -0.000001   0.000010  -0.005410
    21  H    0.002820  -0.000052  -0.000001   0.000008   0.005497   0.006575
    22  H    0.004271  -0.000002   0.000001   0.000000   0.000113  -0.000011
    23  H   -0.036333   0.000000   0.000000   0.000000   0.000000   0.000017
    24  H    0.381699  -0.000008   0.000000   0.000000   0.000018   0.000103
    25  H    0.000001   0.393455  -0.022342   0.003167  -0.000239  -0.000102
    26  H    0.000000   0.384710  -0.034746  -0.004035  -0.002602  -0.000721
    27  H    0.000000  -0.044206   0.396070  -0.019401  -0.000541  -0.000328
    28  H    0.000000  -0.029170   0.425774  -0.026251  -0.000004   0.000016
    29  H    0.000000   0.003565  -0.015518   0.368998   0.000063   0.000000
    30  H    0.000000  -0.000539  -0.029290   0.336165  -0.001059  -0.000445
    31  H    0.000000   0.000673  -0.035643   0.361595   0.001245   0.000009
              19         20         21         22         23         24
     1  O   -0.000291   0.000020  -0.000045  -0.000001   0.000000  -0.000071
     2  C   -0.000006   0.000329  -0.000881   0.000042   0.000002  -0.000047
     3  N    0.000517   0.004831  -0.003390   0.000348   0.000009  -0.000060
     4  C    0.007363  -0.060606  -0.046142   0.000047  -0.000005   0.000560
     5  C   -0.051812   0.003736   0.000223  -0.000006   0.000000  -0.000056
     6  O    0.319410   0.005484  -0.000184   0.000000   0.000000   0.000002
     7  O    0.003809  -0.000518   0.003951  -0.000007   0.000000   0.000001
     8  C    0.000558   0.399552   0.409329  -0.000765  -0.000238   0.006975
     9  C    0.000077  -0.028318  -0.037719  -0.059943   0.004959  -0.031128
    10  C    0.000009   0.001991  -0.005102   0.437886   0.003791   0.002895
    11  N    0.000000  -0.000514   0.000442  -0.017292  -0.015293   0.007439
    12  C   -0.000002   0.000625  -0.000406   0.006321   0.427545  -0.027309
    13  N    0.000007   0.000464   0.002820   0.004271  -0.036333   0.381699
    14  C   -0.000009   0.000012  -0.000052  -0.000002   0.000000  -0.000008
    15  C    0.000001   0.000001  -0.000001   0.000001   0.000000   0.000000
    16  N    0.000005  -0.000001   0.000008   0.000000   0.000000   0.000000
    17  H   -0.000122   0.000010   0.005497   0.000113   0.000000   0.000018
    18  H    0.001558  -0.005410   0.006575  -0.000011   0.000017   0.000103
    19  H    0.479984   0.002575  -0.000095   0.000000   0.000000   0.000002
    20  H    0.002575   0.660042  -0.030880   0.000077  -0.000005   0.000850
    21  H   -0.000095  -0.030880   0.647378   0.001649   0.000017  -0.000143
    22  H    0.000000   0.000077   0.001649   0.612549  -0.000360  -0.000457
    23  H    0.000000  -0.000005   0.000017  -0.000360   0.577319  -0.001332
    24  H    0.000002   0.000850  -0.000143  -0.000457  -0.001332   0.551435
    25  H    0.000001  -0.000002   0.000003  -0.000001   0.000000   0.000001
    26  H    0.000003   0.000007  -0.000034   0.000020   0.000000   0.000001
    27  H    0.000004   0.000000   0.000000   0.000000   0.000000   0.000000
    28  H    0.000000   0.000000   0.000000   0.000000   0.000000   0.000000
    29  H    0.000000   0.000000   0.000000   0.000000   0.000000   0.000000
    30  H   -0.000145   0.000013  -0.000119   0.000000   0.000000   0.000000
    31  H   -0.000001  -0.000002   0.000016  -0.000001   0.000000   0.000000
              25         26         27         28         29         30
     1  O    0.005886   0.003515   0.012566  -0.000249  -0.000037   0.000067
     2  C   -0.021119  -0.040807  -0.003758   0.004650  -0.000158   0.002186
     3  N    0.005629   0.006679   0.001693  -0.000456   0.000127  -0.000731
     4  C   -0.000268  -0.000169  -0.000044   0.000015  -0.000011   0.003433
     5  C   -0.000012   0.000132   0.000274  -0.000009   0.000072  -0.006744
     6  O    0.000001  -0.000003  -0.000008   0.000000  -0.000001   0.000001
     7  O   -0.000007  -0.000178   0.000135  -0.000023   0.000019   0.057922
     8  C    0.000017  -0.000030  -0.000002   0.000000   0.000000   0.000167
     9  C    0.000006   0.000060   0.000000   0.000000   0.000000  -0.000005
    10  C   -0.000008   0.000141   0.000000   0.000000   0.000000  -0.000005
    11  N    0.000000   0.000000   0.000000   0.000000   0.000000   0.000000
    12  C    0.000000  -0.000002   0.000000   0.000000   0.000000   0.000000
    13  N    0.000001   0.000000   0.000000   0.000000   0.000000   0.000000
    14  C    0.393455   0.384710  -0.044206  -0.029170   0.003565  -0.000539
    15  C   -0.022342  -0.034746   0.396070   0.425774  -0.015518  -0.029290
    16  N    0.003167  -0.004035  -0.019401  -0.026251   0.368998   0.336165
    17  H   -0.000239  -0.002602  -0.000541  -0.000004   0.000063  -0.001059
    18  H   -0.000102  -0.000721  -0.000328   0.000016   0.000000  -0.000445
    19  H    0.000001   0.000003   0.000004   0.000000   0.000000  -0.000145
    20  H   -0.000002   0.000007   0.000000   0.000000   0.000000   0.000013
    21  H    0.000003  -0.000034   0.000000   0.000000   0.000000  -0.000119
    22  H   -0.000001   0.000020   0.000000   0.000000   0.000000   0.000000
    23  H    0.000000   0.000000   0.000000   0.000000   0.000000   0.000000
    24  H    0.000001   0.000001   0.000000   0.000000   0.000000   0.000000
    25  H    0.605141  -0.027959   0.001471  -0.006049  -0.000234   0.000009
    26  H   -0.027959   0.655890   0.008008  -0.003276  -0.000044  -0.000568
    27  H    0.001471   0.008008   0.598125  -0.034764  -0.003693  -0.004402
    28  H   -0.006049  -0.003276  -0.034764   0.598149  -0.003454   0.004932
    29  H   -0.000234  -0.000044  -0.003693  -0.003454   0.549310  -0.021261
    30  H    0.000009  -0.000568  -0.004402   0.004932  -0.021261   0.512371
    31  H   -0.000024   0.004133   0.005833  -0.005314  -0.021493  -0.025615
              31
     1  O   -0.000019
     2  C    0.000126
     3  N    0.000599
     4  C   -0.000387
     5  C    0.000155
     6  O    0.000010
     7  O    0.000576
     8  C    0.000003
     9  C    0.000000
    10  C   -0.000003
    11  N    0.000000
    12  C    0.000000
    13  N    0.000000
    14  C    0.000673
    15  C   -0.035643
    16  N    0.361595
    17  H    0.001245
    18  H    0.000009
    19  H   -0.000001
    20  H   -0.000002
    21  H    0.000016
    22  H   -0.000001
    23  H    0.000000
    24  H    0.000000
    25  H   -0.000024
    26  H    0.004133
    27  H    0.005833
    28  H   -0.005314
    29  H   -0.021493
    30  H   -0.025615
    31  H    0.568076
 Mulliken charges:
               1
     1  O   -0.387955
     2  C    0.389556
     3  N   -0.258317
     4  C    0.032027
     5  C    0.540681
     6  O   -0.282079
     7  O   -0.421127
     8  C   -0.007289
     9  C    0.072828
    10  C    0.110817
    11  N   -0.340525
    12  C    0.252506
    13  N   -0.238126
    14  C   -0.031572
    15  C    0.082092
    16  N    0.109500
    17  H    0.090231
    18  H    0.052396
    19  H    0.236599
    20  H    0.045638
    21  H    0.047287
    22  H    0.015523
    23  H    0.039907
    24  H    0.108632
    25  H    0.063581
    26  H    0.051876
    27  H    0.086967
    28  H    0.075483
    29  H    0.143748
    30  H    0.173662
    31  H    0.145453
 Sum of Mulliken charges =   1.00000
 Mulliken charges with hydrogens summed into heavy atoms:
               1
     1  O   -0.387955
     2  C    0.389556
     3  N   -0.168086
     4  C    0.084424
     5  C    0.540681
     6  O   -0.045480
     7  O   -0.421127
     8  C    0.085636
     9  C    0.072828
    10  C    0.126340
    11  N   -0.340525
    12  C    0.292413
    13  N   -0.129494
    14  C    0.083886
    15  C    0.244541
    16  N    0.572363
 APT charges:
               1
     1  O    0.035563
     2  C   -0.112959
     3  N   -0.262654
     4  C   -0.081300
     5  C   -0.236267
     6  O   -0.042157
     7  O   -0.109056
     8  C   -0.789455
     9  C   -0.173143
    10  C   -0.428125
    11  N    0.417619
    12  C   -0.592718
    13  N   -0.501112
    14  C   -0.472075
    15  C   -0.949940
    16  N   -0.513540
    17  H    0.271732
    18  H    0.212156
    19  H    0.445911
    20  H    0.408382
    21  H    0.235342
    22  H    0.234027
    23  H    0.833840
    24  H    0.332042
    25  H    0.460013
    26  H    0.164190
    27  H    0.325348
    28  H    0.699772
    29  H    0.831224
    30  H    0.016992
    31  H    0.340351
 Sum of APT charges =   1.00000
 APT charges with hydrogens summed into heavy atoms:
               1
     1  O    0.035563
     2  C   -0.112959
     3  N    0.009078
     4  C    0.130856
     5  C   -0.236267
     6  O    0.403754
     7  O   -0.109056
     8  C   -0.145732
     9  C   -0.173143
    10  C   -0.194098
    11  N    0.417619
    12  C    0.241121
    13  N   -0.169070
    14  C    0.152128
    15  C    0.075180
    16  N    0.675027
 Electronic spatial extent (au):  <R**2>=           4190.1393
 Charge=              1.0000 electrons
 Dipole moment (field-independent basis, Debye):
    X=             10.2565    Y=             -3.2616    Z=             -1.9444  Tot=             10.9368
 Quadrupole moment (field-independent basis, Debye-Ang):
   XX=            -55.7611   YY=            -87.7144   ZZ=            -69.4980
   XY=            -11.3482   XZ=            -35.9457   YZ=             10.7792
 Traceless Quadrupole moment (field-independent basis, Debye-Ang):
   XX=             15.2301   YY=            -16.7232   ZZ=              1.4931
   XY=            -11.3482   XZ=            -35.9457   YZ=             10.7792
 Octapole moment (field-independent basis, Debye-Ang**2):
  XXX=            298.7291  YYY=             -6.7924  ZZZ=            -26.8603  XYY=             22.3527
  XXY=            -37.3453  XXZ=            -35.9873  XZZ=             48.3379  YZZ=             -7.6663
  YYZ=            -33.9997  XYZ=             -6.5765
 Hexadecapole moment (field-independent basis, Debye-Ang**3):
 XXXX=          -3100.2823 YYYY=           -904.0327 ZZZZ=           -830.7826 XXXY=            108.6349
 XXXZ=           -220.9079 YYYX=            208.0519 YYYZ=            203.5526 ZZZX=             36.4804
 ZZZY=            201.6545 XXYY=           -569.5816 XXZZ=           -662.5612 YYZZ=           -310.0190
 XXYZ=            188.2044 YYXZ=            -47.7946 ZZXY=             99.0677
 N-N= 1.156336206759D+03 E-N=-4.157687367117D+03  KE= 7.937749448833D+02
  Exact polarizability:   0.000   0.000   0.000   0.000   0.000   0.000
 Approx polarizability: 188.772 -18.317 200.278  10.433  16.861 210.261
 Calling FoFJK, ICntrl=    100147 FMM=F ISym2X=0 I1Cent= 0 IOpClX= 0 NMat=1 NMatS=1 NMatT=0.
 -------------------------------------------------------------------
 Center     Atomic                   Forces (Hartrees/Bohr)
 Number     Number              X              Y              Z
 -------------------------------------------------------------------
      1        8           0.002818203   -0.008625770   -0.011101546
      2        6          -0.005998636    0.010644406    0.014487000
      3        7           0.005822297   -0.005251318    0.005051672
      4        6           0.001813823    0.002342516   -0.001639097
      5        6          -0.004687389    0.007836799    0.018283238
      6        8          -0.000612399   -0.001123716   -0.014107219
      7        8           0.013582104   -0.002613222   -0.010964409
      8        6          -0.013125722    0.005700335   -0.003829110
      9        6           0.004582086   -0.003979471    0.002155635
     10        6          -0.001833102    0.001874599   -0.006341268
     11        7           0.004828676   -0.004672089    0.004816415
     12        6          -0.001717282   -0.001433930   -0.005312368
     13        7           0.004492728    0.001161052    0.007176486
     14        6           0.000899177   -0.005260738   -0.001692169
     15        6           0.005071812    0.030304519   -0.003006579
     16        7           0.004819578   -0.006756786   -0.001853886
     17        1          -0.007145377   -0.000713253   -0.002684076
     18        1          -0.001278075    0.000091851    0.000374512
     19        1          -0.000001978   -0.000004985    0.003133626
     20        1           0.000388308   -0.001616591   -0.000332730
     21        1          -0.000385477   -0.000801562    0.001073242
     22        1          -0.001369768    0.002024205    0.002063808
     23        1          -0.000669748    0.000670088   -0.000321923
     24        1          -0.001748584   -0.000190534   -0.001459953
     25        1           0.001887940   -0.003337257   -0.001054711
     26        1          -0.000261398    0.002737010   -0.002020486
     27        1          -0.000285452   -0.006322943   -0.000529712
     28        1          -0.000836925   -0.006236983    0.001840614
     29        1          -0.001340202    0.000253096   -0.000883971
     30        1          -0.008486707   -0.004287859    0.008857572
     31        1           0.000777489   -0.002411471   -0.000178608
 -------------------------------------------------------------------
 Cartesian Forces:  Max     0.030304519 RMS     0.006145933
 FormGI is forming the generalized inverse of G from B-inverse, IUseBI=4.

 GradGradGradGradGradGradGradGradGradGradGradGradGradGradGradGradGradGrad
 Berny optimization.
 Internal  Forces:  Max     0.017745158 RMS     0.004674578
 Search for a local minimum.
 Step number   1 out of a maximum of  167
 All quantities printed in internal units (Hartrees-Bohrs-Radians)
 Mixed Optimization -- RFO/linear search
 Second derivative matrix not updated -- analytic derivatives used.
 ITU=  0
     Eigenvalues ---   -0.00142   0.00075   0.00217   0.00283   0.00348
     Eigenvalues ---    0.00412   0.00611   0.00696   0.00831   0.00912
     Eigenvalues ---    0.01213   0.02059   0.02548   0.02929   0.03505
     Eigenvalues ---    0.03885   0.03907   0.03970   0.04047   0.04229
     Eigenvalues ---    0.04462   0.04835   0.04885   0.05203   0.05265
     Eigenvalues ---    0.05603   0.05687   0.06146   0.06205   0.07492
     Eigenvalues ---    0.07815   0.08129   0.10217   0.10748   0.10829
     Eigenvalues ---    0.10947   0.11642   0.11892   0.12755   0.13277
     Eigenvalues ---    0.14255   0.14567   0.16379   0.16441   0.16814
     Eigenvalues ---    0.18395   0.19445   0.19839   0.20816   0.22345
     Eigenvalues ---    0.22667   0.23291   0.23445   0.24163   0.24901
     Eigenvalues ---    0.25986   0.27734   0.29994   0.31169   0.32325
     Eigenvalues ---    0.32815   0.32940   0.33013   0.33127   0.33351
     Eigenvalues ---    0.33858   0.33970   0.34015   0.34252   0.36017
     Eigenvalues ---    0.37134   0.37173   0.38377   0.40308   0.42396
     Eigenvalues ---    0.42825   0.43324   0.44280   0.44309   0.46530
     Eigenvalues ---    0.46956   0.47261   0.52275   0.52651   0.57660
     Eigenvalues ---    0.80158   0.88388
 RFO step:  Lambda=-2.06243574D-02 EMin=-1.41726131D-03
 Linear search not attempted -- first point.
 Iteration  1 RMS(Cart)=  0.19730132 RMS(Int)=  0.04382891
 Iteration  2 RMS(Cart)=  0.16309841 RMS(Int)=  0.00986049
 Iteration  3 RMS(Cart)=  0.04434361 RMS(Int)=  0.00105704
 Iteration  4 RMS(Cart)=  0.00108085 RMS(Int)=  0.00099463
 Iteration  5 RMS(Cart)=  0.00000091 RMS(Int)=  0.00099463
 Variable       Old X    -DE/DX   Delta X   Delta X   Delta X     New X
                                 (Linear)    (Quad)   (Total)
    R1        2.30708  -0.01336   0.00000  -0.01715  -0.01715   2.28994
    R2        2.58272  -0.00035   0.00000   0.01707   0.01707   2.59979
    R3        2.85358   0.00165   0.00000   0.01212   0.01212   2.86571
    R4        2.73837  -0.00684   0.00000  -0.00428  -0.00428   2.73409
    R5        1.90091   0.00167   0.00000   0.00366   0.00366   1.90457
    R6        2.88261   0.00062   0.00000   0.01192   0.01192   2.89453
    R7        2.89781   0.00659   0.00000   0.02206   0.02206   2.91987
    R8        2.05793   0.00021   0.00000  -0.00167  -0.00167   2.05626
    R9        2.54181  -0.01081   0.00000  -0.06317  -0.06317   2.47864
   R10        2.27182   0.01545   0.00000   0.04220   0.04220   2.31402
   R11        1.82188   0.00121   0.00000   0.00454   0.00454   1.82642
   R12        2.83516  -0.00832   0.00000  -0.03109  -0.03109   2.80407
   R13        2.06551  -0.00001   0.00000   0.00076   0.00076   2.06626
   R14        2.06104   0.00008   0.00000   0.00206   0.00206   2.06310
   R15        2.58279   0.00147   0.00000   0.00488   0.00487   2.58765
   R16        2.60654   0.00176   0.00000   0.00357   0.00358   2.61012
   R17        2.61234  -0.00700   0.00000  -0.02134  -0.02136   2.59098
   R18        2.04419  -0.00295   0.00000  -0.00724  -0.00724   2.03695
   R19        2.48091  -0.00279   0.00000  -0.00757  -0.00757   2.47334
   R20        2.56991   0.00287   0.00000   0.01025   0.01027   2.58018
   R21        2.03315   0.00079   0.00000   0.00198   0.00198   2.03513
   R22        1.90432  -0.00188   0.00000  -0.00410  -0.00410   1.90022
   R23        2.89513  -0.00169   0.00000  -0.00019  -0.00019   2.89495
   R24        2.06148  -0.00258   0.00000  -0.00600  -0.00600   2.05549
   R25        2.06407   0.00038   0.00000  -0.00101  -0.00101   2.06306
   R26        2.80510   0.01427   0.00000   0.04148   0.04148   2.84658
   R27        2.06658  -0.00315   0.00000  -0.01081  -0.01081   2.05578
   R28        2.06367  -0.00296   0.00000  -0.00900  -0.00900   2.05467
   R29        1.93376  -0.00142   0.00000  -0.00742  -0.00742   1.92634
   R30        1.93832   0.01276   0.00000   0.08017   0.08017   2.01849
   R31        1.92808   0.00083   0.00000  -0.00280  -0.00280   1.92528
    A1        2.13945   0.00899   0.00000  -0.00006  -0.00179   2.13767
    A2        2.13949  -0.00155   0.00000  -0.02952  -0.03106   2.10844
    A3        2.00383  -0.00765   0.00000   0.02673   0.02511   2.02893
    A4        2.07065   0.00006   0.00000  -0.09322  -0.09883   1.97182
    A5        2.02501   0.00192   0.00000  -0.01528  -0.02179   2.00322
    A6        2.01038  -0.00429   0.00000   0.00237  -0.00468   2.00570
    A7        1.91787  -0.01613   0.00000  -0.03165  -0.03165   1.88623
    A8        1.95177   0.00092   0.00000  -0.00698  -0.00673   1.94504
    A9        1.84275   0.00620   0.00000   0.03570   0.03528   1.87803
   A10        1.90276   0.01316   0.00000   0.04096   0.04106   1.94382
   A11        1.90159  -0.00058   0.00000  -0.03770  -0.03752   1.86407
   A12        1.94603  -0.00437   0.00000  -0.00313  -0.00293   1.94310
   A13        2.02911   0.00771   0.00000   0.04201   0.04197   2.07108
   A14        2.15222  -0.00790   0.00000  -0.01022  -0.01025   2.14196
   A15        2.10150   0.00024   0.00000  -0.03140  -0.03144   2.07006
   A16        1.92222   0.00525   0.00000   0.03724   0.03724   1.95946
   A17        1.97751  -0.00315   0.00000  -0.00573  -0.00575   1.97176
   A18        1.89972   0.00094   0.00000   0.00078   0.00074   1.90047
   A19        1.90088   0.00095   0.00000  -0.00025  -0.00027   1.90061
   A20        1.92933   0.00206   0.00000   0.02049   0.02049   1.94982
   A21        1.88479   0.00054   0.00000  -0.00096  -0.00096   1.88383
   A22        1.86827  -0.00128   0.00000  -0.01531  -0.01531   1.85296
   A23        2.29881  -0.00236   0.00000  -0.01699  -0.01701   2.28180
   A24        2.16010   0.00108   0.00000   0.01228   0.01226   2.17236
   A25        1.82382   0.00128   0.00000   0.00483   0.00486   1.82868
   A26        1.93881  -0.00091   0.00000  -0.00353  -0.00356   1.93525
   A27        2.21999   0.00126   0.00000   0.00537   0.00534   2.22533
   A28        2.12430  -0.00035   0.00000  -0.00166  -0.00170   2.12261
   A29        1.83290   0.00307   0.00000   0.01008   0.01009   1.84299
   A30        1.94657   0.00031   0.00000  -0.00022  -0.00018   1.94639
   A31        2.20483  -0.00077   0.00000  -0.00279  -0.00282   2.20201
   A32        2.13178   0.00046   0.00000   0.00300   0.00297   2.13476
   A33        1.88266  -0.00376   0.00000  -0.01115  -0.01120   1.87147
   A34        2.20428   0.00284   0.00000   0.01291   0.01277   2.21706
   A35        2.19624   0.00093   0.00000  -0.00179  -0.00192   2.19432
   A36        1.91890  -0.01775   0.00000  -0.06249  -0.06243   1.85647
   A37        1.87545   0.00819   0.00000   0.02548   0.02407   1.89952
   A38        1.93936   0.00457   0.00000   0.03471   0.03495   1.97431
   A39        1.90365   0.00238   0.00000  -0.01934  -0.01931   1.88434
   A40        1.92073   0.00608   0.00000   0.03006   0.03075   1.95148
   A41        1.90486  -0.00340   0.00000  -0.00934  -0.00969   1.89516
   A42        1.97234  -0.00727   0.00000  -0.00831  -0.00826   1.96407
   A43        1.88954   0.00458   0.00000   0.00997   0.00935   1.89889
   A44        1.90879   0.00557   0.00000   0.03642   0.03623   1.94502
   A45        1.90888  -0.00246   0.00000  -0.03621  -0.03631   1.87256
   A46        1.90900  -0.00012   0.00000  -0.02247  -0.02240   1.88661
   A47        1.87261   0.00008   0.00000   0.02258   0.02160   1.89420
   A48        1.94437  -0.00037   0.00000  -0.01723  -0.01723   1.92714
   A49        1.96713   0.00177   0.00000   0.03445   0.03435   2.00148
   A50        1.92785   0.00213   0.00000   0.00413   0.00390   1.93175
   A51        1.86699  -0.00017   0.00000  -0.00073  -0.00063   1.86635
   A52        1.88309  -0.00161   0.00000  -0.01563  -0.01575   1.86734
   A53        1.87047  -0.00202   0.00000  -0.00671  -0.00700   1.86346
    D1       -0.33803  -0.00448   0.00000  -0.11890  -0.11677  -0.45480
    D2       -2.84661   0.00070   0.00000   0.04709   0.04600  -2.80061
    D3        2.77341  -0.01220   0.00000  -0.22369  -0.22260   2.55081
    D4        0.26483  -0.00702   0.00000  -0.05770  -0.05982   0.20501
    D5        1.39888  -0.00332   0.00000  -0.20839  -0.20800   1.19088
    D6       -0.67083  -0.00110   0.00000  -0.16534  -0.16449  -0.83532
    D7       -2.75359  -0.00468   0.00000  -0.18981  -0.18978  -2.94337
    D8       -1.71256   0.00420   0.00000  -0.10416  -0.10461  -1.81717
    D9        2.50092   0.00642   0.00000  -0.06111  -0.06111   2.43981
   D10        0.41816   0.00283   0.00000  -0.08558  -0.08639   0.33176
   D11       -1.51309   0.00901   0.00000   0.50421   0.50380  -1.00929
   D12        2.65453   0.00282   0.00000   0.47875   0.47810   3.13263
   D13        0.53507   0.00366   0.00000   0.46372   0.46271   0.99778
   D14        1.00061   0.00603   0.00000   0.33376   0.33473   1.33534
   D15       -1.11495  -0.00016   0.00000   0.30831   0.30903  -0.80592
   D16        3.04877   0.00068   0.00000   0.29327   0.29364  -2.94078
   D17        2.76409   0.00161   0.00000   0.05559   0.05601   2.82010
   D18       -0.40654   0.00410   0.00000   0.07089   0.07136  -0.33518
   D19       -1.37439   0.00097   0.00000   0.05328   0.05330  -1.32108
   D20        1.73817   0.00346   0.00000   0.06858   0.06865   1.80682
   D21        0.75296   0.00339   0.00000   0.05143   0.05091   0.80387
   D22       -2.41767   0.00588   0.00000   0.06673   0.06626  -2.35141
   D23       -1.00531  -0.00441   0.00000   0.00207   0.00212  -1.00319
   D24        3.12384  -0.00559   0.00000  -0.02099  -0.02093   3.10291
   D25        1.09262  -0.00511   0.00000  -0.00303  -0.00298   1.08964
   D26       -3.12959   0.00630   0.00000   0.01848   0.01854  -3.11105
   D27        0.99956   0.00512   0.00000  -0.00457  -0.00450   0.99506
   D28       -1.03166   0.00561   0.00000   0.01339   0.01345  -1.01821
   D29        1.05338   0.00112   0.00000   0.04047   0.04034   1.09373
   D30       -1.10065  -0.00006   0.00000   0.01741   0.01729  -1.08336
   D31       -3.13187   0.00043   0.00000   0.03537   0.03524  -3.09662
   D32       -0.05120   0.00092   0.00000  -0.00515  -0.00522  -0.05642
   D33        3.11852  -0.00133   0.00000  -0.02031  -0.02024   3.09829
   D34        1.89691  -0.00050   0.00000  -0.02183  -0.02183   1.87508
   D35       -1.20687  -0.00038   0.00000  -0.02692  -0.02694  -1.23381
   D36       -2.24859   0.00002   0.00000  -0.00957  -0.00955  -2.25814
   D37        0.93082   0.00013   0.00000  -0.01467  -0.01466   0.91616
   D38       -0.21014  -0.00007   0.00000  -0.01721  -0.01721  -0.22736
   D39        2.96926   0.00005   0.00000  -0.02231  -0.02233   2.94694
   D40       -3.10602  -0.00013   0.00000  -0.00809  -0.00809  -3.11411
   D41        0.02211   0.00060   0.00000   0.00805   0.00808   0.03020
   D42        0.00311  -0.00022   0.00000  -0.00349  -0.00351  -0.00040
   D43        3.13124   0.00051   0.00000   0.01265   0.01267  -3.13928
   D44        3.11193  -0.00007   0.00000   0.00600   0.00608   3.11801
   D45       -0.03073  -0.00042   0.00000  -0.01975  -0.01982  -0.05055
   D46       -0.00051   0.00009   0.00000   0.00255   0.00255   0.00204
   D47        3.14001  -0.00026   0.00000  -0.02320  -0.02335   3.11666
   D48       -0.00454   0.00026   0.00000   0.00307   0.00308  -0.00146
   D49       -3.13352  -0.00044   0.00000  -0.01211  -0.01206   3.13760
   D50        0.00417  -0.00019   0.00000  -0.00134  -0.00136   0.00281
   D51       -3.13436   0.00008   0.00000   0.00369   0.00362  -3.13074
   D52       -0.00240   0.00007   0.00000  -0.00074  -0.00074  -0.00314
   D53        3.14027   0.00042   0.00000   0.02484   0.02471  -3.11821
   D54        3.13628  -0.00018   0.00000  -0.00554  -0.00551   3.13077
   D55       -0.00424   0.00016   0.00000   0.02004   0.01995   0.01570
   D56        1.22070  -0.00327   0.00000  -0.02451  -0.02498   1.19572
   D57       -0.89644   0.00133   0.00000   0.01963   0.01942  -0.87702
   D58       -2.93151  -0.00436   0.00000  -0.03270  -0.03338  -2.96490
   D59       -3.01022  -0.00222   0.00000  -0.04127  -0.04087  -3.05108
   D60        1.15582   0.00238   0.00000   0.00286   0.00354   1.15936
   D61       -0.87925  -0.00331   0.00000  -0.04947  -0.04927  -0.92852
   D62       -0.92104  -0.00123   0.00000  -0.04643  -0.04642  -0.96746
   D63       -3.03818   0.00337   0.00000  -0.00229  -0.00202  -3.04020
   D64        1.20993  -0.00232   0.00000  -0.05462  -0.05482   1.15511
   D65        3.11993   0.00087   0.00000   0.02014   0.02008   3.14001
   D66       -1.06437   0.00162   0.00000   0.03095   0.03073  -1.03364
   D67        1.02732   0.00172   0.00000   0.04836   0.04828   1.07561
   D68       -1.05708   0.00017   0.00000   0.00190   0.00198  -1.05510
   D69        1.04180   0.00092   0.00000   0.01271   0.01264   1.05444
   D70        3.13350   0.00101   0.00000   0.03012   0.03019  -3.11950
   D71        0.98908  -0.00123   0.00000  -0.00469  -0.00453   0.98455
   D72        3.08796  -0.00048   0.00000   0.00612   0.00612   3.09409
   D73       -1.10352  -0.00038   0.00000   0.02353   0.02367  -1.07985
         Item               Value     Threshold  Converged?
 Maximum Force            0.017745     0.000450     NO 
 RMS     Force            0.004675     0.000300     NO 
 Maximum Displacement     1.251155     0.001800     NO 
 RMS     Displacement     0.340609     0.001200     NO 
 Predicted change in Energy=-1.913745D-02
 GradGradGradGradGradGradGradGradGradGradGradGradGradGradGradGradGradGrad

                          Input orientation:                          
 ---------------------------------------------------------------------
 Center     Atomic      Atomic             Coordinates (Angstroms)
 Number     Number       Type             X           Y           Z
 ---------------------------------------------------------------------
      1          8           0        1.717616    1.673036    0.640342
      2          6           0        1.286489    1.124115   -0.350228
      3          7           0        0.090671    0.443922   -0.356592
      4          6           0       -0.278782   -0.061071    0.947925
      5          6           0        0.846918   -0.976107    1.439523
      6          8           0        0.917329   -1.255169    2.719195
      7          8           0        1.675993   -1.469455    0.685395
      8          6           0       -1.631330   -0.806714    0.902686
      9          6           0       -2.740457    0.036056    0.391432
     10          6           0       -3.408817    0.005068   -0.803303
     11          7           0       -4.348892    1.001326   -0.863367
[...]
 4643,-0.00000766,-0.00002372,-0.00002875,0.00001855,-0.00002811,0.0000
 1123,0.00001367,-0.00000789,0.00002822,-0.00001637,0.00003522,0.000018
 88,0.00789243,0.02515829,-0.05034471,-0.00242059,-0.00278718,-0.000791
 79,0.00102032,-0.00082381,0.00073871,-0.00000768,0.00015383,-0.0001699
 2,0.00013987,0.00013740,-0.00016751,0.00002799,-0.00000613,0.00004553,
 0.00008492,0.00006470,0.00003471,0.00000444,0.00000618,0.00000908,0.00
 001427,0.00001338,-0.00000182,0.00000299,0.00000091,0.00000388,-0.0000
 0316,0.00001490,0.00000115,-0.01213957,-0.02725296,0.05144521,0.000319
 06,-0.00027930,0.00508005,0.01068553,0.00241213,0.00701025,-0.00063213
 ,-0.00005226,0.00019668,0.00038844,0.00038457,-0.00032619,0.00005714,0
 .00014748,0.00002640,-0.00001103,-0.00003809,-0.00002638,0.00008602,-0
 .00008148,-0.00006182,-0.00002616,-0.00001287,-0.00006346,0.00003630,0
 .00002683,0.00006471,0.00006949,-0.00000333,-0.00007276,-0.00001142,0.
 00004416,-0.00000135,-0.00002126,0.00000556,-0.00002494,0.00001481,-0.
 00004266,-0.00000497,-0.17180694,-0.02802970,-0.12593297,-0.01952292,-
 0.00501070,-0.01837350,0.00159634,-0.00049464,0.00040524,0.00002670,-0
 .00038734,0.00108468,0.00004917,0.00002122,0.00002937,0.00000857,0.000
 01373,-0.00000963,0.00001218,0.00001640,0.00000343,0.00000123,0.000006
 08,-0.00000330,-0.00001616,-0.00002064,0.00000402,-0.00000064,0.000000
 52,-0.00000173,0.00000372,0.00000106,0.00000417,-0.00745450,-0.0010632
 1,-0.00769610,0.18786491,0.00020530,0.00229343,0.00032646,0.00180066,-
 0.00292072,0.00208587,0.00016937,-0.00011853,-0.00008002,0.00018858,0.
 00003514,0.00000866,-0.00004335,-0.00003793,0.00015606,-0.00000502,0.0
 0001422,-0.00009414,0.00004743,0.00002571,-0.00013532,-0.00007219,0.00
 002732,-0.00004425,0.00001030,0.00000564,0.00001921,-0.00001274,0.0000
 5645,-0.00002662,0.00000204,-0.00006446,0.00003667,0.00000963,-0.00003
 851,-0.00004720,0.00001630,-0.00000780,0.00003041,-0.02871636,-0.05592
 967,-0.02859210,0.01661287,0.00181285,0.01687089,-0.00036116,0.0023150
 6,0.00057721,-0.00029927,0.00058364,0.00034146,0.00001132,0.00003805,-
 0.00004985,-0.00000423,-0.00000628,0.00002436,0.00002808,0.00000024,0.
 00000393,0.00000626,-0.00001227,0.00000362,-0.00002336,-0.00001907,-0.
 00001156,0.00000736,0.00000215,-0.00000528,-0.00000251,0.00001088,-0.0
 0000265,-0.01957024,-0.00202948,-0.02155136,0.02793635,0.05597131,0.00
 349334,0.00190116,-0.00885534,-0.02707663,-0.00779458,-0.01390574,0.00
 107747,0.00051259,0.00228358,0.00020609,0.00017550,0.00018650,-0.00033
 084,-0.00036506,-0.00003102,0.00008682,-0.00000454,0.00012767,0.000048
 62,0.00020420,0.00022874,-0.00008377,-0.00000699,0.00004363,0.00001878
 ,-0.00004615,-0.00008364,-0.00008044,-0.00002719,0.00002691,0.00000002
 ,-0.00007170,0.00003239,0.00003179,-0.00000319,0.00002095,-0.00002102,
 0.00008225,0.00004500,-0.12390140,-0.02707997,-0.18215245,0.00472417,0
 .00155008,0.00467994,-0.00003209,0.00035918,0.00008701,0.00164885,0.00
 026268,-0.00089982,-0.00015350,-0.00003414,0.00019320,-0.00005322,-0.0
 0003615,-0.00000700,-0.00001327,-0.00001034,0.00000533,0.00002008,0.00
 002408,-0.00000670,0.00004157,0.00005093,0.00001080,0.00000406,0.00000
 127,0.00000282,-0.00001113,-0.00000243,-0.00001855,0.00288671,-0.00020
 127,0.00282292,0.13705434,0.03080328,0.19461003,0.00278928,-0.00039636
 ,0.00097797,-0.00260311,-0.00140423,-0.00426601,0.00069232,0.00055638,
 0.00042604,0.00002076,-0.00005603,0.00017940,-0.00018076,-0.00010384,0
 .00030262,0.00000613,0.00004732,-0.00014562,0.00016274,0.00010515,-0.0
 0003563,-0.00007731,-0.00001005,-0.00001440,0.00002517,0.00000971,-0.0
 0000687,-0.00000499,0.00000248,-0.00004727,0.00002135,-0.00003786,0.00
 002615,0.00000394,-0.00001162,0.00000203,0.00000416,0.00004103,0.00003
 365,-0.01932346,-0.00140430,-0.01626817,-0.17403982,-0.03579337,-0.128
 81390,-0.00733962,-0.00494764,-0.00625253,0.00011236,0.00009790,-0.000
 12651,-0.00005212,-0.00001341,-0.00000512,-0.00001971,-0.00002085,0.00
 004771,0.00001886,0.00000057,0.00000194,0.00000658,0.00000153,0.000005
 07,0.00000209,0.00000544,-0.00000492,-0.00000080,0.00000089,0.00000059
 ,-0.00001963,0.00000442,0.00000428,0.00115528,-0.00031555,0.00012018,-
 0.00231746,0.00320937,0.00111608,0.18837849,-0.00112481,-0.00067948,-0
 .00062846,0.00040529,0.00063211,0.00206421,-0.00027811,0.00012215,-0.0
 0032779,-0.00008380,0.00002308,-0.00001242,0.00012040,-0.00005064,-0.0
 0013776,-0.00003719,0.00003477,0.00006891,-0.00007911,0.00002416,0.000
 40131,0.00001442,-0.00002260,-0.00002063,0.00000203,0.00001032,0.00002
 473,0.00002694,-0.00000814,-0.00001425,-0.00000010,0.00003220,-0.00001
 663,-0.00001132,0.00001036,0.00000704,0.00000007,-0.00001640,-0.000020
 46,0.01729872,0.00374054,0.01592587,-0.03029966,-0.05645755,-0.0287742
 4,-0.02762888,-0.01713908,-0.02447689,-0.00021337,-0.00019711,0.000140
 27,0.00002349,0.00000447,-0.00003086,0.00000717,0.00000635,0.00001200,
 0.00000275,0.00000776,-0.00000110,0.00000006,0.00000274,0.00000056,-0.
 00000538,-0.00001576,0.00000624,-0.00000222,-0.00000050,0.00000070,0.0
 0000131,-0.00000104,0.00000500,-0.00043951,0.00086262,0.00039739,0.003
 93308,-0.00236403,-0.00161013,0.03788853,0.07373590,0.00011070,-0.0002
 0871,-0.00087548,0.00218185,0.00079348,0.00113376,-0.00076342,-0.00061
 262,-0.00042671,0.00006341,0.00006842,-0.00018788,-0.00001634,0.000209
 54,0.00001524,0.00001856,-0.00006511,-0.00002685,0.00003674,-0.0001678
 8,-0.00022645,0.00005308,0.00002116,0.00003003,-0.00002210,-0.00001330
 ,-0.00000333,-0.00000719,0.00000339,0.00004313,-0.00001764,0.00001339,
 -0.00001592,0.00000408,0.00000458,-0.00000232,-0.00000423,-0.00003075,
 -0.00001963,0.00155787,0.00168060,0.00265444,-0.13636952,-0.03784384,-
 0.19432959,0.00778555,0.00378385,0.00699682,-0.00002544,-0.00004705,0.
 00016231,0.00003963,-0.00000261,0.00003140,0.00001831,0.00002647,-0.00
 004003,-0.00001842,-0.00000417,-0.00000064,-0.00000679,-0.00000286,-0.
 00000747,0.00000088,0.00000188,0.00000082,0.00000248,-0.00000037,-0.00
 000054,0.00001725,-0.00000119,-0.00000492,-0.00056212,0.00041476,0.000
 41233,0.00135398,-0.00032706,0.00049892,0.14240660,0.03623282,0.199728
 58,0.00143184,-0.00078234,0.00074599,-0.00333020,0.00393939,-0.0028968
 3,0.00002076,-0.00043838,0.00079865,-0.00002121,-0.00027258,-0.0001872
 1,-0.00005488,-0.00005160,-0.00010534,0.00000709,-0.00002362,0.0001050
 8,-0.00010087,0.00001423,0.00038894,0.00005267,-0.00000807,0.00009946,
 -0.00000661,-0.00000558,0.00000801,0.00000712,0.00000956,0.00004270,-0
 .00001481,0.00002479,-0.00002956,-0.00000232,0.00001010,0.00000196,-0.
 00000076,-0.00003733,-0.00003730,-0.01132945,0.00137565,0.02268006,-0.
 09793193,-0.00384855,0.10077855,-0.00564188,-0.00424353,0.01019412,0.0
 0006148,0.00010688,0.00014089,0.00002116,0.00000961,0.00000142,-0.0000
 0789,0.00000716,-0.00002409,-0.00003697,-0.00001066,-0.00000544,0.0000
 0135,-0.00000040,-0.00000139,-0.00000519,-0.00000868,0.00000841,0.0000
 0015,-0.00000120,-0.00000051,0.00001172,-0.00000348,-0.00000198,0.0009
 6236,-0.00026353,-0.00036288,0.00073276,-0.00103229,-0.00028324,0.0119
 3202,0.00199269,-0.01900426,0.10285389,0.00011076,0.00064593,-0.000722
 09,0.00288053,-0.00367149,0.00204018,0.00069571,0.00098681,-0.00123399
 ,-0.00000791,0.00011153,0.00048134,0.00089694,-0.00122924,-0.00065389,
 -0.00026511,0.00026591,0.00050546,-0.00161173,0.00072840,0.00204613,-0
 .00003947,0.00007265,-0.00016011,0.00001008,0.00000828,0.00001850,0.00
 002477,0.00000355,-0.00005337,0.00001236,0.00000567,0.00001295,-0.0000
 1246,-0.00000703,-0.00000825,0.00000340,0.00002741,0.00001237,0.008829
 81,0.00129498,-0.02080306,-0.00011959,-0.04911545,-0.00273130,-0.01973
 548,-0.01209527,0.03676840,-0.00010665,-0.00012523,-0.00013680,-0.0000
 5708,0.00003911,-0.00006643,0.00003175,-0.00003814,0.00009935,0.000065
 29,0.00002778,0.00000499,0.00003346,0.00001028,0.00001782,-0.00000647,
 -0.00000888,-0.00000022,-0.00000297,0.00000090,-0.00000068,-0.00001676
 ,-0.00000194,0.00000958,-0.00068998,0.00062916,0.00004316,-0.00043834,
 0.00068388,0.00067030,0.00375487,0.00133650,-0.00497776,0.00472922,0.0
 6173869,0.00137024,-0.00016103,0.00074813,-0.00128121,0.00001701,-0.00
 084627,0.00026535,-0.00009149,0.00014339,-0.00000980,-0.00010737,0.000
 07545,-0.00006130,-0.00009727,0.00008028,-0.00000385,0.00002762,-0.000
 03428,-0.00005960,0.00001929,0.00014480,-0.00002832,-0.00000456,0.0000
 0636,0.00001161,0.00000629,0.00000821,0.00000560,0.00000566,-0.0000186
 6,0.00000961,-0.00000660,0.00000163,-0.00000132,-0.00000262,0.00000250
 ,0.00000267,0.00000623,0.00000295,-0.00144433,-0.00031885,0.00150623,0
 .10367379,0.00746520,-0.27796341,-0.00029889,0.00041602,0.00004445,-0.
 00001050,0.00002502,-0.00001263,-0.00001008,0.00000307,-0.00000824,-0.
 00000736,-0.00000328,0.00002232,0.00000105,0.00000074,0.00000084,0.000
 00452,0.00000124,0.00000235,-0.00000384,-0.00000396,-0.00000077,-0.000
 00118,0.00000002,0.00000006,-0.00000691,0.00000093,0.00000367,0.000388
 04,-0.00043258,0.00001525,0.00023025,-0.00016816,0.00062716,0.00998049
 ,0.00055883,-0.01720844,-0.11280812,-0.00797203,0.29170252,0.00006288,
 -0.00004682,-0.00030380,-0.00066640,-0.00013082,0.00069820,0.00014252,
 0.00030294,-0.00006826,0.00010209,0.00001229,0.00001887,-0.00038639,0.
 00039609,0.00078846,0.00008467,-0.00001560,-0.00051859,0.00082921,-0.0
 0071632,-0.00055618,-0.00005491,-0.00003027,-0.00000600,0.00001554,0.0
 0002262,0.00001127,0.00000342,0.00002127,-0.00003521,0.00003724,-0.000
 03669,0.00000167,0.00000123,-0.00000570,0.00001213,0.00001363,0.000004
 83,0.00000801,-0.00116320,-0.00294913,0.00034945,0.01418827,-0.0071165
 5,-0.00066103,-0.27434589,0.16948599,-0.00206031,-0.00005556,-0.000037
 47,-0.00001395,0.00000538,-0.00002857,0.00000348,-0.00001489,0.0000092
 8,0.00004736,0.00001057,-0.00000069,-0.00000156,-0.00002175,-0.0000087
 0,0.00000260,-0.00001295,-0.00000782,-0.00000765,-0.00000332,-0.000000
 52,0.00000032,-0.00001845,0.00000809,0.00001348,0.00072123,-0.00071499
 ,-0.00005039,0.00001915,0.00004149,0.00010782,0.00051201,-0.00034233,-
 0.00023210,0.00034124,-0.00015235,0.00019585,0.29018100,-0.00028302,0.
 00019529,-0.00014676,-0.00052522,0.00002565,0.00084300,-0.00021200,0.0
 0029329,0.00019794,0.00007290,0.00002213,-0.00014393,0.00033313,-0.000
 27634,-0.00062957,-0.00005101,-0.00000421,0.00042889,-0.00067931,-0.00
 039153,0.00128317,0.00006568,0.00002976,0.00001524,-0.00002805,-0.0000
 3130,-0.00002549,-0.00002168,-0.00002397,0.00004545,-0.00003084,0.0000
 1292,-0.00000347,0.00000435,0.00001160,-0.00000121,-0.00001342,-0.0000
 0796,-0.00000520,-0.00435067,-0.00538491,0.00088612,0.02499636,-0.0196
 7821,-0.00085516,0.17416319,-0.19184003,-0.00154248,0.00016028,-0.0001
 1872,0.00000276,-0.00002196,0.00000239,0.00005045,0.00003265,0.0000212
 1,-0.00002197,-0.00001764,0.00000689,0.00000850,0.00000790,0.00002306,
 -0.00001394,0.00002408,0.00002306,0.00000455,0.00000403,0.00000142,0.0
 0000005,0.00001880,-0.00000180,-0.00001165,0.00159016,-0.00084319,-0.0
 0021647,-0.00018525,0.00030451,0.00018627,0.00003273,0.00113259,-0.001
 15803,0.00018666,0.00126594,0.00069229,-0.18255361,0.20292605,-0.00022
 764,0.00018085,-0.00016194,0.00049280,0.00029201,0.00048424,-0.0001536
 3,-0.00036342,-0.00019313,-0.00007179,0.00010601,0.00014624,0.00024232
 ,-0.00020997,-0.00013669,-0.00015034,-0.00005006,-0.00000731,-0.000488
 63,0.00141825,-0.00140659,0.00004651,0.00002898,-0.00000926,-0.0000060
 0,-0.00000100,0.00000277,0.00000722,0.00000112,0.00001774,-0.00001589,
 0.00002232,-0.00001814,-0.00000274,0.00000284,0.00000212,-0.00000585,-
 0.00001179,-0.00002329,0.00070943,0.00087185,-0.00026303,-0.00435569,0
 .00369735,-0.00055031,0.00337185,-0.00558630,-0.05785064,-0.00001534,0
 .00000366,-0.00002926,0.00000516,0.00003365,-0.00003986,0.00003019,-0.
 00002106,-0.00003844,0.00001157,0.00000161,-0.00000720,0.00001111,-0.0
 0000103,0.00000706,0.00000226,-0.00000007,0.00000709,0.00000051,-0.000
 00034,0.00000014,0.00000765,-0.00000426,0.00000221,-0.00016881,0.00015
 382,0.00035844,0.00022903,-0.00022061,0.00006689,0.00005116,-0.0009668
 4,0.00026330,-0.00033639,0.00043145,-0.00047159,0.00035278,0.00219350,
 0.05282196,-0.00289463,-0.00061470,0.00037673,0.00669076,0.00413116,-0
 .00138368,-0.00250173,-0.00353370,0.00087949,0.00088755,0.00100221,-0.
 00085791,-0.01010634,0.01021809,0.00956772,0.00222735,-0.00171719,-0.0
 0672240,0.00580306,-0.00573234,-0.01134459,-0.00046706,-0.00054141,0.0
 0014006,0.00011023,0.00016004,-0.00007073,-0.00008063,-0.00001399,-0.0
 0029821,0.00023712,-0.00035899,0.00017228,0.00006929,-0.00006090,0.000
 08954,0.00004202,0.00016543,0.00024957,0.00088803,0.00127388,-0.000355
 28,-0.00389144,-0.00709783,0.00473869,-0.11070152,-0.00625235,0.085947
 29,-0.00035414,0.00041967,-0.00009881,0.00042165,-0.00040308,0.0002519
 4,-0.00009879,0.00026041,-0.00033811,-0.00002180,-0.00006613,0.0000264
 1,-0.00028140,-0.00013282,-0.00002426,-0.00000603,0.00001497,-0.000068
 15,0.00000194,0.00000381,0.00000951,-0.00010452,0.00008038,0.00002765,
 -0.00061509,0.00022397,0.00020800,-0.00016005,0.00000724,0.00005187,-0
 .00042843,0.00025954,-0.00005657,0.00028145,0.00072698,-0.00037764,-0.
 01272230,-0.00232247,0.02391104,0.11233048,-0.00141482,0.00040293,-0.0
 0030495,0.00328935,-0.00355149,0.00030197,-0.00082553,-0.00024345,0.00
 001744,0.00088219,-0.00015842,-0.00155590,-0.00304308,0.00458070,-0.00
 056505,0.00184930,-0.00073776,-0.00240003,0.00303262,-0.01149743,0.000
 09794,-0.00008093,-0.00004706,0.00016426,-0.00006022,-0.00003024,-0.00
 008576,-0.00011405,-0.00002242,0.00007480,0.00003098,-0.00012533,0.000
 02524,0.00005604,0.00000742,0.00003608,-0.00000066,-0.00002399,0.00005
 085,0.00038096,0.00116063,0.00073360,-0.01411918,-0.00182154,0.0277206
 4,-0.01118498,-0.06580603,0.02073535,0.00032847,-0.00000878,0.00038572
 ,0.00011441,-0.00027890,0.00039336,0.00005855,0.00031248,-0.00030378,-
 0.00010669,-0.00004490,0.00002048,-0.00014168,-0.00001219,-0.00006411,
 0.00003065,0.00004461,-0.00001919,0.00001094,0.00000119,0.00000293,0.0
 0001311,0.00003042,-0.00002212,-0.00026655,0.00033759,-0.00020184,0.00
 008947,-0.00017463,-0.00003945,-0.00005587,0.00113183,-0.00033755,-0.0
 0158277,-0.00528074,-0.00026710,0.00971411,0.00339799,-0.02239131,0.00
 628012,0.07763935,0.00072315,0.00237229,-0.00381885,-0.00255677,-0.002
 27706,0.00739130,0.00215758,0.00115633,-0.00301082,-0.00268038,-0.0018
 1551,0.00288346,0.01628828,-0.02016698,-0.01815677,-0.00333498,0.00329
 560,0.01219212,-0.02227776,0.01098174,0.01100614,0.00096923,0.00161122
 ,-0.00033370,-0.00030741,-0.00025705,0.00015326,0.00023329,0.00014952,
 0.00050826,-0.00036775,0.00066297,-0.00031950,-0.00015388,0.00005661,-
 0.00024326,-0.00001740,-0.00039753,-0.00045451,-0.00047851,-0.00128533
 ,-0.00080759,-0.00008809,0.01279437,0.00413927,0.08487652,0.01184747,-
 0.22635743,-0.00053691,0.00060194,0.00010231,-0.00050441,0.00076622,-0
 .00077065,0.00116935,-0.00014419,0.00044029,0.00016287,0.00003418,-0.0
 0010339,0.00033912,0.00002383,0.00019967,-0.00008914,-0.00010604,0.000
 06020,-0.00000436,-0.00000696,-0.00002296,0.00015934,-0.00013004,-0.00
 000157,0.00067170,-0.00041126,-0.00026372,0.00010694,0.00023181,-0.000
 47752,-0.00049704,-0.00110818,0.00102892,-0.00063900,-0.00400087,0.000
 85704,-0.00073835,-0.00309139,0.00590678,-0.08164036,-0.01269110,0.227
 97176,-0.00068275,0.00018371,-0.00037797,0.00137850,0.00043497,0.00026
 023,-0.00045936,-0.00090763,-0.00032318,-0.00022813,-0.00012558,0.0002
 1901,0.00057897,-0.00066310,-0.00038367,-0.00009843,0.00017743,0.00030
 658,-0.00215944,-0.00040451,0.00126369,0.00006433,0.00018816,0.0000426
 7,-0.00002427,0.00002831,0.00007712,0.00002645,0.00014321,0.00007321,0
 .00002463,-0.00000275,-0.00006548,-0.00000641,-0.00002333,-0.00003394,
 0.00003343,-0.00012452,-0.00008345,0.00190408,0.00056556,0.00122153,-0
 .00684827,-0.00551117,-0.00615427,-0.19400467,-0.05547220,-0.15718957,
 -0.00024450,0.00047002,0.00023511,-0.00000670,0.00002584,-0.00007986,0
 .00008702,0.00002511,0.00005829,0.00000796,-0.00003265,-0.00003602,-0.
 00002794,-0.00007099,0.00004652,-0.00009276,-0.00005895,-0.00002121,-0
 .00000084,-0.00000293,-0.00000902,0.00000764,0.00000555,0.00002164,-0.
 00040737,0.00015229,-0.00004778,0.00000915,-0.00016724,-0.00057793,0.0
 0056367,-0.00143069,0.00145515,-0.00023409,0.00045642,0.00027517,-0.01
 780525,-0.01039675,-0.02348385,0.01544498,0.00683574,0.00905515,0.2032
 0035,0.00035733,-0.00008190,0.00077270,-0.00007604,-0.00023723,-0.0012
 7208,-0.00022435,0.00022706,0.00042153,0.00012145,0.00017963,-0.000272
 27,-0.00012491,0.00013023,-0.00018831,0.00005800,-0.00007202,0.0001840
 7,-0.00055108,-0.00050230,0.00041837,0.00008090,0.00007976,0.00007332,
 -0.00005070,-0.00004151,-0.00004928,-0.00006670,0.00000702,0.00010107,
 -0.00003052,-0.00003253,-0.00000640,0.00002125,0.00000281,-0.00000260,
 -0.00001075,-0.00002571,-0.00000791,-0.00045200,0.00144984,-0.00091887
 ,-0.02233796,-0.00943673,-0.02586832,-0.06146958,-0.08540137,-0.074986
 69,0.00036519,-0.00013753,-0.00007848,-0.00002271,-0.00003160,0.000105
 83,0.00002455,0.00004357,-0.00005082,-0.00003193,-0.00001740,0.0000006
 5,-0.00001716,0.00000679,-0.00000504,0.00002653,0.00004881,-0.00000684
 ,0.00000870,0.00000186,-0.00000193,0.00002676,0.00000469,-0.00001467,0
 .00005454,0.00029805,0.00057981,0.00110118,-0.00045709,0.00054953,-0.0
 0118733,-0.00589810,0.00254653,0.00020865,0.00169005,0.00039142,0.0148
 7597,0.00890644,0.02038878,0.00362004,0.00081815,0.00130340,0.06570267
 ,0.08847826,0.00032282,0.00005285,0.00020845,-0.00103364,-0.00074043,-
 0.00045692,0.00007511,0.00093949,0.00039457,0.00006105,0.00009930,-0.0
 0020627,0.00053536,-0.00022673,-0.00074398,-0.00015724,-0.00008438,0.0
 0044363,0.00116873,0.00099819,0.00040751,0.00011291,-0.00005376,0.0000
 1542,-0.00000018,-0.00002818,0.00001457,-0.00000464,0.00000729,0.00009
 217,-0.00005319,0.00005101,-0.00005700,-0.00000478,0.00002980,0.000015
 45,-0.00002377,-0.00004531,-0.00008501,0.00086549,-0.00033183,0.000252
 03,0.00585034,0.00027445,0.00796554,-0.16308244,-0.07063826,-0.2450574
 7,0.00030733,-0.00029976,0.00006268,-0.00004546,0.00001148,0.00007203,
 -0.00003295,-0.00004879,-0.00005004,-0.00003022,0.00001914,0.00000293,
 0.00005231,0.00004569,-0.00000238,0.00001167,0.00000251,0.00004373,0.0
 0000284,-0.00000107,-0.00000150,0.00002942,-0.00001235,-0.00001097,-0.
 00006041,0.00007316,-0.00004858,-0.00028447,-0.00016373,-0.00016264,0.
 00080203,0.00230075,0.00037621,0.00072932,0.00035889,0.00056869,0.0026
 4162,0.00102853,0.00111970,-0.02301109,-0.00951142,-0.01969855,0.17425
 614,0.07589348,0.25452600\\0.00001782,0.00000597,0.00000296,-0.0000173
 3,-0.00000178,-0.00000423,0.00001940,0.00000606,0.00000374,-0.00000187
 ,-0.00000016,-0.00000606,-0.00000032,0.00001015,-0.00000987,-0.0000018
 5,-0.00000285,0.00001081,0.00000328,-0.00000002,-0.00000714,-0.0000039
 8,-0.00001068,-0.00000089,-0.00000119,0.00000069,-0.00000097,0.0000009
 8,0.00000187,0.00000216,-0.00000170,0.00000060,-0.00000276,-0.00000194
 ,0.00000115,0.00000213,0.00000127,-0.00000152,-0.00000261,0.00000153,-
 0.00000165,0.00000415,-0.00000745,-0.00000836,0.00000029,-0.00000578,0
 .00000329,0.00000285,-0.00001003,-0.00000669,0.00000359,0.00000317,-0.
 00000369,-0.00000248,-0.00000040,-0.00000074,-0.00000156,0.00000224,-0
 .00000024,-0.00000003,-0.00000327,-0.00000149,-0.00000124,0.00000090,-
 0.00000051,-0.00000062,0.00000003,-0.00000033,0.00000100,0.00000038,0.
 00000024,0.00000144,0.00000130,0.00000158,0.00000226,-0.00000010,0.000
 00117,0.00000087,0.00000098,0.00000196,0.00000116,0.00000153,0.0000037
 4,-0.00000059,0.00000068,-0.00000025,0.00000074,0.00000015,0.00000139,
 0.00000266,0.00000155,0.00000108,-0.00000174\\\@


 ONLY A FOOL KNOWS EVERYTHING.

               -- THE CHEMIST ANALYST, SEPTEMBER 1946
 Job cpu time:       0 days 16 hours 25 minutes 17.9 seconds.
 File lengths (MBytes):  RWF=   1140 Int=      0 D2E=      0 Chk=     36 Scr=      1
 Normal termination of Gaussian 09 at Sat Jul 24 14:02:25 2021.
