 Entering Gaussian System, Link 0=g09
 Input=opt_freq-conf-715.com
 Output=opt_freq-conf-715.log
 Initial command:
 /aerosol/software/g09/l1.exe "/scratch/nicole/10458/Gau-72652.inp" -scrdir="/scratch/nicole/10458/"
 Entering Link 1 = /aerosol/software/g09/l1.exe PID=     72658.
  
 Copyright (c) 1988,1990,1992,1993,1995,1998,2003,2009,2013,
            Gaussian, Inc.  All Rights Reserved.
  
 This is part of the Gaussian(R) 09 program.  It is based on
 the Gaussian(R) 03 system (copyright 2003, Gaussian, Inc.),
 the Gaussian(R) 98 system (copyright 1998, Gaussian, Inc.),
 the Gaussian(R) 94 system (copyright 1995, Gaussian, Inc.),
 the Gaussian 92(TM) system (copyright 1992, Gaussian, Inc.),
 the Gaussian 90(TM) system (copyright 1990, Gaussian, Inc.),
 the Gaussian 88(TM) system (copyright 1988, Gaussian, Inc.),
 the Gaussian 86(TM) system (copyright 1986, Carnegie Mellon
 University), and the Gaussian 82(TM) system (copyright 1983,
 Carnegie Mellon University). Gaussian is a federally registered
 trademark of Gaussian, Inc.
  
 This software contains proprietary and confidential information,
 including trade secrets, belonging to Gaussian, Inc.
  
 This software is provided under written license and may be
 used, copied, transmitted, or stored only in accord with that
 written license.
  
 The following legend is applicable only to US Government
 contracts under FAR:
  
                    RESTRICTED RIGHTS LEGEND
  
 Use, reproduction and disclosure by the US Government is
 subject to restrictions as set forth in subparagraphs (a)
 and (c) of the Commercial Computer Software - Restricted
 Rights clause in FAR 52.227-19.
  
 Gaussian, Inc.
 340 Quinnipiac St., Bldg. 40, Wallingford CT 06492
  
  
 ---------------------------------------------------------------
 Warning -- This program may not be used in any manner that
 competes with the business of Gaussian, Inc. or will provide
 assistance to any competitor of Gaussian, Inc.  The licensee
 of this program is prohibited from giving any competitor of
 Gaussian, Inc. access to this program.  By using this program,
 the user acknowledges that Gaussian, Inc. is engaged in the
 business of creating and licensing software in the field of
 computational chemistry and represents and warrants to the
 licensee that it is not a competitor of Gaussian, Inc. and that
 it will not use this program in any manner prohibited above.
 ---------------------------------------------------------------
  

 Cite this work as:
 Gaussian 09, Revision D.01,
 M. J. Frisch, G. W. Trucks, H. B. Schlegel, G. E. Scuseria, 
 M. A. Robb, J. R. Cheeseman, G. Scalmani, V. Barone, B. Mennucci, 
 G. A. Petersson, H. Nakatsuji, M. Caricato, X. Li, H. P. Hratchian, 
 A. F. Izmaylov, J. Bloino, G. Zheng, J. L. Sonnenberg, M. Hada, 
 M. Ehara, K. Toyota, R. Fukuda, J. Hasegawa, M. Ishida, T. Nakajima, 
 Y. Honda, O. Kitao, H. Nakai, T. Vreven, J. A. Montgomery, Jr., 
 J. E. Peralta, F. Ogliaro, M. Bearpark, J. J. Heyd, E. Brothers, 
 K. N. Kudin, V. N. Staroverov, T. Keith, R. Kobayashi, J. Normand, 
 K. Raghavachari, A. Rendell, J. C. Burant, S. S. Iyengar, J. Tomasi, 
 M. Cossi, N. Rega, J. M. Millam, M. Klene, J. E. Knox, J. B. Cross, 
 V. Bakken, C. Adamo, J. Jaramillo, R. Gomperts, R. E. Stratmann, 
 O. Yazyev, A. J. Austin, R. Cammi, C. Pomelli, J. W. Ochterski, 
 R. L. Martin, K. Morokuma, V. G. Zakrzewski, G. A. Voth, 
 P. Salvador, J. J. Dannenberg, S. Dapprich, A. D. Daniels, 
 O. Farkas, J. B. Foresman, J. V. Ortiz, J. Cioslowski, 
 and D. J. Fox, Gaussian, Inc., Wallingford CT, 2013.
 
 ******************************************
 Gaussian 09:  ES64L-G09RevD.01 24-Apr-2013
                24-Jul-2021 
 ******************************************
 %mem=2gb
 %nproc=4
 Will use up to    4 processors via shared memory.
 %chk=conf-715.chk
 ----------------------------------------------------------------------
 # B3LYP/6-311G(2df,2pd) EmpiricalDispersion=GD3BJ opt=calcfc freq=nora
 man nosymm integral(ultrafinegrid)
 ----------------------------------------------------------------------
 1/10=4,14=-1,18=20,19=15,26=4,38=1/1,3;
 2/9=110,12=2,15=1,17=6,18=5,40=1/2;
 3/5=4,6=6,7=404,11=2,16=1,25=1,30=1,71=2,74=-5,75=-5,124=41,140=1/1,2,3;
 4//1;
 5/5=2,38=5/2;
 8/6=4,10=90,11=11/1;
 11/6=1,8=1,9=11,15=111,16=1,31=1/1,2,10;
 10/6=1,13=1,31=1/2;
 6/7=2,8=2,9=2,10=2,28=1/1;
 7/10=1,18=20,25=1,30=1/1,2,3,16;
 1/10=4,14=-1,18=20,19=15,26=4/3(2);
 2/9=110,15=1/2;
 99//99;
 2/9=110,15=1/2;
 3/5=4,6=6,7=404,11=2,16=1,25=1,30=1,71=1,74=-5,75=-5,124=41/1,2,3;
 4/5=5,16=3,69=1/1;
 5/5=2,38=5/2;
 7/30=1/1,2,3,16;
 1/14=-1,18=20,19=15,26=4/3(-5);
 2/9=110,15=1/2;
 6/7=2,8=2,9=2,10=2,19=2,28=1/1;
 99/9=1/99;
 ------------------------------------------------------------
 Candidate Structure: Conf:715 OPT and FREQ calc in gas phase
 ------------------------------------------------------------
 Symbolic Z-matrix:
 Charge =  1 Multiplicity = 1
 O                    -2.0885    1.182    -0.21825 
 C                    -1.46719   0.20547   0.19926 
 N                    -0.12132   0.20757   0.28624 
 C                     0.63783   1.29466  -0.29198 
 C                     0.98029   1.0447   -1.75562 
 O                     1.23244   2.14989  -2.48335 
 O                     1.08562  -0.04757  -2.25602 
 C                     1.91546   1.5648    0.52718 
 C                     2.70196   0.33131   0.85697 
 C                     3.40428  -0.01181   1.97613 
 N                     3.95687  -1.26981   1.84035 
 C                     3.5892   -1.67166   0.64641 
 N                     2.82178  -0.74817   0.01529 
 C                    -2.16715  -1.04944   0.69628 
 C                    -3.29142  -1.47616  -0.2379 
 N                    -4.33054  -0.42348  -0.32038 
 H                     0.38118  -0.63739   0.50118 
 H                    -0.00933   2.17279  -0.24627 
 H                     1.09821   2.93528  -1.94331 
 H                     2.53317   2.28932  -0.01518 
 H                     1.6259    2.0376    1.46797 
 H                     3.54597   0.56831   2.87675 
 H                     3.83588  -2.61477   0.19139 
 H                     2.44531  -0.82716  -0.92241 
 H                    -1.44086  -1.85534   0.81604 
 H                    -2.58091  -0.82551   1.683 
 H                    -3.73537  -2.40919   0.11305 
 H                    -2.88608  -1.66138  -1.23542 
 H                    -3.83816   0.47228  -0.44803 
 H                    -4.9767   -0.56907  -1.09527 
 H                    -4.85767  -0.35807   0.54953 
 

 GradGradGradGradGradGradGradGradGradGradGradGradGradGradGradGradGradGrad
 Berny optimization.
 Initialization pass.
                           ----------------------------
                           !    Initial Parameters    !
                           ! (Angstroms and Degrees)  !
 --------------------------                            --------------------------
 ! Name  Definition              Value          Derivative Info.                !
 --------------------------------------------------------------------------------
 ! R1    R(1,2)                  1.2304         calculate D2E/DX2 analytically  !
 ! R2    R(2,3)                  1.3487         calculate D2E/DX2 analytically  !
 ! R3    R(2,14)                 1.5205         calculate D2E/DX2 analytically  !
 ! R4    R(3,4)                  1.4465         calculate D2E/DX2 analytically  !
 ! R5    R(3,17)                 1.0063         calculate D2E/DX2 analytically  !
 ! R6    R(4,5)                  1.5238         calculate D2E/DX2 analytically  !
 ! R7    R(4,8)                  1.5415         calculate D2E/DX2 analytically  !
 ! R8    R(4,18)                 1.0918         calculate D2E/DX2 analytically  !
 ! R9    R(5,6)                  1.3471         calculate D2E/DX2 analytically  !
 ! R10   R(5,7)                  1.206          calculate D2E/DX2 analytically  !
 ! R11   R(6,19)                 0.9625         calculate D2E/DX2 analytically  !
 ! R12   R(8,9)                  1.4996         calculate D2E/DX2 analytically  !
 ! R13   R(8,20)                 1.0957         calculate D2E/DX2 analytically  !
 ! R14   R(8,21)                 1.092          calculate D2E/DX2 analytically  !
 ! R15   R(9,10)                 1.3651         calculate D2E/DX2 analytically  !
 ! R16   R(9,13)                 1.3741         calculate D2E/DX2 analytically  !
 ! R17   R(10,11)                1.3807         calculate D2E/DX2 analytically  !
 ! R18   R(10,22)                1.0806         calculate D2E/DX2 analytically  !
 ! R19   R(11,12)                1.3123         calculate D2E/DX2 analytically  !
 ! R20   R(12,13)                1.3565         calculate D2E/DX2 analytically  !
 ! R21   R(12,23)                1.0758         calculate D2E/DX2 analytically  !
 ! R22   R(13,24)                1.0135         calculate D2E/DX2 analytically  !
 ! R23   R(14,15)                1.5227         calculate D2E/DX2 analytically  !
 ! R24   R(14,25)                1.0915         calculate D2E/DX2 analytically  !
 ! R25   R(14,26)                1.0932         calculate D2E/DX2 analytically  !
 ! R26   R(15,16)                1.4815         calculate D2E/DX2 analytically  !
 ! R27   R(15,27)                1.0912         calculate D2E/DX2 analytically  !
 ! R28   R(15,28)                1.0925         calculate D2E/DX2 analytically  !
 ! R29   R(16,29)                1.0301         calculate D2E/DX2 analytically  !
 ! R30   R(16,30)                1.0194         calculate D2E/DX2 analytically  !
 ! R31   R(16,31)                1.0193         calculate D2E/DX2 analytically  !
 ! A1    A(1,2,3)              121.6382         calculate D2E/DX2 analytically  !
 ! A2    A(1,2,14)             122.2423         calculate D2E/DX2 analytically  !
 ! A3    A(3,2,14)             116.0786         calculate D2E/DX2 analytically  !
 ! A4    A(2,3,4)              119.9412         calculate D2E/DX2 analytically  !
 ! A5    A(2,3,17)             120.7154         calculate D2E/DX2 analytically  !
 ! A6    A(4,3,17)             117.0225         calculate D2E/DX2 analytically  !
 ! A7    A(3,4,5)              112.2482         calculate D2E/DX2 analytically  !
 ! A8    A(3,4,8)              110.7476         calculate D2E/DX2 analytically  !
 ! A9    A(3,4,18)             106.0591         calculate D2E/DX2 analytically  !
 ! A10   A(5,4,8)              110.6642         calculate D2E/DX2 analytically  !
 ! A11   A(5,4,18)             107.7799         calculate D2E/DX2 analytically  !
 ! A12   A(8,4,18)             109.152          calculate D2E/DX2 analytically  !
 ! A13   A(4,5,6)              115.2382         calculate D2E/DX2 analytically  !
 ! A14   A(4,5,7)              124.5212         calculate D2E/DX2 analytically  !
 ! A15   A(6,5,7)              120.1687         calculate D2E/DX2 analytically  !
 ! A16   A(5,6,19)             109.8912         calculate D2E/DX2 analytically  !
 ! A17   A(4,8,9)              114.0417         calculate D2E/DX2 analytically  !
 ! A18   A(4,8,20)             108.6675         calculate D2E/DX2 analytically  !
 ! A19   A(4,8,21)             108.2948         calculate D2E/DX2 analytically  !
 ! A20   A(9,8,20)             110.9204         calculate D2E/DX2 analytically  !
 ! A21   A(9,8,21)             107.8024         calculate D2E/DX2 analytically  !
 ! A22   A(20,8,21)            106.8359         calculate D2E/DX2 analytically  !
 ! A23   A(8,9,10)             131.062          calculate D2E/DX2 analytically  !
 ! A24   A(8,9,13)             123.8635         calculate D2E/DX2 analytically  !
 ! A25   A(10,9,13)            105.0617         calculate D2E/DX2 analytically  !
 ! A26   A(9,10,11)            110.7505         calculate D2E/DX2 analytically  !
 ! A27   A(9,10,22)            128.0101         calculate D2E/DX2 analytically  !
 ! A28   A(11,10,22)           121.2392         calculate D2E/DX2 analytically  !
 ! A29   A(10,11,12)           104.8527         calculate D2E/DX2 analytically  !
 ! A30   A(11,12,13)           111.9211         calculate D2E/DX2 analytically  !
 ! A31   A(11,12,23)           126.0866         calculate D2E/DX2 analytically  !
 ! A32   A(13,12,23)           121.9891         calculate D2E/DX2 analytically  !
 ! A33   A(9,13,12)            107.4082         calculate D2E/DX2 analytically  !
 ! A34   A(9,13,24)            126.5521         calculate D2E/DX2 analytically  !
 ! A35   A(12,13,24)           125.9817         calculate D2E/DX2 analytically  !
 ! A36   A(2,14,15)            111.7551         calculate D2E/DX2 analytically  !
 ! A37   A(2,14,25)            109.8128         calculate D2E/DX2 analytically  !
 ! A38   A(2,14,26)            107.4722         calculate D2E/DX2 analytically  !
 ! A39   A(15,14,25)           110.5913         calculate D2E/DX2 analytically  !
 ! A40   A(15,14,26)           109.3721         calculate D2E/DX2 analytically  !
 ! A41   A(25,14,26)           107.7021         calculate D2E/DX2 analytically  !
 ! A42   A(14,15,16)           110.6653         calculate D2E/DX2 analytically  !
 ! A43   A(14,15,27)           110.0394         calculate D2E/DX2 analytically  !
 ! A44   A(14,15,28)           109.4941         calculate D2E/DX2 analytically  !
 ! A45   A(16,15,27)           109.8828         calculate D2E/DX2 analytically  !
 ! A46   A(16,15,28)           109.2605         calculate D2E/DX2 analytically  !
 ! A47   A(27,15,28)           107.4348         calculate D2E/DX2 analytically  !
 ! A48   A(15,16,29)           106.8291         calculate D2E/DX2 analytically  !
 ! A49   A(15,16,30)           112.6713         calculate D2E/DX2 analytically  !
 ! A50   A(15,16,31)           111.1517         calculate D2E/DX2 analytically  !
 ! A51   A(29,16,30)           109.4498         calculate D2E/DX2 analytically  !
 ! A52   A(29,16,31)           107.287          calculate D2E/DX2 analytically  !
 ! A53   A(30,16,31)           109.2757         calculate D2E/DX2 analytically  !
 ! D1    D(1,2,3,4)             -8.8925         calculate D2E/DX2 analytically  !
 ! D2    D(1,2,3,17)          -171.0822         calculate D2E/DX2 analytically  !
 ! D3    D(14,2,3,4)           173.3831         calculate D2E/DX2 analytically  !
 ! D4    D(14,2,3,17)           11.1934         calculate D2E/DX2 analytically  !
 ! D5    D(1,2,14,15)           44.9129         calculate D2E/DX2 analytically  !
 ! D6    D(1,2,14,25)          168.0241         calculate D2E/DX2 analytically  !
 ! D7    D(1,2,14,26)          -75.0887         calculate D2E/DX2 analytically  !
 ! D8    D(3,2,14,15)         -137.3777         calculate D2E/DX2 analytically  !
 ! D9    D(3,2,14,25)          -14.2664         calculate D2E/DX2 analytically  !
 ! D10   D(3,2,14,26)          102.6207         calculate D2E/DX2 analytically  !
 ! D11   D(2,3,4,5)            -88.0776         calculate D2E/DX2 analytically  !
 ! D12   D(2,3,4,8)            147.6811         calculate D2E/DX2 analytically  !
 ! D13   D(2,3,4,18)            29.379          calculate D2E/DX2 analytically  !
 ! D14   D(17,3,4,5)            74.7538         calculate D2E/DX2 analytically  !
 ! D15   D(17,3,4,8)           -49.4875         calculate D2E/DX2 analytically  !
 ! D16   D(17,3,4,18)         -167.7896         calculate D2E/DX2 analytically  !
 ! D17   D(3,4,5,6)            156.7686         calculate D2E/DX2 analytically  !
 ! D18   D(3,4,5,7)            -26.3232         calculate D2E/DX2 analytically  !
 ! D19   D(8,4,5,6)            -78.9439         calculate D2E/DX2 analytically  !
 ! D20   D(8,4,5,7)             97.9644         calculate D2E/DX2 analytically  !
 ! D21   D(18,4,5,6)            40.3419         calculate D2E/DX2 analytically  !
 ! D22   D(18,4,5,7)          -142.7499         calculate D2E/DX2 analytically  !
 ! D23   D(3,4,8,9)             47.6667         calculate D2E/DX2 analytically  !
 ! D24   D(3,4,8,20)           171.9589         calculate D2E/DX2 analytically  !
 ! D25   D(3,4,8,21)           -72.3392         calculate D2E/DX2 analytically  !
 ! D26   D(5,4,8,9)            -77.4741         calculate D2E/DX2 analytically  !
 ! D27   D(5,4,8,20)            46.8182         calculate D2E/DX2 analytically  !
 ! D28   D(5,4,8,21)           162.5201         calculate D2E/DX2 analytically  !
 ! D29   D(18,4,8,9)           164.0713         calculate D2E/DX2 analytically  !
 ! D30   D(18,4,8,20)          -71.6365         calculate D2E/DX2 analytically  !
 ! D31   D(18,4,8,21)           44.0654         calculate D2E/DX2 analytically  !
 ! D32   D(4,5,6,19)            -3.3164         calculate D2E/DX2 analytically  !
 ! D33   D(7,5,6,19)           179.6299         calculate D2E/DX2 analytically  !
 ! D34   D(4,8,9,10)          -143.0645         calculate D2E/DX2 analytically  !
 ! D35   D(4,8,9,13)            35.4293         calculate D2E/DX2 analytically  !
 ! D36   D(20,8,9,10)           93.8599         calculate D2E/DX2 analytically  !
 ! D37   D(20,8,9,13)          -87.6463         calculate D2E/DX2 analytically  !
 ! D38   D(21,8,9,10)          -22.7823         calculate D2E/DX2 analytically  !
 ! D39   D(21,8,9,13)          155.7115         calculate D2E/DX2 analytically  !
 ! D40   D(8,9,10,11)          179.0039         calculate D2E/DX2 analytically  !
 ! D41   D(8,9,10,22)           -0.8137         calculate D2E/DX2 analytically  !
 ! D42   D(13,9,10,11)           0.299          calculate D2E/DX2 analytically  !
 ! D43   D(13,9,10,22)        -179.5186         calculate D2E/DX2 analytically  !
 ! D44   D(8,9,13,12)         -179.4715         calculate D2E/DX2 analytically  !
 ! D45   D(8,9,13,24)            3.1788         calculate D2E/DX2 analytically  !
 ! D46   D(10,9,13,12)          -0.6475         calculate D2E/DX2 analytically  !
 ! D47   D(10,9,13,24)        -177.9972         calculate D2E/DX2 analytically  !
 ! D48   D(9,10,11,12)           0.1762         calculate D2E/DX2 analytically  !
 ! D49   D(22,10,11,12)       -179.9919         calculate D2E/DX2 analytically  !
 ! D50   D(10,11,12,13)         -0.6066         calculate D2E/DX2 analytically  !
 ! D51   D(10,11,12,23)       -179.9715         calculate D2E/DX2 analytically  !
 ! D52   D(11,12,13,9)           0.8136         calculate D2E/DX2 analytically  !
 ! D53   D(11,12,13,24)        178.1827         calculate D2E/DX2 analytically  !
 ! D54   D(23,12,13,9)        -179.7915         calculate D2E/DX2 analytically  !
 ! D55   D(23,12,13,24)         -2.4224         calculate D2E/DX2 analytically  !
 ! D56   D(2,14,15,16)         -61.657          calculate D2E/DX2 analytically  !
 ! D57   D(2,14,15,27)         176.7094         calculate D2E/DX2 analytically  !
 ! D58   D(2,14,15,28)          58.8408         calculate D2E/DX2 analytically  !
 ! D59   D(25,14,15,16)        175.6747         calculate D2E/DX2 analytically  !
 ! D60   D(25,14,15,27)         54.0411         calculate D2E/DX2 analytically  !
 ! D61   D(25,14,15,28)        -63.8274         calculate D2E/DX2 analytically  !
 ! D62   D(26,14,15,16)         57.2232         calculate D2E/DX2 analytically  !
 ! D63   D(26,14,15,27)        -64.4103         calculate D2E/DX2 analytically  !
 ! D64   D(26,14,15,28)        177.7211         calculate D2E/DX2 analytically  !
 ! D65   D(14,15,16,29)         45.9451         calculate D2E/DX2 analytically  !
 ! D66   D(14,15,16,30)        166.1675         calculate D2E/DX2 analytically  !
 ! D67   D(14,15,16,31)        -70.7928         calculate D2E/DX2 analytically  !
 ! D68   D(27,15,16,29)        167.6708         calculate D2E/DX2 analytically  !
 ! D69   D(27,15,16,30)        -72.1068         calculate D2E/DX2 analytically  !
 ! D70   D(27,15,16,31)         50.9329         calculate D2E/DX2 analytically  !
 ! D71   D(28,15,16,29)        -74.6919         calculate D2E/DX2 analytically  !
 ! D72   D(28,15,16,30)         45.5305         calculate D2E/DX2 analytically  !
 ! D73   D(28,15,16,31)        168.5702         calculate D2E/DX2 analytically  !
 --------------------------------------------------------------------------------
 Trust Radius=3.00D-01 FncErr=1.00D-07 GrdErr=1.00D-06
 Number of steps in this run=    167 maximum allowed number of steps=    186.
 GradGradGradGradGradGradGradGradGradGradGradGradGradGradGradGradGradGrad

                          Input orientation:                          
 ---------------------------------------------------------------------
 Center     Atomic      Atomic             Coordinates (Angstroms)
 Number     Number       Type             X           Y           Z
 ---------------------------------------------------------------------
      1          8           0       -2.088503    1.182001   -0.218250
      2          6           0       -1.467191    0.205474    0.199256
      3          7           0       -0.121320    0.207573    0.286237
      4          6           0        0.637831    1.294657   -0.291983
      5          6           0        0.980290    1.044701   -1.755619
      6          8           0        1.232437    2.149894   -2.483347
      7          8           0        1.085624   -0.047571   -2.256015
      8          6           0        1.915465    1.564801    0.527178
      9          6           0        2.701962    0.331315    0.856973
     10          6           0        3.404279   -0.011806    1.976126
     11          7           0        3.956873   -1.269812    1.840347
     12          6           0        3.589197   -1.671656    0.646407
     13          7           0        2.821779   -0.748170    0.015291
     14          6           0       -2.167146   -1.049439    0.696276
     15          6           0       -3.291419   -1.476156   -0.237902
     16          7           0       -4.330544   -0.423485   -0.320382
     17          1           0        0.381180   -0.637395    0.501180
     18          1           0       -0.009331    2.172793   -0.246272
     19          1           0        1.098213    2.935276   -1.943309
     20          1           0        2.533171    2.289324   -0.015180
     21          1           0        1.625897    2.037598    1.467968
     22          1           0        3.545970    0.568313    2.876746
     23          1           0        3.835878   -2.614765    0.191386
     24          1           0        2.445311   -0.827160   -0.922414
     25          1           0       -1.440857   -1.855343    0.816045
     26          1           0       -2.580910   -0.825509    1.683004
     27          1           0       -3.735367   -2.409192    0.113052
     28          1           0       -2.886078   -1.661376   -1.235420
     29          1           0       -3.838156    0.472280   -0.448030
     30          1           0       -4.976697   -0.569074   -1.095267
     31          1           0       -4.857675   -0.358075    0.549529
 ---------------------------------------------------------------------
                    Distance matrix (angstroms):
                    1          2          3          4          5
     1  O    0.000000
     2  C    1.230425   0.000000
     3  N    2.252516   1.348680   0.000000
     4  C    2.729657   2.420487   1.446514   0.000000
     5  C    3.435090   3.242838   2.466476   1.523806   0.000000
     6  O    4.134746   4.273771   3.643606   2.426327   1.347078
     7  O    3.967293   3.550951   2.825749   2.420644   1.206047
     8  C    4.090716   3.660281   2.459393   1.541541   2.521154
     9  C    4.982803   4.222590   2.883049   2.551228   3.209160
    10  C    6.034163   5.189961   3.915827   3.808464   4.573604
    11  N    6.840744   5.855776   4.607557   4.705249   5.210372
    12  C    6.413055   5.412081   4.174825   4.288374   4.467071
    13  N    5.281191   4.397561   3.106234   3.006192   3.121152
    14  C    2.412854   1.520451   2.435901   3.786732   4.505947
    15  C    2.917737   2.519285   3.627560   4.808258   5.187069
    16  N    2.759486   2.977315   4.299277   5.257145   5.693894
    17  H    3.150733   2.053792   1.006318   2.104234   2.877762
    18  H    2.303348   2.488814   2.039166   1.091802   2.128396
    19  H    4.025538   4.315518   3.728069   2.372858   1.903525
    20  H    4.756814   4.515674   3.386867   2.158308   2.643796
    21  H    4.167990   3.812283   2.792534   2.150735   3.434263
    22  H    6.457778   5.694944   4.504430   4.361845   5.316809
    23  H    7.048512   6.006359   4.861481   5.073926   5.033577
    24  H    5.008797   4.199066   3.019786   2.857715   2.518805
    25  H    3.273327   2.151299   2.505493   3.933341   4.570083
    26  H    2.808439   2.122452   3.011279   4.330817   5.291877
    27  H    3.964668   3.462446   4.465287   5.745208   6.136671
    28  H    3.123388   2.748939   3.667737   4.695333   4.747869
    29  H    1.902049   2.472174   3.797906   4.553584   5.025423
    30  H    3.489568   3.819993   5.107486   5.970066   6.206933
    31  H    3.260311   3.454802   4.777273   5.800022   6.431432
                    6          7          8          9         10
     6  O    0.000000
     7  O    2.214066   0.000000
     8  C    3.141993   3.321828   0.000000
     9  C    4.077311   3.528002   1.499610   0.000000
    10  C    5.410799   4.825812   2.608008   1.365095   0.000000
    11  N    6.149086   5.149575   3.731861   2.259520   1.380715
    12  C    5.473018   4.162882   3.645580   2.200777   2.134819
    13  N    4.143425   2.943451   2.536388   1.374071   2.174032
    14  C    5.648265   4.505582   4.850830   5.063647   5.809947
    15  C    6.217358   5.027140   6.078191   6.355023   7.202682
    16  N    6.499804   5.763927   6.609407   7.170218   8.079042
    17  H    4.171452   2.906245   2.684095   2.539885   3.421397
    18  H    2.558714   3.188732   2.161647   3.458222   4.622149
    19  H    0.962539   2.999219   2.940987   4.146589   5.418967
    20  H    2.793420   3.546522   1.095741   2.150103   3.165332
    21  H    3.972443   4.302078   1.092004   2.107755   2.760602
    22  H    6.048506   5.725195   3.028532   2.201818   1.080615
    23  H    6.052609   4.488224   4.611888   3.226168   3.185431
    24  H    3.573573   2.057912   2.846670   2.138727   3.160057
    25  H    5.837329   4.369061   4.800596   4.684666   5.312228
    26  H    6.383817   5.437328   5.221772   5.470769   6.047357
    27  H    7.225346   5.867852   6.920695   7.035837   7.758418
    28  H    5.748501   4.406858   6.047295   6.290876   7.252842
    29  H    5.715577   5.270926   5.937069   6.670536   7.652696
    30  H    6.919024   6.194435   7.395109   7.973941   8.943420
    31  H    7.251048   6.579535   7.040835   7.597229   8.391362
                   11         12         13         14         15
    11  N    0.000000
    12  C    1.312310   0.000000
    13  N    2.211646   1.356490   0.000000
    14  C    6.233865   5.790089   5.044193   0.000000
    15  C    7.543171   6.939965   6.161596   1.522749   0.000000
    16  N    8.606177   8.075575   7.167553   2.470972   1.481452
    17  H    3.870258   3.373746   2.490960   2.588785   3.838978
    18  H    5.651219   5.340980   4.076227   3.990907   4.907851
    19  H    6.338039   5.842555   4.513819   5.788603   6.452752
    20  H    4.258797   4.152379   3.051326   5.809173   6.939330
    21  H    4.063382   4.276456   3.361682   4.951008   6.279845
    22  H    2.149806   3.161288   3.231951   6.325446   7.786577
    23  H    2.131340   1.075802   2.131568   6.224263   7.230427
    24  H    3.180189   2.117274   1.013537   4.893295   5.813762
    25  H    5.525172   5.036265   4.476282   1.091478   2.163139
    26  H    6.554752   6.313535   5.654759   1.093151   2.148964
    27  H    7.965694   7.380899   6.764962   2.156014   1.091245
    28  H    7.512632   6.743187   5.914208   2.150065   1.092543
    29  H    8.308672   7.807678   6.786671   2.533247   2.034570
    30  H    9.429609   8.810429   7.879190   3.366593   2.097148
    31  H    8.955094   8.548949   7.707892   2.781809   2.079257
                   16         17         18         19         20
    16  N    0.000000
    17  H    4.787595   0.000000
    18  H    5.041729   2.933997   0.000000
    19  H    6.586847   4.387896   2.165172   0.000000
    20  H    7.386682   3.669247   2.555641   2.488782   0.000000
    21  H    6.688371   3.104768   2.372944   3.566663   1.756770
    22  H    8.558315   4.136779   4.996775   5.901436   3.514382
    23  H    8.470776   3.992606   6.156126   6.546348   5.078366
    24  H    6.814515   2.514611   3.934737   4.124660   3.247040
    25  H    3.419353   2.214127   4.404959   6.083661   5.801905
    26  H    2.690055   3.194695   4.396014   6.389804   6.224134
    27  H    2.117814   4.498430   5.916675   7.493694   7.834990
    28  H    2.110960   3.839179   4.894379   6.124123   6.816545
    29  H    1.030113   4.464883   4.194324   5.715763   6.639490
    30  H    1.019390   5.591078   5.737015   7.064288   8.107721
    31  H    1.019260   5.246519   5.526755   7.247965   7.870973
                   21         22         23         24         25
    21  H    0.000000
    22  H    2.798238   0.000000
    23  H    5.306426   4.174589   0.000000
    24  H    3.819974   4.194331   2.523838   0.000000
    25  H    4.998497   5.915153   5.367573   4.379692   0.000000
    26  H    5.093216   6.395813   6.826531   5.661370   1.764058
    27  H    7.095977   8.337950   7.574440   6.463420   2.462869
    28  H    6.430290   7.953155   6.937537   5.405331   2.516903
    29  H    5.998095   8.098684   8.296354   6.433938   3.572501
    30  H    7.547128   9.471345   9.137931   7.428505   4.220162
    31  H    6.972767   8.769001   8.988813   7.464601   3.739985
                   26         27         28         29         30
    26  H    0.000000
    27  H    2.511090   0.000000
    28  H    3.051066   1.760369   0.000000
    29  H    2.793963   2.937390   2.465547   0.000000
    30  H    3.677545   2.527246   2.362933   1.673202   0.000000
    31  H    2.585907   2.378481   2.961728   1.650464   1.662540
                   31
    31  H    0.000000
 Symmetry turned off by external request.
 Stoichiometry    C9H15N4O3(1+)
 Framework group  C1[X(C9H15N4O3)]
 Deg. of freedom    87
 Full point group                 C1      NOp   1
 Rotational constants (GHZ):      0.7862783      0.3062208      0.2589168
 Standard basis: 6-311G(2df,2pd) (5D, 7F)
   690 basis functions,  1023 primitive gaussians,   785 cartesian basis functions
    60 alpha electrons       60 beta electrons
       nuclear repulsion energy      1154.5710476958 Hartrees.
 NAtoms=   31 NActive=   31 NUniq=   31 SFac= 1.00D+00 NAtFMM=   60 NAOKFM=F Big=F
 Integral buffers will be    131072 words long.
 Raffenetti 2 integral format.
 Two-electron integral symmetry is turned off.
 Nuclear repulsion after empirical dispersion term =     1154.5137904666 Hartrees.
 One-electron integrals computed using PRISM.
 NBasis=   690 RedAO= T EigKep=  1.95D-04  NBF=   690
 NBsUse=   690 1.00D-06 EigRej= -1.00D+00 NBFU=   690
 ExpMin= 1.03D-01 ExpMax= 8.59D+03 ExpMxC= 1.30D+03 IAcc=3 IRadAn=         5 AccDes= 0.00D+00
 Harris functional with IExCor=  402 and IRadAn=       5 diagonalized for initial guess.
 HarFok:  IExCor=  402 AccDes= 0.00D+00 IRadAn=         5 IDoV= 1 UseB2=F ITyADJ=14
 ICtDFT=  3500011 ScaDFX=  1.000000  1.000000  1.000000  1.000000
 FoFCou: FMM=F IPFlag=           0 FMFlag=      100000 FMFlg1=           0
         NFxFlg=           0 DoJE=T BraDBF=F KetDBF=T FulRan=T
         wScrn=  0.000000 ICntrl=     500 IOpCl=  0 I1Cent=   200000004 NGrid=           0
         NMat0=    1 NMatS0=      1 NMatT0=    0 NMatD0=    1 NMtDS0=    0 NMtDT0=    0
 Symmetry not used in FoFCou.
 Requested convergence on RMS density matrix=1.00D-08 within 128 cycles.
 Requested convergence on MAX density matrix=1.00D-06.
 Requested convergence on             energy=1.00D-06.
 No special actions if energy rises.
 Integral accuracy reduced to 1.0D-05 until final iterations.
 Initial convergence to 1.0D-05 achieved.  Increase integral accuracy.
 SCF Done:  E(RB3LYP) =  -796.789762350     A.U. after   14 cycles
            NFock= 14  Conv=0.41D-08     -V/T= 2.0037
 DoSCS=F DFT=T ScalE2(SS,OS)=  1.000000  1.000000
 Range of M.O.s used for correlation:     1   690
 NBasis=   690 NAE=    60 NBE=    60 NFC=     0 NFV=     0
 NROrb=    690 NOA=    60 NOB=    60 NVA=   630 NVB=   630

 **** Warning!!: The largest alpha MO coefficient is  0.11681776D+02

 Symmetrizing basis deriv contribution to polar:
 IMax=3 JMax=2 DiffMx= 0.00D+00
 G2DrvN: will do    32 centers at a time, making    1 passes.
 Calling FoFCou, ICntrl=  3107 FMM=F I1Cent=   0 AccDes= 0.00D+00.
 End of G2Drv F.D. properties file   721 does not exist.
 End of G2Drv F.D. properties file   722 does not exist.
 End of G2Drv F.D. properties file   788 does not exist.
          IDoAtm=1111111111111111111111111111111
          Differentiating once with respect to nuclear coordinates.
          There are    96 degrees of freedom in the 1st order CPHF.  IDoFFX=6 NUNeed=     0.
     90 vectors produced by pass  0 Test12= 3.94D-14 1.04D-09 XBig12= 1.99D-01 8.93D-02.
 AX will form    90 AO Fock derivatives at one time.
     90 vectors produced by pass  1 Test12= 3.94D-14 1.04D-09 XBig12= 2.79D-02 2.63D-02.
     90 vectors produced by pass  2 Test12= 3.94D-14 1.04D-09 XBig12= 2.88D-04 2.04D-03.
     90 vectors produced by pass  3 Test12= 3.94D-14 1.04D-09 XBig12= 1.22D-06 1.49D-04.
     90 vectors produced by pass  4 Test12= 3.94D-14 1.04D-09 XBig12= 3.12D-09 6.89D-06.
     83 vectors produced by pass  5 Test12= 3.94D-14 1.04D-09 XBig12= 5.75D-12 2.29D-07.
     38 vectors produced by pass  6 Test12= 3.94D-14 1.04D-09 XBig12= 8.57D-15 1.50D-08.
      4 vectors produced by pass  7 Test12= 3.94D-14 1.04D-09 XBig12= 3.97D-16 1.65D-09.
      3 vectors produced by pass  8 Test12= 3.94D-14 1.04D-09 XBig12= 1.92D-15 3.31D-09.
      3 vectors produced by pass  9 Test12= 3.94D-14 1.04D-09 XBig12= 1.46D-15 2.59D-09.
      1 vectors produced by pass 10 Test12= 3.94D-14 1.04D-09 XBig12= 7.17D-16 1.32D-09.
 InvSVY:  IOpt=1 It=  1 EMax= 6.66D-16
 Solved reduced A of dimension   582 with    96 vectors.
 End of Minotr F.D. properties file   721 does not exist.
 End of Minotr F.D. properties file   722 does not exist.
 End of Minotr F.D. properties file   788 does not exist.

 **********************************************************************

            Population analysis using the SCF density.

 **********************************************************************

 Alpha  occ. eigenvalues --  -19.29286 -19.25911 -19.23585 -14.61776 -14.49461
 Alpha  occ. eigenvalues --  -14.45482 -14.37307 -10.44015 -10.43163 -10.41888
 Alpha  occ. eigenvalues --  -10.36553 -10.36439 -10.31277 -10.30588 -10.29765
 Alpha  occ. eigenvalues --  -10.26807  -1.23407  -1.21587  -1.19314  -1.15313
 Alpha  occ. eigenvalues --   -1.10988  -1.08877  -0.97692  -0.96126  -0.92675
 Alpha  occ. eigenvalues --   -0.86428  -0.84070  -0.78600  -0.78003  -0.77877
 Alpha  occ. eigenvalues --   -0.75444  -0.74254  -0.71065  -0.69779  -0.69150
 Alpha  occ. eigenvalues --   -0.68341  -0.65934  -0.64924  -0.62109  -0.61114
 Alpha  occ. eigenvalues --   -0.59469  -0.58739  -0.57994  -0.57453  -0.56564
 Alpha  occ. eigenvalues --   -0.55281  -0.54878  -0.53895  -0.52419  -0.51171
 Alpha  occ. eigenvalues --   -0.50310  -0.49903  -0.49399  -0.45115  -0.43925
 Alpha  occ. eigenvalues --   -0.43017  -0.40501  -0.37418  -0.35493  -0.32268
 Alpha virt. eigenvalues --   -0.17166  -0.15114  -0.13189  -0.11754  -0.10833
 Alpha virt. eigenvalues --   -0.09637  -0.08516  -0.07079  -0.06373  -0.06081
 Alpha virt. eigenvalues --   -0.04513  -0.04007  -0.03058  -0.02744  -0.01713
 Alpha virt. eigenvalues --   -0.01038  -0.00215   0.00308   0.01287   0.02378
 Alpha virt. eigenvalues --    0.03057   0.04487   0.05405   0.05919   0.08004
 Alpha virt. eigenvalues --    0.08659   0.09526   0.10141   0.10766   0.11742
 Alpha virt. eigenvalues --    0.12579   0.13278   0.14331   0.15055   0.16680
 Alpha virt. eigenvalues --    0.17308   0.18189   0.20000   0.21485   0.21783
 Alpha virt. eigenvalues --    0.22263   0.22405   0.23020   0.24718   0.25179
 Alpha virt. eigenvalues --    0.25633   0.26426   0.27157   0.27234   0.27975
 Alpha virt. eigenvalues --    0.28899   0.29046   0.29374   0.30251   0.30429
 Alpha virt. eigenvalues --    0.30987   0.32018   0.32693   0.32887   0.33412
 Alpha virt. eigenvalues --    0.34179   0.34708   0.35284   0.35882   0.36039
 Alpha virt. eigenvalues --    0.36854   0.37375   0.38270   0.38739   0.39836
 Alpha virt. eigenvalues --    0.40747   0.41071   0.41391   0.42337   0.43065
 Alpha virt. eigenvalues --    0.43866   0.44229   0.45718   0.46058   0.47025
 Alpha virt. eigenvalues --    0.47413   0.48265   0.50751   0.51654   0.53137
 Alpha virt. eigenvalues --    0.53660   0.54425   0.55361   0.56027   0.57620
 Alpha virt. eigenvalues --    0.58717   0.59058   0.59819   0.60778   0.60925
 Alpha virt. eigenvalues --    0.61624   0.62814   0.64130   0.64465   0.65439
 Alpha virt. eigenvalues --    0.65634   0.65967   0.66274   0.68035   0.70018
 Alpha virt. eigenvalues --    0.70136   0.70856   0.72707   0.72850   0.73892
 Alpha virt. eigenvalues --    0.74656   0.75098   0.76172   0.76698   0.78249
 Alpha virt. eigenvalues --    0.79416   0.79775   0.80834   0.81685   0.83124
 Alpha virt. eigenvalues --    0.83831   0.84863   0.85670   0.86105   0.87449
 Alpha virt. eigenvalues --    0.88082   0.88689   0.89652   0.90055   0.91324
 Alpha virt. eigenvalues --    0.91667   0.92783   0.93135   0.93415   0.94086
 Alpha virt. eigenvalues --    0.95018   0.95904   0.96511   0.97157   0.97550
 Alpha virt. eigenvalues --    0.98008   0.99101   1.00022   1.00255   1.01001
 Alpha virt. eigenvalues --    1.01807   1.03885   1.04134   1.05290   1.05554
 Alpha virt. eigenvalues --    1.07037   1.07731   1.08741   1.09458   1.09892
 Alpha virt. eigenvalues --    1.10827   1.12008   1.12565   1.13541   1.14279
 Alpha virt. eigenvalues --    1.14920   1.15520   1.15845   1.16782   1.17060
 Alpha virt. eigenvalues --    1.18482   1.19194   1.19708   1.20479   1.20755
 Alpha virt. eigenvalues --    1.21075   1.22221   1.22606   1.23180   1.23877
 Alpha virt. eigenvalues --    1.24679   1.26627   1.27262   1.27603   1.29111
 Alpha virt. eigenvalues --    1.29794   1.30818   1.31072   1.31816   1.32902
 Alpha virt. eigenvalues --    1.33471   1.34309   1.35335   1.37220   1.37701
 Alpha virt. eigenvalues --    1.38461   1.39285   1.40081   1.43110   1.43797
 Alpha virt. eigenvalues --    1.44992   1.45701   1.47732   1.48589   1.49669
 Alpha virt. eigenvalues --    1.51489   1.51764   1.52431   1.55919   1.56186
 Alpha virt. eigenvalues --    1.57299   1.57882   1.59317   1.60624   1.62072
 Alpha virt. eigenvalues --    1.62447   1.64279   1.65912   1.68187   1.70339
 Alpha virt. eigenvalues --    1.71039   1.72207   1.73218   1.76243   1.77743
 Alpha virt. eigenvalues --    1.79962   1.83220   1.84084   1.88423   1.91667
 Alpha virt. eigenvalues --    1.93617   1.95660   1.97527   1.99961   2.02635
 Alpha virt. eigenvalues --    2.02998   2.05060   2.07320   2.10030   2.13640
 Alpha virt. eigenvalues --    2.14320   2.15144   2.19226   2.22543   2.23248
 Alpha virt. eigenvalues --    2.27496   2.28901   2.33019   2.33414   2.34780
 Alpha virt. eigenvalues --    2.36423   2.40237   2.41011   2.43756   2.46345
 Alpha virt. eigenvalues --    2.47463   2.49860   2.51777   2.52803   2.53349
 Alpha virt. eigenvalues --    2.53943   2.54975   2.55284   2.56584   2.57201
 Alpha virt. eigenvalues --    2.58409   2.59515   2.60397   2.61444   2.63336
 Alpha virt. eigenvalues --    2.63672   2.65517   2.67097   2.68128   2.69562
 Alpha virt. eigenvalues --    2.69927   2.70794   2.72073   2.72529   2.74002
 Alpha virt. eigenvalues --    2.74818   2.75885   2.76780   2.78121   2.79331
 Alpha virt. eigenvalues --    2.79450   2.79897   2.80458   2.81759   2.82450
 Alpha virt. eigenvalues --    2.83588   2.84314   2.84607   2.85392   2.85813
 Alpha virt. eigenvalues --    2.87407   2.87823   2.88539   2.89528   2.89847
 Alpha virt. eigenvalues --    2.90521   2.90990   2.92420   2.92895   2.93757
 Alpha virt. eigenvalues --    2.94642   2.95550   2.96863   2.97554   2.97893
 Alpha virt. eigenvalues --    2.98388   2.99216   2.99430   2.99938   3.01064
 Alpha virt. eigenvalues --    3.01797   3.03019   3.03426   3.03892   3.05144
 Alpha virt. eigenvalues --    3.05613   3.06606   3.06888   3.07822   3.08208
 Alpha virt. eigenvalues --    3.09151   3.10322   3.11181   3.11844   3.12970
 Alpha virt. eigenvalues --    3.13403   3.14071   3.14422   3.15089   3.15810
 Alpha virt. eigenvalues --    3.16200   3.16657   3.18318   3.18773   3.19445
 Alpha virt. eigenvalues --    3.20301   3.20547   3.21766   3.22163   3.22871
 Alpha virt. eigenvalues --    3.23779   3.24136   3.24741   3.26593   3.26932
 Alpha virt. eigenvalues --    3.27532   3.28388   3.28695   3.29501   3.31085
 Alpha virt. eigenvalues --    3.31256   3.32393   3.33146   3.33733   3.35197
 Alpha virt. eigenvalues --    3.36456   3.37138   3.38120   3.38138   3.38710
 Alpha virt. eigenvalues --    3.39509   3.40137   3.40866   3.41867   3.43288
 Alpha virt. eigenvalues --    3.44085   3.44513   3.45334   3.45685   3.46433
 Alpha virt. eigenvalues --    3.47113   3.49287   3.49599   3.50116   3.50869
 Alpha virt. eigenvalues --    3.51489   3.52310   3.53071   3.53442   3.54550
 Alpha virt. eigenvalues --    3.56827   3.58216   3.59257   3.59964   3.61056
 Alpha virt. eigenvalues --    3.61744   3.62111   3.62531   3.63433   3.64766
 Alpha virt. eigenvalues --    3.65367   3.66333   3.67149   3.68443   3.69143
 Alpha virt. eigenvalues --    3.69731   3.70248   3.72106   3.72657   3.74013
 Alpha virt. eigenvalues --    3.74121   3.75557   3.76145   3.76617   3.77929
 Alpha virt. eigenvalues --    3.78875   3.79747   3.81096   3.81490   3.81950
 Alpha virt. eigenvalues --    3.82587   3.82722   3.83983   3.84652   3.85261
 Alpha virt. eigenvalues --    3.86688   3.86928   3.88810   3.89002   3.90299
 Alpha virt. eigenvalues --    3.91314   3.91848   3.92617   3.93236   3.94216
 Alpha virt. eigenvalues --    3.95993   3.96717   3.97218   3.98138   3.98894
 Alpha virt. eigenvalues --    3.99296   4.00168   4.01394   4.02861   4.03488
 Alpha virt. eigenvalues --    4.04290   4.04892   4.05812   4.07517   4.08576
 Alpha virt. eigenvalues --    4.09449   4.10576   4.11949   4.12636   4.13718
 Alpha virt. eigenvalues --    4.14954   4.15072   4.16578   4.19064   4.20560
 Alpha virt. eigenvalues --    4.22455   4.22795   4.23921   4.25130   4.26772
 Alpha virt. eigenvalues --    4.28449   4.28664   4.30968   4.33453   4.34746
 Alpha virt. eigenvalues --    4.35965   4.36392   4.39251   4.40397   4.41670
 Alpha virt. eigenvalues --    4.43073   4.44065   4.46350   4.46696   4.48559
 Alpha virt. eigenvalues --    4.49858   4.50592   4.52739   4.55936   4.57980
 Alpha virt. eigenvalues --    4.58342   4.61114   4.62466   4.65282   4.65946
 Alpha virt. eigenvalues --    4.69716   4.70664   4.71094   4.71405   4.72685
 Alpha virt. eigenvalues --    4.73185   4.74962   4.75220   4.76215   4.78058
 Alpha virt. eigenvalues --    4.79966   4.80164   4.81622   4.84202   4.85361
 Alpha virt. eigenvalues --    4.85710   4.86354   4.87529   4.88572   4.88991
 Alpha virt. eigenvalues --    4.90646   4.91233   4.91809   4.92573   4.93413
 Alpha virt. eigenvalues --    4.95065   4.95845   4.96975   4.98183   4.98404
 Alpha virt. eigenvalues --    4.99020   5.00183   5.00544   5.02176   5.02375
 Alpha virt. eigenvalues --    5.03512   5.04985   5.05133   5.06223   5.07568
 Alpha virt. eigenvalues --    5.08438   5.09541   5.10276   5.12128   5.12788
 Alpha virt. eigenvalues --    5.14539   5.16307   5.17036   5.18719   5.20212
 Alpha virt. eigenvalues --    5.21158   5.21866   5.23390   5.24174   5.25497
 Alpha virt. eigenvalues --    5.25938   5.27557   5.28776   5.30893   5.33879
 Alpha virt. eigenvalues --    5.34472   5.35015   5.36153   5.37554   5.39380
 Alpha virt. eigenvalues --    5.40473   5.43050   5.46038   5.46584   5.50169
 Alpha virt. eigenvalues --    5.51204   5.52544   5.54262   5.55342   5.56077
 Alpha virt. eigenvalues --    5.58365   5.60982   5.61581   5.67171   5.68620
 Alpha virt. eigenvalues --    5.69848   5.73288   5.75743   5.78881   5.79929
 Alpha virt. eigenvalues --    5.81111   5.82371   5.83576   5.85172   5.86956
 Alpha virt. eigenvalues --    5.89158   5.95618   5.97115   6.03154   6.06040
 Alpha virt. eigenvalues --    6.10323   6.11174   6.12576   6.16412   6.19533
 Alpha virt. eigenvalues --    6.22688   6.26904   6.27609   6.30466   6.35051
 Alpha virt. eigenvalues --    6.37117   6.42147   6.44141   6.55605   6.62447
 Alpha virt. eigenvalues --    6.73854   6.77064   6.78075   6.81525   6.83687
 Alpha virt. eigenvalues --    6.84257   6.88433   6.95397   6.99483   7.00741
 Alpha virt. eigenvalues --    7.02867   7.07625   7.09661   7.12122   7.13398
 Alpha virt. eigenvalues --    7.17120   7.23643   7.27006   7.37325   7.41084
 Alpha virt. eigenvalues --    7.45503   7.47748   7.62471   7.84789  24.36149
 Alpha virt. eigenvalues --   24.48894  24.56340  24.68921  24.77166  24.88333
 Alpha virt. eigenvalues --   24.88928  24.90967  25.01265  35.88388  36.12320
 Alpha virt. eigenvalues --   36.16305  36.36077  50.04913  50.06452  50.17272
          Condensed to atoms (all electrons):
               1          2          3          4          5          6
     1  O    7.958528   0.588267  -0.094271  -0.023089   0.006369  -0.000138
     2  C    0.588267   4.402502   0.415146  -0.080198   0.010694  -0.000166
     3  N   -0.094271   0.415146   6.527165   0.199014  -0.055383   0.003936
     4  C   -0.023089  -0.080198   0.199014   5.414556   0.239619  -0.101861
     5  C    0.006369   0.010694  -0.055383   0.239619   4.390323   0.364075
     6  O   -0.000138  -0.000166   0.003936  -0.101861   0.364075   7.764028
     7  O   -0.000210   0.007749   0.001148  -0.114972   0.655524  -0.062939
     8  C    0.000228   0.004764  -0.016894   0.256535  -0.087159   0.009041
     9  C   -0.000107  -0.000386  -0.013522  -0.040287   0.003723  -0.001447
    10  C    0.000000   0.000039   0.001509  -0.001076   0.000083  -0.000003
    11  N    0.000000  -0.000002  -0.000054  -0.000345   0.000003   0.000000
    12  C    0.000000  -0.000044  -0.000392  -0.000111   0.000233   0.000001
    13  N   -0.000002  -0.000129  -0.005907  -0.007594  -0.003190   0.000143
    14  C   -0.069433   0.288148  -0.031026   0.006363  -0.000862  -0.000002
    15  C    0.005230  -0.067118  -0.003128   0.000011   0.000105  -0.000001
    16  N   -0.027447   0.003497  -0.000129  -0.000009  -0.000002   0.000000
    17  H    0.003431  -0.015680   0.351070  -0.039924   0.002480   0.000273
    18  H    0.034569  -0.015461  -0.032351   0.381394  -0.027353   0.001932
    19  H   -0.000273  -0.000250   0.000316   0.011472  -0.053382   0.312620
    20  H   -0.000002   0.000157   0.005040  -0.057880   0.001195   0.006683
    21  H   -0.000082   0.000514   0.004419  -0.019049   0.004686  -0.000288
    22  H    0.000000   0.000002   0.000013   0.000012  -0.000003   0.000000
    23  H    0.000000   0.000000  -0.000001   0.000003   0.000019   0.000000
    24  H   -0.000004   0.000161   0.001142   0.001073  -0.006486   0.000268
    25  H    0.003233  -0.018459  -0.001928   0.000188  -0.000111   0.000001
    26  H    0.001803  -0.028372   0.000775  -0.000374  -0.000017   0.000000
    27  H    0.000051   0.004320  -0.000226   0.000011   0.000000   0.000000
    28  H    0.000521   0.000403   0.001001  -0.000206   0.000174   0.000001
    29  H    0.081308  -0.012801   0.001803   0.000082  -0.000035   0.000001
    30  H    0.000448  -0.000019   0.000000   0.000000   0.000000   0.000000
    31  H    0.001101   0.000147   0.000068   0.000000  -0.000001   0.000000
               7          8          9         10         11         12
     1  O   -0.000210   0.000228  -0.000107   0.000000   0.000000   0.000000
     2  C    0.007749   0.004764  -0.000386   0.000039  -0.000002  -0.000044
     3  N    0.001148  -0.016894  -0.013522   0.001509  -0.000054  -0.000392
     4  C   -0.114972   0.256535  -0.040287  -0.001076  -0.000345  -0.000111
     5  C    0.655524  -0.087159   0.003723   0.000083   0.000003   0.000233
     6  O   -0.062939   0.009041  -0.001447  -0.000003   0.000000   0.000001
     7  O    7.845871   0.007082  -0.004272   0.000024  -0.000006  -0.000637
     8  C    0.007082   4.816809   0.254246  -0.030698   0.008214   0.002218
     9  C   -0.004272   0.254246   5.233295   0.539232  -0.044445  -0.127852
    10  C    0.000024  -0.030698   0.539232   4.662258   0.475541  -0.154543
    11  N   -0.000006   0.008214  -0.044445   0.475541   6.485664   0.585409
    12  C   -0.000637   0.002218  -0.127852  -0.154543   0.585409   4.572100
    13  N   -0.008023  -0.043040   0.321268  -0.043368  -0.141014   0.476570
    14  C   -0.000409   0.000189  -0.000133   0.000012   0.000000  -0.000009
    15  C   -0.000075  -0.000005   0.000002   0.000000   0.000000   0.000000
    16  N    0.000000   0.000000   0.000000   0.000000   0.000000   0.000000
    17  H    0.008164   0.001210  -0.004565  -0.002966  -0.000164   0.001491
    18  H    0.003272  -0.013532   0.000596  -0.000007   0.000012  -0.000011
    19  H    0.004628   0.000143   0.000305  -0.000001   0.000000   0.000007
    20  H   -0.000924   0.394958  -0.033728  -0.003040  -0.000154   0.000390
    21  H   -0.000277   0.393524  -0.035751  -0.004499   0.000341  -0.000260
    22  H    0.000001  -0.000093  -0.058292   0.441661  -0.018528   0.005947
    23  H   -0.000054  -0.000311   0.005537   0.003591  -0.016025   0.428191
    24  H    0.038066   0.005800  -0.028842   0.002593   0.004402  -0.024109
    25  H    0.000004  -0.000136   0.000024   0.000009   0.000003   0.000051
    26  H    0.000004   0.000019   0.000017   0.000002   0.000000  -0.000001
    27  H   -0.000002   0.000000   0.000000   0.000000   0.000000   0.000000
    28  H    0.000358   0.000007  -0.000003   0.000000   0.000000   0.000000
    29  H    0.000005   0.000003   0.000001   0.000000   0.000000   0.000000
    30  H    0.000000   0.000000   0.000000   0.000000   0.000000   0.000000
    31  H    0.000000   0.000000   0.000000   0.000000   0.000000   0.000000
              13         14         15         16         17         18
     1  O   -0.000002  -0.069433   0.005230  -0.027447   0.003431   0.034569
     2  C   -0.000129   0.288148  -0.067118   0.003497  -0.015680  -0.015461
     3  N   -0.005907  -0.031026  -0.003128  -0.000129   0.351070  -0.032351
     4  C   -0.007594   0.006363   0.000011  -0.000009  -0.039924   0.381394
     5  C   -0.003190  -0.000862   0.000105  -0.000002   0.002480  -0.027353
     6  O    0.000143  -0.000002  -0.000001   0.000000   0.000273   0.001932
     7  O   -0.008023  -0.000409  -0.000075   0.000000   0.008164   0.003272
     8  C   -0.043040   0.000189  -0.000005   0.000000   0.001210  -0.013532
     9  C    0.321268  -0.000133   0.000002   0.000000  -0.004565   0.000596
    10  C   -0.043368   0.000012   0.000000   0.000000  -0.002966  -0.000007
    11  N   -0.141014   0.000000   0.000000   0.000000  -0.000164   0.000012
    12  C    0.476570  -0.000009   0.000000   0.000000   0.001491  -0.000011
    13  N    6.350826  -0.000090  -0.000001   0.000000   0.022029  -0.000044
    14  C   -0.000090   4.904120   0.296765  -0.033141  -0.005613   0.003097
    15  C   -0.000001   0.296765   4.766396   0.225650   0.000056  -0.000230
    16  N    0.000000  -0.033141   0.225650   5.685357   0.000024   0.000033
    17  H    0.022029  -0.005613   0.000056   0.000024   0.552884   0.006368
    18  H   -0.000044   0.003097  -0.000230   0.000033   0.006368   0.628858
    19  H   -0.000014  -0.000002   0.000002   0.000000  -0.000135   0.001963
    20  H    0.002613   0.000017   0.000000   0.000000   0.000429  -0.003069
    21  H    0.002268   0.000024   0.000009   0.000000  -0.001710  -0.011148
    22  H    0.004399   0.000000   0.000000   0.000000   0.000050  -0.000010
    23  H   -0.038335   0.000000   0.000000   0.000000  -0.000058  -0.000001
    24  H    0.368411   0.000003  -0.000012   0.000000  -0.000208   0.000386
    25  H   -0.000020   0.397211  -0.026273   0.003335   0.001080  -0.000310
    26  H   -0.000005   0.392993  -0.046821  -0.001072   0.000355  -0.000032
    27  H    0.000000  -0.034961   0.435580  -0.027288  -0.000043   0.000003
    28  H    0.000000  -0.031834   0.396230  -0.020276   0.000175  -0.000032
    29  H    0.000000  -0.005978  -0.028897   0.319770  -0.000220  -0.000179
    30  H    0.000000   0.003097  -0.017143   0.377816  -0.000002  -0.000004
    31  H    0.000000   0.000900  -0.032041   0.360918   0.000001  -0.000006
              19         20         21         22         23         24
     1  O   -0.000273  -0.000002  -0.000082   0.000000   0.000000  -0.000004
     2  C   -0.000250   0.000157   0.000514   0.000002   0.000000   0.000161
     3  N    0.000316   0.005040   0.004419   0.000013  -0.000001   0.001142
     4  C    0.011472  -0.057880  -0.019049   0.000012   0.000003   0.001073
     5  C   -0.053382   0.001195   0.004686  -0.000003   0.000019  -0.006486
     6  O    0.312620   0.006683  -0.000288   0.000000   0.000000   0.000268
     7  O    0.004628  -0.000924  -0.000277   0.000001  -0.000054   0.038066
     8  C    0.000143   0.394958   0.393524  -0.000093  -0.000311   0.005800
     9  C    0.000305  -0.033728  -0.035751  -0.058292   0.005537  -0.028842
    10  C   -0.000001  -0.003040  -0.004499   0.441661   0.003591   0.002593
    11  N    0.000000  -0.000154   0.000341  -0.018528  -0.016025   0.004402
    12  C    0.000007   0.000390  -0.000260   0.005947   0.428191  -0.024109
    13  N   -0.000014   0.002613   0.002268   0.004399  -0.038335   0.368411
    14  C   -0.000002   0.000017   0.000024   0.000000   0.000000   0.000003
    15  C    0.000002   0.000000   0.000009   0.000000   0.000000  -0.000012
    16  N    0.000000   0.000000   0.000000   0.000000   0.000000   0.000000
    17  H   -0.000135   0.000429  -0.001710   0.000050  -0.000058  -0.000208
    18  H    0.001963  -0.003069  -0.011148  -0.000010  -0.000001   0.000386
    19  H    0.493086   0.002955  -0.000176  -0.000001   0.000000  -0.000239
    20  H    0.002955   0.678836  -0.036431   0.000110   0.000010  -0.000866
    21  H   -0.000176  -0.036431   0.667820   0.001568   0.000020  -0.000030
    22  H   -0.000001   0.000110   0.001568   0.599047  -0.000378  -0.000384
    23  H    0.000000   0.000010   0.000020  -0.000378   0.584337  -0.001711
    24  H   -0.000239  -0.000866  -0.000030  -0.000384  -0.001711   0.501784
    25  H    0.000001  -0.000004   0.000006   0.000000   0.000003  -0.000009
    26  H    0.000000  -0.000003  -0.000025   0.000000   0.000000   0.000004
    27  H    0.000000   0.000000   0.000000   0.000000   0.000000   0.000000
    28  H   -0.000002   0.000000  -0.000001   0.000000   0.000000   0.000005
    29  H    0.000000   0.000000  -0.000001   0.000000   0.000000   0.000000
    30  H    0.000000   0.000000   0.000000   0.000000   0.000000   0.000000
    31  H    0.000000   0.000000   0.000000   0.000000   0.000000   0.000000
              25         26         27         28         29         30
     1  O    0.003233   0.001803   0.000051   0.000521   0.081308   0.000448
     2  C   -0.018459  -0.028372   0.004320   0.000403  -0.012801  -0.000019
     3  N   -0.001928   0.000775  -0.000226   0.001001   0.001803   0.000000
     4  C    0.000188  -0.000374   0.000011  -0.000206   0.000082   0.000000
     5  C   -0.000111  -0.000017   0.000000   0.000174  -0.000035   0.000000
     6  O    0.000001   0.000000   0.000000   0.000001   0.000001   0.000000
     7  O    0.000004   0.000004  -0.000002   0.000358   0.000005   0.000000
     8  C   -0.000136   0.000019   0.000000   0.000007   0.000003   0.000000
     9  C    0.000024   0.000017   0.000000  -0.000003   0.000001   0.000000
    10  C    0.000009   0.000002   0.000000   0.000000   0.000000   0.000000
    11  N    0.000003   0.000000   0.000000   0.000000   0.000000   0.000000
    12  C    0.000051  -0.000001   0.000000   0.000000   0.000000   0.000000
    13  N   -0.000020  -0.000005   0.000000   0.000000   0.000000   0.000000
    14  C    0.397211   0.392993  -0.034961  -0.031834  -0.005978   0.003097
    15  C   -0.026273  -0.046821   0.435580   0.396230  -0.028897  -0.017143
    16  N    0.003335  -0.001072  -0.027288  -0.020276   0.319770   0.377816
    17  H    0.001080   0.000355  -0.000043   0.000175  -0.000220  -0.000002
    18  H   -0.000310  -0.000032   0.000003  -0.000032  -0.000179  -0.000004
    19  H    0.000001   0.000000   0.000000  -0.000002   0.000000   0.000000
    20  H   -0.000004  -0.000003   0.000000   0.000000   0.000000   0.000000
    21  H    0.000006  -0.000025   0.000000  -0.000001  -0.000001   0.000000
    22  H    0.000000   0.000000   0.000000   0.000000   0.000000   0.000000
    23  H    0.000003   0.000000   0.000000   0.000000   0.000000   0.000000
    24  H   -0.000009   0.000004   0.000000   0.000005   0.000000   0.000000
    25  H    0.623335  -0.028482  -0.004031  -0.001631   0.000313  -0.000227
    26  H   -0.028482   0.637681  -0.003972   0.006610   0.000943   0.000055
    27  H   -0.004031  -0.003972   0.590418  -0.034734   0.005048  -0.001462
    28  H   -0.001631   0.006610  -0.034734   0.601626  -0.001717  -0.004494
    29  H    0.000313   0.000943   0.005048  -0.001717   0.518796  -0.017909
    30  H   -0.000227   0.000055  -0.001462  -0.004494  -0.017909   0.551386
    31  H   -0.000058   0.003352  -0.007027   0.005663  -0.020221  -0.026988
              31
     1  O    0.001101
     2  C    0.000147
     3  N    0.000068
     4  C    0.000000
     5  C   -0.000001
     6  O    0.000000
     7  O    0.000000
     8  C    0.000000
     9  C    0.000000
    10  C    0.000000
    11  N    0.000000
    12  C    0.000000
    13  N    0.000000
    14  C    0.000900
    15  C   -0.032041
    16  N    0.360918
    17  H    0.000001
    18  H   -0.000006
    19  H    0.000000
    20  H    0.000000
    21  H    0.000000
    22  H    0.000000
    23  H    0.000000
    24  H    0.000000
    25  H   -0.000058
    26  H    0.003352
    27  H   -0.007027
    28  H    0.005663
    29  H   -0.020221
    30  H   -0.026988
    31  H    0.565691
 Mulliken charges:
               1
     1  O   -0.470029
     2  C    0.512575
     3  N   -0.258355
     4  C   -0.023356
     5  C    0.554682
     6  O   -0.296156
     7  O   -0.379099
     8  C    0.036880
     9  C    0.035386
    10  C    0.113646
    11  N   -0.338851
    12  C    0.235365
    13  N   -0.257749
    14  C   -0.079443
    15  C    0.095710
    16  N    0.132965
    17  H    0.119720
    18  H    0.041296
    19  H    0.226978
    20  H    0.042708
    21  H    0.034529
    22  H    0.024881
    23  H    0.035162
    24  H    0.138801
    25  H    0.052882
    26  H    0.064564
    27  H    0.078316
    28  H    0.082158
    29  H    0.159885
    30  H    0.135445
    31  H    0.148501
 Sum of Mulliken charges =   1.00000
 Mulliken charges with hydrogens summed into heavy atoms:
               1
     1  O   -0.470029
     2  C    0.512575
     3  N   -0.138634
     4  C    0.017940
     5  C    0.554682
     6  O   -0.069179
     7  O   -0.379099
     8  C    0.114117
     9  C    0.035386
    10  C    0.138528
    11  N   -0.338851
    12  C    0.270527
    13  N   -0.118947
    14  C    0.038003
    15  C    0.256185
    16  N    0.576797
 APT charges:
               1
     1  O   -0.175993
     2  C    0.162909
     3  N   -0.290691
     4  C   -0.272496
     5  C   -0.140246
     6  O   -0.099753
     7  O   -0.128220
     8  C   -0.805328
     9  C   -0.220710
    10  C   -0.609219
    11  N    0.673514
    12  C   -0.602546
    13  N   -0.406606
    14  C   -0.438864
    15  C   -0.501528
    16  N   -0.811370
    17  H    0.252295
    18  H    0.278704
    19  H    0.490946
    20  H    0.440335
    21  H    0.332302
    22  H    0.561546
    23  H    0.572218
    24  H    0.065542
    25  H    0.116054
    26  H    0.369583
    27  H    0.576755
    28  H    0.113249
    29  H    0.067777
    30  H    0.838192
    31  H    0.591649
 Sum of APT charges =   1.00000
 APT charges with hydrogens summed into heavy atoms:
               1
     1  O   -0.175993
     2  C    0.162909
     3  N   -0.038396
     4  C    0.006208
     5  C   -0.140246
     6  O    0.391193
     7  O   -0.128220
     8  C   -0.032691
     9  C   -0.220710
    10  C   -0.047673
    11  N    0.673514
    12  C   -0.030328
    13  N   -0.341064
    14  C    0.046773
    15  C    0.188476
    16  N    0.686247
 Electronic spatial extent (au):  <R**2>=           4390.4002
 Charge=              1.0000 electrons
 Dipole moment (field-independent basis, Debye):
    X=            -16.1229    Y=             -0.6555    Z=             -0.4885  Tot=             16.1436
 Quadrupole moment (field-independent basis, Debye-Ang):
   XX=            -26.3210   YY=            -74.9082   ZZ=            -98.0335
   XY=             21.4128   XZ=             -3.0177   YZ=              3.1276
 Traceless Quadrupole moment (field-independent basis, Debye-Ang):
   XX=             40.0999   YY=             -8.4873   ZZ=            -31.6126
   XY=             21.4128   XZ=             -3.0177   YZ=              3.1276
 Octapole moment (field-independent basis, Debye-Ang**2):
  XXX=           -532.2902  YYY=             -1.0454  ZZZ=             20.8898  XYY=            -40.2435
  XXY=            -39.8597  XXZ=            -55.0118  XZZ=            -85.1724  YZZ=              5.7926
  YYZ=            -16.9954  XYZ=             17.8367
 Hexadecapole moment (field-independent basis, Debye-Ang**3):
 XXXX=          -2436.5738 YYYY=           -715.0925 ZZZZ=          -1000.6049 XXXY=            216.5213
 XXXZ=           -297.2126 YYYX=              3.1186 YYYZ=            132.2273 ZZZX=           -212.5862
 ZZZY=            217.0801 XXYY=           -704.2015 XXZZ=           -790.5665 YYZZ=           -302.7598
 XXYZ=            160.8781 YYXZ=           -114.8327 ZZXY=             44.5603
 N-N= 1.154513790467D+03 E-N=-4.154658352598D+03  KE= 7.938157812451D+02
  Exact polarizability:   0.000   0.000   0.000   0.000   0.000   0.000
 Approx polarizability: 188.987 -20.091 213.716  18.935   0.421 187.707
 Calling FoFJK, ICntrl=    100147 FMM=F ISym2X=0 I1Cent= 0 IOpClX= 0 NMat=1 NMatS=1 NMatT=0.
 -------------------------------------------------------------------
 Center     Atomic                   Forces (Hartrees/Bohr)
 Number     Number              X              Y              Z
 -------------------------------------------------------------------
      1        8          -0.015420510   -0.004976327   -0.003749663
      2        6           0.016313063   -0.000481832    0.004054104
      3        7          -0.009738809   -0.000018026   -0.007665472
      4        6          -0.000089495    0.007961956    0.007190743
      5        6           0.003962339   -0.003543343   -0.014706848
      6        8          -0.002226071   -0.007298675    0.006784107
      7        8          -0.003670327    0.005256539    0.006515726
      8        6           0.005581181   -0.000884352    0.003422374
      9        6          -0.005850973    0.010200740    0.001267162
     10        6           0.003422638   -0.004377943    0.007168579
     11        7          -0.003023313    0.005016528   -0.003765283
     12        6           0.004641773   -0.005628343    0.005888153
     13        7          -0.002196190   -0.004839384   -0.011816538
     14        6           0.001585592    0.005741958    0.003058890
     15        6           0.016728567   -0.020071632   -0.000736645
     16        7          -0.006835695    0.003283676   -0.001077291
     17        1           0.000637186   -0.001433401    0.001888517
     18        1           0.001756158   -0.001048069    0.000119228
     19        1           0.000037700    0.004590220   -0.001658660
     20        1          -0.001560715   -0.000480841    0.000098270
     21        1           0.000672340   -0.000043364   -0.002090826
     22        1          -0.000748055   -0.000991222   -0.002175467
     23        1           0.000739100   -0.000978207   -0.000131322
     24        1           0.001866341    0.000896990    0.002303851
     25        1          -0.005465468   -0.001226702   -0.000517882
     26        1           0.001892773   -0.001224913    0.001640960
     27        1          -0.002531083    0.003740746   -0.001382101
     28        1          -0.004939277    0.003688252    0.000258818
     29        1           0.008782290    0.009902641   -0.000929166
     30        1          -0.001618986   -0.000674801    0.000952960
     31        1          -0.002704073   -0.000058870   -0.000209275
 -------------------------------------------------------------------
 Cartesian Forces:  Max     0.020071632 RMS     0.005644893
 FormGI is forming the generalized inverse of G from B-inverse, IUseBI=4.
 GSVD:  received Info=                   1 from GESDD.

 GradGradGradGradGradGradGradGradGradGradGradGradGradGradGradGradGradGrad
 Berny optimization.
 Internal  Forces:  Max     0.021635492 RMS     0.004440150
 Search for a local minimum.
 Step number   1 out of a maximum of  167
 All quantities printed in internal units (Hartrees-Bohrs-Radians)
 Mixed Optimization -- RFO/linear search
 Second derivative matrix not updated -- analytic derivatives used.
 ITU=  0
     Eigenvalues ---   -0.00330   0.00096   0.00242   0.00288   0.00328
     Eigenvalues ---    0.00524   0.00660   0.00821   0.00995   0.01161
     Eigenvalues ---    0.01577   0.01736   0.02081   0.02717   0.03260
     Eigenvalues ---    0.03816   0.03923   0.04047   0.04165   0.04290
     Eigenvalues ---    0.04662   0.04884   0.04975   0.05267   0.05464
     Eigenvalues ---    0.05530   0.05798   0.05865   0.06230   0.07633
     Eigenvalues ---    0.08105   0.08110   0.10665   0.10793   0.11166
     Eigenvalues ---    0.11675   0.12041   0.12454   0.12685   0.13010
     Eigenvalues ---    0.14481   0.14981   0.15596   0.16740   0.17628
     Eigenvalues ---    0.19970   0.20398   0.21514   0.22001   0.22328
     Eigenvalues ---    0.22771   0.22984   0.24060   0.24562   0.25320
     Eigenvalues ---    0.26424   0.28576   0.31238   0.31639   0.31801
     Eigenvalues ---    0.32335   0.33111   0.33199   0.33491   0.33559
     Eigenvalues ---    0.33800   0.33984   0.34251   0.36089   0.36361
     Eigenvalues ---    0.37164   0.39240   0.40539   0.41356   0.43292
     Eigenvalues ---    0.43750   0.44214   0.44726   0.45017   0.46967
     Eigenvalues ---    0.47530   0.52809   0.52891   0.54679   0.58197
     Eigenvalues ---    0.78119   0.85760
 RFO step:  Lambda=-1.40555322D-02 EMin=-3.29938529D-03
 Linear search not attempted -- first point.
 Iteration  1 RMS(Cart)=  0.18181716 RMS(Int)=  0.02522208
 Iteration  2 RMS(Cart)=  0.10786375 RMS(Int)=  0.00243446
 Iteration  3 RMS(Cart)=  0.00640975 RMS(Int)=  0.00041041
 Iteration  4 RMS(Cart)=  0.00001108 RMS(Int)=  0.00041039
 Iteration  5 RMS(Cart)=  0.00000001 RMS(Int)=  0.00041039
 Variable       Old X    -DE/DX   Delta X   Delta X   Delta X     New X
                                 (Linear)    (Quad)   (Total)
    R1        2.32517   0.00511   0.00000   0.02579   0.02579   2.35096
    R2        2.54864  -0.00586   0.00000  -0.04068  -0.04068   2.50795
    R3        2.87324  -0.00447   0.00000  -0.00329  -0.00329   2.86994
    R4        2.73352   0.00284   0.00000   0.00871   0.00871   2.74223
    R5        1.90167   0.00193   0.00000   0.00672   0.00672   1.90839
    R6        2.87958   0.00268   0.00000   0.02223   0.02223   2.90181
    R7        2.91309   0.00266   0.00000   0.00006   0.00006   2.91315
    R8        2.06321  -0.00188   0.00000  -0.00373  -0.00373   2.05948
    R9        2.54561  -0.00540   0.00000  -0.02410  -0.02410   2.52151
   R10        2.27910  -0.00778   0.00000  -0.00809  -0.00809   2.27101
   R11        1.81893   0.00281   0.00000   0.00490   0.00490   1.82383
   R12        2.83385  -0.00030   0.00000  -0.00769  -0.00769   2.82617
   R13        2.07065  -0.00125   0.00000  -0.00371  -0.00371   2.06694
   R14        2.06359  -0.00200   0.00000  -0.00582  -0.00582   2.05777
   R15        2.57966   0.00414   0.00000   0.01012   0.01012   2.58978
   R16        2.59662   0.01090   0.00000   0.02598   0.02600   2.62262
   R17        2.60917  -0.00333   0.00000  -0.01675  -0.01676   2.59242
   R18        2.04207  -0.00244   0.00000  -0.00600  -0.00600   2.03607
   R19        2.47991  -0.00204   0.00000  -0.00582  -0.00583   2.47407
   R20        2.56339   0.00697   0.00000   0.01443   0.01443   2.57783
   R21        2.03297   0.00108   0.00000   0.00249   0.00249   2.03546
   R22        1.91531  -0.00289   0.00000  -0.00955  -0.00955   1.90576
   R23        2.87758  -0.00311   0.00000   0.01011   0.01011   2.88769
   R24        2.06259  -0.00279   0.00000  -0.00734  -0.00734   2.05526
   R25        2.06576   0.00051   0.00000  -0.00055  -0.00055   2.06521
   R26        2.79954   0.01059   0.00000   0.04257   0.04257   2.84211
   R27        2.06215  -0.00261   0.00000  -0.00965  -0.00965   2.05250
   R28        2.06461  -0.00269   0.00000  -0.00813  -0.00813   2.05648
   R29        1.94663   0.01292   0.00000   0.06625   0.06625   2.01288
   R30        1.92637   0.00040   0.00000  -0.00265  -0.00265   1.92372
   R31        1.92612   0.00122   0.00000  -0.00083  -0.00083   1.92529
    A1        2.12299   0.01404   0.00000   0.01203   0.01153   2.13452
    A2        2.13353  -0.02105   0.00000  -0.05704  -0.05751   2.07602
    A3        2.02595   0.00707   0.00000   0.04705   0.04657   2.07252
    A4        2.09337   0.00853   0.00000   0.01416   0.01327   2.10664
    A5        2.10688  -0.00497   0.00000  -0.02486  -0.02571   2.08117
    A6        2.04243  -0.00313   0.00000  -0.01084  -0.01183   2.03059
    A7        1.95910  -0.00552   0.00000  -0.04975  -0.04962   1.90948
    A8        1.93291  -0.00017   0.00000  -0.01338  -0.01337   1.91954
    A9        1.85108   0.00226   0.00000   0.03188   0.03181   1.88289
   A10        1.93145   0.00428   0.00000   0.02553   0.02487   1.95632
   A11        1.88111   0.00004   0.00000  -0.00673  -0.00674   1.87437
   A12        1.90506  -0.00092   0.00000   0.01436   0.01425   1.91931
   A13        2.01129   0.00307   0.00000   0.01631   0.01622   2.02750
   A14        2.17330  -0.00643   0.00000  -0.03191  -0.03200   2.14130
   A15        2.09734   0.00342   0.00000   0.01675   0.01667   2.11401
   A16        1.91796   0.00718   0.00000   0.04143   0.04143   1.95939
   A17        1.99040   0.00183   0.00000   0.00528   0.00528   1.99568
   A18        1.89661  -0.00016   0.00000  -0.00575  -0.00579   1.89082
   A19        1.89010  -0.00176   0.00000  -0.00603  -0.00605   1.88405
   A20        1.93593  -0.00009   0.00000   0.00875   0.00875   1.94468
   A21        1.88151  -0.00003   0.00000   0.00019   0.00020   1.88171
   A22        1.86464   0.00006   0.00000  -0.00327  -0.00331   1.86133
   A23        2.28746  -0.00252   0.00000  -0.01366  -0.01374   2.27373
   A24        2.16183   0.00498   0.00000   0.02096   0.02088   2.18271
   A25        1.83367  -0.00246   0.00000  -0.00690  -0.00693   1.82675
   A26        1.93296   0.00087   0.00000   0.00311   0.00312   1.93608
   A27        2.23420  -0.00097   0.00000  -0.00893  -0.00894   2.22526
   A28        2.11602   0.00010   0.00000   0.00583   0.00582   2.12185
   A29        1.83003   0.00494   0.00000   0.01303   0.01302   1.84305
   A30        1.95339  -0.00151   0.00000  -0.00369  -0.00369   1.94971
   A31        2.20063   0.00022   0.00000   0.00011   0.00010   2.20073
   A32        2.12911   0.00129   0.00000   0.00361   0.00361   2.13272
   A33        1.87463  -0.00185   0.00000  -0.00554  -0.00553   1.86909
   A34        2.20875   0.00067   0.00000   0.00113   0.00109   2.20984
   A35        2.19879   0.00115   0.00000   0.00496   0.00492   2.20371
   A36        1.95049  -0.02164   0.00000  -0.06822  -0.06803   1.88246
   A37        1.91659   0.01243   0.00000   0.05151   0.05092   1.96751
   A38        1.87574   0.00387   0.00000   0.01303   0.01273   1.88847
   A39        1.93018   0.00297   0.00000  -0.00639  -0.00563   1.92455
   A40        1.90890   0.00655   0.00000   0.01761   0.01763   1.92654
   A41        1.87976  -0.00355   0.00000  -0.00490  -0.00546   1.87430
   A42        1.93147  -0.01484   0.00000  -0.05140  -0.05172   1.87976
   A43        1.92055   0.00648   0.00000   0.04879   0.04848   1.96903
   A44        1.91103   0.00701   0.00000   0.01584   0.01314   1.92417
   A45        1.91782   0.00451   0.00000   0.00753   0.00856   1.92638
   A46        1.90696  -0.00125   0.00000  -0.04226  -0.04265   1.86431
   A47        1.87509  -0.00149   0.00000   0.02320   0.02233   1.89742
   A48        1.86452  -0.00411   0.00000  -0.06949  -0.06951   1.79501
   A49        1.96649   0.00077   0.00000   0.00566   0.00561   1.97210
   A50        1.93996   0.00229   0.00000   0.01434   0.01433   1.95429
   A51        1.91026   0.00200   0.00000   0.04291   0.04286   1.95312
   A52        1.87251   0.00111   0.00000   0.01946   0.01947   1.89198
   A53        1.90722  -0.00202   0.00000  -0.01200  -0.01204   1.89518
    D1       -0.15520   0.00202   0.00000  -0.00222  -0.00126  -0.15646
    D2       -2.98595   0.00099   0.00000   0.08004   0.08051  -2.90544
    D3        3.02611   0.00087   0.00000  -0.05772  -0.05819   2.96792
    D4        0.19536  -0.00016   0.00000   0.02454   0.02358   0.21894
    D5        0.78388  -0.00211   0.00000  -0.01412  -0.01315   0.77073
    D6        2.93257  -0.00441   0.00000  -0.03274  -0.03296   2.89962
    D7       -1.31055   0.00020   0.00000  -0.00363  -0.00289  -1.31344
    D8       -2.39769  -0.00007   0.00000   0.04348   0.04346  -2.35423
    D9       -0.24900  -0.00237   0.00000   0.02486   0.02365  -0.22535
   D10        1.79107   0.00224   0.00000   0.05397   0.05372   1.84478
   D11       -1.53724   0.00189   0.00000   0.34700   0.34762  -1.18963
   D12        2.57752   0.00047   0.00000   0.36034   0.36010   2.93762
   D13        0.51276   0.00035   0.00000   0.33164   0.33146   0.84422
   D14        1.30470   0.00246   0.00000   0.26504   0.26552   1.57022
   D15       -0.86372   0.00105   0.00000   0.27837   0.27800  -0.58572
   D16       -2.92848   0.00092   0.00000   0.24967   0.24936  -2.67912
   D17        2.73613  -0.00008   0.00000   0.05105   0.05139   2.78752
   D18       -0.45943   0.00122   0.00000   0.07639   0.07654  -0.38289
   D19       -1.37783  -0.00114   0.00000   0.01618   0.01624  -1.36159
   D20        1.70980   0.00017   0.00000   0.04151   0.04138   1.75118
   D21        0.70410   0.00024   0.00000   0.04431   0.04419   0.74829
   D22       -2.49146   0.00155   0.00000   0.06964   0.06933  -2.42212
   D23        0.83194  -0.00239   0.00000  -0.02159  -0.02166   0.81028
   D24        3.00125  -0.00133   0.00000  -0.01082  -0.01092   2.99033
   D25       -1.26256  -0.00229   0.00000  -0.02094  -0.02100  -1.28356
   D26       -1.35218   0.00174   0.00000   0.03390   0.03412  -1.31806
   D27        0.81713   0.00280   0.00000   0.04467   0.04487   0.86200
   D28        2.83651   0.00185   0.00000   0.03455   0.03478   2.87129
   D29        2.86358  -0.00030   0.00000   0.01798   0.01784   2.88142
   D30       -1.25029   0.00076   0.00000   0.02875   0.02859  -1.22170
   D31        0.76909  -0.00020   0.00000   0.01863   0.01850   0.78759
   D32       -0.05788  -0.00004   0.00000  -0.00254  -0.00224  -0.06013
   D33        3.13513  -0.00095   0.00000  -0.02504  -0.02534   3.10980
   D34       -2.49695   0.00197   0.00000   0.04881   0.04880  -2.44815
   D35        0.61836   0.00238   0.00000   0.07252   0.07257   0.69092
   D36        1.63816   0.00089   0.00000   0.04565   0.04560   1.68377
   D37       -1.52972   0.00130   0.00000   0.06936   0.06937  -1.46035
   D38       -0.39763   0.00089   0.00000   0.04465   0.04462  -0.35301
   D39        2.71768   0.00130   0.00000   0.06836   0.06839   2.78607
   D40        3.12421   0.00061   0.00000   0.02548   0.02521  -3.13377
   D41       -0.01420   0.00035   0.00000   0.01912   0.01895   0.00475
   D42        0.00522   0.00017   0.00000   0.00473   0.00473   0.00995
   D43       -3.13319  -0.00010   0.00000  -0.00162  -0.00153  -3.13472
   D44       -3.13237  -0.00027   0.00000  -0.02034  -0.02056   3.13026
   D45        0.05548   0.00024   0.00000  -0.03297  -0.03312   0.02236
   D46       -0.01130   0.00002   0.00000  -0.00203  -0.00202  -0.01332
   D47       -3.10664   0.00053   0.00000  -0.01467  -0.01458  -3.12122
   D48        0.00308  -0.00026   0.00000  -0.00551  -0.00557  -0.00249
   D49       -3.14145  -0.00002   0.00000   0.00031   0.00023  -3.14122
   D50       -0.01059   0.00026   0.00000   0.00411   0.00415  -0.00644
   D51       -3.14110  -0.00030   0.00000   0.00141   0.00142  -3.13967
   D52        0.01420  -0.00020   0.00000  -0.00143  -0.00142   0.01278
   D53        3.10987  -0.00072   0.00000   0.01099   0.01095   3.12082
   D54       -3.13795   0.00033   0.00000   0.00113   0.00116  -3.13680
   D55       -0.04228  -0.00020   0.00000   0.01355   0.01353  -0.02875
   D56       -1.07612   0.00622   0.00000   0.07294   0.07306  -1.00306
   D57        3.08416   0.00603   0.00000   0.06487   0.06569  -3.13334
   D58        1.02697  -0.00021   0.00000  -0.00185  -0.00204   1.02493
   D59        3.06610   0.00331   0.00000   0.05919   0.05881   3.12491
   D60        0.94320   0.00312   0.00000   0.05113   0.05144   0.99463
   D61       -1.11400  -0.00311   0.00000  -0.01560  -0.01629  -1.13029
   D62        0.99873   0.00184   0.00000   0.05817   0.05805   1.05679
   D63       -1.12417   0.00164   0.00000   0.05011   0.05068  -1.07349
   D64        3.10182  -0.00459   0.00000  -0.01661  -0.01704   3.08477
   D65        0.80189  -0.00110   0.00000  -0.06096  -0.06038   0.74151
   D66        2.90017  -0.00088   0.00000  -0.05043  -0.04983   2.85034
   D67       -1.23557  -0.00125   0.00000  -0.05122  -0.05062  -1.28618
   D68        2.92641   0.00028   0.00000  -0.02854  -0.02842   2.89798
   D69       -1.25850   0.00050   0.00000  -0.01801  -0.01787  -1.27637
   D70        0.88895   0.00013   0.00000  -0.01881  -0.01866   0.87029
   D71       -1.30362   0.00036   0.00000  -0.02098  -0.02173  -1.32535
   D72        0.79466   0.00058   0.00000  -0.01045  -0.01118   0.78348
   D73        2.94211   0.00021   0.00000  -0.01125  -0.01196   2.93014
         Item               Value     Threshold  Converged?
 Maximum Force            0.021635     0.000450     NO 
 RMS     Force            0.004440     0.000300     NO 
 Maximum Displacement     1.060764     0.001800     NO 
 RMS     Displacement     0.274299     0.001200     NO 
 Predicted change in Energy=-1.016061D-02
 GradGradGradGradGradGradGradGradGradGradGradGradGradGradGradGradGradGrad

                          Input orientation:                          
 ---------------------------------------------------------------------
 Center     Atomic      Atomic             Coordinates (Angstroms)
 Number     Number       Type             X           Y           Z
 ---------------------------------------------------------------------
      1          8           0       -2.142389    1.059244   -0.320527
      2          6           0       -1.480840    0.241841    0.344249
      3          7           0       -0.181945    0.396267    0.568648
      4          6           0        0.570199    1.431548   -0.115629
      5          6           0        0.661588    1.092256   -1.610456
      6          8           0        0.938736    2.109092   -2.428780
      7          8           0        0.524292   -0.024734   -2.032036
[...]
 463,-0.00001235,-0.00003008,0.00000999,0.00002137,0.00008053,-0.102559
 29,0.07856059,-0.21134423,-0.00996498,0.00820502,-0.01835814,-0.000986
 99,-0.00401556,-0.00258786,0.00111849,0.00022884,-0.00018872,-0.000049
 46,-0.00009253,0.00007750,-0.00001920,0.00002962,-0.00002941,-0.000020
 11,-0.00001218,0.00000222,0.00001595,0.00000029,0.00000042,0.00004047,
 0.00001442,0.00003484,0.00000448,-0.00000181,0.00000039,-0.00000425,0.
 00000878,-0.00001932,0.11413320,-0.08304189,0.22922708,0.00334555,0.00
 116252,-0.00180805,-0.01836247,0.00434968,0.00297480,-0.00043719,-0.00
 271666,0.00249130,-0.00023195,-0.00032403,-0.00073868,-0.00015835,-0.0
 0010881,-0.00025545,0.00002475,0.00001164,0.00011609,0.00019623,0.0001
 3556,0.00012215,-0.00004175,-0.00016159,0.00021301,0.00000546,-0.00000
 711,-0.00005829,-0.00004241,-0.00002035,0.00003255,-0.00002021,0.00001
 151,0.00000336,0.00000784,0.00001469,0.00000054,0.00000485,0.00000212,
 0.00001467,-0.27433988,0.06981836,0.07251875,0.00564951,-0.00193061,-0
 .00226609,0.00051500,-0.00030165,0.00064559,0.00077849,0.00003537,0.00
 021440,-0.00019977,-0.00010725,0.00014592,-0.00000961,0.00003549,-0.00
 004189,-0.00009228,0.00002410,-0.00001424,0.00001893,0.00000779,0.0000
 0197,0.00002498,0.00000858,0.00002090,-0.00000257,-0.00000026,0.000001
 14,-0.00000109,-0.00000368,-0.00001323,-0.01262326,0.00322835,0.004410
 85,0.29417044,0.00153462,0.00089391,-0.00243308,-0.02835591,0.00800382
 ,0.00892505,-0.00173624,-0.00438544,0.00257104,-0.00089943,-0.00041822
 ,-0.00096166,-0.00014497,-0.00019086,-0.00038126,0.00003410,0.00005823
 ,0.00011573,0.00018649,0.00026244,0.00018211,-0.00006491,-0.00030832,0
 .00033543,0.00000291,-0.00000045,-0.00001817,-0.00001498,-0.00004204,0
 .00003989,0.00001583,0.00006979,0.00001222,-0.00000442,0.00004809,0.00
 002134,0.00001103,-0.00001932,-0.00004550,0.07035288,-0.06660068,-0.01
 951982,0.02321741,-0.01099899,-0.00845640,-0.00041655,0.00047144,0.000
 73968,0.00034366,-0.00014805,0.00044627,-0.00014107,-0.00009653,0.0001
 0388,-0.00000270,0.00003541,-0.00005264,-0.00015699,0.00004399,-0.0000
 2411,0.00002162,0.00000924,0.00000406,-0.00000599,-0.00000527,0.000005
 32,-0.00001157,0.00000202,0.00000003,-0.00000744,-0.00001509,-0.000008
 91,0.00975296,-0.00290517,-0.00363065,-0.07240381,0.07735185,-0.001368
 32,-0.00009500,0.00094920,0.01246022,-0.00390052,-0.00406800,0.0000185
 5,0.00178008,-0.00035614,0.00032025,-0.00006545,0.00041165,0.00007526,
 -0.00003350,0.00006014,-0.00001338,0.00000791,-0.00001766,-0.00013419,
 0.00000191,-0.00003845,0.00001999,0.00013388,-0.00010858,-0.00001541,0
 .00000195,-0.00004550,-0.00003719,-0.00000545,-0.00001335,-0.00001299,
 -0.00002589,-0.00000030,0.00000283,-0.00001488,0.00000258,0.00000216,0
 .00001748,0.00005929,0.06917407,-0.01919115,-0.07321370,0.02133631,-0.
 00881540,-0.00884902,0.00051296,-0.00038773,0.00124926,0.00030200,0.00
 000121,-0.00026165,0.00003407,0.00001994,0.00002379,0.00001613,-0.0000
 0093,0.00000339,0.00004412,-0.00001779,0.00000766,-0.00001237,0.000001
 50,0.00000009,0.00003796,0.00001780,0.00002021,-0.00000389,-0.00000067
 ,0.00000327,-0.00000057,0.00000141,-0.00000175,-0.02352970,0.00620819,
 0.00953662,-0.07835177,0.02554853,0.07619211,0.00006416,-0.00016072,0.
 00020749,0.00033277,0.00088185,-0.00016355,0.00035431,-0.00017445,-0.0
 0034643,0.00013276,0.00008627,-0.00001677,0.00003343,-0.00001973,-0.00
 013367,-0.00002137,-0.00002117,0.00007909,0.00053214,0.00005396,0.0002
 2564,0.00002614,0.00001622,0.00001027,-0.00002146,0.00002833,-0.000031
 37,-0.00003640,-0.00001690,0.00003968,-0.00001610,0.00000563,-0.000012
 72,0.00002800,-0.00003411,-0.00000090,-0.00001744,0.00001246,-0.000017
 47,0.00069442,0.00122752,0.00037307,-0.20210578,-0.13218037,0.04754306
 ,0.00928202,0.00949019,-0.00629124,0.00012131,0.00009616,0.00020751,-0
 .00002050,-0.00002272,0.00002407,-0.00001330,0.00001708,-0.00001586,-0
 .00000508,-0.00000062,0.00000357,0.00000720,0.00000261,-0.00000106,0.0
 0001014,-0.00000195,0.00000895,0.00000174,-0.00000635,0.00000117,0.000
 01403,0.00000352,-0.00001439,-0.00005173,-0.00024959,-0.00018797,0.001
 14900,0.00031109,-0.00030546,0.20701388,0.00020246,0.00013401,0.000771
 65,0.00038745,-0.00079509,-0.00467615,-0.00067578,-0.00035496,0.000577
 72,-0.00000932,0.00034699,0.00017782,-0.00017370,-0.00020770,-0.000178
 29,0.00002033,0.00005146,0.00009988,-0.00024938,0.00012624,0.00003902,
 0.00002305,-0.00005552,0.00006332,-0.00000306,-0.00002553,0.00000386,0
 .00000767,-0.00002593,-0.00000293,0.00002036,0.00004492,0.00000721,-0.
 00001463,0.00003681,0.00002808,0.00000732,-0.00000630,-0.00001962,-0.0
 1546772,-0.01664444,0.00231536,-0.12658688,-0.16320720,0.04252332,-0.0
 0784632,-0.00838253,0.00527813,-0.00000019,-0.00021451,-0.00010328,0.0
 0002116,0.00001413,-0.00001249,0.00002279,0.00002089,-0.00003061,-0.00
 003105,0.00001038,-0.00000719,0.00000489,0.00000946,-0.00000110,-0.000
 00048,-0.00000342,0.00000610,-0.00000631,0.00000385,-0.00000022,-0.000
 00294,-0.00001182,0.00000129,-0.00004981,0.00008985,-0.00023520,0.0002
 8069,0.00102291,0.00100596,0.13845560,0.17529707,0.00038440,-0.0005536
 5,0.00200063,0.00049245,-0.00060063,-0.00613315,-0.00089219,-0.0007272
 4,0.00082006,0.00003657,0.00062279,-0.00001996,-0.00043591,-0.00106199
 ,-0.00038435,0.00018153,0.00029434,0.00005518,0.00125980,0.00093651,0.
 00039592,-0.00001168,-0.00003770,0.00012775,-0.00002270,-0.00001579,-0
 .00006348,-0.00003980,-0.00003546,0.00003805,-0.00001207,0.00001795,0.
 00001145,0.00000381,0.00004186,0.00000507,0.00001333,-0.00000572,0.000
 00183,-0.01620105,-0.01871143,0.00657474,0.03790359,0.03607470,-0.0604
 0903,0.02382775,0.02390356,-0.01814877,0.00011795,-0.00013543,0.000054
 18,0.00002003,-0.00001387,0.00006421,-0.00001549,0.00003082,-0.0000693
 4,-0.00006332,0.00000332,-0.00000737,0.00003287,0.00000659,0.00000490,
 0.00001494,-0.00000310,0.00001606,0.00000077,0.00000037,0.00000035,-0.
 00001697,-0.00000018,-0.00001338,0.00002922,0.00082351,0.00012264,0.00
 020840,0.00062630,0.00122434,-0.04641125,-0.04440574,0.07577900,-0.000
 02829,-0.00011308,0.00024512,0.00076731,0.00017944,-0.00019237,0.00011
 585,0.00016810,-0.00004549,-0.00003341,0.00003629,0.00002482,0.0000496
 7,-0.00007861,-0.00001290,0.00001925,0.00008160,-0.00005106,0.00021050
 ,0.00015808,0.00011914,0.00001616,-0.00004369,0.00000143,-0.00002493,0
 .00000025,0.00002205,0.00003730,-0.00010006,-0.00007470,0.00014764,0.0
 0007014,-0.00008062,-0.00006982,0.00006018,0.00021110,-0.00000754,-0.0
 0004293,-0.00002624,0.00494692,-0.00267232,0.00043740,-0.25991826,0.11
 330528,0.02608821,-0.00334817,0.00272443,-0.00167993,-0.00003440,-0.00
 015281,-0.00017788,0.00000657,0.00001599,-0.00002107,-0.00000355,-0.00
 001135,0.00000435,-0.00000389,0.00000956,-0.00000817,-0.00000678,0.000
 00404,0.00000213,-0.00000379,0.00000728,-0.00000023,-0.00001674,0.0000
 1037,0.00000107,-0.00001049,0.00000341,0.00002427,0.00085939,0.0003509
 3,0.00050531,0.00101794,-0.00117723,-0.00075482,-0.01792589,0.01106135
 ,0.00252832,0.27278352,-0.00045837,-0.00014456,0.00015913,0.00282768,0
 .00083280,-0.00014387,-0.00083504,0.00037503,0.00039504,-0.00013003,-0
 .00001928,0.00001089,-0.00038777,-0.00092207,-0.00003375,0.00024457,0.
 00040738,-0.00026507,0.00008713,0.00085029,-0.00012396,-0.00007717,0.0
 0001194,0.00000297,0.00003637,-0.00008447,0.00003424,0.00008071,0.0000
 4626,-0.00007715,-0.00000031,-0.00003496,0.00004235,-0.00009529,0.0001
 1996,-0.00004727,0.00005111,-0.00004632,0.00007083,0.01902688,-0.01107
 725,-0.00444505,0.10838301,-0.11222942,-0.01407027,0.01307409,-0.00930
 142,0.00360800,-0.00038131,-0.00040054,-0.00049504,0.00005670,0.000052
 70,-0.00001190,0.00000508,-0.00003140,-0.00000519,0.00000260,-0.000002
 98,-0.00000589,0.00000990,-0.00000997,0.00000743,-0.00002579,-0.000002
 33,-0.00001868,0.00001553,0.00001075,-0.00000506,-0.00004680,0.0000056
 6,0.00002266,-0.00026983,0.00157907,0.00071779,-0.00111230,-0.00235670
 ,-0.00260004,-0.01854997,0.01261554,0.00126778,-0.12300306,0.11988387,
 0.00017750,-0.00024819,0.00102056,0.00092436,0.00167074,-0.00097537,-0
 .00033023,-0.00021329,0.00018777,-0.00013116,-0.00000525,-0.00004271,0
 .00021101,0.00023743,0.00009060,-0.00008729,-0.00013138,0.00005361,0.0
 0024525,-0.00038131,-0.00009647,0.00001325,-0.00005178,0.00000395,0.00
 001945,0.00000584,0.00009944,0.00010114,-0.00010946,-0.00006422,0.0001
 2590,0.00014824,-0.00003974,-0.00000198,-0.00008331,0.00017122,-0.0001
 0243,0.00007379,-0.00016596,0.01995376,-0.01200324,-0.00505413,0.03601
 244,-0.01867531,-0.05163246,-0.03136802,0.02408455,-0.00589866,-0.0001
 0139,-0.00029273,-0.00007607,-0.00000482,0.00001244,-0.00003061,-0.000
 01908,0.00000519,0.00000921,-0.00001054,0.00001598,-0.00000350,-0.0000
 0455,0.00000194,-0.00000075,-0.00002567,-0.00001931,-0.00001002,0.0000
 3253,-0.00000295,-0.00000355,0.00003212,0.00001430,0.00001081,0.000208
 18,0.00016869,0.00094577,-0.00134401,-0.00390863,-0.00224549,0.0058293
 9,-0.00432891,0.00050331,-0.02656209,0.01362322,0.06689623,0.00107784,
 0.00095484,0.00387845,-0.00469494,0.00204328,-0.00366988,0.00183907,-0
 .00028767,0.00023366,-0.00023261,-0.00044260,0.00016504,-0.00073837,-0
 .00100942,0.00037789,0.00016927,0.00030609,-0.00043754,0.00049091,-0.0
 0032138,-0.00009610,-0.00014379,0.00007575,-0.00003135,0.00006602,-0.0
 0000858,0.00003492,0.00006418,0.00006502,-0.00006900,0.00002663,-0.000
 07715,0.00000797,-0.00001781,-0.00000143,-0.00002761,0.00004290,-0.000
 00298,0.00006639,0.00125829,-0.00047743,-0.00056011,-0.00472609,0.0039
 8036,-0.00195886,-0.17933718,0.15929448,0.02212692,-0.00008403,0.00009
 531,-0.00025268,-0.00003532,0.00003502,-0.00002743,-0.00006463,-0.0001
 0810,0.00007395,0.00003769,-0.00002175,-0.00001257,0.00000866,-0.00002
 635,0.00000417,-0.00002580,0.00000157,-0.00002550,-0.00000563,0.000002
 07,-0.00000008,-0.00005864,0.00001554,0.00002539,-0.00015371,0.0000626
 0,0.00037821,-0.00022110,-0.00013839,0.00005945,0.00039435,-0.00067279
 ,0.00048949,0.00071192,0.00038619,-0.00140253,0.18890327,0.00582178,-0
 .00424304,0.00652248,-0.00657732,0.00883485,-0.00730043,0.00416772,-0.
 00152432,0.00140063,-0.00064881,-0.00075817,0.00054281,0.00016318,0.00
 192164,0.00089149,-0.00026721,-0.00081607,0.00000388,-0.00223079,-0.00
 258415,-0.00071169,-0.00010700,0.00001240,-0.00012440,0.00011002,0.000
 00429,0.00012301,0.00008436,0.00011321,-0.00007916,-0.00000544,-0.0001
 1408,-0.00005024,-0.00000188,-0.00010742,-0.00002369,-0.00003262,0.000
 02547,0.00001382,-0.00152952,0.00021273,-0.00119250,0.00826526,-0.0093
 4255,0.00621323,0.15800100,-0.26156723,-0.03060787,0.00018920,0.000338
 17,-0.00039526,-0.00009201,-0.00000937,-0.00016314,-0.00006459,-0.0000
 5871,0.00015146,0.00007640,-0.00002031,0.00000076,-0.00004909,-0.00001
 819,-0.00002119,-0.00002588,0.00000542,-0.00003713,0.00002568,-0.00000
 110,-0.00000114,0.00003730,0.00003246,0.00003223,-0.00016776,-0.000869
 45,-0.00018868,0.00022063,0.00035520,0.00031791,-0.00000270,-0.0006260
 3,-0.00049378,-0.00118164,-0.00015197,0.00045253,-0.17462285,0.2723934
 5,0.00441824,0.00059118,0.00126339,-0.00570783,0.00188287,-0.00415722,
 0.00229180,-0.00021688,0.00038680,-0.00029939,-0.00053321,0.00046912,0
 .00041114,0.00092821,0.00090172,-0.00015879,-0.00005625,-0.00033440,-0
 .00065380,-0.00035077,-0.00058445,-0.00006577,0.00002396,-0.00011631,0
 .00006705,-0.00000514,0.00009818,0.00007602,0.00008386,-0.00004277,0.0
 0000448,-0.00005865,-0.00003758,-0.00000414,-0.00006814,-0.00002666,-0
 .00000856,0.00001103,-0.00000774,-0.00136003,-0.00018798,0.00140225,-0
 .02241738,0.02547907,0.00527865,0.01872111,-0.02709909,-0.06160047,-0.
 00004756,0.00023920,-0.00010760,-0.00004662,-0.00001036,-0.00009796,0.
 00001190,-0.00004902,0.00011292,0.00007827,-0.00001257,-0.00000480,-0.
 00004115,-0.00001408,-0.00001142,-0.00003445,-0.00000204,-0.00002952,0
 .00000716,-0.00000022,-0.00000142,0.00001297,0.00000533,0.00003223,0.0
 0053117,0.00004072,0.00025050,0.00063580,-0.00041960,-0.00075042,-0.00
 004193,0.00029245,-0.00035780,-0.00037437,0.00246744,-0.00597345,-0.02
 179394,0.02622165,0.06740867,-0.00465172,-0.00160263,-0.00220947,0.009
 25432,-0.00034511,-0.00022312,-0.00497826,-0.00011350,0.00137412,0.002
 45425,0.00182495,-0.00154639,-0.00619271,-0.02185317,-0.00601302,0.003
 90057,0.00948484,-0.00316610,0.00835023,0.01606965,0.00994873,-0.00108
 338,0.00067998,0.00090515,-0.00006952,-0.00019406,-0.00079521,-0.00021
 705,0.00003925,-0.00006420,-0.00008243,-0.00057184,0.00033587,-0.00008
 088,0.00067522,-0.00031898,0.00058602,-0.00019820,0.00086473,-0.000866
 57,0.00045084,-0.00045630,0.01428760,0.00280248,0.00298584,-0.24993048
 ,-0.07527697,0.09097874,0.00012121,-0.00017135,-0.00010046,0.00011550,
 -0.00004203,0.00081800,-0.00058044,0.00000364,-0.00076398,-0.00029628,
 -0.00014064,-0.00006036,0.00054389,-0.00013399,0.00015548,0.00009607,0
 .00004800,0.00001985,-0.00001586,0.00001927,0.00001047,-0.00070708,0.0
 0015305,0.00002844,-0.00007414,-0.00051522,-0.00045373,-0.00015013,-0.
 00011492,0.00024898,-0.00102310,0.00141308,-0.00449650,0.00036542,0.00
 109011,-0.00185083,-0.01847132,-0.00289870,0.00961835,0.25663263,-0.00
 100986,-0.00145851,0.00216206,0.00089301,0.00235115,-0.00365846,-0.000
 55703,-0.00056410,0.00089122,0.00084146,0.00046888,-0.00067075,-0.0054
 1737,-0.01319295,-0.00154165,0.00158480,0.00393517,-0.00203836,0.00842
 276,0.00413557,0.00336560,-0.00070341,0.00044922,0.00037533,-0.0000252
 6,-0.00002640,-0.00028440,-0.00005724,0.00010240,-0.00005804,-0.000097
 62,-0.00039229,0.00009794,-0.00000085,0.00017433,-0.00014887,0.0001629
 3,-0.00009748,0.00034333,0.00023695,0.00026133,-0.00090564,-0.00908426
 ,-0.00747723,0.01165947,-0.07521637,-0.09110396,0.03035463,0.00002758,
 0.00018955,-0.00002846,0.00001191,-0.00005055,0.00031992,-0.00060690,-
 0.00018816,-0.00024421,-0.00010488,-0.00009712,-0.00002444,0.00027023,
 -0.00008682,0.00006421,0.00003337,0.00002128,-0.00001893,0.00005639,-0
 .00000745,0.00000624,-0.00025222,0.00017017,0.00003867,-0.00012694,-0.
 00039922,-0.00013852,-0.00010267,-0.00016139,0.00007919,0.00089147,-0.
 00024409,0.00162967,-0.00024026,0.00027580,-0.00035019,0.02741440,0.01
 363945,-0.01338058,0.07210596,0.09673703,0.00127496,0.00025014,0.00093
 533,-0.00258753,-0.00149146,-0.00311340,0.00142771,0.00044066,0.000071
 55,-0.00028600,-0.00197113,0.00062429,0.00080159,0.00469415,-0.0002757
 6,-0.00126755,-0.00096100,0.00055045,-0.00107355,-0.00359946,-0.004513
 22,0.00020958,-0.00002511,-0.00010971,0.00006169,0.00004474,0.00030064
 ,0.00015230,0.00004385,-0.00007334,0.00007553,0.00012362,-0.00012838,-
 0.00003023,-0.00018996,0.00012768,-0.00010815,0.00007376,-0.00022294,0
 .00044660,0.00049534,-0.00018540,0.02368264,0.01234246,-0.01638015,0.0
 9677691,0.03329568,-0.10784175,-0.00025573,0.00009895,-0.00031468,-0.0
 0004492,0.00005557,-0.00046523,0.00014163,0.00021492,0.00013458,0.0001
 2393,0.00003062,-0.00000233,-0.00010945,0.00001036,-0.00003302,-0.0000
 5611,-0.00001573,-0.00003231,0.00001042,-0.00000681,0.00000306,0.00017
 275,-0.00002609,0.00006540,-0.00022022,0.00002449,0.00023069,0.0000245
 8,0.00013083,0.00014461,-0.00182240,0.00104971,-0.00369132,0.00012450,
 -0.00023796,0.00220348,0.00288330,-0.00016701,-0.00134273,-0.09755071,
 -0.03833552,0.11987859,0.00095595,0.00086934,0.00076578,-0.00075495,0.
 00046501,-0.00013567,0.00052225,-0.00000671,0.00005601,-0.00009826,-0.
 00003528,0.00006501,-0.00000944,0.00022648,0.00035177,0.00004018,-0.00
 008285,-0.00008846,-0.00170296,-0.00027549,0.00065407,-0.00003034,-0.0
 0002951,-0.00003112,0.00002789,-0.00001996,0.00000187,0.00001779,0.000
 00034,-0.00002371,0.00004026,0.00001306,0.00002307,-0.00000628,0.00002
 823,-0.00001379,0.00004369,-0.00001078,0.00003874,0.00010396,0.0005549
 9,0.00056344,-0.00261169,-0.00198489,-0.00192228,-0.12466628,-0.102746
 30,-0.09279006,-0.00000829,-0.00001410,-0.00006530,-0.00000421,0.00000
 461,0.00000227,0.00003772,-0.00007492,0.00003990,0.00000963,0.00000051
 ,-0.00000763,-0.00001148,-0.00000181,0.00000381,-0.00001200,0.00000183
 ,-0.00000389,-0.00003486,0.00000748,-0.00000175,-0.00004805,-0.0000292
 2,-0.00000408,0.00022680,-0.00002819,0.00000966,0.00002499,0.00001292,
 -0.00012523,0.00106634,-0.00013786,0.00107372,-0.00061941,-0.00000464,
 -0.00053966,0.01391998,0.01334326,0.01617026,-0.00723638,-0.01935009,-
 0.02297805,0.12081745,-0.00117152,-0.00064626,-0.00195440,0.00086991,-
 0.00228854,0.00097536,-0.00032451,0.00031475,-0.00008964,0.00006036,0.
 00005969,-0.00003917,-0.00017250,-0.00036603,-0.00004506,0.00011756,0.
 00016078,-0.00008665,0.00033916,0.00033389,0.00019796,-0.00006185,0.00
 004884,-0.00000484,0.00000556,-0.00002337,-0.00000182,0.00002130,0.000
 02117,-0.00000851,0.00000217,-0.00004527,0.00000072,-0.00001910,0.0000
 3788,-0.00000720,0.00002002,-0.00001434,0.00001352,0.00127530,-0.00166
 038,0.00290388,0.00649464,0.01449250,0.00850910,-0.09776948,-0.2219707
 5,-0.14578947,-0.00014817,0.00001396,0.00003417,0.00003194,0.00000275,
 0.00001543,-0.00002984,-0.00001571,-0.00000965,0.00000227,-0.00000974,
 -0.00000070,0.00001135,-0.00000989,0.00000700,-0.00001267,-0.00000351,
 -0.00001099,0.00001582,0.00000470,-0.00000080,-0.00002515,0.00002091,0
 .00000787,-0.00002086,0.00076963,0.00079416,-0.00004630,0.00002417,0.0
 0000954,-0.00013862,0.00098058,0.00052165,0.00057033,-0.00025142,0.000
 29037,-0.01651368,-0.01507661,-0.01580239,-0.00268799,-0.00736359,-0.0
 0639261,0.10930454,0.23245922,0.00039966,0.00034971,0.00077264,-0.0002
 5516,0.00110580,-0.00034281,0.00018119,-0.00004343,0.00010727,0.000053
 66,-0.00015282,-0.00002133,-0.00039723,-0.00111863,0.00001342,0.000160
 49,0.00058641,-0.00035973,0.00215893,0.00101616,-0.00043171,-0.0000833
 0,0.00004607,0.00002371,0.00001139,0.00000511,0.00001123,0.00002943,0.
 00001057,-0.00004118,0.00003279,-0.00002411,-0.00001883,-0.00001553,0.
 00000771,0.00003322,0.00002424,-0.00000262,0.00001034,-0.00218547,0.00
 372551,-0.00392757,-0.01073841,-0.02023056,-0.01732835,-0.09074006,-0.
 14907520,-0.18692866,-0.00001360,0.00002497,-0.00008932,-0.00001203,0.
 00000692,0.00000599,-0.00006186,-0.00000750,-0.00000441,0.00000774,-0.
 00000665,-0.00000638,0.00002249,-0.00001163,0.00000613,-0.00000869,-0.
 00000180,-0.00000870,0.00000030,-0.00000222,0.00000684,-0.00003035,0.0
 0002013,0.00003719,0.00013239,-0.00126994,-0.00084884,0.00009493,0.000
 05270,0.00008182,0.00126147,-0.00023915,0.00149826,-0.00027730,0.00015
 639,0.00011722,-0.00044003,-0.00133061,-0.00201971,0.00177659,0.010439
 52,0.01345533,0.09891131,0.15596317,0.19619692\\0.00000216,-0.00000171
 ,0.00000253,-0.00000325,0.00000410,-0.00000110,-0.00000012,-0.00000378
 ,-0.00000364,0.00000085,0.00000490,0.00000102,0.00000217,-0.00000097,-
 0.00000100,-0.00000045,-0.00000058,0.00000334,0.00000271,-0.00000210,0
 .00000440,0.00000569,-0.00000042,-0.00000216,-0.00001006,0.00000199,0.
 00001238,0.00000156,0.00000007,-0.00000277,0.00000110,0.00000145,-0.00
 000223,0.00000095,-0.00000404,0.00000465,-0.00000014,0.00000201,-0.000
 00668,0.00000444,0.00000005,-0.00000574,0.00000379,-0.00000188,0.00000
 290,-0.00001557,0.00000050,-0.00000170,-0.00000469,0.00000028,-0.00000
 237,-0.00000092,0.00000022,0.00000053,0.00000018,0.00000181,0.00000013
 ,-0.00000117,0.00000212,0.00000087,0.00000089,-0.00000144,0.00000026,-
 0.00000102,-0.00000026,0.00000016,0.00000129,0.00000033,0.,-0.00000031
 ,0.00000331,-0.00000007,-0.00000356,0.00000029,0.00000086,-0.00000083,
 -0.00000126,0.00000090,-0.00000023,-0.00000034,-0.00000405,-0.00000074
 ,-0.00000175,-0.00000232,0.00000612,-0.00000433,0.00000236,0.00000817,
 0.00000281,0.,0.00000100,-0.00000136,-0.00000147\\\@


 NEVER LISTEN TO CRITICISM
 OR YOU'LL BE DOIN' EVERYBODY ELSE'S THING BUT BUT YOUR OWN.

                                               -- ANDY CAPP
 Job cpu time:       0 days 17 hours  7 minutes  1.8 seconds.
 File lengths (MBytes):  RWF=   1140 Int=      0 D2E=      0 Chk=     36 Scr=      1
 Normal termination of Gaussian 09 at Sat Jul 24 19:58:58 2021.
