 Entering Gaussian System, Link 0=g09
 Input=opt_freq-conf-214.com
 Output=opt_freq-conf-214.log
 Initial command:
 /aerosol/software/g09/l1.exe "/scratch/nicole/10455/Gau-72514.inp" -scrdir="/scratch/nicole/10455/"
 Entering Link 1 = /aerosol/software/g09/l1.exe PID=     72520.
  
 Copyright (c) 1988,1990,1992,1993,1995,1998,2003,2009,2013,
            Gaussian, Inc.  All Rights Reserved.
  
 This is part of the Gaussian(R) 09 program.  It is based on
 the Gaussian(R) 03 system (copyright 2003, Gaussian, Inc.),
 the Gaussian(R) 98 system (copyright 1998, Gaussian, Inc.),
 the Gaussian(R) 94 system (copyright 1995, Gaussian, Inc.),
 the Gaussian 92(TM) system (copyright 1992, Gaussian, Inc.),
 the Gaussian 90(TM) system (copyright 1990, Gaussian, Inc.),
 the Gaussian 88(TM) system (copyright 1988, Gaussian, Inc.),
 the Gaussian 86(TM) system (copyright 1986, Carnegie Mellon
 University), and the Gaussian 82(TM) system (copyright 1983,
 Carnegie Mellon University). Gaussian is a federally registered
 trademark of Gaussian, Inc.
  
 This software contains proprietary and confidential information,
 including trade secrets, belonging to Gaussian, Inc.
  
 This software is provided under written license and may be
 used, copied, transmitted, or stored only in accord with that
 written license.
  
 The following legend is applicable only to US Government
 contracts under FAR:
  
                    RESTRICTED RIGHTS LEGEND
  
 Use, reproduction and disclosure by the US Government is
 subject to restrictions as set forth in subparagraphs (a)
 and (c) of the Commercial Computer Software - Restricted
 Rights clause in FAR 52.227-19.
  
 Gaussian, Inc.
 340 Quinnipiac St., Bldg. 40, Wallingford CT 06492
  
  
 ---------------------------------------------------------------
 Warning -- This program may not be used in any manner that
 competes with the business of Gaussian, Inc. or will provide
 assistance to any competitor of Gaussian, Inc.  The licensee
 of this program is prohibited from giving any competitor of
 Gaussian, Inc. access to this program.  By using this program,
 the user acknowledges that Gaussian, Inc. is engaged in the
 business of creating and licensing software in the field of
 computational chemistry and represents and warrants to the
 licensee that it is not a competitor of Gaussian, Inc. and that
 it will not use this program in any manner prohibited above.
 ---------------------------------------------------------------
  

 Cite this work as:
 Gaussian 09, Revision D.01,
 M. J. Frisch, G. W. Trucks, H. B. Schlegel, G. E. Scuseria, 
 M. A. Robb, J. R. Cheeseman, G. Scalmani, V. Barone, B. Mennucci, 
 G. A. Petersson, H. Nakatsuji, M. Caricato, X. Li, H. P. Hratchian, 
 A. F. Izmaylov, J. Bloino, G. Zheng, J. L. Sonnenberg, M. Hada, 
 M. Ehara, K. Toyota, R. Fukuda, J. Hasegawa, M. Ishida, T. Nakajima, 
 Y. Honda, O. Kitao, H. Nakai, T. Vreven, J. A. Montgomery, Jr., 
 J. E. Peralta, F. Ogliaro, M. Bearpark, J. J. Heyd, E. Brothers, 
 K. N. Kudin, V. N. Staroverov, T. Keith, R. Kobayashi, J. Normand, 
 K. Raghavachari, A. Rendell, J. C. Burant, S. S. Iyengar, J. Tomasi, 
 M. Cossi, N. Rega, J. M. Millam, M. Klene, J. E. Knox, J. B. Cross, 
 V. Bakken, C. Adamo, J. Jaramillo, R. Gomperts, R. E. Stratmann, 
 O. Yazyev, A. J. Austin, R. Cammi, C. Pomelli, J. W. Ochterski, 
 R. L. Martin, K. Morokuma, V. G. Zakrzewski, G. A. Voth, 
 P. Salvador, J. J. Dannenberg, S. Dapprich, A. D. Daniels, 
 O. Farkas, J. B. Foresman, J. V. Ortiz, J. Cioslowski, 
 and D. J. Fox, Gaussian, Inc., Wallingford CT, 2013.
 
 ******************************************
 Gaussian 09:  ES64L-G09RevD.01 24-Apr-2013
                24-Jul-2021 
 ******************************************
 %mem=2gb
 %nproc=4
 Will use up to    4 processors via shared memory.
 %chk=conf-214.chk
 ----------------------------------------------------------------------
 # B3LYP/6-311G(2df,2pd) EmpiricalDispersion=GD3BJ opt=calcfc freq=nora
 man nosymm integral(ultrafinegrid)
 ----------------------------------------------------------------------
 1/10=4,14=-1,18=20,19=15,26=4,38=1/1,3;
 2/9=110,12=2,15=1,17=6,18=5,40=1/2;
 3/5=4,6=6,7=404,11=2,16=1,25=1,30=1,71=2,74=-5,75=-5,124=41,140=1/1,2,3;
 4//1;
 5/5=2,38=5/2;
 8/6=4,10=90,11=11/1;
 11/6=1,8=1,9=11,15=111,16=1,31=1/1,2,10;
 10/6=1,13=1,31=1/2;
 6/7=2,8=2,9=2,10=2,28=1/1;
 7/10=1,18=20,25=1,30=1/1,2,3,16;
 1/10=4,14=-1,18=20,19=15,26=4/3(2);
 2/9=110,15=1/2;
 99//99;
 2/9=110,15=1/2;
 3/5=4,6=6,7=404,11=2,16=1,25=1,30=1,71=1,74=-5,75=-5,124=41/1,2,3;
 4/5=5,16=3,69=1/1;
 5/5=2,38=5/2;
 7/30=1/1,2,3,16;
 1/14=-1,18=20,19=15,26=4/3(-5);
 2/9=110,15=1/2;
 6/7=2,8=2,9=2,10=2,19=2,28=1/1;
 99/9=1/99;
 ------------------------------------------------------------
 Candidate Structure: Conf:214 OPT and FREQ calc in gas phase
 ------------------------------------------------------------
 Symbolic Z-matrix:
 Charge =  1 Multiplicity = 1
 O                    -1.0496   -0.53171  -1.26429 
 C                    -1.10935  -0.17362  -0.09274 
 N                    -0.07815  -0.35767   0.78573 
 C                     1.02197  -1.24123   0.46697 
 C                     0.99565  -2.41586   1.43875 
 O                     1.65977  -3.52102   1.03213 
 O                     0.4677   -2.37978   2.51493 
 C                     2.39123  -0.554     0.56355 
 C                     2.65125   0.44626  -0.52716 
 C                     1.96614   0.8207   -1.6442 
 N                     2.65836   1.78482  -2.35484 
 C                     3.75716   1.98695  -1.66937 
 N                     3.80598   1.20777  -0.55842 
 C                    -2.2992    0.57826   0.4719 
 C                    -3.58898   0.26692  -0.27238 
 N                    -4.74081   1.0379    0.26778 
 H                    -0.28411  -0.2903    1.77378 
 H                     0.86987  -1.58714  -0.55552 
 H                     1.993    -3.39268   0.13839 
 H                     2.48575  -0.07101   1.5373 
 H                     3.17116  -1.32253   0.52594 
 H                     0.99862   0.45657  -1.9497 
 H                     4.54429   2.67546  -1.92422 
 H                     4.54554   1.18272   0.12319 
 H                    -2.08898   1.64809   0.38756 
 H                    -2.4075    0.3501    1.53438 
 H                    -3.79994  -0.79962  -0.20382 
 H                    -3.44895   0.49931  -1.32737 
 H                    -4.57879   2.04215   0.19387 
 H                    -5.60488   0.83192  -0.23548 
 H                    -4.90422   0.82239   1.25117 
 

 GradGradGradGradGradGradGradGradGradGradGradGradGradGradGradGradGradGrad
 Berny optimization.
 Initialization pass.
                           ----------------------------
                           !    Initial Parameters    !
                           ! (Angstroms and Degrees)  !
 --------------------------                            --------------------------
 ! Name  Definition              Value          Derivative Info.                !
 --------------------------------------------------------------------------------
 ! R1    R(1,2)                  1.2265         calculate D2E/DX2 analytically  !
 ! R2    R(2,3)                  1.3671         calculate D2E/DX2 analytically  !
 ! R3    R(2,14)                 1.5165         calculate D2E/DX2 analytically  !
 ! R4    R(3,4)                  1.4466         calculate D2E/DX2 analytically  !
 ! R5    R(3,17)                 1.0115         calculate D2E/DX2 analytically  !
 ! R6    R(4,5)                  1.5247         calculate D2E/DX2 analytically  !
 ! R7    R(4,8)                  1.5351         calculate D2E/DX2 analytically  !
 ! R8    R(4,18)                 1.0901         calculate D2E/DX2 analytically  !
 ! R9    R(5,6)                  1.3519         calculate D2E/DX2 analytically  !
 ! R10   R(5,7)                  1.1993         calculate D2E/DX2 analytically  !
 ! R11   R(6,19)                 0.9624         calculate D2E/DX2 analytically  !
 ! R12   R(8,9)                  1.5026         calculate D2E/DX2 analytically  !
 ! R13   R(8,20)                 1.0911         calculate D2E/DX2 analytically  !
 ! R14   R(8,21)                 1.0956         calculate D2E/DX2 analytically  !
 ! R15   R(9,10)                 1.3628         calculate D2E/DX2 analytically  !
 ! R16   R(9,13)                 1.3836         calculate D2E/DX2 analytically  !
 ! R17   R(10,11)                1.3834         calculate D2E/DX2 analytically  !
 ! R18   R(10,22)                1.078          calculate D2E/DX2 analytically  !
 ! R19   R(11,12)                1.3108         calculate D2E/DX2 analytically  !
 ! R20   R(12,13)                1.3578         calculate D2E/DX2 analytically  !
 ! R21   R(12,23)                1.0764         calculate D2E/DX2 analytically  !
 ! R22   R(13,24)                1.0061         calculate D2E/DX2 analytically  !
 ! R23   R(14,15)                1.5213         calculate D2E/DX2 analytically  !
 ! R24   R(14,25)                1.0935         calculate D2E/DX2 analytically  !
 ! R25   R(14,26)                1.0921         calculate D2E/DX2 analytically  !
 ! R26   R(15,16)                1.4876         calculate D2E/DX2 analytically  !
 ! R27   R(15,27)                1.0894         calculate D2E/DX2 analytically  !
 ! R28   R(15,28)                1.0893         calculate D2E/DX2 analytically  !
 ! R29   R(16,29)                1.0199         calculate D2E/DX2 analytically  !
 ! R30   R(16,30)                1.0209         calculate D2E/DX2 analytically  !
 ! R31   R(16,31)                1.0199         calculate D2E/DX2 analytically  !
 ! A1    A(1,2,3)              122.5296         calculate D2E/DX2 analytically  !
 ! A2    A(1,2,14)             122.5885         calculate D2E/DX2 analytically  !
 ! A3    A(3,2,14)             114.7914         calculate D2E/DX2 analytically  !
 ! A4    A(2,3,4)              120.9497         calculate D2E/DX2 analytically  !
 ! A5    A(2,3,17)             117.7175         calculate D2E/DX2 analytically  !
 ! A6    A(4,3,17)             114.253          calculate D2E/DX2 analytically  !
 ! A7    A(3,4,5)              108.4804         calculate D2E/DX2 analytically  !
 ! A8    A(3,4,8)              113.0197         calculate D2E/DX2 analytically  !
 ! A9    A(3,4,18)             107.1214         calculate D2E/DX2 analytically  !
 ! A10   A(5,4,8)              108.6745         calculate D2E/DX2 analytically  !
 ! A11   A(5,4,18)             110.5452         calculate D2E/DX2 analytically  !
 ! A12   A(8,4,18)             108.9981         calculate D2E/DX2 analytically  !
 ! A13   A(4,5,6)              115.4415         calculate D2E/DX2 analytically  !
 ! A14   A(4,5,7)              123.8043         calculate D2E/DX2 analytically  !
 ! A15   A(6,5,7)              120.7138         calculate D2E/DX2 analytically  !
 ! A16   A(5,6,19)             109.8994         calculate D2E/DX2 analytically  !
 ! A17   A(4,8,9)              113.9978         calculate D2E/DX2 analytically  !
 ! A18   A(4,8,20)             109.366          calculate D2E/DX2 analytically  !
 ! A19   A(4,8,21)             108.5884         calculate D2E/DX2 analytically  !
 ! A20   A(9,8,20)             109.7652         calculate D2E/DX2 analytically  !
 ! A21   A(9,8,21)             108.5944         calculate D2E/DX2 analytically  !
 ! A22   A(20,8,21)            106.2301         calculate D2E/DX2 analytically  !
 ! A23   A(8,9,10)             133.699          calculate D2E/DX2 analytically  !
 ! A24   A(8,9,13)             121.8173         calculate D2E/DX2 analytically  !
 ! A25   A(10,9,13)            104.467          calculate D2E/DX2 analytically  !
 ! A26   A(9,10,11)            111.1605         calculate D2E/DX2 analytically  !
 ! A27   A(9,10,22)            126.2051         calculate D2E/DX2 analytically  !
 ! A28   A(11,10,22)           122.6126         calculate D2E/DX2 analytically  !
 ! A29   A(10,11,12)           104.9693         calculate D2E/DX2 analytically  !
 ! A30   A(11,12,13)           111.6857         calculate D2E/DX2 analytically  !
 ! A31   A(11,12,23)           126.0041         calculate D2E/DX2 analytically  !
 ! A32   A(13,12,23)           122.3101         calculate D2E/DX2 analytically  !
 ! A33   A(9,13,12)            107.7173         calculate D2E/DX2 analytically  !
 ! A34   A(9,13,24)            125.7679         calculate D2E/DX2 analytically  !
 ! A35   A(12,13,24)           126.5148         calculate D2E/DX2 analytically  !
 ! A36   A(2,14,15)            112.4305         calculate D2E/DX2 analytically  !
 ! A37   A(2,14,25)            107.7876         calculate D2E/DX2 analytically  !
 ! A38   A(2,14,26)            109.6605         calculate D2E/DX2 analytically  !
 ! A39   A(15,14,25)           108.9935         calculate D2E/DX2 analytically  !
 ! A40   A(15,14,26)           110.4352         calculate D2E/DX2 analytically  !
 ! A41   A(25,14,26)           107.3665         calculate D2E/DX2 analytically  !
 ! A42   A(14,15,16)           111.8848         calculate D2E/DX2 analytically  !
 ! A43   A(14,15,27)           109.4968         calculate D2E/DX2 analytically  !
 ! A44   A(14,15,28)           108.734          calculate D2E/DX2 analytically  !
 ! A45   A(16,15,27)           109.5496         calculate D2E/DX2 analytically  !
 ! A46   A(16,15,28)           109.9155         calculate D2E/DX2 analytically  !
 ! A47   A(27,15,28)           107.1398         calculate D2E/DX2 analytically  !
 ! A48   A(15,16,29)           111.1616         calculate D2E/DX2 analytically  !
 ! A49   A(15,16,30)           111.825          calculate D2E/DX2 analytically  !
 ! A50   A(15,16,31)           111.386          calculate D2E/DX2 analytically  !
 ! A51   A(29,16,30)           107.301          calculate D2E/DX2 analytically  !
 ! A52   A(29,16,31)           107.6609         calculate D2E/DX2 analytically  !
 ! A53   A(30,16,31)           107.2807         calculate D2E/DX2 analytically  !
 ! D1    D(1,2,3,4)            -13.7324         calculate D2E/DX2 analytically  !
 ! D2    D(1,2,3,17)          -162.6151         calculate D2E/DX2 analytically  !
 ! D3    D(14,2,3,4)           169.6455         calculate D2E/DX2 analytically  !
 ! D4    D(14,2,3,17)           20.7628         calculate D2E/DX2 analytically  !
 ! D5    D(1,2,14,15)           27.4281         calculate D2E/DX2 analytically  !
 ! D6    D(1,2,14,25)          -92.7184         calculate D2E/DX2 analytically  !
 ! D7    D(1,2,14,26)          150.6984         calculate D2E/DX2 analytically  !
 ! D8    D(3,2,14,15)         -155.952          calculate D2E/DX2 analytically  !
 ! D9    D(3,2,14,25)           83.9015         calculate D2E/DX2 analytically  !
 ! D10   D(3,2,14,26)          -32.6817         calculate D2E/DX2 analytically  !
 ! D11   D(2,3,4,5)           -114.4931         calculate D2E/DX2 analytically  !
 ! D12   D(2,3,4,8)            124.9223         calculate D2E/DX2 analytically  !
 ! D13   D(2,3,4,18)             4.8568         calculate D2E/DX2 analytically  !
 ! D14   D(17,3,4,5)            35.3894         calculate D2E/DX2 analytically  !
 ! D15   D(17,3,4,8)           -85.1953         calculate D2E/DX2 analytically  !
 ! D16   D(17,3,4,18)          154.7393         calculate D2E/DX2 analytically  !
 ! D17   D(3,4,5,6)            159.6472         calculate D2E/DX2 analytically  !
 ! D18   D(3,4,5,7)            -22.6568         calculate D2E/DX2 analytically  !
 ! D19   D(8,4,5,6)            -77.1104         calculate D2E/DX2 analytically  !
 ! D20   D(8,4,5,7)            100.5856         calculate D2E/DX2 analytically  !
 ! D21   D(18,4,5,6)            42.4697         calculate D2E/DX2 analytically  !
 ! D22   D(18,4,5,7)          -139.8342         calculate D2E/DX2 analytically  !
 ! D23   D(3,4,8,9)            -70.9751         calculate D2E/DX2 analytically  !
 ! D24   D(3,4,8,20)            52.3124         calculate D2E/DX2 analytically  !
 ! D25   D(3,4,8,21)           167.8289         calculate D2E/DX2 analytically  !
 ! D26   D(5,4,8,9)            168.5509         calculate D2E/DX2 analytically  !
 ! D27   D(5,4,8,20)           -68.1617         calculate D2E/DX2 analytically  !
 ! D28   D(5,4,8,21)            47.3549         calculate D2E/DX2 analytically  !
 ! D29   D(18,4,8,9)            48.0098         calculate D2E/DX2 analytically  !
 ! D30   D(18,4,8,20)          171.2972         calculate D2E/DX2 analytically  !
 ! D31   D(18,4,8,21)          -73.1862         calculate D2E/DX2 analytically  !
 ! D32   D(4,5,6,19)            -4.2457         calculate D2E/DX2 analytically  !
 ! D33   D(7,5,6,19)           177.9811         calculate D2E/DX2 analytically  !
 ! D34   D(4,8,9,10)            -5.0285         calculate D2E/DX2 analytically  !
 ! D35   D(4,8,9,13)           176.7125         calculate D2E/DX2 analytically  !
 ! D36   D(20,8,9,10)         -128.0989         calculate D2E/DX2 analytically  !
 ! D37   D(20,8,9,13)           53.642          calculate D2E/DX2 analytically  !
 ! D38   D(21,8,9,10)          116.1642         calculate D2E/DX2 analytically  !
 ! D39   D(21,8,9,13)          -62.0949         calculate D2E/DX2 analytically  !
 ! D40   D(8,9,10,11)         -178.6068         calculate D2E/DX2 analytically  !
 ! D41   D(8,9,10,22)            3.0695         calculate D2E/DX2 analytically  !
 ! D42   D(13,9,10,11)          -0.1345         calculate D2E/DX2 analytically  !
 ! D43   D(13,9,10,22)        -178.4582         calculate D2E/DX2 analytically  !
 ! D44   D(8,9,13,12)          178.7672         calculate D2E/DX2 analytically  !
 ! D45   D(8,9,13,24)           -1.1857         calculate D2E/DX2 analytically  !
 ! D46   D(10,9,13,12)           0.067          calculate D2E/DX2 analytically  !
 ! D47   D(10,9,13,24)        -179.8859         calculate D2E/DX2 analytically  !
 ! D48   D(9,10,11,12)           0.1507         calculate D2E/DX2 analytically  !
 ! D49   D(22,10,11,12)        178.5449         calculate D2E/DX2 analytically  !
 ! D50   D(10,11,12,13)         -0.1052         calculate D2E/DX2 analytically  !
 ! D51   D(10,11,12,23)        179.8774         calculate D2E/DX2 analytically  !
 ! D52   D(11,12,13,9)           0.0256         calculate D2E/DX2 analytically  !
 ! D53   D(11,12,13,24)        179.978          calculate D2E/DX2 analytically  !
 ! D54   D(23,12,13,9)        -179.9578         calculate D2E/DX2 analytically  !
 ! D55   D(23,12,13,24)         -0.0055         calculate D2E/DX2 analytically  !
 ! D56   D(2,14,15,16)        -178.4771         calculate D2E/DX2 analytically  !
 ! D57   D(2,14,15,27)          59.8705         calculate D2E/DX2 analytically  !
 ! D58   D(2,14,15,28)         -56.8858         calculate D2E/DX2 analytically  !
 ! D59   D(25,14,15,16)        -59.0308         calculate D2E/DX2 analytically  !
 ! D60   D(25,14,15,27)        179.3167         calculate D2E/DX2 analytically  !
 ! D61   D(25,14,15,28)         62.5605         calculate D2E/DX2 analytically  !
 ! D62   D(26,14,15,16)         58.687          calculate D2E/DX2 analytically  !
 ! D63   D(26,14,15,27)        -62.9654         calculate D2E/DX2 analytically  !
 ! D64   D(26,14,15,28)       -179.7217         calculate D2E/DX2 analytically  !
 ! D65   D(14,15,16,29)         59.7998         calculate D2E/DX2 analytically  !
 ! D66   D(14,15,16,30)        179.7036         calculate D2E/DX2 analytically  !
 ! D67   D(14,15,16,31)        -60.2646         calculate D2E/DX2 analytically  !
 ! D68   D(27,15,16,29)       -178.5782         calculate D2E/DX2 analytically  !
 ! D69   D(27,15,16,30)        -58.6744         calculate D2E/DX2 analytically  !
 ! D70   D(27,15,16,31)         61.3575         calculate D2E/DX2 analytically  !
 ! D71   D(28,15,16,29)        -61.1086         calculate D2E/DX2 analytically  !
 ! D72   D(28,15,16,30)         58.7951         calculate D2E/DX2 analytically  !
 ! D73   D(28,15,16,31)        178.827          calculate D2E/DX2 analytically  !
 --------------------------------------------------------------------------------
 Trust Radius=3.00D-01 FncErr=1.00D-07 GrdErr=1.00D-06
 Number of steps in this run=    167 maximum allowed number of steps=    186.
 GradGradGradGradGradGradGradGradGradGradGradGradGradGradGradGradGradGrad

                          Input orientation:                          
 ---------------------------------------------------------------------
 Center     Atomic      Atomic             Coordinates (Angstroms)
 Number     Number       Type             X           Y           Z
 ---------------------------------------------------------------------
      1          8           0       -1.049596   -0.531706   -1.264292
      2          6           0       -1.109346   -0.173623   -0.092736
      3          7           0       -0.078151   -0.357673    0.785728
      4          6           0        1.021972   -1.241229    0.466970
      5          6           0        0.995651   -2.415864    1.438746
      6          8           0        1.659768   -3.521016    1.032134
      7          8           0        0.467700   -2.379782    2.514929
      8          6           0        2.391234   -0.553995    0.563546
      9          6           0        2.651246    0.446263   -0.527163
     10          6           0        1.966139    0.820698   -1.644203
     11          7           0        2.658360    1.784824   -2.354840
     12          6           0        3.757165    1.986952   -1.669368
     13          7           0        3.805978    1.207767   -0.558422
     14          6           0       -2.299205    0.578256    0.471900
     15          6           0       -3.588979    0.266920   -0.272377
     16          7           0       -4.740810    1.037903    0.267777
     17          1           0       -0.284107   -0.290299    1.773778
     18          1           0        0.869867   -1.587145   -0.555517
     19          1           0        1.992998   -3.392677    0.138393
     20          1           0        2.485753   -0.071009    1.537297
     21          1           0        3.171155   -1.322535    0.525938
     22          1           0        0.998621    0.456573   -1.949698
     23          1           0        4.544285    2.675463   -1.924222
     24          1           0        4.545540    1.182715    0.123195
     25          1           0       -2.088981    1.648089    0.387562
     26          1           0       -2.407496    0.350098    1.534384
     27          1           0       -3.799939   -0.799621   -0.203819
     28          1           0       -3.448949    0.499307   -1.327374
     29          1           0       -4.578785    2.042150    0.193870
     30          1           0       -5.604884    0.831919   -0.235479
     31          1           0       -4.904217    0.822388    1.251171
 ---------------------------------------------------------------------
                    Distance matrix (angstroms):
                    1          2          3          4          5
     1  O    0.000000
     2  C    1.226515   0.000000
     3  N    2.275209   1.367090   0.000000
     4  C    2.791431   2.448585   1.446564   0.000000
     5  C    3.878080   3.435709   2.411563   1.524733   0.000000
     6  O    4.642219   4.487579   3.617709   2.433849   1.351941
     7  O    4.472145   3.762197   2.716066   2.407832   1.199251
     8  C    3.896254   3.581822   2.487120   1.535088   2.485998
     9  C    3.898207   3.836019   3.133624   2.547639   3.846761
    10  C    3.326858   3.585294   3.387070   3.098394   4.574031
    11  N    4.506056   4.811262   4.684223   4.449424   5.899295
    12  C    5.441752   5.553087   5.121953   4.739870   6.055669
    13  N    5.205825   5.126940   4.398158   3.847037   5.001732
    14  C    2.409959   1.516542   2.430541   3.786920   4.555834
    15  C    2.840804   2.524862   3.719626   4.907343   5.580690
    16  N    4.293713   3.845165   4.894517   6.200304   6.797548
    17  H    3.142311   2.044140   1.011534   2.077945   2.503608
    18  H    2.302314   2.475782   2.051652   1.090080   2.163258
    19  H    4.405684   4.476635   3.730945   2.383187   1.907821
    20  H    4.534295   3.948705   2.687124   2.158163   2.780011
    21  H    4.652427   4.474980   3.399476   2.151529   2.600271
    22  H    2.375220   2.879060   3.050408   2.953534   4.442124
    23  H    6.481739   6.590537   6.157163   5.784892   7.058610
    24  H    6.014142   5.819280   4.918360   4.290597   5.223233
    25  H    2.925825   2.123442   2.867936   4.246469   5.209190
    26  H    3.233275   2.146392   2.547013   3.928479   4.386468
    27  H    2.959860   2.764689   3.876368   4.888334   5.320522
    28  H    2.612253   2.729635   4.069631   5.122331   5.992004
    29  H    4.605014   4.126597   5.134701   6.497972   7.245546
    30  H    4.865036   4.608834   5.744804   6.979011   7.544414
    31  H    4.797836   4.147188   4.989999   6.324018   6.732748
                    6          7          8          9         10
     6  O    0.000000
     7  O    2.218586   0.000000
     8  C    3.091574   3.292624   0.000000
     9  C    4.376498   4.691346   1.502588   0.000000
    10  C    5.109513   5.457726   2.635269   1.362847   0.000000
    11  N    6.373438   6.771823   3.749454   2.265436   1.383370
    12  C    6.483432   6.884568   3.648025   2.213913   2.137418
    13  N    5.431157   5.784470   2.522720   1.383571   2.171117
    14  C    5.726373   4.536487   4.826034   5.051981   4.767581
    15  C    6.602995   5.588448   6.093899   6.247999   5.748731
    16  N    7.895276   6.622600   7.313526   7.458181   6.977536
    17  H    3.842683   2.341037   2.948159   3.801730   4.240344
    18  H    2.623821   3.196506   2.152732   2.703491   2.860901
    19  H    0.962438   3.000069   2.897837   3.951420   4.575030
    20  H    3.583293   3.218499   1.091055   2.134702   3.344710
    21  H    2.715482   3.518882   1.095603   2.123199   3.279485
    22  H    5.014943   5.315984   3.045819   2.180569   1.077963
    23  H    7.446935   7.866392   4.610209   3.241096   3.188323
    24  H    5.592758   5.919507   2.801983   2.133934   3.147708
    25  H    6.417807   5.223606   4.995245   4.975024   4.610493
    26  H    5.637412   4.084172   4.978727   5.463524   5.427114
    27  H    6.224305   5.301061   6.243381   6.578341   6.160178
    28  H    6.915870   6.196175   6.228384   6.152685   5.433862
    29  H    8.400657   7.099845   7.446999   7.439093   6.906989
    30  H    8.563296   7.399732   8.154575   8.270278   7.700975
    31  H    7.873946   6.380318   7.455927   7.771033   7.455533
                   11         12         13         14         15
    11  N    0.000000
    12  C    1.310762   0.000000
    13  N    2.208424   1.357834   0.000000
    14  C    5.832985   6.576402   6.223432   0.000000
    15  C    6.757953   7.673064   7.460053   1.521313   0.000000
    16  N    7.885666   8.767485   8.588308   2.492865   1.487580
    17  H    5.478114   5.776937   4.940865   2.551449   3.926757
    18  H    4.219768   4.727718   4.053675   3.973356   4.837255
    19  H    5.784931   5.943121   4.993649   5.856836   6.687290
    20  H    4.315395   4.016764   2.787526   4.944940   6.347557
    21  H    4.268198   4.014408   2.825113   5.791439   6.990213
    22  H    2.164053   3.167050   3.221986   4.093239   4.888297
    23  H    2.129644   1.076363   2.136502   7.548048   8.641739
    24  H    3.172481   2.116982   1.006073   6.880225   8.195459
    25  H    5.484224   6.206706   5.986594   1.093550   2.143161
    26  H    6.545793   7.137672   6.612314   1.092088   2.160372
    27  H    7.281200   8.186736   7.874346   2.146472   1.089364
    28  H    6.325146   7.366012   7.329882   2.136710   1.089325
    29  H    7.677136   8.541825   8.459692   2.723375   2.085316
    30  H    8.583759   9.541388   9.423899   3.390021   2.093910
    31  H    8.433396   9.214406   8.904528   2.730009   2.087964
                   16         17         18         19         20
    16  N    0.000000
    17  H    4.888186   0.000000
    18  H    6.248871   2.905009   0.000000
    19  H    8.061696   4.181439   2.236712   0.000000
    20  H    7.420551   2.788572   3.047888   3.637749   0.000000
    21  H    8.260599   3.815947   2.556460   2.413241   1.748983
    22  H    6.180308   4.008427   2.477317   4.490616   3.827406
    23  H    9.679848   6.766411   5.791764   6.898244   4.874708
    24  H    9.288604   5.312220   4.652241   5.239267   2.795395
    25  H    2.723761   2.989401   4.484520   6.491068   5.020496
    26  H    2.742576   2.230740   4.343007   5.943190   4.911337
    27  H    2.117577   4.065880   4.748787   6.356034   6.562948
    28  H    2.122144   4.500761   4.858109   6.849146   6.614551
    29  H    1.019914   5.136213   6.589474   8.528115   7.495194
    30  H    1.020940   5.797168   6.919299   8.701425   8.331651
    31  H    1.019908   4.780858   6.512297   8.159449   7.449273
                   21         22         23         24         25
    21  H    0.000000
    22  H    3.743515   0.000000
    23  H    4.885976   4.182805   0.000000
    24  H    2.885726   4.171906   2.533814   0.000000
    25  H    6.042581   4.051640   7.099300   6.656075   0.000000
    26  H    5.910670   4.873583   8.105341   7.143488   1.761089
    27  H    7.028666   5.258545   9.201200   8.583916   3.044404
    28  H    7.111937   4.491102   8.305642   8.153714   2.471886
    29  H    8.455350   6.181942   9.387109   9.164984   2.528226
    30  H    9.068643   6.832694  10.452566  10.162815   3.662770
    31  H    8.386792   6.724796  10.138599   9.523658   3.058293
                   26         27         28         29         30
    26  H    0.000000
    27  H    2.506413   0.000000
    28  H    3.049024   1.752935   0.000000
    29  H    3.061783   2.973284   2.443579   0.000000
    30  H    3.686171   2.433259   2.439450   1.643739   0.000000
    31  H    2.556732   2.442814   2.978435   1.646696   1.643518
                   31
    31  H    0.000000
 Symmetry turned off by external request.
 Stoichiometry    C9H15N4O3(1+)
 Framework group  C1[X(C9H15N4O3)]
 Deg. of freedom    87
 Full point group                 C1      NOp   1
 Rotational constants (GHZ):      0.5724950      0.3213214      0.2246511
 Standard basis: 6-311G(2df,2pd) (5D, 7F)
   690 basis functions,  1023 primitive gaussians,   785 cartesian basis functions
    60 alpha electrons       60 beta electrons
       nuclear repulsion energy      1121.2879976823 Hartrees.
 NAtoms=   31 NActive=   31 NUniq=   31 SFac= 1.00D+00 NAtFMM=   60 NAOKFM=F Big=F
 Integral buffers will be    131072 words long.
 Raffenetti 2 integral format.
 Two-electron integral symmetry is turned off.
 Nuclear repulsion after empirical dispersion term =     1121.2332339254 Hartrees.
 One-electron integrals computed using PRISM.
 NBasis=   690 RedAO= T EigKep=  1.67D-04  NBF=   690
 NBsUse=   690 1.00D-06 EigRej= -1.00D+00 NBFU=   690
 ExpMin= 1.03D-01 ExpMax= 8.59D+03 ExpMxC= 1.30D+03 IAcc=3 IRadAn=         5 AccDes= 0.00D+00
 Harris functional with IExCor=  402 and IRadAn=       5 diagonalized for initial guess.
 HarFok:  IExCor=  402 AccDes= 0.00D+00 IRadAn=         5 IDoV= 1 UseB2=F ITyADJ=14
 ICtDFT=  3500011 ScaDFX=  1.000000  1.000000  1.000000  1.000000
 FoFCou: FMM=F IPFlag=           0 FMFlag=      100000 FMFlg1=           0
         NFxFlg=           0 DoJE=T BraDBF=F KetDBF=T FulRan=T
         wScrn=  0.000000 ICntrl=     500 IOpCl=  0 I1Cent=   200000004 NGrid=           0
         NMat0=    1 NMatS0=      1 NMatT0=    0 NMatD0=    1 NMtDS0=    0 NMtDT0=    0
 Symmetry not used in FoFCou.
 Requested convergence on RMS density matrix=1.00D-08 within 128 cycles.
 Requested convergence on MAX density matrix=1.00D-06.
 Requested convergence on             energy=1.00D-06.
 No special actions if energy rises.
 Integral accuracy reduced to 1.0D-05 until final iterations.
 EnCoef did     2 forward-backward iterations
 Initial convergence to 1.0D-05 achieved.  Increase integral accuracy.
 SCF Done:  E(RB3LYP) =  -796.767765649     A.U. after   16 cycles
            NFock= 16  Conv=0.87D-08     -V/T= 2.0038
 DoSCS=F DFT=T ScalE2(SS,OS)=  1.000000  1.000000
 Range of M.O.s used for correlation:     1   690
 NBasis=   690 NAE=    60 NBE=    60 NFC=     0 NFV=     0
 NROrb=    690 NOA=    60 NOB=    60 NVA=   630 NVB=   630

 **** Warning!!: The largest alpha MO coefficient is  0.11898531D+02

 Symmetrizing basis deriv contribution to polar:
 IMax=3 JMax=2 DiffMx= 0.00D+00
 G2DrvN: will do    32 centers at a time, making    1 passes.
 Calling FoFCou, ICntrl=  3107 FMM=F I1Cent=   0 AccDes= 0.00D+00.
 End of G2Drv F.D. properties file   721 does not exist.
 End of G2Drv F.D. properties file   722 does not exist.
 End of G2Drv F.D. properties file   788 does not exist.
          IDoAtm=1111111111111111111111111111111
          Differentiating once with respect to nuclear coordinates.
          There are    96 degrees of freedom in the 1st order CPHF.  IDoFFX=6 NUNeed=     0.
     90 vectors produced by pass  0 Test12= 3.94D-14 1.04D-09 XBig12= 1.60D-01 9.04D-02.
 AX will form    90 AO Fock derivatives at one time.
     90 vectors produced by pass  1 Test12= 3.94D-14 1.04D-09 XBig12= 1.25D-02 3.84D-02.
     90 vectors produced by pass  2 Test12= 3.94D-14 1.04D-09 XBig12= 1.67D-04 2.48D-03.
     90 vectors produced by pass  3 Test12= 3.94D-14 1.04D-09 XBig12= 1.13D-06 1.94D-04.
     90 vectors produced by pass  4 Test12= 3.94D-14 1.04D-09 XBig12= 4.20D-09 7.18D-06.
     82 vectors produced by pass  5 Test12= 3.94D-14 1.04D-09 XBig12= 7.24D-12 2.71D-07.
     40 vectors produced by pass  6 Test12= 3.94D-14 1.04D-09 XBig12= 1.03D-14 1.25D-08.
      1 vectors produced by pass  7 Test12= 3.94D-14 1.04D-09 XBig12= 2.02D-16 1.06D-09.
 InvSVY:  IOpt=1 It=  1 EMax= 5.55D-16
 Solved reduced A of dimension   573 with    96 vectors.
 End of Minotr F.D. properties file   721 does not exist.
 End of Minotr F.D. properties file   722 does not exist.
 End of Minotr F.D. properties file   788 does not exist.

 **********************************************************************

            Population analysis using the SCF density.

 **********************************************************************

 Alpha  occ. eigenvalues --  -19.27276 -19.22703 -19.21722 -14.64807 -14.46928
 Alpha  occ. eigenvalues --  -14.44500 -14.36276 -10.41799 -10.41799 -10.41099
 Alpha  occ. eigenvalues --  -10.35992 -10.34495 -10.29922 -10.29680 -10.28737
 Alpha  occ. eigenvalues --  -10.25580  -1.21978  -1.21396  -1.17878  -1.13550
 Alpha  occ. eigenvalues --   -1.09550  -1.06286  -0.97478  -0.94917  -0.91472
 Alpha  occ. eigenvalues --   -0.86068  -0.83034  -0.80217  -0.79606  -0.76943
 Alpha  occ. eigenvalues --   -0.73258  -0.71726  -0.70455  -0.69418  -0.68175
 Alpha  occ. eigenvalues --   -0.67077  -0.65203  -0.62469  -0.62051  -0.60265
 Alpha  occ. eigenvalues --   -0.58576  -0.56963  -0.56345  -0.55451  -0.54909
 Alpha  occ. eigenvalues --   -0.53853  -0.52243  -0.51895  -0.51110  -0.49675
 Alpha  occ. eigenvalues --   -0.49391  -0.48823  -0.47732  -0.43204  -0.40585
 Alpha  occ. eigenvalues --   -0.40317  -0.38590  -0.36110  -0.34598  -0.31191
 Alpha virt. eigenvalues --   -0.19295  -0.14004  -0.13011  -0.12245  -0.10524
 Alpha virt. eigenvalues --   -0.10259  -0.07620  -0.07419  -0.06065  -0.05691
 Alpha virt. eigenvalues --   -0.04879  -0.03905  -0.03204  -0.02189  -0.01393
 Alpha virt. eigenvalues --   -0.00370   0.00592   0.01044   0.02065   0.02707
 Alpha virt. eigenvalues --    0.03575   0.05742   0.05993   0.06991   0.08128
 Alpha virt. eigenvalues --    0.09391   0.10625   0.11124   0.11992   0.12384
 Alpha virt. eigenvalues --    0.13187   0.14627   0.15157   0.15424   0.17194
 Alpha virt. eigenvalues --    0.17409   0.20094   0.20674   0.21384   0.22321
 Alpha virt. eigenvalues --    0.23357   0.24746   0.24836   0.26010   0.26843
 Alpha virt. eigenvalues --    0.27439   0.27770   0.27995   0.28430   0.28956
 Alpha virt. eigenvalues --    0.29689   0.30181   0.30867   0.31230   0.31499
 Alpha virt. eigenvalues --    0.31923   0.32611   0.32726   0.33385   0.33476
 Alpha virt. eigenvalues --    0.34335   0.35072   0.35763   0.37033   0.37900
 Alpha virt. eigenvalues --    0.38070   0.38533   0.39126   0.39803   0.40579
 Alpha virt. eigenvalues --    0.40966   0.41174   0.42212   0.43678   0.44564
 Alpha virt. eigenvalues --    0.45093   0.46024   0.46972   0.47894   0.48685
 Alpha virt. eigenvalues --    0.50046   0.50585   0.51178   0.51536   0.52319
 Alpha virt. eigenvalues --    0.53436   0.54560   0.55749   0.56288   0.57427
 Alpha virt. eigenvalues --    0.58586   0.59284   0.59628   0.60869   0.62300
 Alpha virt. eigenvalues --    0.63890   0.64032   0.64184   0.64562   0.65369
 Alpha virt. eigenvalues --    0.66576   0.67439   0.67804   0.69537   0.70553
 Alpha virt. eigenvalues --    0.71066   0.71561   0.72026   0.73276   0.73480
 Alpha virt. eigenvalues --    0.73660   0.73874   0.75863   0.77454   0.77988
 Alpha virt. eigenvalues --    0.78376   0.79420   0.81097   0.81434   0.83169
 Alpha virt. eigenvalues --    0.84030   0.84612   0.86360   0.86772   0.87429
 Alpha virt. eigenvalues --    0.88428   0.89119   0.89392   0.90960   0.91026
 Alpha virt. eigenvalues --    0.92137   0.92335   0.92932   0.93050   0.94363
 Alpha virt. eigenvalues --    0.94548   0.96023   0.96928   0.97192   0.98174
 Alpha virt. eigenvalues --    0.98583   0.99490   1.00541   1.01493   1.01966
 Alpha virt. eigenvalues --    1.02384   1.04076   1.04567   1.05185   1.05427
 Alpha virt. eigenvalues --    1.07006   1.07979   1.08269   1.09666   1.10451
 Alpha virt. eigenvalues --    1.11284   1.11355   1.12660   1.13364   1.14051
 Alpha virt. eigenvalues --    1.15171   1.16281   1.16443   1.16981   1.17391
 Alpha virt. eigenvalues --    1.19275   1.19494   1.19968   1.21240   1.21598
 Alpha virt. eigenvalues --    1.22893   1.23613   1.23889   1.25122   1.26251
 Alpha virt. eigenvalues --    1.27065   1.27282   1.28370   1.28985   1.29631
 Alpha virt. eigenvalues --    1.30270   1.31143   1.31301   1.31498   1.32763
 Alpha virt. eigenvalues --    1.34168   1.34412   1.35259   1.35433   1.36651
 Alpha virt. eigenvalues --    1.38863   1.39939   1.41626   1.42965   1.43227
 Alpha virt. eigenvalues --    1.44474   1.45891   1.46375   1.48232   1.49639
 Alpha virt. eigenvalues --    1.51759   1.52691   1.53469   1.54183   1.55433
 Alpha virt. eigenvalues --    1.57574   1.58843   1.59775   1.62206   1.62920
 Alpha virt. eigenvalues --    1.64328   1.64978   1.65902   1.67337   1.67730
 Alpha virt. eigenvalues --    1.68312   1.70188   1.73713   1.75079   1.77118
 Alpha virt. eigenvalues --    1.79835   1.80452   1.86056   1.87785   1.90737
 Alpha virt. eigenvalues --    1.92264   1.94345   1.95944   1.98337   1.98863
 Alpha virt. eigenvalues --    2.04802   2.06017   2.09953   2.10541   2.11221
 Alpha virt. eigenvalues --    2.13011   2.15247   2.17075   2.20499   2.21785
 Alpha virt. eigenvalues --    2.24621   2.29380   2.34416   2.35659   2.37751
 Alpha virt. eigenvalues --    2.38866   2.40943   2.42659   2.44704   2.48334
 Alpha virt. eigenvalues --    2.50453   2.50940   2.51881   2.52581   2.53388
 Alpha virt. eigenvalues --    2.54750   2.55473   2.55777   2.56409   2.56961
 Alpha virt. eigenvalues --    2.59193   2.60681   2.62435   2.62484   2.63121
 Alpha virt. eigenvalues --    2.64209   2.65428   2.66203   2.66532   2.67778
 Alpha virt. eigenvalues --    2.70910   2.71490   2.71925   2.73524   2.74642
 Alpha virt. eigenvalues --    2.74966   2.75401   2.76970   2.77718   2.78011
 Alpha virt. eigenvalues --    2.79011   2.79543   2.80519   2.81660   2.81938
 Alpha virt. eigenvalues --    2.83054   2.83495   2.84473   2.85092   2.86379
 Alpha virt. eigenvalues --    2.87556   2.88699   2.88954   2.89958   2.90130
 Alpha virt. eigenvalues --    2.90893   2.92237   2.92538   2.92967   2.94521
 Alpha virt. eigenvalues --    2.95012   2.95486   2.96362   2.97409   2.97574
 Alpha virt. eigenvalues --    2.98518   2.98867   2.99781   3.00221   3.01323
 Alpha virt. eigenvalues --    3.01595   3.02173   3.02781   3.03623   3.04293
 Alpha virt. eigenvalues --    3.05298   3.05965   3.06612   3.07217   3.08655
 Alpha virt. eigenvalues --    3.08837   3.10601   3.11497   3.11526   3.12553
 Alpha virt. eigenvalues --    3.13263   3.13621   3.14026   3.14916   3.15367
 Alpha virt. eigenvalues --    3.15944   3.17204   3.17993   3.18569   3.19176
 Alpha virt. eigenvalues --    3.19647   3.19828   3.20995   3.22229   3.22470
 Alpha virt. eigenvalues --    3.23563   3.24623   3.25725   3.26035   3.27259
 Alpha virt. eigenvalues --    3.27583   3.27884   3.29154   3.30000   3.30470
 Alpha virt. eigenvalues --    3.32040   3.32088   3.33105   3.34526   3.35379
 Alpha virt. eigenvalues --    3.35604   3.37066   3.37235   3.39473   3.39489
 Alpha virt. eigenvalues --    3.39868   3.41330   3.41526   3.42314   3.43354
 Alpha virt. eigenvalues --    3.44033   3.45234   3.45928   3.47039   3.47595
 Alpha virt. eigenvalues --    3.48144   3.48565   3.49388   3.49978   3.50546
 Alpha virt. eigenvalues --    3.51816   3.52020   3.53281   3.53788   3.53959
 Alpha virt. eigenvalues --    3.56158   3.56553   3.57118   3.58867   3.59332
 Alpha virt. eigenvalues --    3.60127   3.60811   3.61681   3.62271   3.62954
 Alpha virt. eigenvalues --    3.63375   3.64188   3.66037   3.66915   3.68704
 Alpha virt. eigenvalues --    3.70009   3.70253   3.71682   3.72287   3.73779
 Alpha virt. eigenvalues --    3.74527   3.74702   3.75471   3.76951   3.77535
 Alpha virt. eigenvalues --    3.78531   3.80513   3.81403   3.81845   3.82085
 Alpha virt. eigenvalues --    3.82772   3.83351   3.83604   3.85272   3.85401
 Alpha virt. eigenvalues --    3.86870   3.88143   3.88598   3.88815   3.89541
 Alpha virt. eigenvalues --    3.90205   3.90666   3.91519   3.92401   3.93875
 Alpha virt. eigenvalues --    3.94616   3.94720   3.96073   3.98026   3.98923
 Alpha virt. eigenvalues --    3.99497   4.00627   4.01878   4.02134   4.03361
 Alpha virt. eigenvalues --    4.05627   4.06944   4.07091   4.07640   4.09119
 Alpha virt. eigenvalues --    4.10443   4.10971   4.11552   4.12494   4.13459
 Alpha virt. eigenvalues --    4.15408   4.16160   4.17108   4.17958   4.19486
 Alpha virt. eigenvalues --    4.22489   4.22726   4.23630   4.26855   4.27681
 Alpha virt. eigenvalues --    4.29519   4.30219   4.31696   4.33417   4.35815
 Alpha virt. eigenvalues --    4.36950   4.38138   4.39281   4.41162   4.41485
 Alpha virt. eigenvalues --    4.43448   4.44321   4.45369   4.45779   4.47255
 Alpha virt. eigenvalues --    4.48320   4.49583   4.52724   4.56358   4.58369
 Alpha virt. eigenvalues --    4.59958   4.61398   4.63464   4.64795   4.66522
 Alpha virt. eigenvalues --    4.68857   4.69770   4.70686   4.72182   4.72557
 Alpha virt. eigenvalues --    4.73634   4.74311   4.75950   4.76262   4.78948
 Alpha virt. eigenvalues --    4.80302   4.81054   4.81978   4.83574   4.85044
 Alpha virt. eigenvalues --    4.86398   4.88099   4.88696   4.90273   4.91540
 Alpha virt. eigenvalues --    4.92414   4.92708   4.93080   4.94361   4.95629
 Alpha virt. eigenvalues --    4.97022   4.97179   4.97946   4.98548   4.99081
 Alpha virt. eigenvalues --    4.99650   5.00286   5.00860   5.01419   5.02560
 Alpha virt. eigenvalues --    5.03931   5.04784   5.05824   5.06500   5.07441
 Alpha virt. eigenvalues --    5.08771   5.09781   5.12707   5.14386   5.14625
 Alpha virt. eigenvalues --    5.16424   5.16889   5.17857   5.20241   5.20713
 Alpha virt. eigenvalues --    5.22209   5.23916   5.24236   5.24847   5.26046
 Alpha virt. eigenvalues --    5.27281   5.30008   5.31916   5.32741   5.34072
 Alpha virt. eigenvalues --    5.35322   5.35543   5.37924   5.38825   5.40522
 Alpha virt. eigenvalues --    5.41155   5.43950   5.44300   5.46034   5.47609
 Alpha virt. eigenvalues --    5.48817   5.50908   5.51905   5.52973   5.54612
 Alpha virt. eigenvalues --    5.57293   5.62353   5.63729   5.67281   5.69654
 Alpha virt. eigenvalues --    5.71481   5.73863   5.76634   5.77081   5.78541
 Alpha virt. eigenvalues --    5.81208   5.81776   5.82349   5.84850   5.85936
 Alpha virt. eigenvalues --    5.87959   5.96051   5.97250   5.99996   6.05702
 Alpha virt. eigenvalues --    6.11886   6.12659   6.15789   6.16402   6.19569
 Alpha virt. eigenvalues --    6.22212   6.27408   6.29417   6.31486   6.34661
 Alpha virt. eigenvalues --    6.39012   6.44294   6.46975   6.56723   6.63145
 Alpha virt. eigenvalues --    6.73271   6.74042   6.80744   6.83259   6.83538
 Alpha virt. eigenvalues --    6.85927   6.87394   6.89861   6.94100   6.97325
 Alpha virt. eigenvalues --    7.00624   7.08615   7.08972   7.10488   7.16634
 Alpha virt. eigenvalues --    7.17581   7.23858   7.30215   7.37566   7.42257
 Alpha virt. eigenvalues --    7.45549   7.45861   7.63744   7.86240  24.36122
 Alpha virt. eigenvalues --   24.49252  24.58281  24.72497  24.79943  24.86690
 Alpha virt. eigenvalues --   24.89805  24.96138  25.02267  35.90511  36.10105
 Alpha virt. eigenvalues --   36.16829  36.34372  50.05737  50.08597  50.18833
          Condensed to atoms (all electrons):
               1          2          3          4          5          6
     1  O    7.888181   0.617152  -0.101047  -0.006280  -0.001703  -0.000004
     2  C    0.617152   4.350011   0.419380  -0.071288   0.010159  -0.000340
     3  N   -0.101047   0.419380   6.623242   0.178804  -0.007053   0.003313
     4  C   -0.006280  -0.071288   0.178804   5.431327   0.208496  -0.123884
     5  C   -0.001703   0.010159  -0.007053   0.208496   4.258220   0.392895
     6  O   -0.000004  -0.000340   0.003313  -0.123884   0.392895   7.763804
     7  O   -0.000008   0.001296  -0.019157  -0.119394   0.731246  -0.066291
     8  C    0.001192   0.001830  -0.037727   0.268716  -0.039386   0.007030
     9  C   -0.001926   0.003339  -0.000104  -0.039799  -0.002861  -0.000119
    10  C   -0.010708   0.003189   0.002654  -0.006641  -0.000285   0.000001
    11  N    0.000043  -0.000101  -0.000013  -0.000768  -0.000006   0.000000
    12  C   -0.000008  -0.000010   0.000038  -0.000334   0.000001   0.000000
    13  N    0.000001   0.000007  -0.000152   0.000437  -0.000004   0.000000
    14  C   -0.067549   0.298410  -0.049721   0.008400  -0.001534  -0.000004
    15  C    0.004821  -0.059234   0.000350  -0.000212  -0.000033   0.000000
    16  N    0.000438  -0.002807   0.000025  -0.000003   0.000000   0.000000
    17  H    0.004115  -0.024357   0.327333  -0.052080  -0.000440   0.001559
    18  H    0.032582  -0.021358  -0.040738   0.375452  -0.018893   0.001004
    19  H   -0.000149   0.000038   0.000302   0.005251  -0.047189   0.307716
    20  H   -0.000040  -0.001599   0.000002  -0.024881   0.001703  -0.000575
    21  H   -0.000016   0.000538   0.005186  -0.039281   0.001265   0.009080
    22  H    0.027241  -0.003122  -0.004915   0.004342   0.000021   0.000010
    23  H    0.000000   0.000000   0.000000   0.000006   0.000000   0.000000
    24  H    0.000000  -0.000005  -0.000014  -0.000042   0.000001  -0.000002
    25  H   -0.001370  -0.009337   0.000471   0.000018   0.000039   0.000000
    26  H    0.002533  -0.012303   0.001690  -0.000761   0.000454  -0.000001
    27  H    0.002880   0.005674   0.000394   0.000017   0.000018   0.000000
    28  H    0.020654   0.003319   0.001123  -0.000004   0.000009   0.000000
    29  H    0.000023   0.000342   0.000005   0.000000   0.000000   0.000000
    30  H    0.000024  -0.000264   0.000002   0.000000   0.000000   0.000000
    31  H    0.000020   0.000201  -0.000003   0.000001   0.000000   0.000000
               7          8          9         10         11         12
     1  O   -0.000008   0.001192  -0.001926  -0.010708   0.000043  -0.000008
     2  C    0.001296   0.001830   0.003339   0.003189  -0.000101  -0.000010
     3  N   -0.019157  -0.037727  -0.000104   0.002654  -0.000013   0.000038
     4  C   -0.119394   0.268716  -0.039799  -0.006641  -0.000768  -0.000334
     5  C    0.731246  -0.039386  -0.002861  -0.000285  -0.000006   0.000001
     6  O   -0.066291   0.007030  -0.000119   0.000001   0.000000   0.000000
     7  O    7.772980   0.004887   0.000089  -0.000003   0.000000   0.000000
     8  C    0.004887   4.877561   0.249002  -0.038317   0.015049  -0.000842
     9  C    0.000089   0.249002   5.135952   0.508940  -0.051562  -0.123380
    10  C   -0.000003  -0.038317   0.508940   4.778908   0.465044  -0.150857
    11  N    0.000000   0.015049  -0.051562   0.465044   6.501775   0.585296
    12  C    0.000000  -0.000842  -0.123380  -0.150857   0.585296   4.570121
    13  N    0.000000  -0.042696   0.379704  -0.034297  -0.137853   0.475297
    14  C   -0.000614  -0.000241  -0.000273  -0.000562   0.000002   0.000001
    15  C   -0.000004  -0.000010   0.000007   0.000025   0.000000   0.000000
    16  N    0.000000   0.000000   0.000000   0.000000   0.000000   0.000000
    17  H    0.039358   0.002625  -0.000531   0.000342   0.000000  -0.000005
    18  H    0.002666  -0.045859  -0.000062   0.002946  -0.000021  -0.000113
    19  H    0.005044  -0.000270  -0.000154  -0.000054  -0.000001   0.000003
    20  H    0.002776   0.371470  -0.038771   0.000027  -0.000445   0.000549
    21  H   -0.000977   0.391066  -0.046678   0.001636  -0.000411   0.000632
    22  H   -0.000007  -0.004393  -0.055294   0.404228  -0.014072   0.004934
    23  H    0.000000  -0.000145   0.005570   0.003168  -0.015535   0.426389
    24  H    0.000000   0.008160  -0.031784   0.001795   0.007778  -0.025763
    25  H   -0.000006   0.000040   0.000170   0.000548   0.000001  -0.000006
    26  H    0.000164   0.000047   0.000008  -0.000020   0.000000   0.000000
    27  H    0.000004   0.000001   0.000000   0.000004   0.000000   0.000000
    28  H    0.000000  -0.000003   0.000002  -0.000043   0.000000   0.000000
    29  H    0.000000   0.000000   0.000000   0.000000   0.000000   0.000000
    30  H    0.000000   0.000000   0.000000   0.000000   0.000000   0.000000
    31  H    0.000000   0.000000   0.000000   0.000000   0.000000   0.000000
              13         14         15         16         17         18
     1  O    0.000001  -0.067549   0.004821   0.000438   0.004115   0.032582
     2  C    0.000007   0.298410  -0.059234  -0.002807  -0.024357  -0.021358
     3  N   -0.000152  -0.049721   0.000350   0.000025   0.327333  -0.040738
     4  C    0.000437   0.008400  -0.000212  -0.000003  -0.052080   0.375452
     5  C   -0.000004  -0.001534  -0.000033   0.000000  -0.000440  -0.018893
     6  O    0.000000  -0.000004   0.000000   0.000000   0.001559   0.001004
     7  O    0.000000  -0.000614  -0.000004   0.000000   0.039358   0.002666
     8  C   -0.042696  -0.000241  -0.000010   0.000000   0.002625  -0.045859
     9  C    0.379704  -0.000273   0.000007   0.000000  -0.000531  -0.000062
    10  C   -0.034297  -0.000562   0.000025   0.000000   0.000342   0.002946
    11  N   -0.137853   0.000002   0.000000   0.000000   0.000000  -0.000021
    12  C    0.475297   0.000001   0.000000   0.000000  -0.000005  -0.000113
    13  N    6.239524   0.000001   0.000000   0.000000  -0.000030  -0.000066
    14  C    0.000001   4.957973   0.285321  -0.017684  -0.003044   0.003372
    15  C    0.000000   0.285321   4.760078   0.202663  -0.000386   0.000080
    16  N    0.000000  -0.017684   0.202663   5.654775  -0.000058  -0.000001
    17  H   -0.000030  -0.003044  -0.000386  -0.000058   0.590678   0.008372
    18  H   -0.000066   0.003372   0.000080  -0.000001   0.008372   0.651224
    19  H   -0.000010   0.000000   0.000001   0.000000  -0.000486   0.002228
    20  H    0.000800   0.000087   0.000003   0.000000   0.002554   0.009864
    21  H    0.001349   0.000015   0.000000   0.000000  -0.000113  -0.007288
    22  H    0.005794   0.001062  -0.000174   0.000000  -0.000274  -0.003707
    23  H   -0.036393   0.000000   0.000000   0.000000   0.000000   0.000001
    24  H    0.386460   0.000000   0.000000   0.000000   0.000000   0.000038
    25  H   -0.000003   0.377968  -0.036941  -0.000298   0.000620  -0.000125
    26  H    0.000000   0.382584  -0.037339   0.000629  -0.002366  -0.000696
    27  H    0.000000  -0.040552   0.410354  -0.023376  -0.000047   0.000016
    28  H    0.000000  -0.044716   0.398927  -0.019296  -0.000197  -0.000179
    29  H    0.000000   0.000860  -0.030176   0.357685   0.000000   0.000000
    30  H    0.000000   0.002367  -0.016636   0.379787   0.000000   0.000000
    31  H    0.000000  -0.000635  -0.025824   0.357088   0.000001   0.000000
              19         20         21         22         23         24
     1  O   -0.000149  -0.000040  -0.000016   0.027241   0.000000   0.000000
     2  C    0.000038  -0.001599   0.000538  -0.003122   0.000000  -0.000005
     3  N    0.000302   0.000002   0.005186  -0.004915   0.000000  -0.000014
     4  C    0.005251  -0.024881  -0.039281   0.004342   0.000006  -0.000042
     5  C   -0.047189   0.001703   0.001265   0.000021   0.000000   0.000001
     6  O    0.307716  -0.000575   0.009080   0.000010   0.000000  -0.000002
     7  O    0.005044   0.002776  -0.000977  -0.000007   0.000000   0.000000
     8  C   -0.000270   0.371470   0.391066  -0.004393  -0.000145   0.008160
     9  C   -0.000154  -0.038771  -0.046678  -0.055294   0.005570  -0.031784
    10  C   -0.000054   0.000027   0.001636   0.404228   0.003168   0.001795
    11  N   -0.000001  -0.000445  -0.000411  -0.014072  -0.015535   0.007778
    12  C    0.000003   0.000549   0.000632   0.004934   0.426389  -0.025763
    13  N   -0.000010   0.000800   0.001349   0.005794  -0.036393   0.386460
    14  C    0.000000   0.000087   0.000015   0.001062   0.000000   0.000000
    15  C    0.000001   0.000003   0.000000  -0.000174   0.000000   0.000000
    16  N    0.000000   0.000000   0.000000   0.000000   0.000000   0.000000
    17  H   -0.000486   0.002554  -0.000113  -0.000274   0.000000   0.000000
    18  H    0.002228   0.009864  -0.007288  -0.003707   0.000001   0.000038
    19  H    0.504397   0.000029   0.001196  -0.000023   0.000000  -0.000002
    20  H    0.000029   0.689203  -0.045835  -0.000346  -0.000007   0.000800
    21  H    0.001196  -0.045835   0.698848  -0.000158   0.000000   0.000477
    22  H   -0.000023  -0.000346  -0.000158   0.606009  -0.000331  -0.000540
    23  H    0.000000  -0.000007   0.000000  -0.000331   0.584983  -0.001161
    24  H   -0.000002   0.000800   0.000477  -0.000540  -0.001161   0.542786
    25  H    0.000000  -0.000052   0.000002  -0.000282   0.000000   0.000000
    26  H    0.000002  -0.000032   0.000001   0.000057   0.000000   0.000000
    27  H    0.000000   0.000000   0.000000  -0.000017   0.000000   0.000000
    28  H    0.000000   0.000000   0.000000   0.000186   0.000000   0.000000
    29  H    0.000000   0.000000   0.000000   0.000000   0.000000   0.000000
    30  H    0.000000   0.000000   0.000000   0.000000   0.000000   0.000000
    31  H    0.000000   0.000000   0.000000   0.000000   0.000000   0.000000
              25         26         27         28         29         30
     1  O   -0.001370   0.002533   0.002880   0.020654   0.000023   0.000024
     2  C   -0.009337  -0.012303   0.005674   0.003319   0.000342  -0.000264
     3  N    0.000471   0.001690   0.000394   0.001123   0.000005   0.000002
     4  C    0.000018  -0.000761   0.000017  -0.000004   0.000000   0.000000
     5  C    0.000039   0.000454   0.000018   0.000009   0.000000   0.000000
     6  O    0.000000  -0.000001   0.000000   0.000000   0.000000   0.000000
     7  O   -0.000006   0.000164   0.000004   0.000000   0.000000   0.000000
     8  C    0.000040   0.000047   0.000001  -0.000003   0.000000   0.000000
     9  C    0.000170   0.000008   0.000000   0.000002   0.000000   0.000000
    10  C    0.000548  -0.000020   0.000004  -0.000043   0.000000   0.000000
    11  N    0.000001   0.000000   0.000000   0.000000   0.000000   0.000000
    12  C   -0.000006   0.000000   0.000000   0.000000   0.000000   0.000000
    13  N   -0.000003   0.000000   0.000000   0.000000   0.000000   0.000000
    14  C    0.377968   0.382584  -0.040552  -0.044716   0.000860   0.002367
    15  C   -0.036941  -0.037339   0.410354   0.398927  -0.030176  -0.016636
    16  N   -0.000298   0.000629  -0.023376  -0.019296   0.357685   0.379787
    17  H    0.000620  -0.002366  -0.000047  -0.000197   0.000000   0.000000
    18  H   -0.000125  -0.000696   0.000016  -0.000179   0.000000   0.000000
    19  H    0.000000   0.000002   0.000000   0.000000   0.000000   0.000000
    20  H   -0.000052  -0.000032   0.000000   0.000000   0.000000   0.000000
    21  H    0.000002   0.000001   0.000000   0.000000   0.000000   0.000000
    22  H   -0.000282   0.000057  -0.000017   0.000186   0.000000   0.000000
    23  H    0.000000   0.000000   0.000000   0.000000   0.000000   0.000000
    24  H    0.000000   0.000000   0.000000   0.000000   0.000000   0.000000
    25  H    0.641475  -0.037227   0.006395  -0.004755   0.004881  -0.000023
    26  H   -0.037227   0.660514  -0.005386   0.007558  -0.001004   0.000043
    27  H    0.006395  -0.005386   0.591583  -0.029069   0.005877  -0.003185
    28  H   -0.004755   0.007558  -0.029069   0.579482  -0.004839  -0.002514
    29  H    0.004881  -0.001004   0.005877  -0.004839   0.554510  -0.024365
    30  H   -0.000023   0.000043  -0.003185  -0.002514  -0.024365   0.542528
    31  H   -0.001139   0.003676  -0.005339   0.004961  -0.024808  -0.024537
              31
     1  O    0.000020
     2  C    0.000201
     3  N   -0.000003
     4  C    0.000001
     5  C    0.000000
     6  O    0.000000
     7  O    0.000000
     8  C    0.000000
     9  C    0.000000
    10  C    0.000000
    11  N    0.000000
    12  C    0.000000
    13  N    0.000000
    14  C   -0.000635
    15  C   -0.025824
    16  N    0.357088
    17  H    0.000001
    18  H    0.000000
    19  H    0.000000
    20  H    0.000000
    21  H    0.000000
    22  H    0.000000
    23  H    0.000000
    24  H    0.000000
    25  H   -0.001139
    26  H    0.003676
    27  H   -0.005339
    28  H    0.004961
    29  H   -0.024808
    30  H   -0.024537
    31  H    0.558042
 Mulliken charges:
               1
     1  O   -0.411092
     2  C    0.491237
     3  N   -0.303671
     4  C    0.004388
     5  C    0.514860
     6  O   -0.295194
     7  O   -0.354051
     8  C    0.011211
     9  C    0.110516
    10  C    0.068332
    11  N   -0.354199
    12  C    0.238055
    13  N   -0.237870
    14  C   -0.091293
    15  C    0.144338
    16  N    0.110432
    17  H    0.106856
    18  H    0.049260
    19  H    0.222132
    20  H    0.032716
    21  H    0.029465
    22  H    0.033770
    23  H    0.033455
    24  H    0.111018
    25  H    0.058932
    26  H    0.037172
    27  H    0.083755
    28  H    0.089393
    29  H    0.161008
    30  H    0.146774
    31  H    0.158294
 Sum of Mulliken charges =   1.00000
 Mulliken charges with hydrogens summed into heavy atoms:
               1
     1  O   -0.411092
     2  C    0.491237
     3  N   -0.196815
     4  C    0.053648
     5  C    0.514860
     6  O   -0.073062
     7  O   -0.354051
     8  C    0.073393
     9  C    0.110516
    10  C    0.102102
    11  N   -0.354199
    12  C    0.271511
    13  N   -0.126852
    14  C    0.004811
    15  C    0.317486
    16  N    0.576507
 APT charges:
               1
     1  O   -0.208681
     2  C    0.093187
     3  N   -0.400322
     4  C   -0.142627
     5  C   -0.623737
     6  O    0.067051
     7  O    0.265866
     8  C   -0.772413
     9  C    0.020718
    10  C   -0.278241
    11  N   -0.046401
    12  C   -0.532737
    13  N   -0.673321
    14  C   -0.404612
    15  C   -0.167924
    16  N   -0.939484
    17  H    0.349578
    18  H    0.154570
    19  H    0.347217
    20  H    0.264466
    21  H    0.423963
    22  H   -0.113504
    23  H    1.011840
    24  H    0.757067
    25  H    0.222104
    26  H    0.237003
    27  H    0.218522
    28  H    0.176349
    29  H    0.331810
    30  H    0.948611
    31  H    0.414081
 Sum of APT charges =   1.00000
 APT charges with hydrogens summed into heavy atoms:
               1
     1  O   -0.208681
     2  C    0.093187
     3  N   -0.050745
     4  C    0.011943
     5  C   -0.623737
     6  O    0.414268
     7  O    0.265866
     8  C   -0.083983
     9  C    0.020718
    10  C   -0.391744
    11  N   -0.046401
    12  C    0.479103
    13  N    0.083746
    14  C    0.054495
    15  C    0.226947
    16  N    0.755019
 Electronic spatial extent (au):  <R**2>=           4828.8291
 Charge=              1.0000 electrons
 Dipole moment (field-independent basis, Debye):
    X=            -15.5335    Y=              4.3152    Z=              3.6428  Tot=             16.5282
 Quadrupole moment (field-independent basis, Debye-Ang):
   XX=             32.6928   YY=            -87.6029   ZZ=           -105.8635
   XY=            -21.7635   XZ=             -2.5855   YZ=             14.0776
 Traceless Quadrupole moment (field-independent basis, Debye-Ang):
   XX=             86.2840   YY=            -34.0117   ZZ=            -52.2723
   XY=            -21.7635   XZ=             -2.5855   YZ=             14.0776
 Octapole moment (field-independent basis, Debye-Ang**2):
  XXX=           -500.9668  YYY=             65.8028  ZZZ=             29.0586  XYY=            -60.6543
  XXY=            139.5551  XXZ=             41.0876  XZZ=            -76.5353  YZZ=             27.5801
  YYZ=            -18.0796  XYZ=              9.3071
 Hexadecapole moment (field-independent basis, Debye-Ang**3):
 XXXX=           -658.8310 YYYY=          -1404.7631 ZZZZ=          -1080.1564 XXXY=           -313.5041
 XXXZ=            119.5970 YYYX=            -59.1359 YYYZ=            489.7330 ZZZX=            264.3168
 ZZZY=            484.7811 XXYY=           -591.0681 XXZZ=           -746.3854 YYZZ=           -479.6803
 XXYZ=            140.4017 YYXZ=             34.7398 ZZXY=            -25.3841
 N-N= 1.121233233925D+03 E-N=-4.089504697078D+03  KE= 7.937268445282D+02
  Exact polarizability:   0.000   0.000   0.000   0.000   0.000   0.000
 Approx polarizability: 200.926   3.420 175.057   7.102 -13.436 216.237
 Calling FoFJK, ICntrl=    100147 FMM=F ISym2X=0 I1Cent= 0 IOpClX= 0 NMat=1 NMatS=1 NMatT=0.
 -------------------------------------------------------------------
 Center     Atomic                   Forces (Hartrees/Bohr)
 Number     Number              X              Y              Z
 -------------------------------------------------------------------
      1        8          -0.012000992    0.006874811    0.013262107
      2        6           0.021458856   -0.011249527   -0.012248252
      3        7          -0.015908552    0.002599472   -0.001965980
      4        6           0.003861865    0.001916019   -0.002426289
      5        6           0.002678171   -0.011637120    0.003254788
      6        8          -0.003734448    0.007853868    0.002489888
      7        8          -0.001282298    0.004115180   -0.004102151
      8        6           0.007056683    0.006092318   -0.006803019
      9        6           0.002215090   -0.001974762    0.005549408
     10        6          -0.006027567    0.001559829   -0.004262130
     11        7          -0.001077893   -0.003443841    0.004836527
     12        6          -0.001838742    0.002441874   -0.005276301
     13        7          -0.000086480   -0.004490638    0.006826034
     14        6          -0.008145689    0.009243056    0.008618305
     15        6           0.024200056   -0.016256430   -0.011837718
     16        7          -0.005733016    0.002386088    0.001060329
     17        1           0.002169844   -0.000059157   -0.000120204
     18        1          -0.000993814   -0.000598046    0.000568864
     19        1           0.001751340   -0.002736368   -0.002356160
     20        1          -0.001145076   -0.001157149    0.002563732
     21        1          -0.001432081   -0.000390892    0.001649972
     22        1           0.001814513    0.001316553   -0.003083648
     23        1           0.000431356    0.000327620   -0.000290696
     24        1           0.000495041    0.000531002   -0.000848094
     25        1           0.002557274    0.000389828    0.000965322
     26        1           0.000038396    0.000465218    0.000685415
     27        1          -0.006081716    0.002243523    0.000860454
     28        1          -0.004759679    0.001564366    0.000881848
     29        1           0.000517683    0.002614198    0.000454240
     30        1          -0.000822661   -0.000770037   -0.001337666
     31        1          -0.000175463    0.000229144    0.002431075
 -------------------------------------------------------------------
 Cartesian Forces:  Max     0.024200056 RMS     0.006077308
 FormGI is forming the generalized inverse of G from B-inverse, IUseBI=4.
 GSVD:  received Info=                   1 from GESDD.

 GradGradGradGradGradGradGradGradGradGradGradGradGradGradGradGradGradGrad
 Berny optimization.
 Internal  Forces:  Max     0.016807859 RMS     0.003383812
 Search for a local minimum.
 Step number   1 out of a maximum of  167
 All quantities printed in internal units (Hartrees-Bohrs-Radians)
 Mixed Optimization -- RFO/linear search
 Second derivative matrix not updated -- analytic derivatives used.
 ITU=  0
     Eigenvalues ---   -0.00019   0.00093   0.00152   0.00188   0.00306
     Eigenvalues ---    0.00447   0.00471   0.00530   0.00805   0.00888
     Eigenvalues ---    0.01143   0.01544   0.02181   0.02704   0.03197
     Eigenvalues ---    0.03693   0.03772   0.03908   0.03987   0.04195
     Eigenvalues ---    0.04263   0.04408   0.04855   0.04954   0.05200
     Eigenvalues ---    0.05244   0.05465   0.05733   0.06243   0.07357
     Eigenvalues ---    0.08255   0.08323   0.10351   0.10500   0.11098
     Eigenvalues ---    0.11590   0.11828   0.12258   0.12800   0.13214
     Eigenvalues ---    0.13409   0.15413   0.15593   0.16111   0.16595
     Eigenvalues ---    0.17330   0.18075   0.19438   0.20336   0.21492
     Eigenvalues ---    0.22413   0.22623   0.23108   0.23683   0.24134
     Eigenvalues ---    0.26205   0.28689   0.28933   0.30799   0.32103
     Eigenvalues ---    0.32230   0.32733   0.33004   0.33422   0.33533
     Eigenvalues ---    0.33653   0.33785   0.34322   0.34670   0.35775
     Eigenvalues ---    0.36969   0.37089   0.39685   0.41193   0.42007
     Eigenvalues ---    0.42830   0.43010   0.43935   0.44624   0.45395
     Eigenvalues ---    0.46367   0.47479   0.47909   0.52825   0.58211
     Eigenvalues ---    0.77371   0.89216
 RFO step:  Lambda=-9.59109781D-03 EMin=-1.89549901D-04
 Linear search not attempted -- first point.
 Iteration  1 RMS(Cart)=  0.15834764 RMS(Int)=  0.03998751
 Iteration  2 RMS(Cart)=  0.11671283 RMS(Int)=  0.00662567
 Iteration  3 RMS(Cart)=  0.00917317 RMS(Int)=  0.00033965
 Iteration  4 RMS(Cart)=  0.00004574 RMS(Int)=  0.00033857
 Iteration  5 RMS(Cart)=  0.00000004 RMS(Int)=  0.00033857
 Variable       Old X    -DE/DX   Delta X   Delta X   Delta X     New X
                                 (Linear)    (Quad)   (Total)
    R1        2.31778  -0.01526   0.00000  -0.01421  -0.01421   2.30357
    R2        2.58343  -0.01108   0.00000  -0.04281  -0.04281   2.54061
    R3        2.86585   0.00083   0.00000   0.02296   0.02296   2.88881
    R4        2.73361   0.00259   0.00000   0.01072   0.01072   2.74433
    R5        1.91152  -0.00056   0.00000  -0.00083  -0.00083   1.91069
    R6        2.88133   0.00141   0.00000   0.01066   0.01066   2.89199
    R7        2.90090   0.00078   0.00000   0.00637   0.00637   2.90726
    R8        2.05995  -0.00021   0.00000  -0.00053  -0.00053   2.05942
    R9        2.55480  -0.00520   0.00000  -0.02420  -0.02420   2.53060
   R10        2.26626  -0.00299   0.00000  -0.00052  -0.00052   2.26574
   R11        1.81874   0.00243   0.00000   0.00416   0.00416   1.82290
   R12        2.83948  -0.00569   0.00000  -0.02111  -0.02111   2.81836
   R13        2.06179   0.00168   0.00000   0.00615   0.00615   2.06795
   R14        2.07039  -0.00080   0.00000  -0.00206  -0.00206   2.06833
   R15        2.57541   0.00630   0.00000   0.01460   0.01462   2.59002
   R16        2.61457  -0.00128   0.00000  -0.00583  -0.00584   2.60873
   R17        2.61419  -0.00459   0.00000  -0.01297  -0.01296   2.60123
   R18        2.03705  -0.00120   0.00000  -0.00443  -0.00443   2.03262
   R19        2.47698  -0.00127   0.00000  -0.00501  -0.00501   2.47197
   R20        2.56593   0.00460   0.00000   0.01290   0.01289   2.57882
   R21        2.03403   0.00059   0.00000   0.00127   0.00127   2.03530
   R22        1.90120  -0.00022   0.00000  -0.00063  -0.00063   1.90057
   R23        2.87487  -0.00076   0.00000  -0.00839  -0.00839   2.86648
   R24        2.06651   0.00080   0.00000  -0.00210  -0.00210   2.06441
   R25        2.06375   0.00057   0.00000   0.00297   0.00297   2.06672
   R26        2.81112   0.00807   0.00000   0.05024   0.05024   2.86136
   R27        2.05860  -0.00096   0.00000  -0.00543  -0.00543   2.05317
   R28        2.05853  -0.00113   0.00000  -0.00832  -0.00832   2.05020
   R29        1.92736   0.00262   0.00000   0.00383   0.00383   1.93119
   R30        1.92930   0.00151   0.00000   0.00160   0.00160   1.93090
   R31        1.92735   0.00232   0.00000   0.00340   0.00340   1.93074
    A1        2.13854   0.01297   0.00000   0.04972   0.04971   2.18826
    A2        2.13957  -0.01342   0.00000  -0.05757  -0.05760   2.08197
    A3        2.00349   0.00045   0.00000   0.00853   0.00850   2.01199
    A4        2.11097   0.00297   0.00000   0.02300   0.02234   2.13331
    A5        2.05456   0.00024   0.00000   0.01677   0.01620   2.07075
    A6        1.99409  -0.00235   0.00000  -0.00928  -0.01011   1.98398
    A7        1.89334  -0.00235   0.00000  -0.01989  -0.01987   1.87347
    A8        1.97257  -0.00245   0.00000  -0.01993  -0.01988   1.95269
    A9        1.86962   0.00141   0.00000   0.00542   0.00554   1.87516
   A10        1.89673   0.00347   0.00000   0.01395   0.01359   1.91031
   A11        1.92938  -0.00057   0.00000   0.00364   0.00342   1.93280
   A12        1.90238   0.00041   0.00000   0.01667   0.01658   1.91896
   A13        2.01483   0.00458   0.00000   0.02188   0.02188   2.03671
   A14        2.16079  -0.00788   0.00000  -0.03423  -0.03423   2.12656
   A15        2.10685   0.00332   0.00000   0.01237   0.01237   2.11922
   A16        1.91811   0.00576   0.00000   0.03316   0.03316   1.95127
   A17        1.98964  -0.00482   0.00000  -0.01696  -0.01699   1.97264
   A18        1.90880  -0.00072   0.00000  -0.02562  -0.02566   1.88314
   A19        1.89523   0.00072   0.00000   0.00152   0.00162   1.89685
   A20        1.91576   0.00275   0.00000   0.01473   0.01425   1.93001
   A21        1.89533   0.00317   0.00000   0.03314   0.03307   1.92840
   A22        1.85406  -0.00083   0.00000  -0.00575  -0.00612   1.84794
   A23        2.33349  -0.00095   0.00000  -0.00595  -0.00598   2.32750
   A24        2.12611  -0.00041   0.00000   0.00241   0.00237   2.12848
   A25        1.82329   0.00136   0.00000   0.00384   0.00383   1.82712
   A26        1.94012  -0.00210   0.00000  -0.00748  -0.00751   1.93261
   A27        2.20269   0.00443   0.00000   0.02946   0.02938   2.23208
   A28        2.13999  -0.00232   0.00000  -0.02144  -0.02153   2.11847
   A29        1.83206   0.00296   0.00000   0.01158   0.01163   1.84369
   A30        1.94928  -0.00010   0.00000  -0.00479  -0.00479   1.94449
   A31        2.19919  -0.00006   0.00000   0.00376   0.00376   2.20295
   A32        2.13471   0.00016   0.00000   0.00103   0.00103   2.13575
   A33        1.88002  -0.00212   0.00000  -0.00315  -0.00316   1.87686
   A34        2.19506   0.00206   0.00000   0.00909   0.00909   2.20415
   A35        2.20810   0.00006   0.00000  -0.00594  -0.00594   2.20216
   A36        1.96228  -0.01681   0.00000  -0.09985  -0.09975   1.86254
   A37        1.88125   0.00279   0.00000   0.02231   0.02310   1.90435
   A38        1.91394   0.00622   0.00000   0.01245   0.01212   1.92606
   A39        1.90230   0.00600   0.00000   0.03870   0.03849   1.94078
   A40        1.92746   0.00509   0.00000   0.02567   0.02450   1.95196
   A41        1.87390  -0.00277   0.00000   0.00546   0.00433   1.87823
   A42        1.95276  -0.00341   0.00000  -0.01201  -0.01155   1.94121
   A43        1.91108   0.00468   0.00000   0.03704   0.03636   1.94744
   A44        1.89777   0.00364   0.00000   0.04593   0.04529   1.94306
   A45        1.91200  -0.00266   0.00000  -0.03587  -0.03582   1.87618
   A46        1.91839  -0.00218   0.00000  -0.04102  -0.04093   1.87746
   A47        1.86994   0.00016   0.00000   0.00757   0.00508   1.87503
   A48        1.94014   0.00029   0.00000   0.00220   0.00220   1.94234
   A49        1.95171  -0.00116   0.00000  -0.01090  -0.01090   1.94081
   A50        1.94405   0.00054   0.00000   0.00074   0.00074   1.94479
   A51        1.87276   0.00048   0.00000   0.00514   0.00515   1.87790
   A52        1.87904  -0.00061   0.00000  -0.00338  -0.00338   1.87566
   A53        1.87240   0.00049   0.00000   0.00672   0.00672   1.87912
    D1       -0.23967   0.00127   0.00000   0.05895   0.05953  -0.18014
    D2       -2.83817   0.00028   0.00000   0.00024   0.00019  -2.83798
    D3        2.96087   0.00170   0.00000   0.04831   0.04836   3.00923
    D4        0.36238   0.00071   0.00000  -0.01041  -0.01098   0.35139
    D5        0.47871  -0.00096   0.00000  -0.38174  -0.38179   0.09692
    D6       -1.61824   0.00000   0.00000  -0.38364  -0.38344  -2.00168
    D7        2.63018  -0.00161   0.00000  -0.40933  -0.40893   2.22126
    D8       -2.72188  -0.00039   0.00000  -0.36704  -0.36746  -3.08933
    D9        1.46436   0.00057   0.00000  -0.36894  -0.36911   1.09525
   D10       -0.57040  -0.00104   0.00000  -0.39463  -0.39460  -0.96500
   D11       -1.99828   0.00018   0.00000  -0.04139  -0.04110  -2.03938
   D12        2.18030  -0.00100   0.00000  -0.03249  -0.03250   2.14780
   D13        0.08477  -0.00098   0.00000  -0.04482  -0.04472   0.04005
   D14        0.61766   0.00182   0.00000   0.02257   0.02261   0.64027
   D15       -1.48694   0.00064   0.00000   0.03147   0.03121  -1.45573
   D16        2.70071   0.00065   0.00000   0.01914   0.01899   2.71970
   D17        2.78637   0.00102   0.00000   0.04030   0.04035   2.82672
   D18       -0.39544   0.00150   0.00000   0.04116   0.04121  -0.35423
   D19       -1.34583  -0.00129   0.00000   0.01216   0.01212  -1.33371
   D20        1.75555  -0.00081   0.00000   0.01302   0.01297   1.76852
   D21        0.74124   0.00103   0.00000   0.04347   0.04347   0.78470
   D22       -2.44057   0.00151   0.00000   0.04433   0.04432  -2.39625
   D23       -1.23875   0.00006   0.00000   0.02715   0.02702  -1.21173
   D24        0.91302  -0.00034   0.00000   0.01474   0.01484   0.92786
   D25        2.92917  -0.00132   0.00000  -0.00511  -0.00509   2.92407
   D26        2.94177   0.00220   0.00000   0.05540   0.05538   2.99715
   D27       -1.18965   0.00180   0.00000   0.04299   0.04320  -1.14645
   D28        0.82650   0.00082   0.00000   0.02314   0.02326   0.84976
   D29        0.83793   0.00058   0.00000   0.03269   0.03246   0.87039
   D30        2.98970   0.00017   0.00000   0.02028   0.02028   3.00998
   D31       -1.27734  -0.00081   0.00000   0.00043   0.00035  -1.27699
   D32       -0.07410  -0.00026   0.00000  -0.01277  -0.01276  -0.08686
   D33        3.10636  -0.00044   0.00000  -0.01243  -0.01244   3.09391
   D34       -0.08776  -0.00092   0.00000  -0.02437  -0.02445  -0.11221
   D35        3.08421  -0.00106   0.00000  -0.03947  -0.03949   3.04473
   D36       -2.23575   0.00139   0.00000   0.01010   0.01029  -2.22545
   D37        0.93623   0.00125   0.00000  -0.00500  -0.00474   0.93149
   D38        2.02745  -0.00090   0.00000  -0.00967  -0.00987   2.01757
   D39       -1.08376  -0.00104   0.00000  -0.02477  -0.02491  -1.10867
   D40       -3.11728  -0.00026   0.00000  -0.01462  -0.01455  -3.13182
   D41        0.05357  -0.00085   0.00000  -0.03463  -0.03479   0.01878
   D42       -0.00235  -0.00015   0.00000  -0.00135  -0.00135  -0.00369
   D43       -3.11468  -0.00074   0.00000  -0.02136  -0.02159  -3.13627
   D44        3.12008   0.00018   0.00000   0.01140   0.01138   3.13146
   D45       -0.02069   0.00023   0.00000   0.01613   0.01617  -0.00452
   D46        0.00117   0.00010   0.00000   0.00027   0.00023   0.00140
   D47       -3.13960   0.00015   0.00000   0.00500   0.00502  -3.13458
   D48        0.00263   0.00014   0.00000   0.00192   0.00197   0.00460
   D49        3.11620   0.00084   0.00000   0.02208   0.02167   3.13786
   D50       -0.00184  -0.00008   0.00000  -0.00174  -0.00182  -0.00366
   D51        3.13945  -0.00015   0.00000  -0.00321  -0.00322   3.13623
   D52        0.00045  -0.00002   0.00000   0.00095   0.00102   0.00146
   D53        3.14121  -0.00007   0.00000  -0.00382  -0.00376   3.13745
   D54       -3.14086   0.00005   0.00000   0.00235   0.00235  -3.13850
   D55       -0.00010   0.00000   0.00000  -0.00241  -0.00242  -0.00251
   D56       -3.11501   0.00138   0.00000  -0.13901  -0.13877   3.02941
   D57        1.04494   0.00378   0.00000  -0.11121  -0.11044   0.93450
   D58       -0.99284  -0.00108   0.00000  -0.16704  -0.16736  -1.16021
   D59       -1.03028  -0.00168   0.00000  -0.14797  -0.14847  -1.17875
   D60        3.12967   0.00072   0.00000  -0.12017  -0.12014   3.00953
   D61        1.09189  -0.00415   0.00000  -0.17600  -0.17706   0.91482
   D62        1.02428   0.00154   0.00000  -0.10302  -0.10274   0.92154
   D63       -1.09895   0.00394   0.00000  -0.07523  -0.07441  -1.17337
   D64       -3.13674  -0.00093   0.00000  -0.13106  -0.13133   3.01512
   D65        1.04370  -0.00041   0.00000  -0.00748  -0.00749   1.03621
   D66        3.13642  -0.00039   0.00000  -0.00681  -0.00682   3.12960
   D67       -1.05181  -0.00019   0.00000  -0.00518  -0.00519  -1.05701
   D68       -3.11678   0.00141   0.00000   0.00668   0.00644  -3.11034
   D69       -1.02406   0.00143   0.00000   0.00735   0.00711  -1.01695
   D70        1.07089   0.00163   0.00000   0.00898   0.00874   1.07963
   D71       -1.06655  -0.00126   0.00000  -0.02953  -0.02929  -1.09584
   D72        1.02617  -0.00125   0.00000  -0.02886  -0.02862   0.99755
   D73        3.12112  -0.00104   0.00000  -0.02723  -0.02699   3.09413
         Item               Value     Threshold  Converged?
 Maximum Force            0.016808     0.000450     NO 
 RMS     Force            0.003384     0.000300     NO 
 Maximum Displacement     1.095791     0.001800     NO 
 RMS     Displacement     0.262824     0.001200     NO 
 Predicted change in Energy=-5.711557D-03
 GradGradGradGradGradGradGradGradGradGradGradGradGradGradGradGradGradGrad

                          Input orientation:                          
 ---------------------------------------------------------------------
 Center     Atomic      Atomic             Coordinates (Angstroms)
 Number     Number       Type             X           Y           Z
 ---------------------------------------------------------------------
      1          8           0       -1.160262   -0.673819   -1.116311
      2          6           0       -1.098743   -0.296873    0.041307
      3          7           0       -0.048491   -0.471979    0.862167
      4          6           0        1.067784   -1.334943    0.518352
      5          6           0        1.101445   -2.468478    1.545978
      6          8           0        1.799963   -3.561506    1.213339
      7          8           0        0.565246   -2.370316    2.613873
      8          6           0        2.407079   -0.578387    0.545991
      9          6           0        2.537540    0.417140   -0.556834
     10          6           0        1.765505    0.718766   -1.648382
[...]
 009162,0.00021510,0.00022418,0.00000331,-0.00013944,0.00014096,-0.0656
 9273,-0.11028940,-0.17573311,-0.00927035,-0.01784658,-0.02184517,0.000
 13816,-0.00016995,0.00115213,-0.00012043,0.00034335,0.00122013,-0.0001
 2149,0.00009945,0.00001784,0.00001048,-0.00002230,0.00001047,0.0000035
 9,0.00002863,-0.00000082,-0.00003058,0.00000939,0.00000902,-0.00004619
 ,0.00002363,0.00005939,0.00007145,0.00004014,-0.00002675,0.00005015,-0
 .00001281,0.00003378,0.07524520,0.11990064,0.19303726,0.00266011,0.000
 87529,-0.00170865,-0.02140332,-0.00880654,0.00637723,-0.00053598,0.002
 58083,0.00017720,0.00009273,0.00092666,-0.00068341,0.00017119,0.000111
 55,0.00030416,-0.00022336,0.00010740,-0.00015027,-0.00010270,-0.000005
 43,-0.00012682,0.00018607,-0.00003710,-0.00019217,0.00004114,-0.000019
 17,-0.00001435,-0.00002782,0.00000319,-0.00004933,0.00007899,-0.000034
 21,0.00004295,0.00001821,0.00006612,-0.00004416,0.00003284,-0.00002962
 ,0.00010485,-0.23188434,-0.09456510,0.07194965,0.00603982,0.00456327,-
 0.00278979,0.00222821,-0.00013456,-0.00023638,-0.00007537,-0.00028167,
 0.00090362,-0.00034200,0.00009988,-0.00003801,0.00004363,-0.00007707,0
 .00001403,-0.00000630,0.00000884,0.00002859,-0.00002436,0.00000318,0.0
 0003765,-0.00000438,0.00000660,0.00000462,0.00000908,0.00000991,-0.000
 00135,0.00004535,0.00001538,0.00000336,-0.00870285,-0.00369189,0.00337
 249,0.25078905,-0.00182005,-0.00146343,0.00193476,0.02196114,0.0116302
 2,-0.00989227,0.00051248,-0.00191941,0.00060731,-0.00003276,-0.0006599
 6,0.00056922,-0.00006751,-0.00018366,-0.00018911,0.00013294,-0.0000308
 0,0.00010059,0.00006191,0.00006688,0.00006859,-0.00013633,-0.00006608,
 0.00015364,-0.00004294,-0.00001205,0.00001637,0.00006894,-0.00009336,-
 0.00002538,-0.00024613,-0.00001369,-0.00002837,0.00006012,0.00005575,0
 .00016914,-0.00009122,0.00002765,-0.00010995,-0.09061907,-0.08974246,0
 .03160609,-0.01414459,-0.00961344,0.00777302,-0.00120173,0.00102267,-0
 .00118077,0.00024145,-0.00001367,-0.00028188,0.00019999,-0.00005425,0.
 00002185,-0.00002462,0.00004230,-0.00000363,0.00000803,0.00001192,-0.0
 0002520,0.00000204,0.00000479,-0.00001425,0.00000681,-0.00001668,-0.00
 000003,0.00001319,0.00001362,-0.00000918,0.00001986,-0.00001766,0.0000
 1222,-0.01607121,-0.00762593,0.00674111,0.09848584,0.09874378,-0.00078
 266,-0.00120952,0.00066616,0.00493256,0.00129558,-0.00224840,-0.000595
 59,0.00055723,-0.00064033,0.00034408,0.00008930,-0.00010274,0.00007956
 ,-0.00007802,0.00008250,-0.00005658,0.00005058,-0.00003985,-0.00006933
 ,0.00002748,-0.00003935,-0.00001218,0.00000201,0.00000658,0.00000438,0
 .00002004,-0.00006811,-0.00001222,0.00010253,-0.00003910,0.00037998,0.
 00002637,0.00007583,-0.00008766,0.00006039,-0.00017043,0.00007612,-0.0
 0014211,0.00024277,0.06865925,0.03372335,-0.07530177,0.02678342,0.0142
 4909,-0.01235361,0.00046600,-0.00131040,0.00198596,-0.00004995,-0.0002
 2685,0.00052708,-0.00012229,0.00007186,0.00004587,0.00001736,-0.000017
 04,0.00000942,-0.00000859,-0.00001423,0.00002044,0.00000157,-0.0000008
 8,-0.00000158,-0.00003138,0.00002716,0.00004392,0.00003926,0.00002029,
 -0.00001147,0.00002879,0.00000148,-0.00001808,-0.01974659,-0.00838612,
 0.00875245,-0.07699889,-0.04124738,0.08144732,-0.00049152,0.00046345,0
 .00204593,-0.00009383,-0.00190563,-0.00329097,0.00047621,0.00053368,0.
 00072294,-0.00003036,0.00007889,-0.00005097,-0.00003238,-0.00002794,-0
 .00004762,-0.00000632,0.00001514,0.00001109,0.00002361,0.00004354,0.00
 005468,0.00000293,-0.00002887,-0.00002954,-0.00004857,0.00012868,-0.00
 021754,0.00009538,-0.00042564,-0.00035356,-0.00080153,-0.00013736,0.00
 022045,0.00027366,-0.00005871,0.00057323,0.00000833,0.00032012,0.00006
 652,-0.00161592,-0.00292435,-0.00302819,-0.07439909,-0.05851733,-0.060
 28486,0.00142392,0.02674646,0.02395645,0.00022585,-0.00005662,-0.00001
 895,-0.00002601,0.00000186,-0.00002165,-0.00000421,0.00000378,-0.00000
 969,0.00000994,0.00000305,0.00000514,-0.00003203,0.00003038,0.00000782
 ,-0.00030347,0.00001805,0.00029118,0.00001174,0.00001321,0.00000780,0.
 00001728,0.00003156,0.00000239,0.00074080,0.00116293,-0.00098490,0.000
 43525,0.00064505,0.00024413,0.07862883,-0.00022464,-0.00211560,-0.0013
 3918,0.00128178,0.00235974,0.00272894,-0.00092679,-0.00059377,-0.00141
 531,0.00016521,-0.00023931,-0.00000239,0.00007775,0.00003563,0.0001341
 2,-0.00004326,0.00000422,-0.00004362,-0.00008700,-0.00007030,-0.000090
 50,-0.00001460,0.00013594,-0.00002092,0.00000625,0.00008901,-0.0001207
 1,0.00000008,-0.00012900,-0.00010925,-0.00015323,-0.00007518,0.0001346
 6,0.00004574,-0.00009017,0.00003464,0.00006527,0.00005327,0.00016636,0
 .00453706,0.01271445,0.01202492,-0.04899019,-0.15801696,-0.12439993,-0
 .00109644,-0.01802903,-0.01470550,-0.00040418,0.00029229,0.00005217,0.
 00003107,-0.00000706,0.00004861,0.00002663,-0.00001252,0.00000846,-0.0
 0002273,-0.00003612,0.00001575,0.00004624,-0.00000876,-0.00003670,-0.0
 0004133,0.00014927,0.00007737,0.00000168,-0.00000295,0.00001023,-0.000
 00243,0.00003424,-0.00000827,0.00140534,-0.00214614,0.00330867,-0.0004
 2993,0.00078288,-0.00040471,0.04615947,0.17343745,0.00205997,-0.000293
 67,0.00236623,-0.00028522,-0.00299151,-0.00260121,0.00018254,0.0000911
 2,0.00053284,-0.00004137,0.00006622,0.00004445,-0.00003221,-0.00002489
 ,-0.00008751,0.00002010,0.00000003,0.00002103,0.00002380,0.00004215,0.
 00005967,-0.00000316,-0.00002695,0.00002268,0.00001577,-0.00007596,0.0
 0007113,-0.00002168,0.00013803,0.00010039,0.00024484,0.00005546,-0.000
 13247,-0.00007272,0.00005919,-0.00015129,-0.00003204,-0.00011344,-0.00
 002142,-0.01056285,-0.01531562,-0.02262460,-0.05310847,-0.12658851,-0.
 19207131,0.00083490,0.00036619,0.00031408,0.00022755,-0.00003449,0.000
 04825,-0.00002927,0.00002307,-0.00000589,-0.00001288,0.00000866,-0.000
 00314,0.00000989,0.00000707,-0.00000038,-0.00002187,-0.00000579,0.0000
 2955,0.00014728,-0.00000478,-0.00000466,0.00000185,0.00000309,-0.00001
 125,0.00000489,-0.00001988,-0.00001108,-0.00025295,0.00335734,-0.00336
 527,0.00059151,-0.00034198,0.00094909,0.05867696,0.13481668,0.20697699
 ,-0.00101041,0.00034174,0.00011138,0.00334967,-0.00136147,0.00015599,-
 0.00143093,0.00019623,-0.00030065,0.00042316,-0.00042628,-0.00009445,-
 0.00016676,0.00023810,0.00002030,0.00004856,-0.00011466,-0.00001339,-0
 .00016279,-0.00021864,0.00010622,-0.00008282,0.00052034,-0.00001046,0.
 00018854,-0.00001823,0.00052676,-0.00343746,0.00289744,0.00141737,-0.0
 0031066,0.00035712,0.00033527,-0.00150876,-0.00015850,-0.00241767,0.00
 087782,-0.00136806,0.00132286,0.00925424,0.00416692,-0.00142247,-0.215
 66001,-0.11271457,0.05816338,-0.02561969,-0.00660661,0.00638273,0.0002
 4849,0.00015854,-0.00006055,-0.00007460,-0.00001136,0.00012903,0.00002
 737,0.00005988,-0.00003884,-0.00000667,-0.00017116,0.00012167,0.000032
 11,-0.00006501,-0.00000434,0.00002649,-0.00004587,-0.00026324,0.000267
 53,0.00003427,-0.00004733,-0.00015080,-0.00002814,-0.00026274,0.000321
 68,-0.00007242,-0.00000202,0.00023166,0.00169951,-0.00266643,-0.002759
 43,-0.00363328,0.00123725,0.23799854,0.00052219,-0.00035117,-0.0005671
 1,-0.00098631,0.00083762,0.00082010,0.00027021,-0.00024601,0.00004174,
 -0.00005218,-0.00003198,0.00011225,-0.00003593,0.00005791,-0.00000177,
 0.00003480,-0.00003679,0.00000593,-0.00000176,-0.00004256,-0.00000175,
 -0.00006221,0.00001384,0.00007912,0.00082464,-0.00048895,0.00135571,-0
 .00059604,0.00109040,0.00031568,0.00097745,0.00107040,-0.00006874,-0.0
 0092107,0.00000880,-0.00148417,0.00011183,-0.00130940,-0.00021797,-0.0
 1135284,-0.00773558,0.00453116,-0.12506085,-0.13608431,0.04100736,0.03
 141551,0.01025623,-0.00898543,-0.00002457,-0.00001774,0.00000574,0.000
 00347,0.00000241,-0.00000988,-0.00000491,0.00000848,0.00000110,-0.0000
 0812,0.00002833,-0.00000559,0.00000475,-0.00002790,-0.00000116,0.00049
 220,-0.00019722,-0.00067495,0.00008231,0.00002861,-0.00004745,-0.00001
 200,-0.00015180,0.00000430,0.00067809,0.00083320,-0.00044188,0.0012696
 5,-0.00024798,0.00227222,-0.01506138,-0.00773564,0.00662480,0.11385660
 ,0.14146667,0.00044553,0.00011875,0.00029071,0.00064996,-0.00074470,0.
 00011948,-0.00007383,-0.00011958,0.00002071,-0.00007336,0.00007876,-0.
 00004349,-0.00001580,0.00002870,-0.00001217,0.00001755,-0.00001824,0.0
 0000326,0.00003408,-0.00000576,-0.00001511,0.00001721,-0.00005072,0.00
 004145,-0.00012196,-0.00017665,0.00003575,0.00142124,-0.00026192,0.000
 42030,0.00076691,-0.00079399,-0.00110647,-0.00066104,0.00056678,-0.000
 37675,-0.00051776,0.00006443,-0.00063648,0.02154009,0.01627492,-0.0089
 0440,0.05642353,0.03815962,-0.07383976,0.00279229,-0.00009693,-0.00087
 034,-0.00005952,0.00008440,-0.00007512,0.00001135,-0.00000647,-0.00001
 933,-0.00000580,-0.00000002,0.00000305,0.00000819,0.00001394,-0.000019
 54,-0.00000351,-0.00001458,0.00001340,0.00031329,-0.00032560,-0.000220
 66,-0.00011993,-0.00007282,-0.00000786,0.00003134,0.00005239,-0.000014
 98,0.00053704,-0.00094351,0.00124297,-0.00159666,0.00297370,-0.0038194
 5,-0.01957242,-0.01089606,0.00859159,-0.06245339,-0.04388307,0.0785811
 4,-0.00026677,-0.00010004,-0.00096780,-0.00024981,0.00062893,0.0009626
 5,-0.00010632,-0.00015732,-0.00017578,0.00002047,-0.00001546,0.0000212
 9,-0.00009299,0.00012583,-0.00001991,0.00007254,-0.00008598,0.00002121
 ,0.00001321,-0.00009306,0.00000846,-0.00000300,0.00007804,0.00000943,0
 .00001649,-0.00012095,-0.00000314,0.00008584,0.00015503,0.00016088,0.0
 0034155,-0.00010527,-0.00009053,-0.00015050,0.00003669,-0.00036498,0.0
 0005539,-0.00008017,0.00003812,0.00149448,-0.00054095,0.00103744,0.009
 13513,0.01879515,0.02075927,-0.07439059,-0.05201502,-0.04950145,-0.000
 04465,0.00007144,-0.00005535,0.00000232,-0.00001728,0.00001196,-0.0000
 0719,0.00002979,-0.00000882,0.00000869,-0.00002409,0.00001465,0.000001
 97,-0.00001034,0.00000193,0.00002808,-0.00002426,-0.00005012,-0.000091
 21,-0.00002914,0.00001549,-0.00003886,0.00001324,-0.00002793,-0.000298
 64,-0.00011833,-0.00094750,-0.00016988,-0.00020774,-0.00016500,-0.0047
 5186,0.00300438,-0.00047481,0.00046125,-0.00033793,0.00057396,0.076522
 34,-0.00024402,0.00060967,0.00088784,0.00136669,-0.00137006,-0.0009287
 6,-0.00065229,0.00039365,-0.00002861,0.00012122,-0.00018049,-0.0000980
 5,0.00015862,-0.00001816,0.00018425,-0.00013094,0.00007813,-0.00007936
 ,-0.00012675,-0.00001877,-0.00007366,-0.00005064,0.00008677,-0.0000396
 0,0.00006069,-0.00006753,0.00005286,-0.00008742,-0.00002750,0.00002953
 ,-0.00004063,-0.00012104,0.00001169,-0.00001634,0.00013492,-0.00004203
 ,-0.00003251,-0.00008053,-0.00000918,-0.00182958,0.00140215,0.00025554
 ,-0.00243276,-0.01613581,-0.01515915,-0.05910872,-0.21975157,-0.164884
 78,0.00012454,0.00004624,0.00011273,-0.00003373,0.00002436,0.00002316,
 0.00004047,-0.00003892,0.00000724,-0.00002644,-0.00002092,0.00002767,0
 .00002629,-0.00001349,-0.00001432,0.00002643,-0.00000176,-0.00004646,-
 0.00004607,0.00001390,-0.00000845,0.00004629,0.00003536,-0.00000803,0.
 00043248,-0.00009361,0.00065477,-0.00004900,-0.00038062,0.00012505,0.0
 0380619,-0.00087020,0.00077361,-0.00043827,0.00174127,0.00034672,0.056
 65508,0.22971066,-0.00005546,-0.00013236,-0.00043745,-0.00016752,0.000
 34369,-0.00018975,-0.00010131,0.00004993,-0.00010868,-0.00006219,-0.00
 001736,-0.00000731,0.00002416,0.00007245,0.00009625,0.00000551,-0.0000
 2223,-0.00002317,0.00001289,-0.00004991,-0.00008598,-0.00001659,-0.000
 03655,0.00000073,0.00000538,0.00000870,0.00005012,-0.00005173,-0.00014
 242,-0.00000830,-0.00028983,0.00008142,-0.00002920,0.00014784,0.000009
 11,0.00018299,-0.00010401,0.00010378,-0.00021171,0.00070970,0.00134290
 ,0.00235633,0.00329351,-0.00276848,-0.00013416,-0.05554769,-0.16006790
 ,-0.22838938,-0.00009232,0.00004897,0.00004712,0.00001596,-0.00000156,
 -0.00000980,-0.00000072,-0.00000787,0.00001374,-0.00000473,0.00001426,
 -0.00000630,0.00000505,0.00000051,-0.00000572,0.00002450,-0.00001974,-
 0.00002128,-0.00003664,-0.00002120,0.00002528,-0.00000434,0.00000987,0
 .00004268,-0.00053840,-0.00070068,-0.00024581,0.00006053,0.00010036,-0
 .00001563,0.00020471,0.00068256,0.00083063,0.00039294,0.00028378,-0.00
 028144,0.05783522,0.17633578,0.23822102,-0.00005041,0.00001708,0.00064
 775,0.00075770,-0.00024576,-0.00219246,-0.00053061,0.00038325,0.000209
 87,0.00002697,-0.00016957,-0.00006717,-0.00006295,0.00010176,0.0000414
 9,0.00001022,-0.00003538,-0.00001392,-0.00002697,-0.00006837,0.0000114
 6,-0.00003916,0.00012848,-0.00001932,0.00001695,-0.00001717,-0.0000646
 9,0.00004056,0.00019942,0.00002004,0.00047074,-0.00011115,0.00008746,-
 0.00018876,-0.00003364,-0.00032290,0.00017310,-0.00014757,0.00030281,-
 0.00438110,0.00360975,0.00257688,-0.00282942,0.01125094,-0.02309318,-0
 .06616333,0.02201475,-0.04955786,0.00005586,0.00006159,-0.00000400,-0.
 00000878,-0.00000323,0.00002520,0.00000469,0.00001380,-0.00000983,-0.0
 0000117,-0.00004329,0.00003666,0.00000482,-0.00000633,-0.00000489,-0.0
 0004379,0.00005049,0.00001792,-0.00000149,0.00000641,-0.00000293,-0.00
 001906,0.00001120,-0.00004551,0.00013729,-0.00029266,0.00022751,0.0003
 4893,-0.00005919,0.00022416,0.00132831,-0.00043419,0.00035634,-0.00043
 328,-0.00070736,-0.00041952,-0.00195264,0.00490141,-0.00739484,0.06508
 920,-0.00030678,-0.00000524,-0.00071757,0.00024784,0.00074399,0.002234
 38,0.00022377,-0.00040756,-0.00035221,0.00004564,0.00003480,0.00008886
 ,0.00006271,-0.00005902,-0.00000698,-0.00001644,0.00001822,0.00000476,
 -0.00002696,0.00001584,-0.00001176,0.00000985,-0.00001895,0.00001300,0
 .00004658,-0.00006105,0.00009226,-0.00006640,0.00001455,0.00009418,-0.
 00012885,-0.00008343,0.00002895,-0.00001817,0.00005482,0.00001039,-0.0
 0003894,-0.00006138,-0.00010509,0.00352515,-0.00296839,-0.00214730,0.0
 0314538,-0.01041977,0.01825736,0.01929543,-0.13653604,0.14554251,-0.00
 001088,-0.00001934,-0.00000431,0.00000337,0.00000010,0.00000046,0.0000
 0836,-0.00000363,0.00000357,-0.00000563,0.00000932,-0.00000874,0.00000
 910,-0.00000356,-0.00000171,0.00005738,-0.00001870,-0.00006563,-0.0000
 1446,0.00001368,-0.00001887,0.00002663,-0.00000347,0.00000635,0.000136
 91,0.00019215,0.00005700,-0.00008934,0.00035325,-0.00047000,-0.0008863
 4,-0.00043555,-0.00018949,-0.00036060,0.00149236,-0.00030904,-0.003663
 24,0.01643576,-0.02478135,-0.02540169,0.13999836,0.00025523,-0.0001568
 0,0.00004386,-0.00020594,-0.00016449,0.00034580,0.00033656,-0.00019382
 ,0.00000499,-0.00005415,0.00010960,0.00002270,-0.00010419,0.00008499,-
 0.00006468,0.00009099,-0.00007555,0.00003615,0.00007057,-0.00003803,0.
 00001262,0.00002447,-0.00002521,0.00002925,-0.00002617,-0.00002694,-0.
 00005754,0.00014744,0.00005927,0.00006746,0.00014718,0.00001763,-0.000
 17317,-0.00001264,0.00000728,-0.00005051,-0.00002577,0.00002798,-0.000
 04283,0.00093411,-0.00075568,-0.00016103,-0.00228993,-0.00102878,0.008
 29761,-0.04254120,0.13893783,-0.31974363,-0.00008837,-0.00001347,-0.00
 004819,0.00001290,-0.00001504,-0.00000559,-0.00002422,0.00002646,0.000
 00110,0.00001673,0.00000508,-0.00001275,-0.00001395,0.00000104,0.00000
 852,-0.00000028,-0.00004834,0.00005737,-0.00002547,-0.00001165,0.00000
 870,-0.00004043,-0.00000785,0.00000905,0.00013226,-0.00003960,0.000084
 40,-0.00002059,-0.00001971,-0.00010479,0.00034343,-0.00053669,0.000583
 37,-0.00018131,-0.00041141,0.00043833,-0.00310751,0.01372583,-0.021597
 39,0.04756670,-0.15207582,0.33839733,0.00027244,-0.00046214,-0.0002020
 8,-0.00054924,0.00088647,0.00073367,0.00064295,-0.00045901,0.00004520,
 -0.00010785,0.00015414,0.00013767,-0.00016641,0.00006661,-0.00016997,0
 .00014709,-0.00011033,0.00008356,0.00011267,-0.00002486,0.00006019,0.0
 0001580,-0.00005256,0.00003919,0.00005214,-0.00004556,0.00013602,-0.00
 016169,-0.00002476,-0.00001657,-0.00005198,0.00003558,0.00001164,-0.00
 003083,0.00001839,-0.00001198,-0.00000680,-0.00004155,-0.00011727,0.00
 192000,-0.00139182,-0.00107943,-0.02309915,-0.00874306,0.00703294,-0.3
 0367985,-0.14271154,0.07561751,-0.00009229,-0.00001140,-0.00011501,0.0
 0003432,-0.00002798,-0.00001927,-0.00003541,0.00004974,-0.00000963,0.0
 0002481,0.00001622,-0.00002284,-0.00002501,0.00001076,0.00001036,0.000
 00473,0.00000165,-0.00001229,-0.00002421,-0.00000760,0.00000360,-0.000
 02839,-0.00001874,0.00000645,-0.00007347,0.00000204,-0.00000242,0.0000
 5042,0.00064576,-0.00087530,0.00169448,-0.00034971,0.00031608,-0.00094
 204,0.00468173,0.00011095,-0.00564483,-0.00242026,0.00173041,0.0082675
 9,0.00419063,-0.00131644,0.32148000,-0.00034938,0.00001349,0.00004260,
 0.00022579,-0.00050700,0.00008362,-0.00036950,0.00018976,-0.00015850,0
 .00013255,-0.00005401,-0.00007899,0.00003480,0.00004239,0.00007281,-0.
 00003709,0.00000101,-0.00002674,-0.00006341,-0.00004778,-0.00001984,0.
 00000418,0.00007799,-0.00001551,-0.00006392,0.00004143,-0.00015905,0.0
 0018702,0.00018338,0.00001338,0.00040441,-0.00007521,-0.00002482,-0.00
 009148,-0.00001615,-0.00021309,0.00010544,-0.00004731,0.00025713,0.000
 59288,0.00184423,-0.00122383,0.02017923,0.01641330,-0.00655259,-0.1320
 9575,-0.13193227,0.04035296,0.00004568,0.00004802,0.00004387,-0.000029
 08,0.00000419,0.00002237,0.00002150,-0.00000231,-0.00000389,-0.0000054
 3,-0.00003158,0.00002334,0.00001083,-0.00000615,-0.00000374,-0.0000312
 7,0.00001615,0.00004743,0.00001168,0.00000468,0.00000292,-0.00001177,0
 .00002348,-0.00003014,-0.00035840,-0.00015657,0.00008498,-0.00088300,-
 0.00060060,0.00078523,-0.00017532,0.00052586,-0.00040573,0.00328644,-0
 .00423152,-0.00004344,-0.02184705,-0.01152186,0.00928154,-0.01497378,-
 0.00827211,0.00264191,0.14614319,0.13807309,-0.00001962,-0.00039396,-0
 .00048847,-0.00016570,0.00107359,0.00016693,0.00013440,-0.00014461,-0.
 00006648,-0.00007745,0.00001512,0.00004949,-0.00004030,0.00003483,-0.0
 0001076,0.00004588,-0.00003275,0.00001244,0.00004209,-0.00001638,-0.00
 001752,0.00000248,-0.00002572,0.00001450,0.00000342,0.00000735,0.00000
 907,0.00002800,0.00001360,0.00001858,-0.00001933,0.00003179,-0.0000270
 7,0.00001930,-0.00002195,0.00003098,-0.00002056,0.00000787,-0.00005536
 ,-0.00148176,-0.00141702,0.00097901,0.00365901,0.00005528,-0.00077535,
 0.07382280,0.04313642,-0.08639751,-0.00006077,-0.00001655,-0.00001586,
 0.00002417,-0.00000719,-0.00000389,-0.00001473,0.00001029,0.00000703,0
 .00000510,0.00001002,-0.00000889,-0.00000456,0.00000392,0.00000156,0.0
 0001000,-0.00000607,0.00000859,0.00000398,-0.00000212,0.00000322,-0.00
 001279,-0.00001179,0.00001781,-0.00009810,0.00004621,-0.00016027,0.000
 67837,0.00052111,0.00011932,0.00047599,-0.00011442,-0.00045051,-0.0001
 8389,-0.00065867,0.00046119,-0.02551131,-0.01213383,0.00994155,0.03086
 079,0.01483183,-0.00638654,-0.08210493,-0.04479619,0.08302323\\-0.0000
 0306,-0.00000502,-0.00000158,0.00000898,-0.00000017,-0.00000132,-0.000
 00693,-0.00000414,0.00000585,0.00000104,0.00000013,0.00001913,-0.00000
 239,0.00000817,0.00000311,-0.00000146,-0.00000217,-0.00000211,-0.00000
 224,-0.00000427,-0.00000417,0.00002306,-0.00001465,-0.00000624,-0.0000
 2051,0.00000760,-0.00000178,-0.00000059,-0.00000187,-0.00000402,-0.000
 00018,-0.00000244,-0.00000238,0.00000410,-0.00000059,0.00000668,0.0000
 0712,-0.00000275,-0.00000029,-0.00000483,0.00000388,-0.00000620,-0.000
 00606,-0.00000242,-0.00000450,-0.00000267,0.00000382,0.00000119,0.0000
 0217,-0.00000026,-0.00000154,-0.00000225,0.00000582,-0.00000062,-0.000
 00050,0.00000070,0.00000149,-0.00000007,-0.00000162,-0.00000184,-0.000
 00301,0.00000324,0.00000338,0.00000138,-0.00000183,0.00000273,0.000001
 75,-0.00000123,-0.00000016,-0.00000470,0.00000204,-0.00000054,-0.00000
 051,0.00000040,0.00000053,0.00000059,-0.00000103,0.00000060,-0.0000020
 2,-0.00000037,0.00000317,0.00001187,0.00000794,-0.00000384,-0.00000042
 ,0.00000091,-0.00000283,0.00000196,0.00000015,-0.00000091,0.00000036,0
 .00000205,-0.00000099\\\@


 ... IT CAN BE VERY DIFFICULT, IN THESE COMPLEX TIMES,
 TO UNDERSTAND JUST HOW SCIENTISTS DO WHAT THEY DO.

                     DON MOSER IN THE FEBRUARY 1979 SMITHSONIAN
 Job cpu time:       0 days 17 hours 24 minutes 42.4 seconds.
 File lengths (MBytes):  RWF=   1140 Int=      0 D2E=      0 Chk=     36 Scr=      1
 Normal termination of Gaussian 09 at Sat Jul 24 19:34:30 2021.
