 Entering Gaussian System, Link 0=g09
 Input=opt_freq-conf-580.com
 Output=opt_freq-conf-580.log
 Initial command:
 /aerosol/software/g09/l1.exe "/scratch/nicole/10457/Gau-72516.inp" -scrdir="/scratch/nicole/10457/"
 Entering Link 1 = /aerosol/software/g09/l1.exe PID=     72522.
  
 Copyright (c) 1988,1990,1992,1993,1995,1998,2003,2009,2013,
            Gaussian, Inc.  All Rights Reserved.
  
 This is part of the Gaussian(R) 09 program.  It is based on
 the Gaussian(R) 03 system (copyright 2003, Gaussian, Inc.),
 the Gaussian(R) 98 system (copyright 1998, Gaussian, Inc.),
 the Gaussian(R) 94 system (copyright 1995, Gaussian, Inc.),
 the Gaussian 92(TM) system (copyright 1992, Gaussian, Inc.),
 the Gaussian 90(TM) system (copyright 1990, Gaussian, Inc.),
 the Gaussian 88(TM) system (copyright 1988, Gaussian, Inc.),
 the Gaussian 86(TM) system (copyright 1986, Carnegie Mellon
 University), and the Gaussian 82(TM) system (copyright 1983,
 Carnegie Mellon University). Gaussian is a federally registered
 trademark of Gaussian, Inc.
  
 This software contains proprietary and confidential information,
 including trade secrets, belonging to Gaussian, Inc.
  
 This software is provided under written license and may be
 used, copied, transmitted, or stored only in accord with that
 written license.
  
 The following legend is applicable only to US Government
 contracts under FAR:
  
                    RESTRICTED RIGHTS LEGEND
  
 Use, reproduction and disclosure by the US Government is
 subject to restrictions as set forth in subparagraphs (a)
 and (c) of the Commercial Computer Software - Restricted
 Rights clause in FAR 52.227-19.
  
 Gaussian, Inc.
 340 Quinnipiac St., Bldg. 40, Wallingford CT 06492
  
  
 ---------------------------------------------------------------
 Warning -- This program may not be used in any manner that
 competes with the business of Gaussian, Inc. or will provide
 assistance to any competitor of Gaussian, Inc.  The licensee
 of this program is prohibited from giving any competitor of
 Gaussian, Inc. access to this program.  By using this program,
 the user acknowledges that Gaussian, Inc. is engaged in the
 business of creating and licensing software in the field of
 computational chemistry and represents and warrants to the
 licensee that it is not a competitor of Gaussian, Inc. and that
 it will not use this program in any manner prohibited above.
 ---------------------------------------------------------------
  

 Cite this work as:
 Gaussian 09, Revision D.01,
 M. J. Frisch, G. W. Trucks, H. B. Schlegel, G. E. Scuseria, 
 M. A. Robb, J. R. Cheeseman, G. Scalmani, V. Barone, B. Mennucci, 
 G. A. Petersson, H. Nakatsuji, M. Caricato, X. Li, H. P. Hratchian, 
 A. F. Izmaylov, J. Bloino, G. Zheng, J. L. Sonnenberg, M. Hada, 
 M. Ehara, K. Toyota, R. Fukuda, J. Hasegawa, M. Ishida, T. Nakajima, 
 Y. Honda, O. Kitao, H. Nakai, T. Vreven, J. A. Montgomery, Jr., 
 J. E. Peralta, F. Ogliaro, M. Bearpark, J. J. Heyd, E. Brothers, 
 K. N. Kudin, V. N. Staroverov, T. Keith, R. Kobayashi, J. Normand, 
 K. Raghavachari, A. Rendell, J. C. Burant, S. S. Iyengar, J. Tomasi, 
 M. Cossi, N. Rega, J. M. Millam, M. Klene, J. E. Knox, J. B. Cross, 
 V. Bakken, C. Adamo, J. Jaramillo, R. Gomperts, R. E. Stratmann, 
 O. Yazyev, A. J. Austin, R. Cammi, C. Pomelli, J. W. Ochterski, 
 R. L. Martin, K. Morokuma, V. G. Zakrzewski, G. A. Voth, 
 P. Salvador, J. J. Dannenberg, S. Dapprich, A. D. Daniels, 
 O. Farkas, J. B. Foresman, J. V. Ortiz, J. Cioslowski, 
 and D. J. Fox, Gaussian, Inc., Wallingford CT, 2013.
 
 ******************************************
 Gaussian 09:  ES64L-G09RevD.01 24-Apr-2013
                24-Jul-2021 
 ******************************************
 %mem=2gb
 %nproc=4
 Will use up to    4 processors via shared memory.
 %chk=conf-580.chk
 ----------------------------------------------------------------------
 # B3LYP/6-311G(2df,2pd) EmpiricalDispersion=GD3BJ opt=calcfc freq=nora
 man nosymm integral(ultrafinegrid)
 ----------------------------------------------------------------------
 1/10=4,14=-1,18=20,19=15,26=4,38=1/1,3;
 2/9=110,12=2,15=1,17=6,18=5,40=1/2;
 3/5=4,6=6,7=404,11=2,16=1,25=1,30=1,71=2,74=-5,75=-5,124=41,140=1/1,2,3;
 4//1;
 5/5=2,38=5/2;
 8/6=4,10=90,11=11/1;
 11/6=1,8=1,9=11,15=111,16=1,31=1/1,2,10;
 10/6=1,13=1,31=1/2;
 6/7=2,8=2,9=2,10=2,28=1/1;
 7/10=1,18=20,25=1,30=1/1,2,3,16;
 1/10=4,14=-1,18=20,19=15,26=4/3(2);
 2/9=110,15=1/2;
 99//99;
 2/9=110,15=1/2;
 3/5=4,6=6,7=404,11=2,16=1,25=1,30=1,71=1,74=-5,75=-5,124=41/1,2,3;
 4/5=5,16=3,69=1/1;
 5/5=2,38=5/2;
 7/30=1/1,2,3,16;
 1/14=-1,18=20,19=15,26=4/3(-5);
 2/9=110,15=1/2;
 6/7=2,8=2,9=2,10=2,19=2,28=1/1;
 99/9=1/99;
 ------------------------------------------------------------
 Candidate Structure: Conf:580 OPT and FREQ calc in gas phase
 ------------------------------------------------------------
 Symbolic Z-matrix:
 Charge =  1 Multiplicity = 1
 O                     1.1626    0.47867  -1.24083 
 C                     1.43062   0.39643  -0.04924 
 N                     0.44893   0.32097   0.88846 
 C                    -0.95542   0.32737   0.51041 
 C                    -1.72354   0.76875   1.73533 
 O                    -2.59503   1.76808   1.49955 
 O                    -1.57563   0.26701   2.82237 
 C                    -1.39558  -1.08541   0.07214 
 C                    -2.827    -1.1616   -0.34837 
 C                    -3.94651  -1.63385   0.27999 
 N                    -5.07043  -1.45394  -0.50815 
 C                    -4.63104  -0.88057  -1.60483 
 N                    -3.28184  -0.68161  -1.55821 
 C                     2.85113   0.35726   0.49446 
 C                     3.88925   0.67519  -0.5716 
 N                     5.27509   0.60883  -0.03633 
 H                     0.66614   0.21415   1.86708 
 H                    -1.09215   1.03096  -0.31002 
 H                    -3.03128   1.94422   2.34426 
 H                    -1.24299  -1.76764   0.90622 
 H                    -0.73868  -1.39207  -0.73967 
 H                    -4.00148  -2.07935   1.265 
 H                    -5.22149  -0.59048  -2.45542 
 H                    -2.71356  -0.26592  -2.27903 
 H                     3.04083  -0.64193   0.90267 
 H                     2.93715   1.06208   1.32718 
 H                     3.77607  -0.02889  -1.39457 
 H                     3.69767   1.66864  -0.97572 
 H                     5.96943   0.81982  -0.75442 
 H                     5.41211   1.27593   0.72291 
 H                     5.48682  -0.32092   0.32558 
 

 GradGradGradGradGradGradGradGradGradGradGradGradGradGradGradGradGradGrad
 Berny optimization.
 Initialization pass.
                           ----------------------------
                           !    Initial Parameters    !
                           ! (Angstroms and Degrees)  !
 --------------------------                            --------------------------
 ! Name  Definition              Value          Derivative Info.                !
 --------------------------------------------------------------------------------
 ! R1    R(1,2)                  1.2241         calculate D2E/DX2 analytically  !
 ! R2    R(2,3)                  1.3597         calculate D2E/DX2 analytically  !
 ! R3    R(2,14)                 1.5215         calculate D2E/DX2 analytically  !
 ! R4    R(3,4)                  1.4544         calculate D2E/DX2 analytically  !
 ! R5    R(3,17)                 1.0081         calculate D2E/DX2 analytically  !
 ! R6    R(4,5)                  1.5117         calculate D2E/DX2 analytically  !
 ! R7    R(4,8)                  1.5433         calculate D2E/DX2 analytically  !
 ! R8    R(4,18)                 1.0894         calculate D2E/DX2 analytically  !
 ! R9    R(5,6)                  1.3468         calculate D2E/DX2 analytically  !
 ! R10   R(5,7)                  1.2064         calculate D2E/DX2 analytically  !
 ! R11   R(6,19)                 0.9669         calculate D2E/DX2 analytically  !
 ! R12   R(8,9)                  1.4938         calculate D2E/DX2 analytically  !
 ! R13   R(8,20)                 1.0883         calculate D2E/DX2 analytically  !
 ! R14   R(8,21)                 1.0884         calculate D2E/DX2 analytically  !
 ! R15   R(9,10)                 1.3679         calculate D2E/DX2 analytically  !
 ! R16   R(9,13)                 1.3788         calculate D2E/DX2 analytically  !
 ! R17   R(10,11)                1.3845         calculate D2E/DX2 analytically  !
 ! R18   R(10,22)                1.0825         calculate D2E/DX2 analytically  !
 ! R19   R(11,12)                1.3132         calculate D2E/DX2 analytically  !
 ! R20   R(12,13)                1.3646         calculate D2E/DX2 analytically  !
 ! R21   R(12,23)                1.0753         calculate D2E/DX2 analytically  !
 ! R22   R(13,24)                1.0076         calculate D2E/DX2 analytically  !
 ! R23   R(14,15)                1.5216         calculate D2E/DX2 analytically  !
 ! R24   R(14,25)                1.0959         calculate D2E/DX2 analytically  !
 ! R25   R(14,26)                1.0943         calculate D2E/DX2 analytically  !
 ! R26   R(15,16)                1.4871         calculate D2E/DX2 analytically  !
 ! R27   R(15,27)                1.089          calculate D2E/DX2 analytically  !
 ! R28   R(15,28)                1.0895         calculate D2E/DX2 analytically  !
 ! R29   R(16,29)                1.0209         calculate D2E/DX2 analytically  !
 ! R30   R(16,30)                1.0199         calculate D2E/DX2 analytically  !
 ! R31   R(16,31)                1.0199         calculate D2E/DX2 analytically  !
 ! A1    A(1,2,3)              121.1297         calculate D2E/DX2 analytically  !
 ! A2    A(1,2,14)             123.6408         calculate D2E/DX2 analytically  !
 ! A3    A(3,2,14)             115.227          calculate D2E/DX2 analytically  !
 ! A4    A(2,3,4)              121.176          calculate D2E/DX2 analytically  !
 ! A5    A(2,3,17)             121.3189         calculate D2E/DX2 analytically  !
 ! A6    A(4,3,17)             117.442          calculate D2E/DX2 analytically  !
 ! A7    A(3,4,5)              106.3383         calculate D2E/DX2 analytically  !
 ! A8    A(3,4,8)              110.1931         calculate D2E/DX2 analytically  !
 ! A9    A(3,4,18)             108.6502         calculate D2E/DX2 analytically  !
 ! A10   A(5,4,8)              110.6385         calculate D2E/DX2 analytically  !
 ! A11   A(5,4,18)             110.9702         calculate D2E/DX2 analytically  !
 ! A12   A(8,4,18)             109.9717         calculate D2E/DX2 analytically  !
 ! A13   A(4,5,6)              113.8036         calculate D2E/DX2 analytically  !
 ! A14   A(4,5,7)              123.1211         calculate D2E/DX2 analytically  !
 ! A15   A(6,5,7)              123.0739         calculate D2E/DX2 analytically  !
 ! A16   A(5,6,19)             105.914          calculate D2E/DX2 analytically  !
 ! A17   A(4,8,9)              113.5732         calculate D2E/DX2 analytically  !
 ! A18   A(4,8,20)             108.435          calculate D2E/DX2 analytically  !
 ! A19   A(4,8,21)             107.3141         calculate D2E/DX2 analytically  !
 ! A20   A(9,8,20)             108.5493         calculate D2E/DX2 analytically  !
 ! A21   A(9,8,21)             110.7317         calculate D2E/DX2 analytically  !
 ! A22   A(20,8,21)            108.0823         calculate D2E/DX2 analytically  !
 ! A23   A(8,9,10)             132.2612         calculate D2E/DX2 analytically  !
 ! A24   A(8,9,13)             123.049          calculate D2E/DX2 analytically  !
 ! A25   A(10,9,13)            104.6715         calculate D2E/DX2 analytically  !
 ! A26   A(9,10,11)            110.9795         calculate D2E/DX2 analytically  !
 ! A27   A(9,10,22)            126.988          calculate D2E/DX2 analytically  !
 ! A28   A(11,10,22)           122.0242         calculate D2E/DX2 analytically  !
 ! A29   A(10,11,12)           105.1009         calculate D2E/DX2 analytically  !
 ! A30   A(11,12,13)           111.4658         calculate D2E/DX2 analytically  !
 ! A31   A(11,12,23)           126.488          calculate D2E/DX2 analytically  !
 ! A32   A(13,12,23)           122.046          calculate D2E/DX2 analytically  !
 ! A33   A(9,13,12)            107.782          calculate D2E/DX2 analytically  !
 ! A34   A(9,13,24)            125.8228         calculate D2E/DX2 analytically  !
 ! A35   A(12,13,24)           126.3934         calculate D2E/DX2 analytically  !
 ! A36   A(2,14,15)            112.4095         calculate D2E/DX2 analytically  !
 ! A37   A(2,14,25)            108.5535         calculate D2E/DX2 analytically  !
 ! A38   A(2,14,26)            109.1908         calculate D2E/DX2 analytically  !
 ! A39   A(15,14,25)           109.474          calculate D2E/DX2 analytically  !
 ! A40   A(15,14,26)           110.1769         calculate D2E/DX2 analytically  !
 ! A41   A(25,14,26)           106.8689         calculate D2E/DX2 analytically  !
 ! A42   A(14,15,16)           111.9807         calculate D2E/DX2 analytically  !
 ! A43   A(14,15,27)           108.8738         calculate D2E/DX2 analytically  !
 ! A44   A(14,15,28)           109.2953         calculate D2E/DX2 analytically  !
 ! A45   A(16,15,27)           109.8784         calculate D2E/DX2 analytically  !
 ! A46   A(16,15,28)           109.7596         calculate D2E/DX2 analytically  !
 ! A47   A(27,15,28)           106.9165         calculate D2E/DX2 analytically  !
 ! A48   A(15,16,29)           111.8023         calculate D2E/DX2 analytically  !
 ! A49   A(15,16,30)           111.3432         calculate D2E/DX2 analytically  !
 ! A50   A(15,16,31)           111.2144         calculate D2E/DX2 analytically  !
 ! A51   A(29,16,30)           107.2805         calculate D2E/DX2 analytically  !
 ! A52   A(29,16,31)           107.266          calculate D2E/DX2 analytically  !
 ! A53   A(30,16,31)           107.7099         calculate D2E/DX2 analytically  !
 ! D1    D(1,2,3,4)              0.3576         calculate D2E/DX2 analytically  !
 ! D2    D(1,2,3,17)           177.3943         calculate D2E/DX2 analytically  !
 ! D3    D(14,2,3,4)          -179.0877         calculate D2E/DX2 analytically  !
 ! D4    D(14,2,3,17)           -2.0511         calculate D2E/DX2 analytically  !
 ! D5    D(1,2,14,15)           10.0468         calculate D2E/DX2 analytically  !
 ! D6    D(1,2,14,25)         -111.2039         calculate D2E/DX2 analytically  !
 ! D7    D(1,2,14,26)          132.6334         calculate D2E/DX2 analytically  !
 ! D8    D(3,2,14,15)         -170.5235         calculate D2E/DX2 analytically  !
 ! D9    D(3,2,14,25)           68.2258         calculate D2E/DX2 analytically  !
 ! D10   D(3,2,14,26)          -47.9369         calculate D2E/DX2 analytically  !
 ! D11   D(2,3,4,5)           -158.491          calculate D2E/DX2 analytically  !
 ! D12   D(2,3,4,8)             81.5636         calculate D2E/DX2 analytically  !
 ! D13   D(2,3,4,18)           -38.9825         calculate D2E/DX2 analytically  !
 ! D14   D(17,3,4,5)            24.3615         calculate D2E/DX2 analytically  !
 ! D15   D(17,3,4,8)           -95.584          calculate D2E/DX2 analytically  !
 ! D16   D(17,3,4,18)          143.87           calculate D2E/DX2 analytically  !
 ! D17   D(3,4,5,6)            129.6372         calculate D2E/DX2 analytically  !
 ! D18   D(3,4,5,7)            -50.781          calculate D2E/DX2 analytically  !
 ! D19   D(8,4,5,6)           -110.7067         calculate D2E/DX2 analytically  !
 ! D20   D(8,4,5,7)             68.875          calculate D2E/DX2 analytically  !
 ! D21   D(18,4,5,6)            11.6523         calculate D2E/DX2 analytically  !
 ! D22   D(18,4,5,7)          -168.7659         calculate D2E/DX2 analytically  !
 ! D23   D(3,4,8,9)           -179.3492         calculate D2E/DX2 analytically  !
 ! D24   D(3,4,8,20)            59.9            calculate D2E/DX2 analytically  !
 ! D25   D(3,4,8,21)           -56.6265         calculate D2E/DX2 analytically  !
 ! D26   D(5,4,8,9)             63.3402         calculate D2E/DX2 analytically  !
 ! D27   D(5,4,8,20)           -57.4105         calculate D2E/DX2 analytically  !
 ! D28   D(5,4,8,21)          -173.9371         calculate D2E/DX2 analytically  !
 ! D29   D(18,4,8,9)           -59.6006         calculate D2E/DX2 analytically  !
 ! D30   D(18,4,8,20)          179.6487         calculate D2E/DX2 analytically  !
 ! D31   D(18,4,8,21)           63.1221         calculate D2E/DX2 analytically  !
 ! D32   D(4,5,6,19)           178.8089         calculate D2E/DX2 analytically  !
 ! D33   D(7,5,6,19)            -0.7731         calculate D2E/DX2 analytically  !
 ! D34   D(4,8,9,10)          -102.7806         calculate D2E/DX2 analytically  !
 ! D35   D(4,8,9,13)            75.411          calculate D2E/DX2 analytically  !
 ! D36   D(20,8,9,10)           17.9057         calculate D2E/DX2 analytically  !
 ! D37   D(20,8,9,13)         -163.9026         calculate D2E/DX2 analytically  !
 ! D38   D(21,8,9,10)          136.3996         calculate D2E/DX2 analytically  !
 ! D39   D(21,8,9,13)          -45.4088         calculate D2E/DX2 analytically  !
 ! D40   D(8,9,10,11)          178.3004         calculate D2E/DX2 analytically  !
 ! D41   D(8,9,10,22)           -0.6592         calculate D2E/DX2 analytically  !
 ! D42   D(13,9,10,11)          -0.1328         calculate D2E/DX2 analytically  !
 ! D43   D(13,9,10,22)        -179.0924         calculate D2E/DX2 analytically  !
 ! D44   D(8,9,13,12)         -178.5556         calculate D2E/DX2 analytically  !
 ! D45   D(8,9,13,24)            1.9074         calculate D2E/DX2 analytically  !
 ! D46   D(10,9,13,12)           0.0611         calculate D2E/DX2 analytically  !
 ! D47   D(10,9,13,24)        -179.4759         calculate D2E/DX2 analytically  !
 ! D48   D(9,10,11,12)           0.1538         calculate D2E/DX2 analytically  !
 ! D49   D(22,10,11,12)        179.1736         calculate D2E/DX2 analytically  !
 ! D50   D(10,11,12,13)         -0.1125         calculate D2E/DX2 analytically  !
 ! D51   D(10,11,12,23)        179.7345         calculate D2E/DX2 analytically  !
 ! D52   D(11,12,13,9)           0.034          calculate D2E/DX2 analytically  !
 ! D53   D(11,12,13,24)        179.5676         calculate D2E/DX2 analytically  !
 ! D54   D(23,12,13,9)        -179.821          calculate D2E/DX2 analytically  !
 ! D55   D(23,12,13,24)         -0.2873         calculate D2E/DX2 analytically  !
 ! D56   D(2,14,15,16)        -178.9104         calculate D2E/DX2 analytically  !
 ! D57   D(2,14,15,27)         -57.2083         calculate D2E/DX2 analytically  !
 ! D58   D(2,14,15,28)          59.2471         calculate D2E/DX2 analytically  !
 ! D59   D(25,14,15,16)        -58.188          calculate D2E/DX2 analytically  !
 ! D60   D(25,14,15,27)         63.5141         calculate D2E/DX2 analytically  !
 ! D61   D(25,14,15,28)        179.9695         calculate D2E/DX2 analytically  !
 ! D62   D(26,14,15,16)         59.0607         calculate D2E/DX2 analytically  !
 ! D63   D(26,14,15,27)       -179.2371         calculate D2E/DX2 analytically  !
 ! D64   D(26,14,15,28)        -62.7818         calculate D2E/DX2 analytically  !
 ! D65   D(14,15,16,29)        179.8294         calculate D2E/DX2 analytically  !
 ! D66   D(14,15,16,30)        -60.1839         calculate D2E/DX2 analytically  !
 ! D67   D(14,15,16,31)         59.9494         calculate D2E/DX2 analytically  !
 ! D68   D(27,15,16,29)         58.7058         calculate D2E/DX2 analytically  !
 ! D69   D(27,15,16,30)        178.6925         calculate D2E/DX2 analytically  !
 ! D70   D(27,15,16,31)        -61.1741         calculate D2E/DX2 analytically  !
 ! D71   D(28,15,16,29)        -58.5946         calculate D2E/DX2 analytically  !
 ! D72   D(28,15,16,30)         61.3921         calculate D2E/DX2 analytically  !
 ! D73   D(28,15,16,31)       -178.4746         calculate D2E/DX2 analytically  !
 --------------------------------------------------------------------------------
 Trust Radius=3.00D-01 FncErr=1.00D-07 GrdErr=1.00D-06
 Number of steps in this run=    167 maximum allowed number of steps=    186.
 GradGradGradGradGradGradGradGradGradGradGradGradGradGradGradGradGradGrad

                          Input orientation:                          
 ---------------------------------------------------------------------
 Center     Atomic      Atomic             Coordinates (Angstroms)
 Number     Number       Type             X           Y           Z
 ---------------------------------------------------------------------
      1          8           0        1.162603    0.478671   -1.240831
      2          6           0        1.430616    0.396434   -0.049241
      3          7           0        0.448932    0.320965    0.888456
      4          6           0       -0.955423    0.327373    0.510414
      5          6           0       -1.723545    0.768751    1.735326
      6          8           0       -2.595029    1.768084    1.499553
      7          8           0       -1.575633    0.267005    2.822369
      8          6           0       -1.395584   -1.085407    0.072144
      9          6           0       -2.826998   -1.161603   -0.348369
     10          6           0       -3.946509   -1.633854    0.279987
     11          7           0       -5.070431   -1.453941   -0.508152
     12          6           0       -4.631038   -0.880572   -1.604833
     13          7           0       -3.281841   -0.681612   -1.558207
     14          6           0        2.851131    0.357259    0.494464
     15          6           0        3.889249    0.675187   -0.571600
     16          7           0        5.275090    0.608825   -0.036333
     17          1           0        0.666139    0.214146    1.867082
     18          1           0       -1.092150    1.030957   -0.310017
     19          1           0       -3.031278    1.944219    2.344257
     20          1           0       -1.242985   -1.767641    0.906216
     21          1           0       -0.738682   -1.392072   -0.739669
     22          1           0       -4.001481   -2.079351    1.264996
     23          1           0       -5.221486   -0.590477   -2.455421
     24          1           0       -2.713556   -0.265923   -2.279028
     25          1           0        3.040831   -0.641932    0.902672
     26          1           0        2.937152    1.062081    1.327175
     27          1           0        3.776071   -0.028894   -1.394566
     28          1           0        3.697671    1.668637   -0.975717
     29          1           0        5.969430    0.819825   -0.754425
     30          1           0        5.412113    1.275928    0.722911
     31          1           0        5.486815   -0.320917    0.325582
 ---------------------------------------------------------------------
                    Distance matrix (angstroms):
                    1          2          3          4          5
     1  O    0.000000
     2  C    1.224125   0.000000
     3  N    2.251236   1.359660   0.000000
     4  C    2.752414   2.451768   1.454363   0.000000
     5  C    4.155900   3.643080   2.374312   1.511700   0.000000
     6  O    4.826188   4.526147   3.425389   2.396321   1.346752
     7  O    4.904318   4.159378   2.800320   2.394461   1.206354
     8  C    3.273311   3.193430   2.458961   1.543298   2.512297
     9  C    4.404986   4.543592   3.802560   2.541131   3.047238
    10  C    5.733993   5.757076   4.848861   3.584145   3.582191
    11  N    6.566774   6.774813   5.963571   4.598244   4.601652
    12  C    5.962073   6.387038   5.785004   4.409483   4.725510
    13  N    4.604353   5.064228   4.572744   3.272531   3.921632
    14  C    2.424277   1.521517   2.434566   3.806705   4.757807
    15  C    2.814443   2.528921   3.754067   4.976201   6.069112
    16  N    4.287226   3.850358   4.922388   6.260786   7.221166
    17  H    3.158413   2.071219   1.008116   2.117270   2.456732
    18  H    2.501068   2.614377   2.077344   1.089418   2.156580
    19  H    5.708706   5.294617   4.106844   3.207233   1.860830
    20  H    3.929705   3.569910   2.687969   2.151380   2.711392
    21  H    2.713987   2.895047   2.644942   2.136860   3.429972
    22  H    6.284140   6.112643   5.070452   3.954767   3.677213
    23  H    6.585962   7.142419   6.645742   5.276165   5.625429
    24  H    4.081284   4.752350   4.514280   3.350226   4.262125
    25  H    3.062369   2.139424   2.765016   4.130795   5.038116
    26  H    3.175539   2.146453   2.633052   4.044631   4.687720
    27  H    2.666734   2.737145   4.050240   5.113014   6.377949
    28  H    2.812983   2.759782   3.980662   5.065458   6.127734
    29  H    4.843404   4.612741   5.781334   7.056622   8.085996
    30  H    4.748710   4.149946   5.056929   6.441307   7.224945
    31  H    4.668169   4.136163   5.109708   6.477413   7.427251
                    6          7          8          9         10
     6  O    0.000000
     7  O    2.245495   0.000000
     8  C    3.408604   3.070045   0.000000
     9  C    3.471554   3.695999   1.493848   0.000000
    10  C    3.858370   3.962073   2.617481   1.367902   0.000000
    11  N    4.532101   5.125196   3.738591   2.268035   1.384461
    12  C    4.560474   5.500231   3.649982   2.216357   2.142092
    13  N    3.977766   4.795880   2.525680   1.378761   2.174283
    14  C    5.715006   5.002353   4.504912   5.937883   7.086497
    15  C    6.894198   6.445974   5.607456   6.966463   8.213158
    16  N    8.101951   7.431112   6.883320   8.299133   9.495660
    17  H    3.631118   2.437398   3.026771   4.359233   5.216368
    18  H    2.465065   3.260248   2.171892   2.796156   3.949264
    19  H    0.966882   2.271682   4.125121   4.115591   4.231012
    20  H    3.831635   2.814620   1.088304   2.109588   2.778327
    21  H    4.294965   4.017603   1.088395   2.137123   3.374657
    22  H    4.103156   3.716926   3.033400   2.196501   1.082466
    23  H    5.301218   6.471676   4.612057   3.240282   3.193221
    24  H    4.292891   5.253869   2.817200   2.131328   3.152771
    25  H    6.158520   5.081648   4.535221   6.022174   7.084812
    26  H    5.579712   4.820060   4.995939   6.401378   7.466555
    27  H    7.224678   6.819885   5.478456   6.780713   8.063390
    28  H    6.762760   6.648140   5.884218   7.139687   8.421207
    29  H    8.906715   8.368216   7.652226   9.025967  10.267248
    30  H    8.059760   7.365749   7.234926   8.658646   9.810546
    31  H    8.429611   7.513839   6.929365   8.383344   9.524363
                   11         12         13         14         15
    11  N    0.000000
    12  C    1.313212   0.000000
    13  N    2.213179   1.364585   0.000000
    14  C    8.187603   7.869061   6.550272   0.000000
    15  C    9.209402   8.722571   7.364701   1.521597   0.000000
    16  N   10.559708  10.139520   8.786489   2.494115   1.487101
    17  H    6.429035   6.427494   5.302974   2.584329   4.067944
    18  H    4.694752   4.225425   3.047231   4.080505   5.000933
    19  H    4.882814   5.112141   4.710307   6.367332   7.616190
    20  H    4.092455   4.309426   3.377835   4.631040   5.872919
    21  H    4.338373   4.020021   2.764492   4.179713   5.071445
    22  H    2.162833   3.173221   3.231413   7.313623   8.557113
    23  H    2.135473   1.075307   2.139047   8.646802   9.389152
    24  H    3.178403   2.123457   1.007635   6.248709   6.884623
    25  H    8.272990   8.074782   6.784813   1.095903   2.151300
    26  H    8.591867   8.345542   7.074021   1.094341   2.159056
    27  H    9.004281   8.452753   7.089918   2.138472   1.088950
    28  H    9.319266   8.732791   7.387594   2.144242   1.089475
    29  H   11.274271  10.769608   9.406721   3.390793   2.093203
    30  H   10.901901  10.532510   9.198930   2.730342   2.087047
    31  H   10.650555  10.315555   8.975973   2.726770   2.085516
                   16         17         18         19         20
    16  N    0.000000
    17  H    5.002119   0.000000
    18  H    6.387084   2.915222   0.000000
    19  H    8.743354   4.109956   3.411662   0.000000
    20  H    7.001521   2.914704   3.055180   4.363927   0.000000
    21  H    6.376812   3.368770   2.486083   5.088952   1.761905
    22  H    9.745487   5.235391   4.540803   4.277291   2.799140
    23  H   10.838285   7.348168   4.927801   5.853085   5.339924
    24  H    8.343460   5.370571   2.861444   5.134242   3.816217
    25  H    2.727277   2.702243   4.620682   6.755505   4.429257
    26  H    2.744185   2.483544   4.349326   6.118396   5.065380
    27  H    2.120976   4.513213   5.098931   8.013237   5.788589
    28  H    2.119881   4.403094   4.877722   7.508457   6.305534
    29  H    1.020923   5.946768   7.078699   9.585345   7.840385
    30  H    1.019928   4.996077   6.590325   8.623586   7.320331
    31  H    1.019917   5.089346   6.746431   9.042334   6.907993
                   21         22         23         24         25
    21  H    0.000000
    22  H    3.890616   0.000000
    23  H    4.866404   4.188873   0.000000
    24  H    2.745535   4.184182   2.534988   0.000000
    25  H    4.188641   7.196639   8.918819   6.586165   0.000000
    26  H    4.879187   7.616895   9.143432   6.833652   1.759151
    27  H    4.761317   8.471597   9.077269   6.553908   2.488714
    28  H    5.394895   8.851280   9.319039   6.822388   3.049347
    29  H    7.063390  10.578391  11.406969   8.882427   3.668705
    30  H    6.862190  10.008372  11.254275   8.798605   3.055074
    31  H    6.406165   9.695482  11.066814   8.604250   2.533559
                   26         27         28         29         30
    26  H    0.000000
    27  H    3.049900   0.000000
    28  H    2.499923   1.750198   0.000000
    29  H    3.685981   2.437402   2.435230   0.000000
    30  H    2.556619   2.977063   2.445173   1.643519   0.000000
    31  H    3.068657   2.443529   2.975356   1.643357   1.647229
                   31
    31  H    0.000000
 Symmetry turned off by external request.
 Stoichiometry    C9H15N4O3(1+)
 Framework group  C1[X(C9H15N4O3)]
 Deg. of freedom    87
 Full point group                 C1      NOp   1
 Rotational constants (GHZ):      1.0449480      0.2251058      0.2000292
 Standard basis: 6-311G(2df,2pd) (5D, 7F)
   690 basis functions,  1023 primitive gaussians,   785 cartesian basis functions
    60 alpha electrons       60 beta electrons
       nuclear repulsion energy      1111.5256414978 Hartrees.
 NAtoms=   31 NActive=   31 NUniq=   31 SFac= 1.00D+00 NAtFMM=   60 NAOKFM=F Big=F
 Integral buffers will be    131072 words long.
 Raffenetti 2 integral format.
 Two-electron integral symmetry is turned off.
 Nuclear repulsion after empirical dispersion term =     1111.4717372650 Hartrees.
 One-electron integrals computed using PRISM.
 NBasis=   690 RedAO= T EigKep=  2.12D-04  NBF=   690
 NBsUse=   690 1.00D-06 EigRej= -1.00D+00 NBFU=   690
 ExpMin= 1.03D-01 ExpMax= 8.59D+03 ExpMxC= 1.30D+03 IAcc=3 IRadAn=         5 AccDes= 0.00D+00
 Harris functional with IExCor=  402 and IRadAn=       5 diagonalized for initial guess.
 HarFok:  IExCor=  402 AccDes= 0.00D+00 IRadAn=         5 IDoV= 1 UseB2=F ITyADJ=14
 ICtDFT=  3500011 ScaDFX=  1.000000  1.000000  1.000000  1.000000
 FoFCou: FMM=F IPFlag=           0 FMFlag=      100000 FMFlg1=           0
         NFxFlg=           0 DoJE=T BraDBF=F KetDBF=T FulRan=T
         wScrn=  0.000000 ICntrl=     500 IOpCl=  0 I1Cent=   200000004 NGrid=           0
         NMat0=    1 NMatS0=      1 NMatT0=    0 NMatD0=    1 NMtDS0=    0 NMtDT0=    0
 Symmetry not used in FoFCou.
 Requested convergence on RMS density matrix=1.00D-08 within 128 cycles.
 Requested convergence on MAX density matrix=1.00D-06.
 Requested convergence on             energy=1.00D-06.
 No special actions if energy rises.
 Integral accuracy reduced to 1.0D-05 until final iterations.
 EnCoef did     2 forward-backward iterations
 Initial convergence to 1.0D-05 achieved.  Increase integral accuracy.
 SCF Done:  E(RB3LYP) =  -796.773730759     A.U. after   17 cycles
            NFock= 17  Conv=0.25D-08     -V/T= 2.0039
 DoSCS=F DFT=T ScalE2(SS,OS)=  1.000000  1.000000
 Range of M.O.s used for correlation:     1   690
 NBasis=   690 NAE=    60 NBE=    60 NFC=     0 NFV=     0
 NROrb=    690 NOA=    60 NOB=    60 NVA=   630 NVB=   630

 **** Warning!!: The largest alpha MO coefficient is  0.13157438D+02

 Symmetrizing basis deriv contribution to polar:
 IMax=3 JMax=2 DiffMx= 0.00D+00
 G2DrvN: will do    32 centers at a time, making    1 passes.
 Calling FoFCou, ICntrl=  3107 FMM=F I1Cent=   0 AccDes= 0.00D+00.
 End of G2Drv F.D. properties file   721 does not exist.
 End of G2Drv F.D. properties file   722 does not exist.
 End of G2Drv F.D. properties file   788 does not exist.
          IDoAtm=1111111111111111111111111111111
          Differentiating once with respect to nuclear coordinates.
          There are    96 degrees of freedom in the 1st order CPHF.  IDoFFX=6 NUNeed=     0.
     90 vectors produced by pass  0 Test12= 3.94D-14 1.04D-09 XBig12= 1.53D-01 9.83D-02.
 AX will form    90 AO Fock derivatives at one time.
     90 vectors produced by pass  1 Test12= 3.94D-14 1.04D-09 XBig12= 2.10D-02 4.10D-02.
     90 vectors produced by pass  2 Test12= 3.94D-14 1.04D-09 XBig12= 4.93D-04 3.22D-03.
     90 vectors produced by pass  3 Test12= 3.94D-14 1.04D-09 XBig12= 2.64D-06 2.95D-04.
     90 vectors produced by pass  4 Test12= 3.94D-14 1.04D-09 XBig12= 5.49D-09 1.18D-05.
     87 vectors produced by pass  5 Test12= 3.94D-14 1.04D-09 XBig12= 8.55D-12 3.74D-07.
     40 vectors produced by pass  6 Test12= 3.94D-14 1.04D-09 XBig12= 1.11D-14 9.25D-09.
      4 vectors produced by pass  7 Test12= 3.94D-14 1.04D-09 XBig12= 4.31D-16 1.33D-09.
      4 vectors produced by pass  8 Test12= 3.94D-14 1.04D-09 XBig12= 8.03D-16 2.68D-09.
      2 vectors produced by pass  9 Test12= 3.94D-14 1.04D-09 XBig12= 1.53D-15 2.99D-09.
 InvSVY:  IOpt=1 It=  1 EMax= 6.11D-16
 Solved reduced A of dimension   587 with    96 vectors.
 End of Minotr F.D. properties file   721 does not exist.
 End of Minotr F.D. properties file   722 does not exist.
 End of Minotr F.D. properties file   788 does not exist.

 **********************************************************************

            Population analysis using the SCF density.

 **********************************************************************

 Alpha  occ. eigenvalues --  -19.26723 -19.22447 -19.21404 -14.65129 -14.46830
 Alpha  occ. eigenvalues --  -14.43637 -14.35382 -10.42069 -10.41676 -10.40708
 Alpha  occ. eigenvalues --  -10.36358 -10.33557 -10.28812 -10.28223 -10.27568
 Alpha  occ. eigenvalues --  -10.24852  -1.22298  -1.21283  -1.17902  -1.12451
 Alpha  occ. eigenvalues --   -1.08477  -1.05917  -0.97660  -0.93989  -0.90630
 Alpha  occ. eigenvalues --   -0.86002  -0.82726  -0.80549  -0.79728  -0.77127
 Alpha  occ. eigenvalues --   -0.73091  -0.70994  -0.70673  -0.68365  -0.66349
 Alpha  occ. eigenvalues --   -0.65430  -0.65071  -0.61743  -0.60551  -0.59904
 Alpha  occ. eigenvalues --   -0.58270  -0.57597  -0.57274  -0.55540  -0.54357
 Alpha  occ. eigenvalues --   -0.53347  -0.52315  -0.50896  -0.50311  -0.49256
 Alpha  occ. eigenvalues --   -0.48246  -0.47594  -0.46904  -0.42642  -0.40558
 Alpha  occ. eigenvalues --   -0.39559  -0.38474  -0.35184  -0.33536  -0.30158
 Alpha virt. eigenvalues --   -0.19649  -0.14076  -0.13315  -0.12134  -0.10842
 Alpha virt. eigenvalues --   -0.10223  -0.08115  -0.06096  -0.05492  -0.04652
 Alpha virt. eigenvalues --   -0.04498  -0.04001  -0.02607  -0.02387  -0.01473
 Alpha virt. eigenvalues --   -0.00290   0.00153   0.01032   0.02445   0.02637
 Alpha virt. eigenvalues --    0.03472   0.04680   0.06546   0.08131   0.08795
 Alpha virt. eigenvalues --    0.09587   0.10927   0.11022   0.11478   0.12654
 Alpha virt. eigenvalues --    0.13452   0.15022   0.15250   0.16589   0.16998
 Alpha virt. eigenvalues --    0.18109   0.19170   0.19812   0.21638   0.23200
 Alpha virt. eigenvalues --    0.23801   0.24686   0.24969   0.26059   0.26632
 Alpha virt. eigenvalues --    0.27280   0.28392   0.28769   0.28829   0.29385
 Alpha virt. eigenvalues --    0.29519   0.30244   0.30626   0.30716   0.31565
 Alpha virt. eigenvalues --    0.31752   0.32686   0.33217   0.33771   0.34405
 Alpha virt. eigenvalues --    0.35370   0.36424   0.36853   0.37021   0.37451
 Alpha virt. eigenvalues --    0.38731   0.39012   0.39702   0.40556   0.41285
 Alpha virt. eigenvalues --    0.42129   0.43011   0.43941   0.44606   0.45018
 Alpha virt. eigenvalues --    0.45406   0.45847   0.46920   0.47957   0.48776
 Alpha virt. eigenvalues --    0.50128   0.50764   0.51676   0.52585   0.52995
 Alpha virt. eigenvalues --    0.54804   0.55672   0.55806   0.56662   0.57199
 Alpha virt. eigenvalues --    0.57913   0.58552   0.60374   0.61119   0.61679
 Alpha virt. eigenvalues --    0.62444   0.63067   0.63571   0.64966   0.66017
 Alpha virt. eigenvalues --    0.66755   0.67045   0.67312   0.67905   0.68481
 Alpha virt. eigenvalues --    0.69159   0.70309   0.71214   0.72137   0.74120
 Alpha virt. eigenvalues --    0.74690   0.75494   0.76384   0.77746   0.77975
 Alpha virt. eigenvalues --    0.78731   0.79245   0.80553   0.82031   0.82656
 Alpha virt. eigenvalues --    0.84364   0.84681   0.85754   0.86073   0.87539
 Alpha virt. eigenvalues --    0.88402   0.89171   0.90207   0.91112   0.91526
 Alpha virt. eigenvalues --    0.92449   0.92794   0.93291   0.94096   0.94832
 Alpha virt. eigenvalues --    0.95783   0.96961   0.97235   0.97652   0.98601
 Alpha virt. eigenvalues --    1.00346   1.00610   1.01424   1.01716   1.02962
 Alpha virt. eigenvalues --    1.03443   1.03760   1.04394   1.05149   1.06066
 Alpha virt. eigenvalues --    1.06435   1.08822   1.09203   1.09671   1.10458
 Alpha virt. eigenvalues --    1.11153   1.11248   1.12035   1.13368   1.14944
 Alpha virt. eigenvalues --    1.15460   1.16887   1.17006   1.17859   1.18801
 Alpha virt. eigenvalues --    1.19017   1.19805   1.20644   1.20956   1.21615
 Alpha virt. eigenvalues --    1.22013   1.22427   1.23492   1.24500   1.25881
 Alpha virt. eigenvalues --    1.26694   1.27363   1.28062   1.28642   1.29378
 Alpha virt. eigenvalues --    1.29842   1.30524   1.31507   1.31784   1.32089
 Alpha virt. eigenvalues --    1.33124   1.34659   1.35439   1.36330   1.37721
 Alpha virt. eigenvalues --    1.38867   1.40213   1.41189   1.42690   1.44883
 Alpha virt. eigenvalues --    1.45659   1.46972   1.47455   1.49291   1.49708
 Alpha virt. eigenvalues --    1.50603   1.51955   1.53086   1.54831   1.56869
 Alpha virt. eigenvalues --    1.56966   1.59048   1.60179   1.61650   1.63490
 Alpha virt. eigenvalues --    1.64271   1.65438   1.65815   1.66902   1.68288
 Alpha virt. eigenvalues --    1.69839   1.71717   1.74455   1.75463   1.76806
 Alpha virt. eigenvalues --    1.79853   1.81853   1.84546   1.87327   1.90218
 Alpha virt. eigenvalues --    1.91256   1.93349   1.94430   1.97144   1.99713
 Alpha virt. eigenvalues --    2.01055   2.04919   2.07838   2.09471   2.13319
 Alpha virt. eigenvalues --    2.14736   2.15163   2.17711   2.20418   2.21900
 Alpha virt. eigenvalues --    2.23570   2.26250   2.35184   2.37839   2.39451
 Alpha virt. eigenvalues --    2.41195   2.43011   2.43168   2.44906   2.46945
 Alpha virt. eigenvalues --    2.49452   2.50911   2.52130   2.52743   2.53719
 Alpha virt. eigenvalues --    2.54279   2.55209   2.55888   2.57678   2.58481
 Alpha virt. eigenvalues --    2.58755   2.59373   2.60737   2.62144   2.63585
 Alpha virt. eigenvalues --    2.64948   2.66588   2.67591   2.68595   2.69045
 Alpha virt. eigenvalues --    2.70183   2.72003   2.72866   2.73017   2.74299
 Alpha virt. eigenvalues --    2.75681   2.77054   2.77196   2.77398   2.78374
 Alpha virt. eigenvalues --    2.78899   2.80656   2.81696   2.81921   2.82306
 Alpha virt. eigenvalues --    2.83290   2.83670   2.84850   2.86088   2.87004
 Alpha virt. eigenvalues --    2.87478   2.87929   2.88903   2.89637   2.90386
 Alpha virt. eigenvalues --    2.91415   2.92007   2.92592   2.93750   2.94739
 Alpha virt. eigenvalues --    2.95195   2.96146   2.96991   2.97346   2.97549
 Alpha virt. eigenvalues --    2.98412   2.99114   2.99774   3.00266   3.00834
 Alpha virt. eigenvalues --    3.01766   3.02528   3.03802   3.04366   3.04841
 Alpha virt. eigenvalues --    3.05404   3.05493   3.06578   3.07006   3.07598
 Alpha virt. eigenvalues --    3.08097   3.09696   3.11431   3.12175   3.12729
 Alpha virt. eigenvalues --    3.14204   3.14693   3.15001   3.15525   3.16084
 Alpha virt. eigenvalues --    3.16416   3.17252   3.17416   3.18179   3.19581
 Alpha virt. eigenvalues --    3.20518   3.21224   3.22446   3.23223   3.23716
 Alpha virt. eigenvalues --    3.24587   3.25618   3.26118   3.26475   3.26949
 Alpha virt. eigenvalues --    3.28363   3.28770   3.30039   3.30370   3.31067
 Alpha virt. eigenvalues --    3.32195   3.33059   3.34136   3.34995   3.35970
 Alpha virt. eigenvalues --    3.36606   3.36750   3.38003   3.38471   3.39258
 Alpha virt. eigenvalues --    3.40093   3.40760   3.41264   3.41669   3.42945
 Alpha virt. eigenvalues --    3.43841   3.44286   3.45199   3.46563   3.47446
 Alpha virt. eigenvalues --    3.48121   3.48880   3.50753   3.51171   3.51702
 Alpha virt. eigenvalues --    3.52576   3.53191   3.54046   3.54584   3.55179
 Alpha virt. eigenvalues --    3.55914   3.57236   3.58742   3.59594   3.60130
 Alpha virt. eigenvalues --    3.60873   3.61602   3.62600   3.62927   3.63468
 Alpha virt. eigenvalues --    3.65474   3.66597   3.67923   3.68644   3.68854
 Alpha virt. eigenvalues --    3.70044   3.70985   3.72053   3.72509   3.72599
 Alpha virt. eigenvalues --    3.73474   3.73994   3.74862   3.77038   3.78280
 Alpha virt. eigenvalues --    3.78551   3.80016   3.81021   3.81598   3.81992
 Alpha virt. eigenvalues --    3.83015   3.83465   3.83618   3.84403   3.85856
 Alpha virt. eigenvalues --    3.86642   3.87444   3.87934   3.88997   3.89336
 Alpha virt. eigenvalues --    3.89655   3.90856   3.91687   3.92396   3.93256
 Alpha virt. eigenvalues --    3.94604   3.96562   3.97618   3.98570   3.98896
 Alpha virt. eigenvalues --    3.99711   4.00856   4.01377   4.01857   4.02950
 Alpha virt. eigenvalues --    4.04258   4.04652   4.06743   4.07170   4.08008
 Alpha virt. eigenvalues --    4.08948   4.09801   4.10251   4.10593   4.11659
 Alpha virt. eigenvalues --    4.13228   4.15507   4.15839   4.17931   4.18454
 Alpha virt. eigenvalues --    4.21707   4.23215   4.24249   4.25197   4.25888
 Alpha virt. eigenvalues --    4.27959   4.28510   4.32518   4.33654   4.34897
 Alpha virt. eigenvalues --    4.36511   4.37945   4.40049   4.42101   4.42671
 Alpha virt. eigenvalues --    4.43572   4.45135   4.45698   4.47190   4.50378
 Alpha virt. eigenvalues --    4.50889   4.52116   4.54208   4.56032   4.56757
 Alpha virt. eigenvalues --    4.58514   4.63131   4.63555   4.65741   4.67478
 Alpha virt. eigenvalues --    4.68707   4.69571   4.70439   4.71845   4.73083
 Alpha virt. eigenvalues --    4.73831   4.75439   4.75867   4.77254   4.77696
 Alpha virt. eigenvalues --    4.77814   4.80657   4.81700   4.83625   4.85043
 Alpha virt. eigenvalues --    4.86113   4.87498   4.89299   4.90363   4.91209
 Alpha virt. eigenvalues --    4.91774   4.92090   4.92900   4.93611   4.94039
 Alpha virt. eigenvalues --    4.96038   4.96549   4.97333   4.97920   4.98773
 Alpha virt. eigenvalues --    4.99441   4.99868   5.00122   5.01628   5.02451
 Alpha virt. eigenvalues --    5.03288   5.04374   5.04972   5.07347   5.07837
 Alpha virt. eigenvalues --    5.08732   5.09351   5.09503   5.13963   5.15743
 Alpha virt. eigenvalues --    5.16460   5.17229   5.18234   5.20756   5.22107
 Alpha virt. eigenvalues --    5.23253   5.23822   5.24777   5.25333   5.26909
 Alpha virt. eigenvalues --    5.29865   5.30528   5.31593   5.32030   5.33328
 Alpha virt. eigenvalues --    5.34679   5.37488   5.38425   5.39313   5.39768
 Alpha virt. eigenvalues --    5.41013   5.42533   5.43157   5.43573   5.45836
 Alpha virt. eigenvalues --    5.46858   5.50865   5.51768   5.54300   5.56817
 Alpha virt. eigenvalues --    5.60848   5.62554   5.65389   5.67692   5.68702
 Alpha virt. eigenvalues --    5.70165   5.71684   5.77341   5.79071   5.80627
 Alpha virt. eigenvalues --    5.82025   5.82892   5.84467   5.86470   5.88681
 Alpha virt. eigenvalues --    5.89708   5.95820   5.97664   6.00596   6.05244
 Alpha virt. eigenvalues --    6.10069   6.11834   6.12985   6.18226   6.21087
 Alpha virt. eigenvalues --    6.22912   6.23374   6.29560   6.31575   6.33536
 Alpha virt. eigenvalues --    6.36273   6.40208   6.44207   6.58491   6.64273
 Alpha virt. eigenvalues --    6.73095   6.75423   6.78311   6.79881   6.85178
 Alpha virt. eigenvalues --    6.88163   6.90661   6.92972   6.93756   6.97423
 Alpha virt. eigenvalues --    7.03825   7.07327   7.07768   7.09524   7.10200
 Alpha virt. eigenvalues --    7.15191   7.19900   7.33273   7.40665   7.41653
 Alpha virt. eigenvalues --    7.44859   7.48080   7.56893   7.88070  24.36625
 Alpha virt. eigenvalues --   24.53223  24.57740  24.71499  24.80361  24.86512
 Alpha virt. eigenvalues --   24.89490  24.96945  25.01349  35.89694  36.10073
 Alpha virt. eigenvalues --   36.16436  36.33940  50.06914  50.09074  50.19710
          Condensed to atoms (all electrons):
               1          2          3          4          5          6
     1  O    7.870156   0.680279  -0.100704  -0.022160  -0.000110   0.000001
     2  C    0.680279   4.239586   0.471692  -0.067433   0.004128  -0.000231
     3  N   -0.100704   0.471692   6.557009   0.221489  -0.000367  -0.000301
     4  C   -0.022160  -0.067433   0.221489   5.256846   0.211562  -0.068025
     5  C   -0.000110   0.004128  -0.000367   0.211562   4.275672   0.396758
     6  O    0.000001  -0.000231  -0.000301  -0.068025   0.396758   7.749605
     7  O   -0.000006  -0.000637  -0.008690  -0.114870   0.694366  -0.085316
     8  C    0.001371   0.001317  -0.041839   0.267731  -0.055086  -0.002090
     9  C   -0.001334   0.000369   0.003306  -0.076051  -0.008954   0.002051
    10  C   -0.000004   0.000001  -0.000107  -0.004386   0.004533   0.001040
    11  N    0.000000   0.000000   0.000000  -0.000538   0.000079  -0.000100
    12  C   -0.000001   0.000001   0.000002   0.000793   0.000058   0.000271
    13  N   -0.000007   0.000017   0.000088   0.002839   0.000712  -0.000498
    14  C   -0.082976   0.285460  -0.072238   0.001597  -0.000072  -0.000001
    15  C    0.008236  -0.060933   0.001544  -0.000332  -0.000007   0.000000
    16  N    0.000516  -0.001296   0.000037  -0.000001   0.000000   0.000000
    17  H    0.004345  -0.026178   0.345049  -0.036349  -0.009348   0.001208
    18  H    0.021680  -0.008164  -0.029619   0.372815  -0.014947   0.011225
    19  H    0.000002   0.000049  -0.000438   0.019067  -0.053001   0.324939
    20  H   -0.000100   0.000353   0.008276  -0.050428  -0.003805   0.000570
    21  H    0.009921   0.003655  -0.007307  -0.052763   0.005207  -0.000218
    22  H    0.000000   0.000000  -0.000014  -0.000023   0.000862  -0.000163
    23  H    0.000000   0.000000   0.000000   0.000013   0.000003   0.000010
    24  H    0.000310   0.000028  -0.000054  -0.000467  -0.000034  -0.000074
    25  H   -0.000220  -0.011768   0.002298   0.000165   0.000002   0.000000
    26  H    0.001285  -0.014495   0.005289   0.000339   0.000042  -0.000002
    27  H    0.016086   0.005898   0.000771   0.000097   0.000001   0.000000
    28  H    0.007842   0.006149   0.000350   0.000045   0.000000   0.000000
    29  H    0.000026  -0.000231   0.000002   0.000000   0.000000   0.000000
    30  H    0.000025   0.000207  -0.000011   0.000001   0.000000   0.000000
    31  H    0.000026   0.000230  -0.000001   0.000002   0.000000   0.000000
               7          8          9         10         11         12
     1  O   -0.000006   0.001371  -0.001334  -0.000004   0.000000  -0.000001
     2  C   -0.000637   0.001317   0.000369   0.000001   0.000000   0.000001
     3  N   -0.008690  -0.041839   0.003306  -0.000107   0.000000   0.000002
     4  C   -0.114870   0.267731  -0.076051  -0.004386  -0.000538   0.000793
     5  C    0.694366  -0.055086  -0.008954   0.004533   0.000079   0.000058
     6  O   -0.085316  -0.002090   0.002051   0.001040  -0.000100   0.000271
     7  O    7.844860   0.004955  -0.002774  -0.000046   0.000005  -0.000001
     8  C    0.004955   4.925135   0.241523  -0.038813   0.010424  -0.001974
     9  C   -0.002774   0.241523   5.252675   0.501279  -0.051074  -0.123014
    10  C   -0.000046  -0.038813   0.501279   4.704208   0.468874  -0.147385
    11  N    0.000005   0.010424  -0.051074   0.468874   6.495552   0.577140
    12  C   -0.000001  -0.001974  -0.123014  -0.147385   0.577140   4.567458
    13  N    0.000018  -0.050093   0.340031  -0.045119  -0.129469   0.472938
    14  C   -0.000126  -0.000485  -0.000044   0.000000   0.000000   0.000000
    15  C    0.000000   0.000006   0.000001   0.000000   0.000000   0.000000
    16  N    0.000000   0.000000   0.000000   0.000000   0.000000   0.000000
    17  H    0.027855   0.002223  -0.000026   0.000001  -0.000001  -0.000001
    18  H    0.004061  -0.047218   0.008697  -0.000671   0.000035   0.000049
    19  H    0.010705  -0.001487   0.000736   0.000499  -0.000001  -0.000024
    20  H    0.011175   0.370411  -0.014106  -0.007197   0.000546  -0.000372
    21  H   -0.000167   0.410226  -0.034397   0.003283  -0.000562   0.000284
    22  H    0.000705  -0.001217  -0.056982   0.434467  -0.017020   0.005899
    23  H    0.000000  -0.000294   0.005273   0.003919  -0.015911   0.426305
    24  H   -0.000003   0.005929  -0.030955   0.002657   0.007592  -0.025851
    25  H   -0.000017   0.000184   0.000013   0.000000   0.000000   0.000000
    26  H   -0.000052   0.000061  -0.000003   0.000000   0.000000   0.000000
    27  H    0.000000  -0.000026   0.000000   0.000000   0.000000   0.000000
    28  H    0.000000   0.000002   0.000001   0.000000   0.000000   0.000000
    29  H    0.000000   0.000000   0.000000   0.000000   0.000000   0.000000
    30  H    0.000000   0.000000   0.000000   0.000000   0.000000   0.000000
    31  H    0.000000   0.000000   0.000000   0.000000   0.000000   0.000000
              13         14         15         16         17         18
     1  O   -0.000007  -0.082976   0.008236   0.000516   0.004345   0.021680
     2  C    0.000017   0.285460  -0.060933  -0.001296  -0.026178  -0.008164
     3  N    0.000088  -0.072238   0.001544   0.000037   0.345049  -0.029619
     4  C    0.002839   0.001597  -0.000332  -0.000001  -0.036349   0.372815
     5  C    0.000712  -0.000072  -0.000007   0.000000  -0.009348  -0.014947
     6  O   -0.000498  -0.000001   0.000000   0.000000   0.001208   0.011225
     7  O    0.000018  -0.000126   0.000000   0.000000   0.027855   0.004061
     8  C   -0.050093  -0.000485   0.000006   0.000000   0.002223  -0.047218
     9  C    0.340031  -0.000044   0.000001   0.000000  -0.000026   0.008697
    10  C   -0.045119   0.000000   0.000000   0.000000   0.000001  -0.000671
    11  N   -0.129469   0.000000   0.000000   0.000000  -0.000001   0.000035
    12  C    0.472938   0.000000   0.000000   0.000000  -0.000001   0.000049
    13  N    6.288174   0.000000   0.000000   0.000000  -0.000012   0.003805
    14  C    0.000000   5.052412   0.286960  -0.019034   0.000776   0.002550
    15  C    0.000000   0.286960   4.734175   0.197693  -0.000537   0.000053
    16  N    0.000000  -0.019034   0.197693   5.660082  -0.000049  -0.000001
    17  H   -0.000012   0.000776  -0.000537  -0.000049   0.567542   0.004574
    18  H    0.003805   0.002550   0.000053  -0.000001   0.004574   0.644548
    19  H   -0.000004   0.000002   0.000000   0.000000  -0.000458  -0.001295
    20  H    0.003008   0.000092   0.000003   0.000000   0.003270   0.008372
    21  H    0.000003   0.000671  -0.000008   0.000000  -0.000993  -0.007527
    22  H    0.004486   0.000000   0.000000   0.000000  -0.000010  -0.000006
    23  H   -0.037621   0.000000   0.000000   0.000000   0.000000   0.000014
    24  H    0.380527   0.000004   0.000000   0.000000   0.000007   0.000751
    25  H    0.000000   0.377702  -0.031430   0.000435   0.000023   0.000014
    26  H    0.000000   0.379984  -0.032872   0.000268  -0.000922  -0.000472
    27  H    0.000000  -0.047036   0.406329  -0.020389  -0.000131  -0.000080
    28  H    0.000000  -0.044965   0.413920  -0.022308  -0.000083   0.000014
    29  H    0.000000   0.002284  -0.016997   0.380463   0.000000   0.000000
    30  H    0.000000  -0.000326  -0.026425   0.356316   0.000005   0.000000
    31  H    0.000000   0.001017  -0.028718   0.356560   0.000007  -0.000001
              19         20         21         22         23         24
     1  O    0.000002  -0.000100   0.009921   0.000000   0.000000   0.000310
     2  C    0.000049   0.000353   0.003655   0.000000   0.000000   0.000028
     3  N   -0.000438   0.008276  -0.007307  -0.000014   0.000000  -0.000054
     4  C    0.019067  -0.050428  -0.052763  -0.000023   0.000013  -0.000467
     5  C   -0.053001  -0.003805   0.005207   0.000862   0.000003  -0.000034
     6  O    0.324939   0.000570  -0.000218  -0.000163   0.000010  -0.000074
     7  O    0.010705   0.011175  -0.000167   0.000705   0.000000  -0.000003
     8  C   -0.001487   0.370411   0.410226  -0.001217  -0.000294   0.005929
     9  C    0.000736  -0.014106  -0.034397  -0.056982   0.005273  -0.030955
    10  C    0.000499  -0.007197   0.003283   0.434467   0.003919   0.002657
    11  N   -0.000001   0.000546  -0.000562  -0.017020  -0.015911   0.007592
    12  C   -0.000024  -0.000372   0.000284   0.005899   0.426305  -0.025851
    13  N   -0.000004   0.003008   0.000003   0.004486  -0.037621   0.380527
    14  C    0.000002   0.000092   0.000671   0.000000   0.000000   0.000004
    15  C    0.000000   0.000003  -0.000008   0.000000   0.000000   0.000000
    16  N    0.000000   0.000000   0.000000   0.000000   0.000000   0.000000
    17  H   -0.000458   0.003270  -0.000993  -0.000010   0.000000   0.000007
    18  H   -0.001295   0.008372  -0.007527  -0.000006   0.000014   0.000751
    19  H    0.464699  -0.000141   0.000054   0.000073   0.000001   0.000004
    20  H   -0.000141   0.682940  -0.040619   0.001637   0.000017  -0.000101
    21  H    0.000054  -0.040619   0.678717   0.000138  -0.000021   0.001362
    22  H    0.000073   0.001637   0.000138   0.605785  -0.000375  -0.000457
    23  H    0.000001   0.000017  -0.000021  -0.000375   0.588545  -0.001229
    24  H    0.000004  -0.000101   0.001362  -0.000457  -0.001229   0.550117
    25  H    0.000000   0.000028  -0.000233   0.000000   0.000000   0.000000
    26  H    0.000000  -0.000060   0.000063   0.000000   0.000000   0.000000
    27  H    0.000000  -0.000006   0.000062   0.000000   0.000000   0.000000
    28  H    0.000000   0.000000  -0.000019   0.000000   0.000000   0.000000
    29  H    0.000000   0.000000   0.000000   0.000000   0.000000   0.000000
    30  H    0.000000   0.000000   0.000000   0.000000   0.000000   0.000000
    31  H    0.000000   0.000000   0.000000   0.000000   0.000000   0.000000
              25         26         27         28         29         30
     1  O   -0.000220   0.001285   0.016086   0.007842   0.000026   0.000025
     2  C   -0.011768  -0.014495   0.005898   0.006149  -0.000231   0.000207
     3  N    0.002298   0.005289   0.000771   0.000350   0.000002  -0.000011
     4  C    0.000165   0.000339   0.000097   0.000045   0.000000   0.000001
     5  C    0.000002   0.000042   0.000001   0.000000   0.000000   0.000000
     6  O    0.000000  -0.000002   0.000000   0.000000   0.000000   0.000000
     7  O   -0.000017  -0.000052   0.000000   0.000000   0.000000   0.000000
     8  C    0.000184   0.000061  -0.000026   0.000002   0.000000   0.000000
     9  C    0.000013  -0.000003   0.000000   0.000001   0.000000   0.000000
    10  C    0.000000   0.000000   0.000000   0.000000   0.000000   0.000000
    11  N    0.000000   0.000000   0.000000   0.000000   0.000000   0.000000
    12  C    0.000000   0.000000   0.000000   0.000000   0.000000   0.000000
    13  N    0.000000   0.000000   0.000000   0.000000   0.000000   0.000000
    14  C    0.377702   0.379984  -0.047036  -0.044965   0.002284  -0.000326
    15  C   -0.031430  -0.032872   0.406329   0.413920  -0.016997  -0.026425
    16  N    0.000435   0.000268  -0.020389  -0.022308   0.380463   0.356316
    17  H    0.000023  -0.000922  -0.000131  -0.000083   0.000000   0.000005
    18  H    0.000014  -0.000472  -0.000080   0.000014   0.000000   0.000000
    19  H    0.000000   0.000000   0.000000   0.000000   0.000000   0.000000
    20  H    0.000028  -0.000060  -0.000006   0.000000   0.000000   0.000000
    21  H   -0.000233   0.000063   0.000062  -0.000019   0.000000   0.000000
    22  H    0.000000   0.000000   0.000000   0.000000   0.000000   0.000000
    23  H    0.000000   0.000000   0.000000   0.000000   0.000000   0.000000
    24  H    0.000000   0.000000   0.000000   0.000000   0.000000   0.000000
    25  H    0.644666  -0.039579  -0.006091   0.006847   0.000029  -0.001073
    26  H   -0.039579   0.650231   0.007532  -0.006560   0.000033   0.003715
    27  H   -0.006091   0.007532   0.583689  -0.030068  -0.002697   0.005149
    28  H    0.006847  -0.006560  -0.030068   0.586488  -0.002873  -0.005097
    29  H    0.000029   0.000033  -0.002697  -0.002873   0.541638  -0.024425
    30  H   -0.001073   0.003715   0.005149  -0.005097  -0.024425   0.558325
    31  H    0.004449  -0.000899  -0.004927   0.005517  -0.024404  -0.025246
              31
     1  O    0.000026
     2  C    0.000230
     3  N   -0.000001
     4  C    0.000002
     5  C    0.000000
     6  O    0.000000
     7  O    0.000000
     8  C    0.000000
     9  C    0.000000
    10  C    0.000000
    11  N    0.000000
    12  C    0.000000
    13  N    0.000000
    14  C    0.001017
    15  C   -0.028718
    16  N    0.356560
    17  H    0.000007
    18  H   -0.000001
    19  H    0.000000
    20  H    0.000000
    21  H    0.000000
    22  H    0.000000
    23  H    0.000000
    24  H    0.000000
    25  H    0.004449
    26  H   -0.000899
    27  H   -0.004927
    28  H    0.005517
    29  H   -0.024404
    30  H   -0.025246
    31  H    0.556763
 Mulliken charges:
               1
     1  O   -0.414485
     2  C    0.491947
     3  N   -0.355515
     4  C    0.138428
     5  C    0.551748
     6  O   -0.330657
     7  O   -0.386001
     8  C   -0.000875
     9  C    0.043760
    10  C    0.118966
    11  N   -0.345572
    12  C    0.247427
    13  N   -0.233823
    14  C   -0.124208
    15  C    0.149341
    16  N    0.110709
    17  H    0.118213
    18  H    0.026744
    19  H    0.236019
    20  H    0.026235
    21  H    0.031190
    22  H    0.022216
    23  H    0.031352
    24  H    0.109938
    25  H    0.053556
    26  H    0.047072
    27  H    0.085838
    28  H    0.084799
    29  H    0.147151
    30  H    0.158859
    31  H    0.159626
 Sum of Mulliken charges =   1.00000
 Mulliken charges with hydrogens summed into heavy atoms:
               1
     1  O   -0.414485
     2  C    0.491947
     3  N   -0.237301
     4  C    0.165171
     5  C    0.551748
     6  O   -0.094638
     7  O   -0.386001
     8  C    0.056551
     9  C    0.043760
    10  C    0.141182
    11  N   -0.345572
    12  C    0.278779
    13  N   -0.123884
    14  C   -0.023580
    15  C    0.319978
    16  N    0.576346
 APT charges:
               1
     1  O   -0.303465
     2  C    0.222625
     3  N   -0.599065
     4  C    0.049378
     5  C   -0.453225
     6  O   -0.629272
     7  O    0.252084
     8  C   -0.426876
     9  C   -0.322684
    10  C   -0.617965
    11  N    0.919801
    12  C   -0.829194
    13  N   -0.458907
    14  C   -0.497246
    15  C   -0.079658
    16  N   -1.009503
    17  H    0.423791
    18  H    0.143357
    19  H    0.878567
    20  H    0.230582
    21  H    0.140054
    22  H    0.386373
    23  H    0.867056
    24  H    0.092598
    25  H    0.247471
    26  H    0.293785
    27  H    0.125082
    28  H    0.182488
    29  H    0.964193
    30  H    0.444517
    31  H    0.363257
 Sum of APT charges =   1.00000
 APT charges with hydrogens summed into heavy atoms:
               1
     1  O   -0.303465
     2  C    0.222625
     3  N   -0.175274
     4  C    0.192736
     5  C   -0.453225
     6  O    0.249295
     7  O    0.252084
     8  C   -0.056240
     9  C   -0.322684
    10  C   -0.231592
    11  N    0.919801
    12  C    0.037861
    13  N   -0.366309
    14  C    0.044010
    15  C    0.227912
    16  N    0.762464
 Electronic spatial extent (au):  <R**2>=           5471.1528
 Charge=              1.0000 electrons
 Dipole moment (field-independent basis, Debye):
    X=             23.3531    Y=              4.3011    Z=              0.3183  Tot=             23.7480
 Quadrupole moment (field-independent basis, Debye-Ang):
   XX=             19.1166   YY=            -87.9302   ZZ=            -84.7633
   XY=              3.0794   XZ=              6.1160   YZ=              3.5224
 Traceless Quadrupole moment (field-independent basis, Debye-Ang):
   XX=             70.3089   YY=            -36.7379   ZZ=            -33.5710
   XY=              3.0794   XZ=              6.1160   YZ=              3.5224
 Octapole moment (field-independent basis, Debye-Ang**2):
  XXX=            964.6972  YYY=             32.7404  ZZZ=            -65.0968  XYY=             99.2901
  XXY=            136.8349  XXZ=            -25.5567  XZZ=             42.5200  YZZ=             17.0317
  YYZ=              3.4990  XYZ=             -6.5307
 Hexadecapole moment (field-independent basis, Debye-Ang**3):
 XXXX=          -2478.5145 YYYY=           -607.2136 ZZZZ=           -892.3303 XXXY=           -366.7669
 XXXZ=            -33.7214 YYYX=           -482.2568 YYYZ=           -116.7258 ZZZX=             43.0961
 ZZZY=            -82.2407 XXYY=           -957.5585 XXZZ=           -804.2128 YYZZ=           -214.0350
 XXYZ=            -26.1690 YYXZ=            -63.4653 ZZXY=           -173.1633
 N-N= 1.111471737265D+03 E-N=-4.070551413529D+03  KE= 7.936997619273D+02
  Exact polarizability:   0.000   0.000   0.000   0.000   0.000   0.000
 Approx polarizability: 220.951   3.446 156.996   1.065 -21.840 217.052
 Calling FoFJK, ICntrl=    100147 FMM=F ISym2X=0 I1Cent= 0 IOpClX= 0 NMat=1 NMatS=1 NMatT=0.
 -------------------------------------------------------------------
 Center     Atomic                   Forces (Hartrees/Bohr)
 Number     Number              X              Y              Z
 -------------------------------------------------------------------
      1        8           0.016164821    0.000860767    0.004411635
      2        6          -0.027082914   -0.000786487   -0.003606826
      3        7           0.018294604    0.003609408   -0.004024076
      4        6           0.001027355   -0.000982117   -0.002865838
      5        6          -0.012556840    0.005647752    0.007130830
      6        8           0.009499217   -0.008755956   -0.002726320
      7        8           0.004719946    0.001266752   -0.004758038
      8        6          -0.009438297   -0.001678114   -0.001428417
      9        6           0.003536546    0.000169963    0.001083796
     10        6          -0.005863877    0.000153149    0.002138594
     11        7           0.008439100    0.000981350    0.000482047
     12        6           0.000676805   -0.002018925    0.004785883
     13        7           0.001205425    0.002926776   -0.003809517
     14        6           0.011609178   -0.002077310    0.009948058
     15        6          -0.030136392    0.001383911   -0.011580347
     16        7           0.006299685    0.000175179    0.000712432
     17        1          -0.001681605   -0.001207799    0.001012650
     18        1           0.000109436   -0.000504422    0.002313011
     19        1          -0.003809575    0.001364583    0.001298397
     20        1           0.000772915    0.000342356    0.000914089
     21        1           0.001484052   -0.000247655   -0.000760823
     22        1          -0.000745175    0.000754488   -0.003765065
     23        1          -0.001345049   -0.000072792   -0.000582293
     24        1          -0.001558982   -0.001132573    0.000660451
     25        1          -0.001915259    0.000601237    0.000400383
     26        1          -0.000922163   -0.000594504   -0.000036818
     27        1           0.005557675    0.000585289    0.000097771
     28        1           0.006194568   -0.000130745    0.000266177
     29        1           0.000424297    0.000418731   -0.001670135
     30        1           0.000455538    0.000868034    0.002290410
     31        1           0.000584965   -0.001920327    0.001667900
 -------------------------------------------------------------------
 Cartesian Forces:  Max     0.030136392 RMS     0.006224990
 FormGI is forming the generalized inverse of G from B-inverse, IUseBI=4.

 GradGradGradGradGradGradGradGradGradGradGradGradGradGradGradGradGradGrad
 Berny optimization.
 Internal  Forces:  Max     0.017841396 RMS     0.003445534
 Search for a local minimum.
 Step number   1 out of a maximum of  167
 All quantities printed in internal units (Hartrees-Bohrs-Radians)
 Mixed Optimization -- RFO/linear search
 Second derivative matrix not updated -- analytic derivatives used.
 ITU=  0
     Eigenvalues ---   -0.00065   0.00024   0.00172   0.00186   0.00190
     Eigenvalues ---    0.00252   0.00375   0.00454   0.00488   0.00853
     Eigenvalues ---    0.01817   0.02042   0.02163   0.02526   0.03191
     Eigenvalues ---    0.03745   0.03779   0.03861   0.04029   0.04213
     Eigenvalues ---    0.04279   0.04442   0.04545   0.04852   0.04961
     Eigenvalues ---    0.05112   0.05218   0.05537   0.06177   0.07368
     Eigenvalues ---    0.07843   0.08172   0.10014   0.10518   0.10657
     Eigenvalues ---    0.10806   0.11519   0.11724   0.12807   0.13129
     Eigenvalues ---    0.13415   0.14415   0.14799   0.15499   0.15609
     Eigenvalues ---    0.15835   0.15885   0.17908   0.18876   0.19412
     Eigenvalues ---    0.20821   0.22222   0.22384   0.23775   0.24081
     Eigenvalues ---    0.24530   0.26251   0.28956   0.30764   0.31412
     Eigenvalues ---    0.32210   0.32755   0.32779   0.33184   0.33743
     Eigenvalues ---    0.33775   0.33830   0.34386   0.34551   0.34705
     Eigenvalues ---    0.35917   0.36460   0.37227   0.40057   0.40662
     Eigenvalues ---    0.42824   0.43009   0.43933   0.44096   0.45070
     Eigenvalues ---    0.46378   0.46452   0.47148   0.51768   0.57377
     Eigenvalues ---    0.79092   0.86333
 RFO step:  Lambda=-1.02915268D-02 EMin=-6.48329781D-04
 Linear search not attempted -- first point.
 Iteration  1 RMS(Cart)=  0.14758498 RMS(Int)=  0.01793209
 Iteration  2 RMS(Cart)=  0.03646736 RMS(Int)=  0.00072355
 Iteration  3 RMS(Cart)=  0.00117356 RMS(Int)=  0.00036419
 Iteration  4 RMS(Cart)=  0.00000154 RMS(Int)=  0.00036419
 Iteration  5 RMS(Cart)=  0.00000000 RMS(Int)=  0.00036419
 Variable       Old X    -DE/DX   Delta X   Delta X   Delta X     New X
                                 (Linear)    (Quad)   (Total)
    R1        2.31326  -0.00778   0.00000  -0.00556  -0.00556   2.30770
    R2        2.56938  -0.01125   0.00000  -0.04190  -0.04190   2.52748
    R3        2.87525  -0.00096   0.00000   0.02030   0.02030   2.89555
    R4        2.74835   0.00368   0.00000   0.00563   0.00563   2.75397
    R5        1.90506   0.00075   0.00000   0.00334   0.00334   1.90840
    R6        2.85670   0.00172   0.00000   0.01159   0.01159   2.86829
    R7        2.91641   0.00073   0.00000   0.01099   0.01099   2.92740
    R8        2.05870  -0.00208   0.00000  -0.00544  -0.00544   2.05326
    R9        2.54499  -0.00892   0.00000  -0.03077  -0.03077   2.51422
   R10        2.27968  -0.00424   0.00000  -0.00372  -0.00372   2.27596
   R11        1.82714   0.00310   0.00000   0.00571   0.00571   1.83285
   R12        2.82296  -0.00453   0.00000  -0.01658  -0.01658   2.80639
   R13        2.05660   0.00059   0.00000   0.00225   0.00225   2.05884
   R14        2.05677   0.00153   0.00000   0.00532   0.00532   2.06209
   R15        2.58496   0.00060   0.00000   0.00350   0.00350   2.58846
   R16        2.60548   0.00194   0.00000   0.00522   0.00523   2.61071
   R17        2.61625  -0.00757   0.00000  -0.02113  -0.02114   2.59512
   R18        2.04556  -0.00370   0.00000  -0.00958  -0.00958   2.03599
   R19        2.48161  -0.00375   0.00000  -0.00785  -0.00786   2.47375
   R20        2.57869  -0.00094   0.00000   0.00017   0.00017   2.57886
   R21        2.03204   0.00118   0.00000   0.00315   0.00315   2.03518
   R22        1.90415  -0.00182   0.00000  -0.00411  -0.00411   1.90004
   R23        2.87540  -0.00120   0.00000  -0.00898  -0.00898   2.86642
   R24        2.07096  -0.00073   0.00000  -0.00743  -0.00743   2.06353
   R25        2.06800  -0.00048   0.00000  -0.00087  -0.00087   2.06714
   R26        2.81021   0.00834   0.00000   0.05177   0.05177   2.86199
   R27        2.05782  -0.00103   0.00000  -0.00704  -0.00704   2.05078
   R28        2.05881  -0.00131   0.00000  -0.00645  -0.00645   2.05236
   R29        1.92927   0.00155   0.00000   0.00167   0.00167   1.93093
   R30        1.92739   0.00233   0.00000   0.00362   0.00362   1.93100
   R31        1.92736   0.00246   0.00000   0.00355   0.00355   1.93092
    A1        2.11411   0.01784   0.00000   0.06208   0.06198   2.17610
    A2        2.15794  -0.01646   0.00000  -0.07542  -0.07549   2.08245
    A3        2.01109  -0.00138   0.00000   0.01355   0.01346   2.02455
    A4        2.11492   0.00252   0.00000   0.01811   0.01797   2.13289
    A5        2.11741   0.00056   0.00000   0.00898   0.00882   2.12623
    A6        2.04975  -0.00310   0.00000  -0.02849  -0.02862   2.02113
    A7        1.85595   0.00039   0.00000   0.00442   0.00458   1.86054
    A8        1.92323   0.00306   0.00000   0.01808   0.01809   1.94133
    A9        1.89630  -0.00062   0.00000   0.01058   0.01055   1.90685
   A10        1.93101  -0.00304   0.00000  -0.02250  -0.02259   1.90842
   A11        1.93680   0.00023   0.00000  -0.00563  -0.00583   1.93097
   A12        1.91937   0.00008   0.00000  -0.00376  -0.00408   1.91529
   A13        1.98625  -0.00465   0.00000  -0.01886  -0.01888   1.96737
   A14        2.14887  -0.00254   0.00000  -0.01553  -0.01554   2.13333
   A15        2.14804   0.00719   0.00000   0.03432   0.03431   2.18235
   A16        1.84855   0.00456   0.00000   0.03977   0.03977   1.88832
   A17        1.98223  -0.00312   0.00000  -0.01424  -0.01425   1.96798
   A18        1.89255  -0.00021   0.00000  -0.00871  -0.00873   1.88382
   A19        1.87298   0.00080   0.00000   0.00069   0.00076   1.87374
   A20        1.89454   0.00146   0.00000   0.00616   0.00601   1.90055
   A21        1.93263   0.00148   0.00000   0.01805   0.01804   1.95067
   A22        1.88639  -0.00036   0.00000  -0.00211  -0.00220   1.88419
   A23        2.30839  -0.00148   0.00000  -0.01174  -0.01180   2.29659
   A24        2.14761   0.00133   0.00000   0.01094   0.01086   2.15848
   A25        1.82686   0.00014   0.00000   0.00033   0.00030   1.82717
   A26        1.93696  -0.00078   0.00000  -0.00181  -0.00182   1.93514
   A27        2.21636   0.00147   0.00000   0.00656   0.00652   2.22288
   A28        2.12972  -0.00069   0.00000  -0.00453  -0.00457   2.12516
   A29        1.83436   0.00282   0.00000   0.00828   0.00829   1.84265
   A30        1.94545   0.00059   0.00000   0.00026   0.00027   1.94572
   A31        2.20763  -0.00118   0.00000  -0.00605  -0.00606   2.20157
   A32        2.13010   0.00058   0.00000   0.00578   0.00577   2.13588
   A33        1.88115  -0.00277   0.00000  -0.00705  -0.00705   1.87410
   A34        2.19602   0.00210   0.00000   0.00935   0.00931   2.20534
   A35        2.20598   0.00067   0.00000  -0.00240  -0.00244   2.20354
   A36        1.96192  -0.01690   0.00000  -0.10074  -0.10084   1.86107
   A37        1.89462   0.00375   0.00000   0.03411   0.03492   1.92953
   A38        1.90574   0.00506   0.00000   0.00488   0.00401   1.90975
   A39        1.91068   0.00588   0.00000   0.03670   0.03698   1.94766
   A40        1.92295   0.00542   0.00000   0.02047   0.01884   1.94179
   A41        1.86521  -0.00254   0.00000   0.01028   0.00927   1.87449
   A42        1.95443  -0.00369   0.00000  -0.01428  -0.01383   1.94060
   A43        1.90021   0.00419   0.00000   0.05168   0.05097   1.95118
   A44        1.90756   0.00450   0.00000   0.03175   0.03091   1.93847
   A45        1.91774  -0.00226   0.00000  -0.04420  -0.04401   1.87373
   A46        1.91567  -0.00250   0.00000  -0.03552  -0.03546   1.88020
   A47        1.86604   0.00001   0.00000   0.01281   0.01025   1.87629
   A48        1.95132  -0.00118   0.00000  -0.00990  -0.00990   1.94142
   A49        1.94330   0.00056   0.00000  -0.00159  -0.00160   1.94171
   A50        1.94106   0.00052   0.00000   0.00446   0.00447   1.94553
   A51        1.87240   0.00045   0.00000   0.00622   0.00621   1.87861
   A52        1.87215   0.00045   0.00000   0.00611   0.00613   1.87827
   A53        1.87989  -0.00080   0.00000  -0.00485  -0.00485   1.87504
    D1        0.00624   0.00091   0.00000   0.01409   0.01487   0.02112
    D2        3.09611   0.00023   0.00000  -0.01961  -0.01919   3.07692
    D3       -3.12567   0.00074   0.00000  -0.00873  -0.00915  -3.13482
    D4       -0.03580   0.00006   0.00000  -0.04243  -0.04321  -0.07901
    D5        0.17535  -0.00033   0.00000  -0.24839  -0.24856  -0.07321
    D6       -1.94087   0.00056   0.00000  -0.25321  -0.25256  -2.19343
    D7        2.31489  -0.00125   0.00000  -0.28697  -0.28617   2.02872
    D8       -2.97620   0.00006   0.00000  -0.22406  -0.22508   3.08191
    D9        1.19077   0.00095   0.00000  -0.22888  -0.22908   0.96169
   D10       -0.83666  -0.00086   0.00000  -0.26264  -0.26270  -1.09935
   D11       -2.76619  -0.00049   0.00000  -0.01979  -0.01963  -2.78582
   D12        1.42355   0.00124   0.00000  -0.00538  -0.00521   1.41834
   D13       -0.68037  -0.00034   0.00000  -0.01840  -0.01832  -0.69870
   D14        0.42519   0.00006   0.00000   0.01164   0.01153   0.43672
   D15       -1.66826   0.00179   0.00000   0.02605   0.02595  -1.64230
   D16        2.51100   0.00022   0.00000   0.01303   0.01284   2.52385
   D17        2.26260   0.00039   0.00000   0.14484   0.14480   2.40740
   D18       -0.88630   0.00069   0.00000   0.13533   0.13537  -0.75093
   D19       -1.93220   0.00262   0.00000   0.15683   0.15674  -1.77546
   D20        1.20210   0.00292   0.00000   0.14731   0.14730   1.34940
   D21        0.20337   0.00078   0.00000   0.13259   0.13260   0.33597
   D22       -2.94552   0.00108   0.00000   0.12307   0.12317  -2.82236
   D23       -3.13023  -0.00056   0.00000  -0.02769  -0.02770   3.12525
   D24        1.04545  -0.00025   0.00000  -0.02013  -0.02021   1.02525
   D25       -0.98832  -0.00014   0.00000  -0.01353  -0.01357  -1.00189
   D26        1.10549  -0.00107   0.00000  -0.03053  -0.03041   1.07508
   D27       -1.00200  -0.00075   0.00000  -0.02297  -0.02292  -1.02492
   D28       -3.03578  -0.00065   0.00000  -0.01638  -0.01628  -3.05206
   D29       -1.04023   0.00065   0.00000  -0.00560  -0.00562  -1.04584
   D30        3.13546   0.00096   0.00000   0.00196   0.00188   3.13734
   D31        1.10169   0.00107   0.00000   0.00855   0.00851   1.11020
   D32        3.12080  -0.00118   0.00000  -0.05637  -0.05649   3.06431
   D33       -0.01349  -0.00143   0.00000  -0.04662  -0.04650  -0.05999
   D34       -1.79386   0.00068   0.00000   0.01823   0.01821  -1.77565
   D35        1.31617   0.00040   0.00000  -0.00461  -0.00461   1.31156
   D36        0.31251  -0.00058   0.00000   0.00228   0.00221   0.31472
   D37       -2.86064  -0.00086   0.00000  -0.02056  -0.02060  -2.88125
   D38        2.38062   0.00074   0.00000   0.01407   0.01413   2.39475
   D39       -0.79253   0.00047   0.00000  -0.00876  -0.00868  -0.80122
   D40        3.11193  -0.00003   0.00000  -0.01627  -0.01609   3.09584
   D41       -0.01151  -0.00053   0.00000  -0.03041  -0.03033  -0.04184
   D42       -0.00232   0.00018   0.00000   0.00332   0.00334   0.00102
   D43       -3.12575  -0.00031   0.00000  -0.01082  -0.01090  -3.13666
   D44       -3.11638   0.00010   0.00000   0.01450   0.01465  -3.10173
   D45        0.03329   0.00038   0.00000   0.02711   0.02728   0.06058
   D46        0.00107  -0.00015   0.00000  -0.00322  -0.00324  -0.00217
   D47       -3.13245   0.00014   0.00000   0.00938   0.00939  -3.12305
   D48        0.00268  -0.00015   0.00000  -0.00211  -0.00210   0.00058
   D49        3.12717   0.00035   0.00000   0.01135   0.01134   3.13851
   D50       -0.00196   0.00005   0.00000  -0.00003  -0.00006  -0.00203
   D51        3.13696  -0.00008   0.00000  -0.00339  -0.00334   3.13362
   D52        0.00059   0.00006   0.00000   0.00209   0.00212   0.00272
   D53        3.13405  -0.00022   0.00000  -0.01054  -0.01042   3.12362
   D54       -3.13847   0.00019   0.00000   0.00530   0.00528  -3.13318
   D55       -0.00501  -0.00009   0.00000  -0.00733  -0.00726  -0.01228
   D56       -3.12258   0.00043   0.00000  -0.15496  -0.15465   3.00595
   D57       -0.99847  -0.00194   0.00000  -0.18451  -0.18485  -1.18332
   D58        1.03406   0.00293   0.00000  -0.12252  -0.12166   0.91240
   D59       -1.01557  -0.00185   0.00000  -0.15261  -0.15300  -1.16857
   D60        1.10853  -0.00423   0.00000  -0.18216  -0.18319   0.92534
   D61        3.14106   0.00064   0.00000  -0.12018  -0.12000   3.02106
   D62        1.03080   0.00174   0.00000  -0.10623  -0.10607   0.92473
   D63       -3.12828  -0.00063   0.00000  -0.13579  -0.13626   3.01864
   D64       -1.09575   0.00424   0.00000  -0.07380  -0.07308  -1.16883
   D65        3.13861  -0.00008   0.00000   0.00542   0.00539  -3.13918
   D66       -1.05041   0.00007   0.00000   0.00550   0.00549  -1.04492
   D67        1.04631  -0.00021   0.00000   0.00129   0.00128   1.04759
   D68        1.02461  -0.00138   0.00000  -0.02008  -0.01988   1.00473
   D69        3.11877  -0.00123   0.00000  -0.01999  -0.01978   3.09899
   D70       -1.06769  -0.00151   0.00000  -0.02420  -0.02399  -1.09168
   D71       -1.02267   0.00143   0.00000   0.01149   0.01129  -1.01138
   D72        1.07149   0.00158   0.00000   0.01158   0.01139   1.08288
   D73       -3.11497   0.00130   0.00000   0.00737   0.00718  -3.10779
         Item               Value     Threshold  Converged?
 Maximum Force            0.017841     0.000450     NO 
 RMS     Force            0.003446     0.000300     NO 
 Maximum Displacement     0.750083     0.001800     NO 
 RMS     Displacement     0.171599     0.001200     NO 
 Predicted change in Energy=-6.266340D-03
 GradGradGradGradGradGradGradGradGradGradGradGradGradGradGradGradGradGrad

                          Input orientation:                          
 ---------------------------------------------------------------------
 Center     Atomic      Atomic             Coordinates (Angstroms)
 Number     Number       Type             X           Y           Z
 ---------------------------------------------------------------------
      1          8           0        1.310552    0.578514   -1.169791
      2          6           0        1.462026    0.443442    0.034408
      3          7           0        0.465210    0.326138    0.918413
      4          6           0       -0.934972    0.323159    0.514286
      5          6           0       -1.742824    0.686683    1.746779
      6          8           0       -2.729611    1.538770    1.481539
      7          8           0       -1.503145    0.222317    2.831890
      8          6           0       -1.370172   -1.075272    0.009567
[...]
 003386,-0.00000604,-0.00002710,-0.00000006,-0.00001096,-0.00000897,0.0
 0000136,0.00001440,-0.00000495,0.00001321,0.00001540,0.00000215,0.0000
 0424,0.00000555,0.00000540,-0.00001260,-0.01513143,0.11386982,-0.11875
 782,-0.00409052,0.02184382,-0.01490606,-0.00068219,-0.00044873,0.00125
 190,0.00017836,0.00023961,0.00037683,0.00018911,-0.00000617,-0.0000427
 0,0.00000555,-0.00000066,0.00000281,-0.00002764,0.00000244,0.00004084,
 0.00000813,0.00006475,-0.00003204,-0.00000243,0.00000057,0.00000295,0.
 00000109,0.00000142,0.00000046,0.00000478,0.00000504,-0.00000817,0.016
 66904,-0.12584101,0.13042385,-0.00444663,0.00333619,-0.00201245,0.0012
 7678,-0.02639595,-0.01865637,-0.00034488,0.00198616,0.00126563,-0.0002
 0694,0.00051655,0.00004275,-0.00004334,-0.00001861,-0.00045247,-0.0000
 6501,0.00002500,0.00012943,0.00004629,0.00010182,0.00022792,0.00016963
 ,0.00016605,0.00009303,-0.00001045,0.00000019,0.00000060,0.00002835,0.
 00001557,-0.00001722,-0.00004399,0.00001090,-0.00002239,-0.00001793,-0
 .00000719,0.00000215,-0.00000434,-0.00001587,0.00001897,-0.05048102,-0
 .02702424,-0.01602906,0.00071605,0.02018633,0.01602097,0.00201695,0.00
 079827,-0.00022403,-0.00071594,-0.00065658,0.00007202,-0.00006420,-0.0
 0005315,0.00008735,-0.00002988,-0.00001722,-0.00000098,0.00000689,-0.0
 0001005,-0.00000042,0.00001689,0.00002476,0.00001686,0.00000297,-0.000
 00153,-0.00000123,-0.00000132,-0.00000008,-0.00000020,0.00001865,-0.00
 000154,0.00001230,0.00036546,0.00386894,0.00298862,0.05452549,0.000416
 00,-0.00047136,0.00096489,0.00055129,0.00106465,0.00035658,-0.00022123
 ,0.00073603,0.00005598,-0.00022362,0.00013043,0.00011265,-0.00004531,0
 .00000129,-0.00022383,0.00002355,-0.00001598,0.00006195,0.00005723,0.0
 0000686,0.00014386,0.00008658,0.00000523,0.00003891,-0.00001590,0.0000
 2147,0.00000783,0.00001378,0.00000987,-0.00000554,-0.00001974,0.000000
 35,-0.00000721,0.00000130,-0.00000024,-0.00000143,-0.00000844,-0.00000
 920,0.00000939,-0.02315298,-0.20843496,-0.12244556,0.00051610,0.003240
 37,0.00220151,0.00053108,0.00044518,0.00048471,-0.00046479,-0.00038189
 ,0.00003173,0.00001530,-0.00000092,0.00003806,-0.00000616,0.00000215,-
 0.00000552,0.00000341,-0.00001704,-0.00001962,0.00000380,0.00000521,0.
 00002593,0.00000160,-0.00000160,-0.00000105,0.00000025,-0.00000021,-0.
 00000007,0.00000851,-0.00000006,0.00000363,-0.00329449,-0.02070346,-0.
 01656946,0.02466666,0.22249452,-0.00280116,0.00130028,-0.00029400,-0.0
 0175923,-0.00908383,-0.00950345,0.00150889,0.00069399,0.00076672,-0.00
 048708,0.00066683,-0.00013298,-0.00003822,-0.00001410,0.00011986,-0.00
 000555,0.00001484,-0.00003062,-0.00000947,-0.00000893,-0.00008322,0.00
 025261,-0.00004686,0.00002508,0.00000201,0.00007047,0.00000775,-0.0000
 1211,-0.00000392,0.00001755,0.00002116,-0.00001346,0.00001500,0.000027
 24,0.00000589,-0.00000131,-0.00000735,0.00001174,-0.00001130,-0.013043
 82,-0.12247876,-0.14059448,-0.00317710,-0.02043826,-0.01678664,-0.0006
 9312,0.00034344,0.00136732,0.00016081,-0.00028135,0.00036235,-0.000023
 41,-0.00006313,0.00002899,-0.00000075,-0.00000596,0.00000565,-0.000009
 63,-0.00000729,0.00000749,0.00000040,0.00000244,-0.00000986,-0.0000010
 9,0.00000022,0.00000035,0.00000100,-0.00000103,-0.00000076,0.00000769,
 -0.00000301,-0.00000685,0.00208111,0.01363176,0.01186075,0.01435821,0.
 13474163,0.15445492,-0.00138450,-0.00084576,-0.00195773,0.00112051,0.0
 0043014,0.00324101,-0.00001849,0.00002144,-0.00093953,-0.00002720,0.00
 001006,-0.00000812,-0.00002282,0.00003239,0.00010318,-0.00000489,-0.00
 000643,-0.00002345,-0.00000742,-0.00002781,-0.00009565,-0.00004108,0.0
 0002675,0.00004497,0.00000168,-0.00002581,-0.00001230,-0.00000417,-0.0
 0001230,0.00000460,0.00002435,0.00000508,0.00000375,-0.00000737,-0.000
 00105,0.00000022,0.00001079,0.00000579,-0.00001329,0.00294506,0.018018
 04,0.01258633,-0.04701538,-0.00924186,-0.00651621,-0.01379361,-0.02968
 701,-0.02480707,0.00025242,0.00014638,-0.00001224,-0.00003052,0.000010
 12,0.00001289,0.00000343,0.00000978,0.00000321,0.00000002,-0.00000408,
 0.00000063,-0.00001911,-0.00001449,-0.00002364,-0.00000142,0.00000168,
 0.00000105,0.00000024,0.00000083,0.00000044,-0.00001642,0.00001047,0.0
 0000066,0.00092780,-0.00046311,-0.00053679,-0.00343081,-0.00095390,0.0
 0307395,0.06196183,-0.00116239,0.00031306,0.00127875,-0.00035954,0.000
 49985,-0.00197065,-0.00005067,-0.00019262,0.00058172,0.00008471,-0.000
 01827,-0.00001896,0.00002996,-0.00002642,0.00000105,-0.00001081,0.0000
 0492,0.00000063,-0.00002457,0.00000680,0.00002046,-0.00001922,0.000016
 62,0.00000320,0.00000029,-0.00001035,-0.00001027,-0.00000192,-0.000002
 55,-0.00000424,-0.00000327,-0.00000395,0.00000512,0.00000690,0.0000018
 3,0.00000056,-0.00000081,-0.00000698,0.00000099,0.00146935,0.00377367,
 0.00242928,-0.01886743,-0.23111315,-0.13438969,0.00145868,0.00396534,0
 .00399779,-0.00003004,0.00001555,0.00003921,0.00001557,-0.00001409,-0.
 00001521,0.00000219,0.00000062,-0.00000050,-0.00000884,0.00000206,0.00
 001454,-0.00000333,0.00002785,-0.00001488,-0.00000131,0.00000097,0.000
 00207,0.00000021,0.00000082,0.00000049,0.00000545,0.00000736,-0.000000
 07,0.00052873,0.00089009,-0.00001595,-0.00080836,0.00126825,0.00089440
 ,0.01974364,0.23849175,-0.00104236,0.00040565,0.00075228,-0.00064863,-
 0.00019593,-0.00086357,-0.00005541,0.00018728,0.00000979,0.00001356,0.
 00006839,0.00005542,-0.00000188,-0.00002123,-0.00003804,-0.00001044,0.
 00000527,0.00001062,0.00000631,0.00001856,0.00002375,0.00001465,-0.000
 00902,0.00000663,0.00000571,0.00000565,0.00001637,0.00000576,0.0000032
 7,-0.00000112,-0.00000503,0.00000560,-0.00001259,-0.00001561,-0.000003
 52,-0.00000052,0.00000111,-0.00000113,-0.00000401,0.00053481,-0.019749
 31,-0.01554531,-0.01231056,-0.13074469,-0.14834134,-0.00399290,-0.0069
 3898,-0.00671470,-0.00006936,-0.00015327,0.00000435,0.00001423,0.00000
 690,-0.00000324,-0.00000122,-0.00000167,0.00000017,0.00000994,-0.00000
 059,-0.00001434,0.00000929,-0.00000012,0.00002424,0.00000178,0.0000004
 6,-0.00000167,-0.00000165,0.00000041,0.00000018,-0.00000469,0.00000179
 ,0.00001108,-0.00095515,0.00013679,0.00083489,0.00309016,0.00093481,-0
 .00242616,0.01435652,0.14249908,0.16019935,-0.00160520,0.00103227,-0.0
 0189252,0.00106970,-0.00076166,0.00324529,0.00003310,0.00008287,-0.001
 01250,-0.00005241,0.00000408,-0.00000315,-0.00000873,0.00000417,0.0000
 8914,-0.00000360,0.00000949,-0.00002608,0.00000043,0.00000391,-0.00007
 995,-0.00002413,-0.00000916,0.00000906,0.00000891,-0.00000185,0.000007
 30,-0.00000209,-0.00000374,0.00000714,0.00001648,0.00000827,-0.0000035
 4,-0.00001403,-0.00000215,-0.00000190,0.00000341,0.00001588,-0.0000083
 3,0.00393398,-0.01896823,0.01102437,-0.04873587,0.01981250,-0.01176927
 ,-0.01522308,0.03065786,-0.02200247,0.00027533,-0.00015048,-0.00001832
 ,-0.00005662,0.00000143,-0.00000327,-0.00000210,-0.00000251,0.00000428
 ,0.00001740,0.00000528,-0.00001647,0.00000317,-0.00003640,0.00000609,0
 .00000091,-0.00000046,-0.00000192,-0.00000061,-0.00000151,-0.00000100,
 -0.00001345,-0.00001113,-0.00000275,-0.00351486,0.00048277,0.00317832,
 0.00092997,0.00050330,-0.00047626,0.00202992,-0.00213396,0.00221378,0.
 06436589,0.00123936,0.00051478,-0.00138598,0.00048662,0.00025015,0.002
 22078,0.00004058,-0.00008437,-0.00063336,-0.00005971,-0.00001803,0.000
 01089,-0.00004022,0.00003328,0.00002342,0.00002118,-0.00001731,-0.0000
 0647,0.00002560,-0.00001747,-0.00003052,-0.00000946,-0.00000119,0.0000
 1079,0.00000036,-0.00000088,0.00000014,-0.00000173,-0.00000292,0.00000
 267,0.00000856,0.00000055,0.00000126,-0.00000104,0.00000006,-0.0000008
 4,0.00000199,0.00000121,-0.00000472,-0.00148019,0.00113647,-0.00035303
 ,0.02984127,-0.25107673,0.12519457,-0.00207550,0.00520289,-0.00428068,
 0.00004627,0.00000105,-0.00004212,0.00000216,0.00002095,0.00000825,0.0
 0000056,0.00000670,0.00000055,0.00000529,-0.00000389,-0.00000833,0.000
 00118,-0.00002078,0.00000132,-0.00000004,0.00000020,-0.00000017,0.0000
 0019,0.00000067,0.00000039,-0.00000735,0.00000455,0.00000059,0.0003245
 4,0.00144203,-0.00039152,-0.00044472,0.00089415,0.00000364,0.00296417,
 -0.01945262,0.01350723,-0.03058168,0.25957810,-0.00104965,-0.00055570,
 0.00059608,-0.00062588,0.00032216,-0.00070686,-0.00004300,-0.00018069,
 -0.00006811,0.00000894,-0.00009184,0.00004457,0.00000541,0.00000632,-0
 .00001264,-0.00000350,-0.00000411,0.00000227,0.00000199,-0.00001765,0.
 00000363,-0.00000307,0.00001236,-0.00000257,0.00000081,-0.00000942,0.0
 0000715,0.00000622,0.00000254,-0.00000440,-0.00000250,0.00000461,-0.00
 001066,-0.00001398,-0.00000382,0.00000245,0.00000569,-0.00000281,-0.00
 000095,-0.00050459,0.02126502,-0.01392488,-0.01656027,0.12130117,-0.12
 674486,-0.00448184,0.00761446,-0.00642394,-0.00007174,0.00015533,0.000
 01658,0.00002615,0.00000632,0.00002329,0.00000405,0.00000504,-0.000000
 48,-0.00000447,-0.00000247,-0.00000023,0.00000648,0.00000512,0.0000022
 2,0.00000019,0.00000107,-0.00000032,-0.00000129,0.00000068,0.00000073,
 -0.00000428,-0.00000091,0.00000969,0.00313766,-0.00047569,-0.00256204,
 -0.00097557,-0.00017382,0.00080884,0.00316518,-0.01606211,0.01176832,0
 .01914776,-0.13314436,0.13697776,0.00084760,0.00008227,-0.00100143,-0.
 00006353,-0.00022495,0.00367005,-0.00058299,0.00003675,-0.00075356,-0.
 00001458,0.00000158,0.00018848,-0.00011046,0.00001658,-0.00006865,0.00
 003409,-0.00001119,0.00002137,0.00005083,-0.00000948,0.00000797,-0.000
 02786,0.00000770,0.00000464,-0.00000010,-0.00001609,0.00000183,-0.0000
 0420,-0.00000498,0.00000364,0.00002487,0.00000676,0.00000176,-0.000012
 80,-0.00000418,0.00000232,0.00001261,0.00001060,-0.00001070,-0.0057895
 5,0.00007465,-0.00491862,-0.01942630,-0.00146809,0.02317853,-0.1968116
 5,-0.01098455,0.17585272,0.00001007,0.00000124,-0.00002607,-0.00001098
 ,0.00000618,0.00000219,-0.00001670,0.00000782,0.00000271,-0.00000183,-
 0.00000311,0.00000112,-0.00000156,-0.00001442,-0.00000897,-0.00000266,
 -0.00000158,0.00000052,-0.00000059,-0.00000051,0.00000005,-0.00001349,
 -0.00000072,-0.00000353,0.00039730,-0.00015662,-0.00018370,0.00041026,
 0.00017934,-0.00018582,0.00126020,-0.00096501,-0.00004787,0.00116998,0
 .00104503,0.00003948,0.20679829,0.00003151,-0.00017320,-0.00002510,0.0
 0000229,0.00054008,0.00007059,0.00000521,-0.00002798,-0.00000697,0.000
 00808,-0.00003951,-0.00001194,-0.00001814,0.00001195,0.00001191,0.0000
 1553,-0.00001431,-0.00000365,0.00000704,-0.00001188,-0.00000395,-0.000
 01602,0.00001029,0.00000565,-0.00000277,-0.00000689,-0.00000591,-0.000
 00081,-0.00000269,-0.00000241,0.00000310,-0.00000406,0.00000259,0.0000
 0192,0.00000126,-0.00000034,0.00000180,-0.00000601,-0.00000167,-0.0000
 4504,0.00003920,-0.00004680,-0.00022428,-0.00050050,-0.00010449,-0.010
 56666,-0.06363011,0.01309162,-0.00000390,0.00002818,0.00000534,0.00000
 915,0.00000309,0.00000006,0.00000067,0.00000750,0.00000011,-0.00000292
 ,-0.00000040,0.00000562,0.00000040,0.00000578,-0.00000510,-0.00000119,
 0.00000147,0.00000207,0.00000016,0.00000188,0.00000107,-0.00000181,0.0
 0001001,0.00000071,0.00016567,0.00021515,-0.00019126,-0.00015034,0.000
 18978,0.00021340,-0.00075539,-0.00024370,0.00006874,0.00085199,-0.0001
 6079,-0.00012512,0.01160439,0.05879904,-0.00021939,-0.00001822,-0.0000
 6130,-0.00027672,-0.00001947,0.00094097,-0.00061137,-0.00001135,-0.000
 18364,0.00012068,-0.00002047,0.00012062,0.00012247,-0.00007653,-0.0000
 2772,-0.00012069,0.00005212,0.00001432,-0.00008985,0.00002132,0.000001
 59,-0.00001553,0.00003909,0.00001704,0.00000764,-0.00002287,0.00000560
 ,0.00002051,0.00000462,-0.00001533,-0.00003368,0.00000794,-0.00002642,
 -0.00002240,-0.00000414,0.00000251,-0.00000094,-0.00001716,0.00000739,
 -0.00229220,0.00002999,-0.00208840,-0.00606654,-0.00083946,0.01548742,
 0.16596714,0.01282990,-0.26261283,0.00007709,0.00000631,-0.00009898,-0
 .00001622,-0.00000059,-0.00000651,0.00001801,-0.00000255,-0.00000312,0
 .00000586,0.00000401,-0.00000496,0.00000509,0.00000953,0.00000896,0.00
 000336,0.00000504,-0.00000075,-0.00000277,0.00000163,0.00000094,0.0000
 0400,0.00000321,0.00002401,0.00004244,-0.00012087,-0.00008131,0.000026
 70,0.00014970,-0.00005225,-0.00030300,-0.00027116,0.00042611,-0.000243
 35,0.00019607,0.00044432,-0.18162568,-0.01410736,0.27803455,0.00000790
 ,0.00018102,0.00115392,-0.00153108,0.00058995,-0.00157585,0.00063340,0
 .00004262,0.00020478,-0.00019709,0.00000256,-0.00012369,-0.00018011,0.
 00008896,0.00007609,0.00016509,-0.00006683,-0.00003156,0.00013005,-0.0
 0001966,-0.00002871,0.00001831,-0.00005494,-0.00002160,-0.00000597,0.0
 0002480,0.00000466,-0.00002657,-0.00000837,0.00002452,0.00005602,-0.00
 000322,0.00002288,0.00001073,-0.00000004,-0.00000020,0.00000969,0.0000
 3081,-0.00002231,0.00259965,-0.00125816,-0.00041096,-0.00372631,-0.028
 28971,-0.02011799,-0.06447037,-0.04680328,-0.03233035,-0.00009996,-0.0
 0006812,0.00013456,0.00002883,0.00000092,0.00000655,-0.00002872,0.0000
 0483,0.00001095,-0.00000539,-0.00000354,0.00000225,-0.00000032,-0.0000
 1557,-0.00000911,-0.00000475,-0.00000578,0.00000028,0.00000129,-0.0000
 0171,-0.00000070,-0.00001343,-0.00000659,-0.00002342,-0.00009512,0.000
 07994,0.00012562,-0.00051737,0.00088864,0.00112264,-0.00615716,0.00163
 796,-0.00111127,0.00137659,0.00056998,0.00001210,0.00532159,0.02221719
 ,0.01368893,0.06608998,0.00052813,-0.00016471,0.00009801,-0.00069761,0
 .00002475,-0.00019584,0.00051685,-0.00000932,-0.00010214,-0.00012954,0
 .00001854,-0.00011196,-0.00011833,0.00009476,0.00010130,0.00010408,-0.
 00006213,-0.00003094,0.00007302,-0.00005092,-0.00005937,0.00001447,-0.
 00001311,0.00000723,-0.00000727,0.00000835,-0.00000457,-0.00001416,-0.
 00000877,0.00001048,0.00003656,-0.00000650,0.00001493,0.00000855,0.000
 00153,-0.00000013,0.00000805,0.00000926,-0.00001469,0.00056259,0.00051
 248,0.00164338,-0.00407847,0.00377239,0.00052075,-0.03876052,-0.275932
 18,-0.15826214,-0.00003206,0.00005254,0.00008034,0.00001157,0.00001203
 ,0.00001983,-0.00000804,0.00001774,0.00000659,-0.00000761,-0.00000545,
 0.00000457,-0.00000400,-0.00001639,-0.00001563,-0.00000391,-0.00000048
 ,0.00000239,0.00000111,0.00000142,0.00000111,-0.00001269,0.00000898,-0
 .00000992,-0.00014716,-0.00035591,-0.00008977,-0.00024435,-0.00012777,
 -0.00020463,0.00120265,0.00110117,0.00048702,0.00061494,0.00069398,0.0
 0062426,0.00169254,0.00408460,0.00286840,0.04416221,0.28998924,-0.0000
 0550,0.00008881,-0.00047603,0.00032673,-0.00010826,-0.00000111,0.00023
 741,-0.00001954,-0.00005709,-0.00001157,-0.00000601,-0.00005430,0.0000
 2926,0.00000931,0.00012993,-0.00001920,0.00000485,-0.00003469,-0.00002
 398,-0.00001319,-0.00009309,0.00000431,0.00000713,0.00000887,0.0000012
 5,-0.00000654,0.00000627,0.00000208,-0.00000424,0.00000112,0.00000677,
 0.00000375,-0.00000796,-0.00001025,-0.00000245,0.00000225,0.00000502,0
 .00000391,-0.00000821,0.00037322,0.00150881,0.00207114,-0.00460267,-0.
 00771294,-0.00686379,-0.02632749,-0.16109956,-0.18154405,0.00003881,0.
 00003683,0.00004806,-0.00000593,0.00000145,0.00000233,0.00000770,0.000
 00180,0.00000589,-0.00000045,0.00000282,0.00000044,-0.00000121,-0.0000
 0696,-0.00000592,-0.00000009,0.00000264,0.00000036,-0.00000110,0.00000
 058,0.00000039,-0.00000592,-0.00000014,0.00000572,0.00010629,0.0001249
 8,-0.00004596,-0.00018459,-0.00075373,0.00013055,-0.00158185,0.0011326
 8,0.00034437,0.00026966,0.00024571,-0.00045731,-0.00638231,-0.02413692
 ,-0.01612051,0.03343490,0.17321013,0.18736642,0.00000448,-0.00028161,0
 .00116396,-0.00156097,-0.00049241,-0.00168646,0.00065773,-0.00000081,0
 .00020504,-0.00020479,0.00003708,-0.00013556,-0.00018990,0.00010928,0.
 00008756,0.00016893,-0.00007509,-0.00003193,0.00012834,-0.00004089,-0.
 00004056,0.00002582,-0.00004429,-0.00000935,-0.00000883,0.00002033,-0.
 00000244,-0.00002780,-0.00001121,0.00002437,0.00006140,-0.00000514,0.0
 0002628,0.00001416,0.00000043,0.00000104,0.00001290,0.00002778,-0.0000
 2469,0.00256974,0.00136026,-0.00019117,-0.00535229,0.02943929,-0.01759
 604,-0.06954712,0.06099681,-0.03555801,-0.00010472,0.00005490,0.000142
 90,0.00002984,0.00000286,0.00001840,-0.00002641,0.00000989,0.00001088,
 -0.00001470,-0.00000666,0.00001019,-0.00000465,-0.00001411,-0.00002043
 ,-0.00000620,-0.00000507,0.00000161,0.00000168,-0.00000101,-0.00000018
 ,-0.00001488,0.00000023,-0.00002306,-0.00048357,-0.00098398,0.00099977
 ,-0.00010657,-0.00006115,0.00011342,0.00144409,-0.00053215,-0.00000359
 ,-0.00597838,-0.00192323,-0.00122250,0.00655416,-0.02313684,0.01183041
 ,0.00061060,-0.00527160,0.00432068,0.07134793,-0.00052597,-0.00018968,
 -0.00001048,0.00060569,0.00000663,0.00009721,-0.00051646,-0.00006641,0
 .00011832,0.00013763,0.00000537,0.00009445,0.00007431,-0.00004470,-0.0
 0007195,-0.00007656,0.00002429,0.00002665,-0.00006532,-0.00000399,0.00
 004217,-0.00001156,0.00004658,-0.00000012,-0.00000196,-0.00002194,-0.0
 0001129,0.00001149,0.00000401,-0.00001953,-0.00002878,-0.00000649,-0.0
 0000618,0.00000065,0.00000198,0.00000132,-0.00000293,-0.00002524,0.000
 01493,-0.00047405,0.00085078,-0.00174769,0.00401264,0.00483748,-0.0005
 8298,0.05246951,-0.29729389,0.14638543,0.00001672,0.00006315,-0.000069
 56,-0.00000186,-0.00000899,-0.00000777,0.00001327,0.00000717,-0.000005
 63,-0.00000846,0.00000093,0.00001457,0.00000305,0.00002706,-0.00000375
 ,-0.00000025,0.00000489,0.00000355,-0.00000045,0.00000267,0.00000172,0
 .00001028,0.00001302,0.00001183,0.00023616,-0.00025115,0.00022382,0.00
 014641,-0.00035110,0.00005957,-0.00060041,0.00069612,-0.00052343,-0.00
 142608,0.00107523,-0.00047595,-0.00090793,0.00087277,-0.00069669,0.006
 08311,-0.02365010,0.01748428,-0.05917189,0.31337355,-0.00005868,-0.000
 04414,-0.00046659,0.00036677,0.00011109,-0.00000886,0.00018964,0.00002
 366,-0.00003642,0.00000819,-0.00000427,-0.00005341,0.00003576,-0.00000
 798,0.00011417,-0.00002580,0.00001025,-0.00003113,-0.00002568,0.000007
 63,-0.00008110,-0.00000221,0.00000188,0.00002030,0.00000408,-0.0000065
 3,0.00000400,0.00000203,-0.00000550,0.00000336,0.00000498,0.00000450,-
 0.00000871,-0.00001044,-0.00000193,0.00000088,0.00000333,0.00000318,-0
 .00001011,0.00040313,-0.00158551,0.00177090,-0.00463305,0.00838222,-0.
 00618539,-0.03042062,0.14950861,-0.15517613,0.00004448,-0.00003306,0.0
 0003931,-0.00001042,0.00000177,-0.00000202,0.00000697,-0.00000233,0.00
 000456,0.00000334,0.00000409,-0.00000150,-0.00000115,-0.00000154,-0.00
 000522,0.00000080,0.00000254,-0.00000003,-0.00000123,0.00000087,0.0000
 0029,-0.00000554,0.00000274,0.00000721,-0.00020417,0.00070553,0.000226
 93,0.00012330,-0.00015693,-0.00004530,0.00023228,-0.00012833,-0.000521
 32,-0.00163914,-0.00114619,0.00021239,-0.00776250,0.02529948,-0.014152
 34,0.00578211,-0.02059901,0.01564593,0.03758945,-0.16034680,0.15873536
 \\0.00000058,0.00000034,0.00000083,0.00000072,0.00000020,-0.00000170,-
 0.00000144,0.00000012,0.00000103,-0.00000161,0.00000044,-0.00000155,0.
 00000093,-0.00000106,0.00000006,-0.00000022,0.00000013,-0.00000037,0.0
 0000004,0.00000020,0.00000069,0.00000008,0.00000028,0.00000152,0.00000
 030,0.00000048,-0.00000036,-0.00000044,-0.00000010,0.00000066,0.000000
 41,0.00000026,-0.00000040,-0.00000059,-0.00000036,0.00000023,-0.000000
 10,0.00000007,-0.00000035,0.00000040,-0.00000070,-0.00000113,0.0000026
 9,-0.00000111,0.00000166,-0.00000141,0.00000006,-0.00000114,0.00000056
 ,0.00000043,-0.00000014,0.00000040,0.00000004,-0.00000040,0.00000039,0
 .00000062,-0.00000008,-0.00000004,-0.00000045,0.00000030,-0.00000011,-
 0.00000020,0.00000041,-0.00000001,0.00000038,0.00000023,0.00000006,-0.
 00000013,0.00000017,-0.00000012,-0.00000020,-0.00000002,-0.00000032,0.
 00000019,-0.00000003,-0.00000036,0.00000022,-0.00000008,-0.00000015,-0
 .00000028,0.00000056,-0.00000040,0.00000044,-0.00000021,0.00000002,-0.
 00000023,-0.00000015,0.,0.00000002,-0.00000014,-0.00000026,-0.00000010
 ,-0.00000009\\\@


 ... IT IS NO ONE DREAME THAT
     CAN PLEASE THESE ALL ...

                -- BEN JONSON
 Job cpu time:       0 days 14 hours 14 minutes  2.4 seconds.
 File lengths (MBytes):  RWF=   1140 Int=      0 D2E=      0 Chk=     36 Scr=      1
 Normal termination of Gaussian 09 at Sat Jul 24 12:32:46 2021.
