 Entering Gaussian System, Link 0=g09
 Input=opt_freq-conf-342.com
 Output=opt_freq-conf-342.log
 Initial command:
 /aerosol/software/g09/l1.exe "/scratch/nicole/10437/Gau-72473.inp" -scrdir="/scratch/nicole/10437/"
 Entering Link 1 = /aerosol/software/g09/l1.exe PID=     72476.
  
 Copyright (c) 1988,1990,1992,1993,1995,1998,2003,2009,2013,
            Gaussian, Inc.  All Rights Reserved.
  
 This is part of the Gaussian(R) 09 program.  It is based on
 the Gaussian(R) 03 system (copyright 2003, Gaussian, Inc.),
 the Gaussian(R) 98 system (copyright 1998, Gaussian, Inc.),
 the Gaussian(R) 94 system (copyright 1995, Gaussian, Inc.),
 the Gaussian 92(TM) system (copyright 1992, Gaussian, Inc.),
 the Gaussian 90(TM) system (copyright 1990, Gaussian, Inc.),
 the Gaussian 88(TM) system (copyright 1988, Gaussian, Inc.),
 the Gaussian 86(TM) system (copyright 1986, Carnegie Mellon
 University), and the Gaussian 82(TM) system (copyright 1983,
 Carnegie Mellon University). Gaussian is a federally registered
 trademark of Gaussian, Inc.
  
 This software contains proprietary and confidential information,
 including trade secrets, belonging to Gaussian, Inc.
  
 This software is provided under written license and may be
 used, copied, transmitted, or stored only in accord with that
 written license.
  
 The following legend is applicable only to US Government
 contracts under FAR:
  
                    RESTRICTED RIGHTS LEGEND
  
 Use, reproduction and disclosure by the US Government is
 subject to restrictions as set forth in subparagraphs (a)
 and (c) of the Commercial Computer Software - Restricted
 Rights clause in FAR 52.227-19.
  
 Gaussian, Inc.
 340 Quinnipiac St., Bldg. 40, Wallingford CT 06492
  
  
 ---------------------------------------------------------------
 Warning -- This program may not be used in any manner that
 competes with the business of Gaussian, Inc. or will provide
 assistance to any competitor of Gaussian, Inc.  The licensee
 of this program is prohibited from giving any competitor of
 Gaussian, Inc. access to this program.  By using this program,
 the user acknowledges that Gaussian, Inc. is engaged in the
 business of creating and licensing software in the field of
 computational chemistry and represents and warrants to the
 licensee that it is not a competitor of Gaussian, Inc. and that
 it will not use this program in any manner prohibited above.
 ---------------------------------------------------------------
  

 Cite this work as:
 Gaussian 09, Revision D.01,
 M. J. Frisch, G. W. Trucks, H. B. Schlegel, G. E. Scuseria, 
 M. A. Robb, J. R. Cheeseman, G. Scalmani, V. Barone, B. Mennucci, 
 G. A. Petersson, H. Nakatsuji, M. Caricato, X. Li, H. P. Hratchian, 
 A. F. Izmaylov, J. Bloino, G. Zheng, J. L. Sonnenberg, M. Hada, 
 M. Ehara, K. Toyota, R. Fukuda, J. Hasegawa, M. Ishida, T. Nakajima, 
 Y. Honda, O. Kitao, H. Nakai, T. Vreven, J. A. Montgomery, Jr., 
 J. E. Peralta, F. Ogliaro, M. Bearpark, J. J. Heyd, E. Brothers, 
 K. N. Kudin, V. N. Staroverov, T. Keith, R. Kobayashi, J. Normand, 
 K. Raghavachari, A. Rendell, J. C. Burant, S. S. Iyengar, J. Tomasi, 
 M. Cossi, N. Rega, J. M. Millam, M. Klene, J. E. Knox, J. B. Cross, 
 V. Bakken, C. Adamo, J. Jaramillo, R. Gomperts, R. E. Stratmann, 
 O. Yazyev, A. J. Austin, R. Cammi, C. Pomelli, J. W. Ochterski, 
 R. L. Martin, K. Morokuma, V. G. Zakrzewski, G. A. Voth, 
 P. Salvador, J. J. Dannenberg, S. Dapprich, A. D. Daniels, 
 O. Farkas, J. B. Foresman, J. V. Ortiz, J. Cioslowski, 
 and D. J. Fox, Gaussian, Inc., Wallingford CT, 2013.
 
 ******************************************
 Gaussian 09:  ES64L-G09RevD.01 24-Apr-2013
                24-Jul-2021 
 ******************************************
 %mem=2gb
 %nproc=4
 Will use up to    4 processors via shared memory.
 %chk=conf-342.chk
 ----------------------------------------------------------------------
 # B3LYP/6-31+G(d,p) EmpiricalDispersion=GD3BJ opt=calcfc freq=noraman 
 nosymm integral(ultrafinegrid)
 ----------------------------------------------------------------------
 1/10=4,14=-1,18=20,19=15,26=4,38=1/1,3;
 2/9=110,12=2,15=1,17=6,18=5,40=1/2;
 3/5=1,6=6,7=111,11=2,16=1,25=1,30=1,71=2,74=-5,75=-5,124=41,140=1/1,2,3;
 4//1;
 5/5=2,38=5/2;
 8/6=4,10=90,11=11/1;
 11/6=1,8=1,9=11,15=111,16=1,31=1/1,2,10;
 10/6=1,13=1,31=1/2;
 6/7=2,8=2,9=2,10=2,28=1/1;
 7/10=1,18=20,25=1,30=1/1,2,3,16;
 1/10=4,14=-1,18=20,19=15,26=4/3(2);
 2/9=110,15=1/2;
 99//99;
 2/9=110,15=1/2;
 3/5=1,6=6,7=111,11=2,16=1,25=1,30=1,71=1,74=-5,75=-5,124=41/1,2,3;
 4/5=5,16=3,69=1/1;
 5/5=2,38=5/2;
 7/30=1/1,2,3,16;
 1/14=-1,18=20,19=15,26=4/3(-5);
 2/9=110,15=1/2;
 6/7=2,8=2,9=2,10=2,19=2,28=1/1;
 99/9=1/99;
 ------------------------------------------------------------
 Candidate Structure: Conf:342 OPT and FREQ calc in gas phase
 ------------------------------------------------------------
 Symbolic Z-matrix:
 Charge =  1 Multiplicity = 1
 O                     0.48802  -1.04421  -0.1281 
 C                     1.12385  -0.01749  -0.37361 
 N                     0.49047   1.13594  -0.6784 
 C                    -0.95233   1.1798   -0.7779 
 C                    -1.31346   2.46054  -1.51699 
 O                    -2.62801   2.61896  -1.77297 
 O                    -0.51      3.28466  -1.8519 
 C                    -1.63884   1.09438   0.62074 
 C                    -2.6427   -0.01018   0.70235 
 C                    -3.98987  -0.02168   0.90501 
 N                    -4.47679  -1.31734   0.86655 
 C                    -3.42519  -2.06674   0.63906 
 N                    -2.29364  -1.32744   0.53059 
 C                     2.63954   0.02136  -0.38261 
 C                     3.23439  -0.9979    0.57318 
 N                     4.72017  -1.02743   0.50222 
 H                     0.98137   1.94095  -1.03734 
 H                    -1.27896   0.34084  -1.40351 
 H                    -3.11555   1.84612  -1.4643 
 H                    -2.13152   2.03418   0.87054 
 H                    -0.86367   0.94257   1.36936 
 H                    -4.64492   0.82058   1.07669 
 H                    -3.41306  -3.13835   0.54534 
 H                    -1.35254  -1.64532   0.35214 
 H                     2.98248   1.02797  -0.1359 
 H                     2.97543  -0.20079  -1.39969 
 H                     2.83034  -1.97896   0.32785 
 H                     2.92493  -0.76764   1.59206 
 H                     5.03857  -1.26512  -0.43712 
 H                     5.12401  -0.12292   0.74615 
 H                     5.11721  -1.71841   1.14051 
 

 GradGradGradGradGradGradGradGradGradGradGradGradGradGradGradGradGradGrad
 Berny optimization.
 Initialization pass.
                           ----------------------------
                           !    Initial Parameters    !
                           ! (Angstroms and Degrees)  !
 --------------------------                            --------------------------
 ! Name  Definition              Value          Derivative Info.                !
 --------------------------------------------------------------------------------
 ! R1    R(1,2)                  1.2324         calculate D2E/DX2 analytically  !
 ! R2    R(2,3)                  1.3507         calculate D2E/DX2 analytically  !
 ! R3    R(2,14)                 1.5162         calculate D2E/DX2 analytically  !
 ! R4    R(3,4)                  1.4469         calculate D2E/DX2 analytically  !
 ! R5    R(3,17)                 1.0089         calculate D2E/DX2 analytically  !
 ! R6    R(4,5)                  1.5222         calculate D2E/DX2 analytically  !
 ! R7    R(4,8)                  1.5604         calculate D2E/DX2 analytically  !
 ! R8    R(4,18)                 1.0963         calculate D2E/DX2 analytically  !
 ! R9    R(5,6)                  1.3486         calculate D2E/DX2 analytically  !
 ! R10   R(5,7)                  1.1987         calculate D2E/DX2 analytically  !
 ! R11   R(6,19)                 0.9645         calculate D2E/DX2 analytically  !
 ! R12   R(8,9)                  1.4948         calculate D2E/DX2 analytically  !
 ! R13   R(8,20)                 1.0901         calculate D2E/DX2 analytically  !
 ! R14   R(8,21)                 1.0883         calculate D2E/DX2 analytically  !
 ! R15   R(9,10)                 1.3624         calculate D2E/DX2 analytically  !
 ! R16   R(9,13)                 1.3735         calculate D2E/DX2 analytically  !
 ! R17   R(10,11)                1.3847         calculate D2E/DX2 analytically  !
 ! R18   R(10,22)                1.0807         calculate D2E/DX2 analytically  !
 ! R19   R(11,12)                1.3112         calculate D2E/DX2 analytically  !
 ! R20   R(12,13)                1.356          calculate D2E/DX2 analytically  !
 ! R21   R(12,23)                1.0758         calculate D2E/DX2 analytically  !
 ! R22   R(13,24)                1.0092         calculate D2E/DX2 analytically  !
 ! R23   R(14,15)                1.5186         calculate D2E/DX2 analytically  !
 ! R24   R(14,25)                1.0917         calculate D2E/DX2 analytically  !
 ! R25   R(14,26)                1.0939         calculate D2E/DX2 analytically  !
 ! R26   R(15,16)                1.4878         calculate D2E/DX2 analytically  !
 ! R27   R(15,27)                1.089          calculate D2E/DX2 analytically  !
 ! R28   R(15,28)                1.0895         calculate D2E/DX2 analytically  !
 ! R29   R(16,29)                1.0199         calculate D2E/DX2 analytically  !
 ! R30   R(16,30)                1.0202         calculate D2E/DX2 analytically  !
 ! R31   R(16,31)                1.021          calculate D2E/DX2 analytically  !
 ! A1    A(1,2,3)              120.9619         calculate D2E/DX2 analytically  !
 ! A2    A(1,2,14)             122.5677         calculate D2E/DX2 analytically  !
 ! A3    A(3,2,14)             116.457          calculate D2E/DX2 analytically  !
 ! A4    A(2,3,4)              120.5963         calculate D2E/DX2 analytically  !
 ! A5    A(2,3,17)             122.2413         calculate D2E/DX2 analytically  !
 ! A6    A(4,3,17)             115.884          calculate D2E/DX2 analytically  !
 ! A7    A(3,4,5)              107.1857         calculate D2E/DX2 analytically  !
 ! A8    A(3,4,8)              112.0505         calculate D2E/DX2 analytically  !
 ! A9    A(3,4,18)             108.2482         calculate D2E/DX2 analytically  !
 ! A10   A(5,4,8)              112.142          calculate D2E/DX2 analytically  !
 ! A11   A(5,4,18)             107.2244         calculate D2E/DX2 analytically  !
 ! A12   A(8,4,18)             109.7869         calculate D2E/DX2 analytically  !
 ! A13   A(4,5,6)              114.9777         calculate D2E/DX2 analytically  !
 ! A14   A(4,5,7)              123.7188         calculate D2E/DX2 analytically  !
 ! A15   A(6,5,7)              121.3027         calculate D2E/DX2 analytically  !
 ! A16   A(5,6,19)             109.7462         calculate D2E/DX2 analytically  !
 ! A17   A(4,8,9)              112.6345         calculate D2E/DX2 analytically  !
 ! A18   A(4,8,20)             110.9184         calculate D2E/DX2 analytically  !
 ! A19   A(4,8,21)             108.1098         calculate D2E/DX2 analytically  !
 ! A20   A(9,8,20)             108.7249         calculate D2E/DX2 analytically  !
 ! A21   A(9,8,21)             109.7374         calculate D2E/DX2 analytically  !
 ! A22   A(20,8,21)            106.5321         calculate D2E/DX2 analytically  !
 ! A23   A(8,9,10)             132.7209         calculate D2E/DX2 analytically  !
 ! A24   A(8,9,13)             122.0847         calculate D2E/DX2 analytically  !
 ! A25   A(10,9,13)            105.1775         calculate D2E/DX2 analytically  !
 ! A26   A(9,10,11)            110.5788         calculate D2E/DX2 analytically  !
 ! A27   A(9,10,22)            128.0541         calculate D2E/DX2 analytically  !
 ! A28   A(11,10,22)           121.3671         calculate D2E/DX2 analytically  !
 ! A29   A(10,11,12)           104.9269         calculate D2E/DX2 analytically  !
 ! A30   A(11,12,13)           111.8108         calculate D2E/DX2 analytically  !
 ! A31   A(11,12,23)           126.4054         calculate D2E/DX2 analytically  !
 ! A32   A(13,12,23)           121.7836         calculate D2E/DX2 analytically  !
 ! A33   A(9,13,12)            107.5055         calculate D2E/DX2 analytically  !
 ! A34   A(9,13,24)            124.1364         calculate D2E/DX2 analytically  !
 ! A35   A(12,13,24)           128.3572         calculate D2E/DX2 analytically  !
 ! A36   A(2,14,15)            111.7542         calculate D2E/DX2 analytically  !
 ! A37   A(2,14,25)            109.6529         calculate D2E/DX2 analytically  !
 ! A38   A(2,14,26)            107.8944         calculate D2E/DX2 analytically  !
 ! A39   A(15,14,25)           110.7074         calculate D2E/DX2 analytically  !
 ! A40   A(15,14,26)           109.1835         calculate D2E/DX2 analytically  !
 ! A41   A(25,14,26)           107.513          calculate D2E/DX2 analytically  !
 ! A42   A(14,15,16)           111.9921         calculate D2E/DX2 analytically  !
 ! A43   A(14,15,27)           108.5138         calculate D2E/DX2 analytically  !
 ! A44   A(14,15,28)           109.6021         calculate D2E/DX2 analytically  !
 ! A45   A(16,15,27)           109.9929         calculate D2E/DX2 analytically  !
 ! A46   A(16,15,28)           109.4185         calculate D2E/DX2 analytically  !
 ! A47   A(27,15,28)           107.1997         calculate D2E/DX2 analytically  !
 ! A48   A(15,16,29)           111.1194         calculate D2E/DX2 analytically  !
 ! A49   A(15,16,30)           111.4892         calculate D2E/DX2 analytically  !
 ! A50   A(15,16,31)           111.8363         calculate D2E/DX2 analytically  !
 ! A51   A(29,16,30)           107.6538         calculate D2E/DX2 analytically  !
 ! A52   A(29,16,31)           107.2566         calculate D2E/DX2 analytically  !
 ! A53   A(30,16,31)           107.2547         calculate D2E/DX2 analytically  !
 ! D1    D(1,2,3,4)             -2.5603         calculate D2E/DX2 analytically  !
 ! D2    D(1,2,3,17)          -169.1118         calculate D2E/DX2 analytically  !
 ! D3    D(14,2,3,4)           176.1388         calculate D2E/DX2 analytically  !
 ! D4    D(14,2,3,17)            9.5873         calculate D2E/DX2 analytically  !
 ! D5    D(1,2,14,15)          -29.3941         calculate D2E/DX2 analytically  !
 ! D6    D(1,2,14,25)         -152.5395         calculate D2E/DX2 analytically  !
 ! D7    D(1,2,14,26)           90.647          calculate D2E/DX2 analytically  !
 ! D8    D(3,2,14,15)          151.9296         calculate D2E/DX2 analytically  !
 ! D9    D(3,2,14,25)           28.7842         calculate D2E/DX2 analytically  !
 ! D10   D(3,2,14,26)          -88.0293         calculate D2E/DX2 analytically  !
 ! D11   D(2,3,4,5)           -163.6093         calculate D2E/DX2 analytically  !
 ! D12   D(2,3,4,8)             72.96           calculate D2E/DX2 analytically  !
 ! D13   D(2,3,4,18)           -48.247          calculate D2E/DX2 analytically  !
 ! D14   D(17,3,4,5)             3.7612         calculate D2E/DX2 analytically  !
 ! D15   D(17,3,4,8)          -119.6694         calculate D2E/DX2 analytically  !
 ! D16   D(17,3,4,18)          119.1235         calculate D2E/DX2 analytically  !
 ! D17   D(3,4,5,6)            175.9687         calculate D2E/DX2 analytically  !
 ! D18   D(3,4,5,7)             -4.3549         calculate D2E/DX2 analytically  !
 ! D19   D(8,4,5,6)            -60.6569         calculate D2E/DX2 analytically  !
 ! D20   D(8,4,5,7)            119.0194         calculate D2E/DX2 analytically  !
 ! D21   D(18,4,5,6)            59.9261         calculate D2E/DX2 analytically  !
 ! D22   D(18,4,5,7)          -120.3976         calculate D2E/DX2 analytically  !
 ! D23   D(3,4,8,9)           -125.686          calculate D2E/DX2 analytically  !
 ! D24   D(3,4,8,20)           112.1914         calculate D2E/DX2 analytically  !
 ! D25   D(3,4,8,21)            -4.2648         calculate D2E/DX2 analytically  !
 ! D26   D(5,4,8,9)            113.7174         calculate D2E/DX2 analytically  !
 ! D27   D(5,4,8,20)            -8.4053         calculate D2E/DX2 analytically  !
 ! D28   D(5,4,8,21)          -124.8614         calculate D2E/DX2 analytically  !
 ! D29   D(18,4,8,9)            -5.37           calculate D2E/DX2 analytically  !
 ! D30   D(18,4,8,20)         -127.4926         calculate D2E/DX2 analytically  !
 ! D31   D(18,4,8,21)          116.0512         calculate D2E/DX2 analytically  !
 ! D32   D(4,5,6,19)            -2.5335         calculate D2E/DX2 analytically  !
 ! D33   D(7,5,6,19)           177.7816         calculate D2E/DX2 analytically  !
 ! D34   D(4,8,9,10)          -116.9921         calculate D2E/DX2 analytically  !
 ! D35   D(4,8,9,13)            61.2759         calculate D2E/DX2 analytically  !
 ! D36   D(20,8,9,10)            6.3605         calculate D2E/DX2 analytically  !
 ! D37   D(20,8,9,13)         -175.3716         calculate D2E/DX2 analytically  !
 ! D38   D(21,8,9,10)          122.517          calculate D2E/DX2 analytically  !
 ! D39   D(21,8,9,13)          -59.215          calculate D2E/DX2 analytically  !
 ! D40   D(8,9,10,11)          178.6945         calculate D2E/DX2 analytically  !
 ! D41   D(8,9,10,22)           -1.2916         calculate D2E/DX2 analytically  !
 ! D42   D(13,9,10,11)           0.2149         calculate D2E/DX2 analytically  !
 ! D43   D(13,9,10,22)        -179.7711         calculate D2E/DX2 analytically  !
 ! D44   D(8,9,13,12)         -178.8625         calculate D2E/DX2 analytically  !
 ! D45   D(8,9,13,24)            0.8159         calculate D2E/DX2 analytically  !
 ! D46   D(10,9,13,12)          -0.1809         calculate D2E/DX2 analytically  !
 ! D47   D(10,9,13,24)         179.4975         calculate D2E/DX2 analytically  !
 ! D48   D(9,10,11,12)          -0.1645         calculate D2E/DX2 analytically  !
 ! D49   D(22,10,11,12)        179.8226         calculate D2E/DX2 analytically  !
 ! D50   D(10,11,12,13)          0.0452         calculate D2E/DX2 analytically  !
 ! D51   D(10,11,12,23)        179.8721         calculate D2E/DX2 analytically  !
 ! D52   D(11,12,13,9)           0.0867         calculate D2E/DX2 analytically  !
 ! D53   D(11,12,13,24)       -179.5738         calculate D2E/DX2 analytically  !
 ! D54   D(23,12,13,9)        -179.7494         calculate D2E/DX2 analytically  !
 ! D55   D(23,12,13,24)          0.5901         calculate D2E/DX2 analytically  !
 ! D56   D(2,14,15,16)         176.1956         calculate D2E/DX2 analytically  !
 ! D57   D(2,14,15,27)          54.588          calculate D2E/DX2 analytically  !
 ! D58   D(2,14,15,28)         -62.1737         calculate D2E/DX2 analytically  !
 ! D59   D(25,14,15,16)        -61.2594         calculate D2E/DX2 analytically  !
 ! D60   D(25,14,15,27)        177.133          calculate D2E/DX2 analytically  !
 ! D61   D(25,14,15,28)         60.3713         calculate D2E/DX2 analytically  !
 ! D62   D(26,14,15,16)         56.9136         calculate D2E/DX2 analytically  !
 ! D63   D(26,14,15,27)        -64.694          calculate D2E/DX2 analytically  !
 ! D64   D(26,14,15,28)        178.5443         calculate D2E/DX2 analytically  !
 ! D65   D(14,15,16,29)        -59.739          calculate D2E/DX2 analytically  !
 ! D66   D(14,15,16,30)         60.3573         calculate D2E/DX2 analytically  !
 ! D67   D(14,15,16,31)       -179.565          calculate D2E/DX2 analytically  !
 ! D68   D(27,15,16,29)         61.0149         calculate D2E/DX2 analytically  !
 ! D69   D(27,15,16,30)       -178.8888         calculate D2E/DX2 analytically  !
 ! D70   D(27,15,16,31)        -58.8111         calculate D2E/DX2 analytically  !
 ! D71   D(28,15,16,29)        178.5249         calculate D2E/DX2 analytically  !
 ! D72   D(28,15,16,30)        -61.3788         calculate D2E/DX2 analytically  !
 ! D73   D(28,15,16,31)         58.6989         calculate D2E/DX2 analytically  !
 --------------------------------------------------------------------------------
 Trust Radius=3.00D-01 FncErr=1.00D-07 GrdErr=1.00D-06
 Number of steps in this run=    167 maximum allowed number of steps=    186.
 GradGradGradGradGradGradGradGradGradGradGradGradGradGradGradGradGradGrad

                          Input orientation:                          
 ---------------------------------------------------------------------
 Center     Atomic      Atomic             Coordinates (Angstroms)
 Number     Number       Type             X           Y           Z
 ---------------------------------------------------------------------
      1          8           0        0.488024   -1.044212   -0.128100
      2          6           0        1.123845   -0.017492   -0.373609
      3          7           0        0.490472    1.135943   -0.678403
      4          6           0       -0.952331    1.179802   -0.777899
      5          6           0       -1.313456    2.460537   -1.516985
      6          8           0       -2.628012    2.618957   -1.772967
      7          8           0       -0.510003    3.284664   -1.851898
      8          6           0       -1.638845    1.094382    0.620743
      9          6           0       -2.642701   -0.010178    0.702351
     10          6           0       -3.989868   -0.021681    0.905013
     11          7           0       -4.476793   -1.317343    0.866546
     12          6           0       -3.425194   -2.066739    0.639055
     13          7           0       -2.293636   -1.327439    0.530588
     14          6           0        2.639540    0.021364   -0.382610
     15          6           0        3.234388   -0.997902    0.573178
     16          7           0        4.720173   -1.027433    0.502220
     17          1           0        0.981373    1.940946   -1.037338
     18          1           0       -1.278962    0.340841   -1.403513
     19          1           0       -3.115548    1.846115   -1.464303
     20          1           0       -2.131516    2.034185    0.870539
     21          1           0       -0.863674    0.942566    1.369359
     22          1           0       -4.644919    0.820583    1.076687
     23          1           0       -3.413057   -3.138350    0.545338
     24          1           0       -1.352539   -1.645316    0.352137
     25          1           0        2.982476    1.027973   -0.135904
     26          1           0        2.975428   -0.200789   -1.399690
     27          1           0        2.830344   -1.978956    0.327855
     28          1           0        2.924933   -0.767636    1.592065
     29          1           0        5.038567   -1.265120   -0.437119
     30          1           0        5.124010   -0.122922    0.746146
     31          1           0        5.117207   -1.718407    1.140508
 ---------------------------------------------------------------------
                    Distance matrix (angstroms):
                    1          2          3          4          5
     1  O    0.000000
     2  C    1.232354   0.000000
     3  N    2.248537   1.350731   0.000000
     4  C    2.728204   2.430528   1.446894   0.000000
     5  C    4.178230   3.659013   2.389964   1.522151   0.000000
     6  O    5.082723   4.794319   3.622478   2.422651   1.348584
     7  O    4.765156   3.969765   2.644815   2.404075   1.198704
     8  C    3.107719   3.139658   2.494694   1.560384   2.557761
     9  C    3.400046   3.917220   3.610658   2.542547   3.577259
    10  C    4.707909   5.271143   4.890884   3.674559   4.380715
    11  N    5.070831   5.881729   5.751453   4.621879   5.473600
    12  C    4.116718   5.091037   5.227362   4.320050   5.440972
    13  N    2.872580   3.769975   3.909114   3.130095   4.416115
    14  C    2.414384   1.516220   2.438908   3.794702   4.781480
    15  C    2.834863   2.512369   3.694431   4.908809   6.083787
    16  N    4.278863   3.836747   4.895348   6.219959   7.255881
    17  H    3.159316   2.072755   1.008884   2.094244   2.401308
    18  H    2.582110   2.638672   2.070959   1.096328   2.123011
    19  H    4.808863   4.757636   3.758373   2.365298   1.904685
    20  H    4.163628   4.044089   3.175040   2.199499   2.559545
    21  H    2.831388   2.812451   2.462608   2.162142   3.292040
    22  H    5.592502   6.007027   5.436179   4.147739   4.529374
    23  H    4.478545   5.582804   5.916475   5.143206   6.325270
    24  H    1.994900   3.051065   3.492006   3.068947   4.511449
    25  H    3.242885   2.145696   2.552655   3.989726   4.734413
    26  H    2.918130   2.124806   2.912407   4.209506   5.048856
    27  H    2.562831   2.692866   4.023699   5.050650   6.346938
    28  H    2.995661   2.769568   3.834741   4.943927   6.168569
    29  H    4.566370   4.109216   5.148639   6.479555   7.442771
    30  H    4.806813   4.155272   5.008368   6.398572   7.296369
    31  H    4.846983   4.597021   5.732576   6.994225   8.116605
                    6          7          8          9         10
     6  O    0.000000
     7  O    2.221567   0.000000
     8  C    3.005433   3.490785   0.000000
     9  C    3.611062   4.682796   1.494804   0.000000
    10  C    3.999900   5.535516   2.617960   1.362374   0.000000
    11  N    5.087188   6.656113   3.732397   2.258215   1.384672
    12  C    5.330018   6.583366   3.630986   2.201305   2.138189
    13  N    4.581727   5.488997   2.510398   1.373509   2.173109
    14  C    6.035535   4.767343   4.523567   5.392607   6.753434
    15  C    7.276935   6.183997   5.303612   5.960910   7.297465
    16  N    8.512841   7.175709   6.704718   7.435508   8.777163
    17  H    3.745465   2.166400   3.214256   4.468480   5.686639
    18  H    2.673246   3.075458   2.189737   2.533310   3.579067
    19  H    0.964495   3.001420   2.663301   2.892023   3.141139
    20  H    2.752561   3.406562   1.090116   2.114005   2.771506
    21  H    3.974593   3.998376   1.088285   2.125455   3.304312
    22  H    3.927161   5.634345   3.052759   2.199811   1.080728
    23  H    6.255991   7.445105   4.590156   3.225455   3.189938
    24  H    4.932232   5.465559   2.767681   2.112070   3.146007
    25  H    6.057127   4.498300   4.683325   5.781267   7.127332
    26  H    6.284015   4.949859   5.201070   6.001524   7.338875
    27  H    7.439617   6.604161   5.431835   5.828426   7.118941
    28  H    7.323090   6.330940   5.023807   5.688926   6.988774
    29  H    8.697527   7.313601   7.160597   7.866076   9.211954
    30  H    8.599865   7.078388   6.872682   7.767653   9.115825
    31  H    9.342884   8.102513   7.336632   7.957776   9.266777
                   11         12         13         14         15
    11  N    0.000000
    12  C    1.311184   0.000000
    13  N    2.208878   1.356006   0.000000
    14  C    7.348110   6.494996   5.195135   0.000000
    15  C    7.723368   6.745130   5.538001   1.518643   0.000000
    16  N    9.208744   8.212544   7.020279   2.492375   1.487772
    17  H    6.635721   6.187864   4.885327   2.619729   4.038151
    18  H    4.257800   3.817700   2.748357   4.061892   5.105866
    19  H    4.158523   4.453136   3.837522   6.133581   7.249927
    20  H    4.090609   4.306363   3.382657   5.327739   6.170486
    21  H    4.291228   4.018786   2.810917   4.023744   4.603632
    22  H    2.154798   3.164787   3.231216   7.472058   8.102091
    23  H    2.133254   1.075771   2.129019   6.890487   6.983611
    24  H    3.183259   2.134436   1.009234   4.387980   4.637662
    25  H    7.883280   7.157936   5.816316   1.091664   2.161117
    26  H    7.868807   6.971816   5.723491   1.093903   2.143515
    27  H    7.356776   6.263889   5.169211   2.131302   1.088992
    28  H    7.457486   6.551336   5.354771   2.145533   1.089456
    29  H    9.604392   8.569481   7.396049   2.722746   2.084987
    30  H    9.675565   8.768055   7.517899   2.732673   2.089541
    31  H    9.606287   8.564194   7.446170   3.389031   2.094278
                   16         17         18         19         20
    16  N    0.000000
    17  H    5.015988   0.000000
    18  H    6.441554   2.793480   0.000000
    19  H    8.574556   4.120201   2.375414   0.000000
    20  H    7.513641   3.652227   2.960670   2.540704   0.000000
    21  H    5.984327   3.192671   2.867639   3.730547   1.745817
    22  H    9.562956   6.113876   4.208469   3.138044   2.798664
    23  H    8.402813   6.900372   4.522959   5.382570   5.338841
    24  H    6.105910   4.498784   2.651893   4.312510   3.796613
    25  H    2.766132   2.377082   4.498760   6.294434   5.308324
    26  H    2.710118   2.948658   4.288731   6.426040   6.019130
    27  H    2.123030   4.544015   5.026479   7.293602   6.404675
    28  H    2.116163   4.245892   5.279672   7.256755   5.825674
    29  H    1.019915   5.205761   6.589705   8.787746   8.000342
    30  H    1.020159   4.960021   6.770093   8.755199   7.570419
    31  H    1.021026   5.936245   7.184952   9.341794   8.166934
                   21         22         23         24         25
    21  H    0.000000
    22  H    3.794517   0.000000
    23  H    4.881828   4.180068   0.000000
    24  H    2.823271   4.176768   2.551904   0.000000
    25  H    4.131099   7.725966   7.663236   5.116348   0.000000
    26  H    4.869661   8.077459   7.295557   4.887418   1.762686
    27  H    4.823462   8.017339   6.353861   4.196238   3.046283
    28  H    4.162683   7.751820   6.847338   4.539219   2.492670
    29  H    6.555432  10.020563   8.712300   6.450869   3.094595
    30  H    6.113593   9.819951   9.056194   6.664730   2.586260
    31  H    6.550121  10.087104   8.668095   6.518013   3.705254
                   26         27         28         29         30
    26  H    0.000000
    27  H    2.483413   0.000000
    28  H    3.045401   1.753416   0.000000
    29  H    2.513143   2.443562   2.971957   0.000000
    30  H    3.037611   2.980057   2.442781   1.646825   0.000000
    31  H    3.652806   2.440909   2.431858   1.643339   1.643515
                   31
    31  H    0.000000
 Symmetry turned off by external request.
 Stoichiometry    C9H15N4O3(1+)
 Framework group  C1[X(C9H15N4O3)]
 Deg. of freedom    87
 Full point group                 C1      NOp   1
 Rotational constants (GHZ):      0.6579548      0.3092405      0.2195217
 Standard basis: 6-31+G(d,p) (6D, 7F)
   379 basis functions,   617 primitive gaussians,   379 cartesian basis functions
    60 alpha electrons       60 beta electrons
       nuclear repulsion energy      1130.0178159133 Hartrees.
 NAtoms=   31 NActive=   31 NUniq=   31 SFac= 1.00D+00 NAtFMM=   60 NAOKFM=F Big=F
 Integral buffers will be    131072 words long.
 Raffenetti 2 integral format.
 Two-electron integral symmetry is turned off.
 Nuclear repulsion after empirical dispersion term =     1129.9621763981 Hartrees.
 One-electron integrals computed using PRISM.
 NBasis=   379 RedAO= T EigKep=  6.52D-06  NBF=   379
 NBsUse=   379 1.00D-06 EigRej= -1.00D+00 NBFU=   379
 ExpMin= 4.38D-02 ExpMax= 5.48D+03 ExpMxC= 8.25D+02 IAcc=3 IRadAn=         5 AccDes= 0.00D+00
 Harris functional with IExCor=  402 and IRadAn=       5 diagonalized for initial guess.
 HarFok:  IExCor=  402 AccDes= 0.00D+00 IRadAn=         5 IDoV= 1 UseB2=F ITyADJ=14
 ICtDFT=  3500011 ScaDFX=  1.000000  1.000000  1.000000  1.000000
 FoFCou: FMM=F IPFlag=           0 FMFlag=      100000 FMFlg1=           0
         NFxFlg=           0 DoJE=T BraDBF=F KetDBF=T FulRan=T
         wScrn=  0.000000 ICntrl=     500 IOpCl=  0 I1Cent=   200000004 NGrid=           0
         NMat0=    1 NMatS0=      1 NMatT0=    0 NMatD0=    1 NMtDS0=    0 NMtDT0=    0
 Symmetry not used in FoFCou.
 Requested convergence on RMS density matrix=1.00D-08 within 128 cycles.
 Requested convergence on MAX density matrix=1.00D-06.
 Requested convergence on             energy=1.00D-06.
 No special actions if energy rises.
 EnCoef did     2 forward-backward iterations
 SCF Done:  E(RB3LYP) =  -796.551901015     A.U. after   17 cycles
            NFock= 17  Conv=0.43D-08     -V/T= 2.0089
 DoSCS=F DFT=T ScalE2(SS,OS)=  1.000000  1.000000
 Range of M.O.s used for correlation:     1   379
 NBasis=   379 NAE=    60 NBE=    60 NFC=     0 NFV=     0
 NROrb=    379 NOA=    60 NOB=    60 NVA=   319 NVB=   319

 **** Warning!!: The largest alpha MO coefficient is  0.98970563D+02

 Symmetrizing basis deriv contribution to polar:
 IMax=3 JMax=2 DiffMx= 0.00D+00
 G2DrvN: will do    32 centers at a time, making    1 passes.
 Calling FoFCou, ICntrl=  3107 FMM=F I1Cent=   0 AccDes= 0.00D+00.
 End of G2Drv F.D. properties file   721 does not exist.
 End of G2Drv F.D. properties file   722 does not exist.
 End of G2Drv F.D. properties file   788 does not exist.
          IDoAtm=1111111111111111111111111111111
          Differentiating once with respect to nuclear coordinates.
          There are    96 degrees of freedom in the 1st order CPHF.  IDoFFX=6 NUNeed=     0.
     90 vectors produced by pass  0 Test12= 1.99D-14 1.04D-09 XBig12= 1.97D-01 7.38D-02.
 AX will form    90 AO Fock derivatives at one time.
     90 vectors produced by pass  1 Test12= 1.99D-14 1.04D-09 XBig12= 3.21D-02 5.14D-02.
     90 vectors produced by pass  2 Test12= 1.99D-14 1.04D-09 XBig12= 2.93D-04 1.70D-03.
     90 vectors produced by pass  3 Test12= 1.99D-14 1.04D-09 XBig12= 1.61D-06 1.15D-04.
     90 vectors produced by pass  4 Test12= 1.99D-14 1.04D-09 XBig12= 2.84D-09 4.28D-06.
     79 vectors produced by pass  5 Test12= 1.99D-14 1.04D-09 XBig12= 3.16D-12 1.59D-07.
     22 vectors produced by pass  6 Test12= 1.99D-14 1.04D-09 XBig12= 3.08D-15 6.58D-09.
      9 vectors produced by pass  7 Test12= 1.99D-14 1.04D-09 XBig12= 9.85D-16 2.86D-09.
      5 vectors produced by pass  8 Test12= 1.99D-14 1.04D-09 XBig12= 1.92D-15 4.28D-09.
      4 vectors produced by pass  9 Test12= 1.99D-14 1.04D-09 XBig12= 1.83D-15 3.42D-09.
      4 vectors produced by pass 10 Test12= 1.99D-14 1.04D-09 XBig12= 4.60D-15 6.45D-09.
      2 vectors produced by pass 11 Test12= 1.99D-14 1.04D-09 XBig12= 2.79D-15 5.71D-09.
 InvSVY:  IOpt=1 It=  1 EMax= 5.55D-16
 Solved reduced A of dimension   575 with    96 vectors.
 End of Minotr F.D. properties file   721 does not exist.
 End of Minotr F.D. properties file   722 does not exist.
 End of Minotr F.D. properties file   788 does not exist.

 **********************************************************************

            Population analysis using the SCF density.

 **********************************************************************

 Alpha  occ. eigenvalues --  -19.31408 -19.28326 -19.26455 -14.68597 -14.51381
 Alpha  occ. eigenvalues --  -14.47071 -14.39582 -10.45728 -10.44929 -10.44241
 Alpha  occ. eigenvalues --  -10.39298 -10.37324 -10.32102 -10.32061 -10.30984
 Alpha  occ. eigenvalues --  -10.28395  -1.23324  -1.22591  -1.20289  -1.14876
 Alpha  occ. eigenvalues --   -1.10364  -1.08005  -0.99037  -0.95627  -0.91988
 Alpha  occ. eigenvalues --   -0.87432  -0.84199  -0.81366  -0.80691  -0.78282
 Alpha  occ. eigenvalues --   -0.74428  -0.72510  -0.71851  -0.70305  -0.68845
 Alpha  occ. eigenvalues --   -0.67788  -0.66480  -0.64731  -0.62422  -0.60930
 Alpha  occ. eigenvalues --   -0.59499  -0.58917  -0.57810  -0.56644  -0.55712
 Alpha  occ. eigenvalues --   -0.55058  -0.53535  -0.51780  -0.50991  -0.50186
 Alpha  occ. eigenvalues --   -0.49831  -0.49289  -0.48866  -0.43846  -0.42680
 Alpha  occ. eigenvalues --   -0.41262  -0.40109  -0.36345  -0.34822  -0.31790
 Alpha virt. eigenvalues --   -0.21238  -0.15732  -0.14897  -0.14296  -0.13117
 Alpha virt. eigenvalues --   -0.11421  -0.10898  -0.09672  -0.08917  -0.08637
 Alpha virt. eigenvalues --   -0.07838  -0.07317  -0.06547  -0.05737  -0.05473
 Alpha virt. eigenvalues --   -0.05250  -0.04689  -0.04111  -0.03650  -0.02636
 Alpha virt. eigenvalues --   -0.02166  -0.01756  -0.01599  -0.01335  -0.00557
 Alpha virt. eigenvalues --   -0.00354   0.00023   0.00745   0.01033   0.01500
 Alpha virt. eigenvalues --    0.02195   0.02344   0.02991   0.03382   0.03497
 Alpha virt. eigenvalues --    0.04787   0.05260   0.05781   0.05879   0.06409
 Alpha virt. eigenvalues --    0.07214   0.07351   0.07774   0.08394   0.09078
 Alpha virt. eigenvalues --    0.09512   0.09650   0.10009   0.10571   0.10993
 Alpha virt. eigenvalues --    0.11371   0.12017   0.12348   0.12937   0.13188
 Alpha virt. eigenvalues --    0.13332   0.13849   0.14298   0.14602   0.15644
 Alpha virt. eigenvalues --    0.16312   0.16858   0.17155   0.17560   0.18017
 Alpha virt. eigenvalues --    0.18314   0.18842   0.19010   0.20187   0.20441
 Alpha virt. eigenvalues --    0.20857   0.21129   0.21661   0.22213   0.22314
 Alpha virt. eigenvalues --    0.23395   0.23707   0.23900   0.24697   0.24769
 Alpha virt. eigenvalues --    0.25417   0.25562   0.26870   0.27242   0.28074
 Alpha virt. eigenvalues --    0.28630   0.29768   0.29985   0.30428   0.31940
 Alpha virt. eigenvalues --    0.33074   0.34011   0.35880   0.36804   0.38164
 Alpha virt. eigenvalues --    0.39689   0.40983   0.43017   0.44212   0.45044
 Alpha virt. eigenvalues --    0.45417   0.47554   0.50319   0.53760   0.55974
 Alpha virt. eigenvalues --    0.56857   0.58748   0.59051   0.60344   0.61541
 Alpha virt. eigenvalues --    0.63130   0.64208   0.65395   0.66613   0.67342
 Alpha virt. eigenvalues --    0.67787   0.68301   0.69723   0.70690   0.72051
 Alpha virt. eigenvalues --    0.72872   0.74142   0.74460   0.75022   0.76191
 Alpha virt. eigenvalues --    0.78172   0.78877   0.79198   0.80566   0.82445
 Alpha virt. eigenvalues --    0.82971   0.84846   0.85301   0.86523   0.87811
 Alpha virt. eigenvalues --    0.88703   0.89391   0.91241   0.91553   0.93616
 Alpha virt. eigenvalues --    0.94148   0.95734   0.95927   0.97201   0.97338
 Alpha virt. eigenvalues --    0.99186   1.00529   1.01803   1.02583   1.04757
 Alpha virt. eigenvalues --    1.05325   1.06175   1.08640   1.09171   1.10589
 Alpha virt. eigenvalues --    1.12571   1.13561   1.15084   1.16511   1.17339
 Alpha virt. eigenvalues --    1.18089   1.19854   1.21699   1.22476   1.23368
 Alpha virt. eigenvalues --    1.24169   1.25124   1.26422   1.27424   1.28025
 Alpha virt. eigenvalues --    1.29118   1.31105   1.31545   1.31923   1.34176
 Alpha virt. eigenvalues --    1.36169   1.37106   1.37586   1.38975   1.39827
 Alpha virt. eigenvalues --    1.41162   1.41685   1.44897   1.45907   1.47963
 Alpha virt. eigenvalues --    1.49754   1.52060   1.52887   1.56869   1.57536
 Alpha virt. eigenvalues --    1.60803   1.61797   1.63227   1.66241   1.66667
 Alpha virt. eigenvalues --    1.67582   1.70619   1.70821   1.71884   1.72387
 Alpha virt. eigenvalues --    1.73566   1.74182   1.75755   1.76975   1.77709
 Alpha virt. eigenvalues --    1.78385   1.80432   1.81850   1.84032   1.84520
 Alpha virt. eigenvalues --    1.86468   1.89314   1.89809   1.90547   1.92547
 Alpha virt. eigenvalues --    1.95531   1.96925   1.98505   1.98890   2.00790
 Alpha virt. eigenvalues --    2.01325   2.02058   2.02400   2.04676   2.05192
 Alpha virt. eigenvalues --    2.06051   2.07703   2.09451   2.10910   2.11978
 Alpha virt. eigenvalues --    2.12737   2.16236   2.16645   2.19053   2.19969
 Alpha virt. eigenvalues --    2.20809   2.23013   2.25401   2.26801   2.29748
 Alpha virt. eigenvalues --    2.29939   2.32471   2.34959   2.35785   2.36709
 Alpha virt. eigenvalues --    2.37807   2.39022   2.41854   2.43142   2.44192
 Alpha virt. eigenvalues --    2.46713   2.47329   2.48745   2.49360   2.49930
 Alpha virt. eigenvalues --    2.51844   2.52305   2.53057   2.54433   2.56375
 Alpha virt. eigenvalues --    2.56983   2.57771   2.59136   2.59778   2.62646
 Alpha virt. eigenvalues --    2.64101   2.64907   2.67508   2.67650   2.68417
 Alpha virt. eigenvalues --    2.71084   2.71880   2.72404   2.74013   2.75699
 Alpha virt. eigenvalues --    2.77644   2.81104   2.81397   2.87453   2.91116
 Alpha virt. eigenvalues --    2.93811   2.94191   2.97728   2.98800   3.01623
 Alpha virt. eigenvalues --    3.03341   3.05601   3.11565   3.12887   3.16435
 Alpha virt. eigenvalues --    3.17723   3.18553   3.23021   3.24784   3.27239
 Alpha virt. eigenvalues --    3.29314   3.32802   3.37878   3.41597   3.46003
 Alpha virt. eigenvalues --    3.48495   3.52333   3.69745   3.95855   4.14123
 Alpha virt. eigenvalues --    4.15974   4.18787   4.22236   4.25640   4.25908
 Alpha virt. eigenvalues --    4.31158   4.32893   4.44744   4.47973   4.51649
 Alpha virt. eigenvalues --    4.53186   4.56984   4.68365   4.72787
          Condensed to atoms (all electrons):
               1          2          3          4          5          6
     1  O    8.325544   0.222882  -0.172494   0.085008  -0.009571  -0.000141
     2  C    0.222882   8.148669  -0.091858   0.046582  -0.026243  -0.026856
     3  N   -0.172494  -0.091858   7.313600  -0.279012   0.106985   0.007807
     4  C    0.085008   0.046582  -0.279012  10.477729  -2.182707  -0.405763
     5  C   -0.009571  -0.026243   0.106985  -2.182707   6.972210   0.425897
     6  O   -0.000141  -0.026856   0.007807  -0.405763   0.425897   8.226704
     7  O    0.000397   0.039933   0.024235  -0.195513   0.515167  -0.119875
     8  C   -0.038162  -0.187617  -0.107384  -0.368958   0.678214   0.041937
     9  C   -0.068770  -0.096135   0.212288  -1.236950  -0.057842   0.072196
    10  C    0.002526   0.022167   0.015977   0.232432  -0.182380  -0.045352
    11  N   -0.001141  -0.003623   0.001379  -0.013835   0.002837   0.000572
    12  C    0.001775  -0.004820   0.004337  -0.006523   0.002588   0.000120
    13  N    0.019225   0.015813  -0.005398   0.067883  -0.043165  -0.004143
    14  C    0.134113  -2.335735   0.034977  -0.202417  -0.409879  -0.006727
    15  C    0.009736  -0.251907  -0.006802  -0.040625  -0.011289  -0.000104
    16  N   -0.001877   0.099064  -0.003440   0.000810   0.000949   0.000003
    17  H    0.009549  -0.040420   0.278499   0.059182  -0.025837   0.001975
    18  H    0.005479   0.035508  -0.073606   0.498302  -0.177097   0.001036
    19  H    0.000047   0.016077   0.000285   0.131734  -0.110880   0.194144
    20  H    0.000354   0.003298   0.002489  -0.037119  -0.043796   0.004196
    21  H   -0.003230   0.023826   0.001670  -0.096300  -0.035285  -0.001005
    22  H   -0.000017  -0.000978   0.000010   0.003947   0.006478   0.000091
    23  H   -0.000551  -0.001786  -0.000086   0.004029   0.000687   0.000004
    24  H    0.014502  -0.009557   0.002759   0.004752   0.000043   0.000037
    25  H    0.003771   0.009671  -0.007724   0.003509   0.002631   0.000008
    26  H    0.004979  -0.198690  -0.000469  -0.004435  -0.006515  -0.000001
    27  H   -0.004152   0.089753   0.000083   0.003369   0.000163   0.000000
    28  H    0.001941  -0.054534   0.003243  -0.003115  -0.000662   0.000000
    29  H    0.000364  -0.011648   0.000152  -0.000116  -0.000034   0.000000
    30  H   -0.000263   0.029942  -0.000359   0.000369   0.000047   0.000000
    31  H    0.000280  -0.016549   0.000090  -0.000091  -0.000005   0.000000
               7          8          9         10         11         12
     1  O    0.000397  -0.038162  -0.068770   0.002526  -0.001141   0.001775
     2  C    0.039933  -0.187617  -0.096135   0.022167  -0.003623  -0.004820
     3  N    0.024235  -0.107384   0.212288   0.015977   0.001379   0.004337
     4  C   -0.195513  -0.368958  -1.236950   0.232432  -0.013835  -0.006523
     5  C    0.515167   0.678214  -0.057842  -0.182380   0.002837   0.002588
     6  O   -0.119875   0.041937   0.072196  -0.045352   0.000572   0.000120
     7  O    8.156696  -0.019021  -0.005800   0.001971  -0.000047   0.000422
     8  C   -0.019021   8.577016  -1.814073  -0.707307  -0.049914   0.007575
     9  C   -0.005800  -1.814073   9.955994  -1.051398  -0.201404  -0.048670
    10  C    0.001971  -0.707307  -1.051398   7.487314   0.522711  -0.405034
    11  N   -0.000047  -0.049914  -0.201404   0.522711   6.735787   0.404764
    12  C    0.000422   0.007575  -0.048670  -0.405034   0.404764   5.229281
    13  N    0.000076  -0.203054   0.166464  -0.018838  -0.018161   0.079816
    14  C   -0.012424  -0.162349   0.101977  -0.010135  -0.000602   0.002911
    15  C    0.000073  -0.014241  -0.014552   0.000850  -0.000136   0.000830
    16  N    0.000017   0.000657  -0.000046  -0.000013   0.000000   0.000023
    17  H    0.023437   0.007039  -0.017566  -0.001962  -0.000003  -0.000209
    18  H    0.004437  -0.004157  -0.052007  -0.013187  -0.000928  -0.002359
    19  H    0.010186  -0.047024   0.016751   0.029030  -0.000499   0.001529
    20  H    0.003532   0.482542  -0.106612   0.000461  -0.000568  -0.002173
    21  H   -0.000085   0.515601  -0.087537  -0.024044  -0.001965  -0.005852
    22  H   -0.000008   0.031755  -0.105992   0.402552  -0.059309   0.025575
    23  H    0.000000   0.019923   0.049909  -0.039841  -0.050051   0.439709
    24  H    0.000035  -0.064061   0.094078  -0.008745   0.007638  -0.024949
    25  H   -0.000062   0.000923  -0.000033  -0.000256   0.000001  -0.000033
    26  H    0.000033   0.000370  -0.001411  -0.000065   0.000000   0.000020
    27  H   -0.000001  -0.000049   0.000131  -0.000096   0.000000  -0.000083
    28  H    0.000003  -0.000128  -0.000507  -0.000007   0.000000   0.000069
    29  H    0.000000  -0.000028  -0.000005   0.000000   0.000000   0.000001
    30  H    0.000000  -0.000016   0.000013   0.000000   0.000000   0.000000
    31  H    0.000000   0.000012   0.000000   0.000000   0.000000  -0.000001
              13         14         15         16         17         18
     1  O    0.019225   0.134113   0.009736  -0.001877   0.009549   0.005479
     2  C    0.015813  -2.335735  -0.251907   0.099064  -0.040420   0.035508
     3  N   -0.005398   0.034977  -0.006802  -0.003440   0.278499  -0.073606
     4  C    0.067883  -0.202417  -0.040625   0.000810   0.059182   0.498302
     5  C   -0.043165  -0.409879  -0.011289   0.000949  -0.025837  -0.177097
     6  O   -0.004143  -0.006727  -0.000104   0.000003   0.001975   0.001036
     7  O    0.000076  -0.012424   0.000073   0.000017   0.023437   0.004437
     8  C   -0.203054  -0.162349  -0.014241   0.000657   0.007039  -0.004157
     9  C    0.166464   0.101977  -0.014552  -0.000046  -0.017566  -0.052007
    10  C   -0.018838  -0.010135   0.000850  -0.000013  -0.001962  -0.013187
    11  N   -0.018161  -0.000602  -0.000136   0.000000  -0.000003  -0.000928
    12  C    0.079816   0.002911   0.000830   0.000023  -0.000209  -0.002359
    13  N    7.076828   0.005244   0.000766   0.000034   0.000044   0.017998
    14  C    0.005244   8.177971   0.418694  -0.177790   0.001317   0.024514
    15  C    0.000766   0.418694   5.318271   0.114977   0.004905   0.001624
    16  N    0.000034  -0.177790   0.114977   6.674622   0.000097  -0.000017
    17  H    0.000044   0.001317   0.004905   0.000097   0.357902   0.003004
    18  H    0.017998   0.024514   0.001624  -0.000017   0.003004   0.525806
    19  H    0.000182   0.000976   0.000063   0.000000  -0.000062  -0.001078
    20  H    0.008901  -0.000496   0.000105   0.000000  -0.000116   0.003680
    21  H   -0.002069   0.026907  -0.000282  -0.000028   0.000165   0.002057
    22  H   -0.000063  -0.000166   0.000004   0.000000   0.000000   0.000010
    23  H   -0.118054  -0.000339   0.000037   0.000000   0.000000   0.000005
    24  H    0.258445   0.004619  -0.000913  -0.000003  -0.000005   0.000623
    25  H    0.000038   0.358027  -0.051151   0.005993   0.001046  -0.000009
    26  H    0.000080   0.574745  -0.043297  -0.005124   0.000104   0.000075
    27  H    0.000013  -0.122802   0.394160  -0.023892  -0.000006  -0.000003
    28  H    0.000146   0.020805   0.401737  -0.038112  -0.000014   0.000002
    29  H    0.000001   0.011399  -0.019026   0.317903  -0.000001   0.000000
    30  H    0.000000  -0.037641  -0.016408   0.325848   0.000000   0.000000
    31  H   -0.000001   0.034386  -0.028898   0.310304   0.000000   0.000000
              19         20         21         22         23         24
     1  O    0.000047   0.000354  -0.003230  -0.000017  -0.000551   0.014502
     2  C    0.016077   0.003298   0.023826  -0.000978  -0.001786  -0.009557
     3  N    0.000285   0.002489   0.001670   0.000010  -0.000086   0.002759
     4  C    0.131734  -0.037119  -0.096300   0.003947   0.004029   0.004752
     5  C   -0.110880  -0.043796  -0.035285   0.006478   0.000687   0.000043
     6  O    0.194144   0.004196  -0.001005   0.000091   0.000004   0.000037
     7  O    0.010186   0.003532  -0.000085  -0.000008   0.000000   0.000035
     8  C   -0.047024   0.482542   0.515601   0.031755   0.019923  -0.064061
     9  C    0.016751  -0.106612  -0.087537  -0.105992   0.049909   0.094078
    10  C    0.029030   0.000461  -0.024044   0.402552  -0.039841  -0.008745
    11  N   -0.000499  -0.000568  -0.001965  -0.059309  -0.050051   0.007638
    12  C    0.001529  -0.002173  -0.005852   0.025575   0.439709  -0.024949
    13  N    0.000182   0.008901  -0.002069  -0.000063  -0.118054   0.258445
    14  C    0.000976  -0.000496   0.026907  -0.000166  -0.000339   0.004619
    15  C    0.000063   0.000105  -0.000282   0.000004   0.000037  -0.000913
    16  N    0.000000   0.000000  -0.000028   0.000000   0.000000  -0.000003
    17  H   -0.000062  -0.000116   0.000165   0.000000   0.000000  -0.000005
    18  H   -0.001078   0.003680   0.002057   0.000010   0.000005   0.000623
    19  H    0.390477  -0.001604   0.000217  -0.000110   0.000000   0.000001
    20  H   -0.001604   0.512440  -0.022655   0.001737   0.000004  -0.000013
    21  H    0.000217  -0.022655   0.535127  -0.000094  -0.000006   0.000898
    22  H   -0.000110   0.001737  -0.000094   0.552756  -0.000032  -0.000082
    23  H    0.000000   0.000004  -0.000006  -0.000032   0.552740   0.000437
    24  H    0.000001  -0.000013   0.000898  -0.000082   0.000437   0.375341
    25  H    0.000000  -0.000001   0.000008   0.000000   0.000000  -0.000002
    26  H    0.000000   0.000000  -0.000003   0.000000   0.000000  -0.000002
    27  H    0.000000   0.000000   0.000003   0.000000   0.000000  -0.000011
    28  H    0.000000   0.000000  -0.000006   0.000000   0.000000   0.000003
    29  H    0.000000   0.000000   0.000000   0.000000   0.000000   0.000000
    30  H    0.000000   0.000000   0.000000   0.000000   0.000000   0.000000
    31  H    0.000000   0.000000   0.000000   0.000000   0.000000   0.000000
              25         26         27         28         29         30
     1  O    0.003771   0.004979  -0.004152   0.001941   0.000364  -0.000263
     2  C    0.009671  -0.198690   0.089753  -0.054534  -0.011648   0.029942
     3  N   -0.007724  -0.000469   0.000083   0.003243   0.000152  -0.000359
     4  C    0.003509  -0.004435   0.003369  -0.003115  -0.000116   0.000369
     5  C    0.002631  -0.006515   0.000163  -0.000662  -0.000034   0.000047
     6  O    0.000008  -0.000001   0.000000   0.000000   0.000000   0.000000
     7  O   -0.000062   0.000033  -0.000001   0.000003   0.000000   0.000000
     8  C    0.000923   0.000370  -0.000049  -0.000128  -0.000028  -0.000016
     9  C   -0.000033  -0.001411   0.000131  -0.000507  -0.000005   0.000013
    10  C   -0.000256  -0.000065  -0.000096  -0.000007   0.000000   0.000000
    11  N    0.000001   0.000000   0.000000   0.000000   0.000000   0.000000
    12  C   -0.000033   0.000020  -0.000083   0.000069   0.000001   0.000000
    13  N    0.000038   0.000080   0.000013   0.000146   0.000001   0.000000
    14  C    0.358027   0.574745  -0.122802   0.020805   0.011399  -0.037641
    15  C   -0.051151  -0.043297   0.394160   0.401737  -0.019026  -0.016408
    16  N    0.005993  -0.005124  -0.023892  -0.038112   0.317903   0.325848
    17  H    0.001046   0.000104  -0.000006  -0.000014  -0.000001   0.000000
    18  H   -0.000009   0.000075  -0.000003   0.000002   0.000000   0.000000
    19  H    0.000000   0.000000   0.000000   0.000000   0.000000   0.000000
    20  H   -0.000001   0.000000   0.000000   0.000000   0.000000   0.000000
    21  H    0.000008  -0.000003   0.000003  -0.000006   0.000000   0.000000
    22  H    0.000000   0.000000   0.000000   0.000000   0.000000   0.000000
    23  H    0.000000   0.000000   0.000000   0.000000   0.000000   0.000000
    24  H   -0.000002  -0.000002  -0.000011   0.000003   0.000000   0.000000
    25  H    0.523778  -0.029294   0.004034  -0.005083  -0.000771   0.003304
    26  H   -0.029294   0.505674  -0.004874   0.004103   0.004370  -0.000792
    27  H    0.004034  -0.004874   0.444803  -0.021253  -0.004452   0.003522
    28  H   -0.005083   0.004103  -0.021253   0.472963   0.003927  -0.004407
    29  H   -0.000771   0.004370  -0.004452   0.003927   0.326802  -0.020903
    30  H    0.003304  -0.000792   0.003522  -0.004407  -0.020903   0.326068
    31  H   -0.000053  -0.000036  -0.002388  -0.002191  -0.013827  -0.015355
              31
     1  O    0.000280
     2  C   -0.016549
     3  N    0.000090
     4  C   -0.000091
     5  C   -0.000005
     6  O    0.000000
     7  O    0.000000
     8  C    0.000012
     9  C    0.000000
    10  C    0.000000
    11  N    0.000000
    12  C   -0.000001
    13  N   -0.000001
    14  C    0.034386
    15  C   -0.028898
    16  N    0.310304
    17  H    0.000000
    18  H    0.000000
    19  H    0.000000
    20  H    0.000000
    21  H    0.000000
    22  H    0.000000
    23  H    0.000000
    24  H    0.000000
    25  H   -0.000053
    26  H   -0.000036
    27  H   -0.002388
    28  H   -0.002191
    29  H   -0.013827
    30  H   -0.015355
    31  H    0.322736
 Mulliken charges:
               1
     1  O   -0.542103
     2  C    0.555770
     3  N   -0.262236
     4  C   -0.546155
     5  C    0.608289
     6  O   -0.366758
     7  O   -0.427814
     8  C   -0.576022
     9  C    0.297509
    10  C   -0.209333
    11  N   -0.273503
    12  C    0.299361
    13  N   -0.305052
    14  C   -0.454080
    15  C   -0.167202
    16  N   -0.600961
    17  H    0.337934
    18  H    0.200290
    19  H    0.369559
    20  H    0.191414
    21  H    0.173965
    22  H    0.141937
    23  H    0.143263
    24  H    0.344133
    25  H    0.177726
    26  H    0.200455
    27  H    0.244028
    28  H    0.221076
    29  H    0.405891
    30  H    0.407034
    31  H    0.411586
 Sum of Mulliken charges =   1.00000
 Mulliken charges with hydrogens summed into heavy atoms:
               1
     1  O   -0.542103
     2  C    0.555770
     3  N    0.075698
     4  C   -0.345865
     5  C    0.608289
     6  O    0.002801
     7  O   -0.427814
     8  C   -0.210642
     9  C    0.297509
    10  C   -0.067397
    11  N   -0.273503
    12  C    0.442624
    13  N    0.039081
    14  C   -0.075899
    15  C    0.297901
    16  N    0.623550
 APT charges:
               1
     1  O   -0.633475
     2  C    0.598957
     3  N   -0.557820
     4  C   -0.423315
     5  C   -0.157169
     6  O   -0.098696
     7  O   -0.027615
     8  C   -1.214506
     9  C    0.034722
    10  C   -0.427549
    11  N   -0.049189
    12  C   -0.324381
    13  N   -0.440994
    14  C   -1.208962
    15  C   -0.001510
    16  N   -2.047440
    17  H    0.727417
    18  H    0.347942
    19  H    0.384569
    20  H    0.641078
    21  H    0.219611
    22  H    0.813859
    23  H    0.725301
    24  H    0.113867
    25  H    0.433297
    26  H    0.518168
    27  H    0.265298
    28  H    0.232076
    29  H    0.762067
    30  H    0.727767
    31  H    1.066626
 Sum of APT charges =   1.00000
 APT charges with hydrogens summed into heavy atoms:
               1
     1  O   -0.633475
     2  C    0.598957
     3  N    0.169597
     4  C   -0.075373
     5  C   -0.157169
     6  O    0.285873
     7  O   -0.027615
     8  C   -0.353817
     9  C    0.034722
    10  C    0.386309
    11  N   -0.049189
    12  C    0.400920
    13  N   -0.327127
    14  C   -0.257498
    15  C    0.495863
    16  N    0.509021
 Electronic spatial extent (au):  <R**2>=           4912.0275
 Charge=              1.0000 electrons
 Dipole moment (field-independent basis, Debye):
    X=             22.6065    Y=             -4.2527    Z=              2.0207  Tot=             23.0916
 Quadrupole moment (field-independent basis, Debye-Ang):
   XX=             -4.9586   YY=            -94.5196   ZZ=            -93.0600
   XY=            -24.9539   XZ=             13.0567   YZ=              6.2567
 Traceless Quadrupole moment (field-independent basis, Debye-Ang):
   XX=             59.2208   YY=            -30.3402   ZZ=            -28.8806
   XY=            -24.9539   XZ=             13.0567   YZ=              6.2567
 Octapole moment (field-independent basis, Debye-Ang**2):
  XXX=            772.5702  YYY=           -143.6829  ZZZ=             37.8084  XYY=             97.5940
  XXY=            -77.2956  XXZ=             35.1026  XZZ=             90.8860  YZZ=            -39.0566
  YYZ=             49.4782  XYZ=            -27.8040
 Hexadecapole moment (field-independent basis, Debye-Ang**3):
 XXXX=          -2376.2583 YYYY=          -1584.7678 ZZZZ=           -623.2681 XXXY=           -638.1561
 XXXZ=            415.5373 YYYX=            168.8553 YYYZ=            439.3553 ZZZX=             79.1416
 ZZZY=            368.7780 XXYY=           -793.8098 XXZZ=           -754.8844 YYZZ=           -414.6063
 XXYZ=            117.0970 YYXZ=              0.8988 ZZXY=             20.6561
 N-N= 1.129962176398D+03 E-N=-4.100445179106D+03  KE= 7.894913808947D+02
  Exact polarizability:   0.000   0.000   0.000   0.000   0.000   0.000
 Approx polarizability: 225.666  11.833 220.318  -9.285 -12.197 148.585
 Calling FoFJK, ICntrl=    100147 FMM=F ISym2X=0 I1Cent= 0 IOpClX= 0 NMat=1 NMatS=1 NMatT=0.
 -------------------------------------------------------------------
 Center     Atomic                   Forces (Hartrees/Bohr)
 Number     Number              X              Y              Z
 -------------------------------------------------------------------
      1        8           0.010727549   -0.010337076    0.005208015
      2        6          -0.018732635    0.008403203   -0.004865409
      3        7           0.010986044   -0.007516822    0.001330049
      4        6           0.001173027   -0.000006608   -0.001972640
      5        6          -0.017327541   -0.004325741    0.000130280
      6        8           0.008973316    0.000913021    0.000538158
      7        8           0.014485675    0.010299902   -0.003216255
      8        6          -0.007413863   -0.006515043    0.000950146
      9        6           0.011493245    0.011524957   -0.002725967
     10        6          -0.017240908   -0.001307028    0.001002897
     11        7          -0.005044861    0.006190238    0.000983267
     12        6          -0.002297620   -0.006359357    0.000369571
     13        7           0.008851265   -0.002890410   -0.000874573
     14        6           0.011842055    0.004962687   -0.003687273
     15        6          -0.028772166   -0.000577835    0.002558668
     16        7           0.004611872   -0.001122088    0.000833127
     17        1           0.002668050    0.007436412   -0.000896229
     18        1          -0.000833584   -0.001552648    0.001955839
     19        1          -0.008840101   -0.004772016    0.001778780
     20        1          -0.000451194    0.002230433    0.000338798
     21        1           0.004474325    0.000850826    0.001884460
     22        1          -0.000536615    0.000344574    0.000966118
     23        1          -0.001601702   -0.004010895   -0.000142824
     24        1           0.002339294   -0.001169697   -0.000924705
     25        1           0.001020649    0.003203127   -0.000150296
     26        1          -0.000664023    0.000700187   -0.004184929
     27        1           0.004287712   -0.004206166    0.000513275
     28        1           0.005353507   -0.000898319    0.003874438
     29        1           0.002508944   -0.000830643   -0.005481542
     30        1           0.002679801    0.004904064    0.000665025
     31        1           0.001280484   -0.003565236    0.003241728
 -------------------------------------------------------------------
 Cartesian Forces:  Max     0.028772166 RMS     0.006513956
 FormGI is forming the generalized inverse of G from B-inverse, IUseBI=4.

 GradGradGradGradGradGradGradGradGradGradGradGradGradGradGradGradGradGrad
 Berny optimization.
 Internal  Forces:  Max     0.020583081 RMS     0.004614655
 Search for a local minimum.
 Step number   1 out of a maximum of  167
 All quantities printed in internal units (Hartrees-Bohrs-Radians)
 Mixed Optimization -- RFO/linear search
 Second derivative matrix not updated -- analytic derivatives used.
 ITU=  0
     Eigenvalues ---    0.00033   0.00154   0.00167   0.00207   0.00371
     Eigenvalues ---    0.00490   0.00548   0.00811   0.00997   0.01256
     Eigenvalues ---    0.01512   0.02103   0.02365   0.02757   0.03374
     Eigenvalues ---    0.03823   0.03985   0.04127   0.04198   0.04270
     Eigenvalues ---    0.04386   0.04489   0.04968   0.05043   0.05338
     Eigenvalues ---    0.05373   0.06033   0.06137   0.06269   0.07533
     Eigenvalues ---    0.07895   0.08343   0.10576   0.10627   0.11035
     Eigenvalues ---    0.11498   0.11832   0.12431   0.13128   0.13339
     Eigenvalues ---    0.13757   0.15641   0.15877   0.16907   0.17264
     Eigenvalues ---    0.17800   0.19267   0.20006   0.20209   0.22185
     Eigenvalues ---    0.23088   0.23501   0.23990   0.24377   0.25528
     Eigenvalues ---    0.27342   0.29738   0.30242   0.31975   0.32725
     Eigenvalues ---    0.33389   0.33968   0.34582   0.34632   0.35023
     Eigenvalues ---    0.35052   0.35364   0.35700   0.35775   0.37321
     Eigenvalues ---    0.37577   0.38478   0.42878   0.44116   0.44308
     Eigenvalues ---    0.44631   0.44837   0.45767   0.47385   0.47425
     Eigenvalues ---    0.48144   0.49826   0.53167   0.60811   0.70145
     Eigenvalues ---    0.81278   0.94828
 RFO step:  Lambda=-1.03485876D-02 EMin= 3.27841367D-04
 Linear search not attempted -- first point.
 Iteration  1 RMS(Cart)=  0.07855062 RMS(Int)=  0.00185499
 Iteration  2 RMS(Cart)=  0.00287890 RMS(Int)=  0.00028898
 Iteration  3 RMS(Cart)=  0.00000589 RMS(Int)=  0.00028897
 Iteration  4 RMS(Cart)=  0.00000000 RMS(Int)=  0.00028897
 Variable       Old X    -DE/DX   Delta X   Delta X   Delta X     New X
                                 (Linear)    (Quad)   (Total)
    R1        2.32881   0.00412   0.00000   0.00786   0.00786   2.33667
    R2        2.55251  -0.00268   0.00000  -0.02084  -0.02084   2.53167
    R3        2.86524   0.00422   0.00000   0.03174   0.03174   2.89698
    R4        2.73423   0.00968   0.00000   0.01323   0.01323   2.74747
    R5        1.90651   0.00755   0.00000   0.01615   0.01615   1.92267
    R6        2.87645   0.00280   0.00000   0.00842   0.00842   2.88487
    R7        2.94870   0.00497   0.00000   0.01306   0.01306   2.96175
    R8        2.07176   0.00032   0.00000  -0.00041  -0.00041   2.07135
    R9        2.54845  -0.00102   0.00000  -0.01784  -0.01784   2.53061
   R10        2.26522   0.01769   0.00000   0.02105   0.02105   2.28627
   R11        1.82263   0.00886   0.00000   0.01662   0.01662   1.83925
   R12        2.82477   0.00092   0.00000  -0.01223  -0.01223   2.81255
   R13        2.06002   0.00220   0.00000   0.00640   0.00640   2.06642
   R14        2.05656   0.00436   0.00000   0.01178   0.01178   2.06834
   R15        2.57451   0.01675   0.00000   0.02942   0.02942   2.60394
   R16        2.59556   0.00982   0.00000   0.01967   0.01968   2.61524
   R17        2.61665  -0.00191   0.00000  -0.01103  -0.01104   2.60561
   R18        2.04228   0.00075   0.00000   0.00210   0.00210   2.04438
   R19        2.47778   0.00773   0.00000   0.01078   0.01077   2.48855
   R20        2.56248   0.01166   0.00000   0.02306   0.02307   2.58555
   R21        2.03291   0.00399   0.00000   0.00914   0.00914   2.04205
   R22        1.90717   0.00271   0.00000   0.00876   0.00876   1.91594
   R23        2.86982   0.00498   0.00000   0.00751   0.00751   2.87733
   R24        2.06295   0.00324   0.00000   0.00697   0.00697   2.06992
   R25        2.06718   0.00354   0.00000   0.00802   0.00802   2.07519
   R26        2.81148   0.01111   0.00000   0.05657   0.05657   2.86805
   R27        2.05790   0.00208   0.00000   0.00286   0.00286   2.06076
   R28        2.05877   0.00191   0.00000   0.00362   0.00362   2.06239
   R29        1.92736   0.00603   0.00000   0.01175   0.01175   1.93911
   R30        1.92782   0.00557   0.00000   0.01073   0.01073   1.93856
   R31        1.92946   0.00494   0.00000   0.00946   0.00946   1.93892
    A1        2.11118   0.02058   0.00000   0.05602   0.05599   2.16717
    A2        2.13921  -0.01444   0.00000  -0.05145  -0.05149   2.08772
    A3        2.03256  -0.00613   0.00000  -0.00425  -0.00428   2.02827
    A4        2.10480   0.01347   0.00000   0.01361   0.01350   2.11830
    A5        2.13351  -0.00536   0.00000   0.00859   0.00851   2.14202
    A6        2.02256  -0.00786   0.00000  -0.01683  -0.01697   2.00559
    A7        1.87074  -0.00595   0.00000  -0.00392  -0.00389   1.86685
    A8        1.95565   0.00862   0.00000   0.02088   0.02093   1.97658
    A9        1.88929   0.00055   0.00000   0.00270   0.00281   1.89209
   A10        1.95725  -0.00328   0.00000  -0.00820  -0.00825   1.94900
   A11        1.87142   0.00254   0.00000   0.01224   0.01211   1.88353
   A12        1.91614  -0.00263   0.00000  -0.02315  -0.02314   1.89300
   A13        2.00674   0.00139   0.00000   0.01151   0.01150   2.01824
   A14        2.15930  -0.00482   0.00000  -0.02229  -0.02229   2.13701
   A15        2.11713   0.00343   0.00000   0.01075   0.01074   2.12787
   A16        1.91543   0.00915   0.00000   0.04413   0.04413   1.95957
   A17        1.96584   0.00453   0.00000  -0.02099  -0.02100   1.94484
   A18        1.93589  -0.00171   0.00000  -0.00634  -0.00642   1.92947
   A19        1.88687  -0.00262   0.00000  -0.00393  -0.00376   1.88311
   A20        1.89761  -0.00384   0.00000   0.00355   0.00330   1.90090
   A21        1.91528   0.00298   0.00000   0.03039   0.03036   1.94564
   A22        1.85934   0.00056   0.00000  -0.00106  -0.00121   1.85812
   A23        2.31642  -0.00434   0.00000   0.00714   0.00711   2.32353
   A24        2.13078   0.00593   0.00000  -0.00489  -0.00492   2.12586
   A25        1.83569  -0.00158   0.00000  -0.00250  -0.00249   1.83320
   A26        1.92996   0.00072   0.00000   0.00008   0.00004   1.93001
   A27        2.23497  -0.00009   0.00000  -0.00178  -0.00181   2.23315
   A28        2.11826  -0.00063   0.00000   0.00170   0.00167   2.11992
   A29        1.83132   0.00263   0.00000   0.00997   0.00995   1.84127
   A30        1.95147   0.00038   0.00000  -0.00217  -0.00216   1.94931
   A31        2.20619  -0.00188   0.00000  -0.01064  -0.01064   2.19555
   A32        2.12552   0.00149   0.00000   0.01281   0.01280   2.13833
   A33        1.87633  -0.00215   0.00000  -0.00538  -0.00535   1.87098
   A34        2.16659   0.00143   0.00000   0.00287   0.00285   2.16944
   A35        2.24026   0.00072   0.00000   0.00254   0.00252   2.24277
   A36        1.95048  -0.01218   0.00000  -0.06686  -0.06684   1.88364
   A37        1.91380   0.00436   0.00000   0.02735   0.02763   1.94144
   A38        1.88311   0.00163   0.00000  -0.00604  -0.00608   1.87703
   A39        1.93221   0.00384   0.00000   0.02000   0.02009   1.95230
   A40        1.90561   0.00485   0.00000   0.02256   0.02169   1.92730
   A41        1.87646  -0.00218   0.00000   0.00501   0.00456   1.88101
   A42        1.95463  -0.00323   0.00000  -0.01436  -0.01395   1.94068
   A43        1.89392   0.00408   0.00000   0.03548   0.03461   1.92853
   A44        1.91292   0.00447   0.00000   0.04184   0.04102   1.95394
   A45        1.91974  -0.00262   0.00000  -0.04006  -0.03994   1.87980
   A46        1.90971  -0.00272   0.00000  -0.04198  -0.04180   1.86791
   A47        1.87099   0.00024   0.00000   0.02154   0.01907   1.89006
   A48        1.93940   0.00086   0.00000   0.00194   0.00194   1.94134
   A49        1.94585   0.00071   0.00000   0.00377   0.00378   1.94963
   A50        1.95191  -0.00111   0.00000  -0.00887  -0.00887   1.94304
   A51        1.87891  -0.00092   0.00000  -0.00465  -0.00465   1.87426
   A52        1.87198   0.00015   0.00000   0.00353   0.00353   1.87551
   A53        1.87195   0.00027   0.00000   0.00446   0.00447   1.87642
    D1       -0.04469  -0.00124   0.00000  -0.04336  -0.04355  -0.08824
    D2       -2.95156  -0.00155   0.00000  -0.06902  -0.06945  -3.02101
    D3        3.07420  -0.00073   0.00000  -0.02831  -0.02788   3.04632
    D4        0.16733  -0.00104   0.00000  -0.05397  -0.05378   0.11355
    D5       -0.51302   0.00067   0.00000   0.02182   0.02118  -0.49185
    D6       -2.66232   0.00104   0.00000   0.02279   0.02267  -2.63965
    D7        1.58209   0.00035   0.00000   0.00538   0.00549   1.58758
    D8        2.65167  -0.00035   0.00000   0.00497   0.00477   2.65644
    D9        0.50238   0.00002   0.00000   0.00594   0.00626   0.50864
   D10       -1.53640  -0.00067   0.00000  -0.01146  -0.01092  -1.54732
   D11       -2.85552  -0.00059   0.00000  -0.01938  -0.01927  -2.87479
   D12        1.27339   0.00212   0.00000  -0.01972  -0.01961   1.25378
   D13       -0.84207  -0.00040   0.00000  -0.00577  -0.00575  -0.84782
   D14        0.06565  -0.00021   0.00000   0.00771   0.00766   0.07330
   D15       -2.08863   0.00251   0.00000   0.00737   0.00732  -2.08130
   D16        2.07910  -0.00002   0.00000   0.02132   0.02118   2.10028
   D17        3.07123  -0.00158   0.00000   0.00472   0.00472   3.07595
   D18       -0.07601  -0.00187   0.00000  -0.00177  -0.00173  -0.07774
   D19       -1.05866   0.00303   0.00000   0.02296   0.02298  -1.03568
   D20        2.07728   0.00273   0.00000   0.01647   0.01653   2.09381
   D21        1.04591  -0.00052   0.00000  -0.00254  -0.00262   1.04329
   D22       -2.10133  -0.00082   0.00000  -0.00902  -0.00907  -2.11040
   D23       -2.19363  -0.00751   0.00000  -0.05806  -0.05799  -2.25162
   D24        1.95811  -0.00450   0.00000  -0.04306  -0.04307   1.91504
   D25       -0.07443  -0.00268   0.00000  -0.03595  -0.03589  -0.11032
   D26        1.98474  -0.00362   0.00000  -0.06203  -0.06193   1.92281
   D27       -0.14670  -0.00062   0.00000  -0.04703  -0.04701  -0.19371
   D28       -2.17924   0.00121   0.00000  -0.03992  -0.03984  -2.21908
   D29       -0.09372  -0.00297   0.00000  -0.05674  -0.05681  -0.15054
   D30       -2.22517   0.00004   0.00000  -0.04174  -0.04189  -2.26706
   D31        2.02548   0.00186   0.00000  -0.03463  -0.03472   1.99076
   D32       -0.04422   0.00035   0.00000   0.01825   0.01820  -0.02602
   D33        3.10287   0.00067   0.00000   0.02468   0.02473   3.12760
   D34       -2.04190   0.00124   0.00000   0.03142   0.03136  -2.01054
   D35        1.06947   0.00127   0.00000   0.01872   0.01864   1.08811
   D36        0.11101  -0.00065   0.00000   0.01160   0.01154   0.12255
   D37       -3.06081  -0.00062   0.00000  -0.00110  -0.00118  -3.06199
   D38        2.13833  -0.00051   0.00000   0.02918   0.02933   2.16766
   D39       -1.03350  -0.00048   0.00000   0.01648   0.01661  -1.01688
   D40        3.11881   0.00017   0.00000  -0.01172  -0.01176   3.10705
   D41       -0.02254  -0.00036   0.00000  -0.02767  -0.02768  -0.05022
   D42        0.00375   0.00003   0.00000  -0.00051  -0.00051   0.00324
   D43       -3.13760  -0.00050   0.00000  -0.01645  -0.01643   3.12916
   D44       -3.12174  -0.00003   0.00000   0.00867   0.00862  -3.11312
   D45        0.01424  -0.00015   0.00000   0.01439   0.01434   0.02858
   D46       -0.00316  -0.00009   0.00000  -0.00083  -0.00082  -0.00398
   D47        3.13282  -0.00020   0.00000   0.00489   0.00490   3.13772
   D48       -0.00287   0.00005   0.00000   0.00169   0.00169  -0.00118
   D49        3.13850   0.00054   0.00000   0.01639   0.01641  -3.12828
   D50        0.00079  -0.00011   0.00000  -0.00225  -0.00225  -0.00146
   D51        3.13936   0.00009   0.00000  -0.00119  -0.00121   3.13815
   D52        0.00151   0.00014   0.00000   0.00203   0.00200   0.00352
   D53       -3.13415   0.00026   0.00000  -0.00401  -0.00404  -3.13819
   D54       -3.13722  -0.00005   0.00000   0.00106   0.00105  -3.13617
   D55        0.01030   0.00007   0.00000  -0.00498  -0.00499   0.00531
   D56        3.07519  -0.00101   0.00000  -0.03373  -0.03377   3.04143
   D57        0.95274   0.00157   0.00000   0.00162   0.00218   0.95492
   D58       -1.08514  -0.00351   0.00000  -0.06753  -0.06819  -1.15333
   D59       -1.06918  -0.00123   0.00000  -0.03127  -0.03142  -1.10059
   D60        3.09155   0.00136   0.00000   0.00408   0.00453   3.09608
   D61        1.05368  -0.00372   0.00000  -0.06506  -0.06584   0.98784
   D62        0.99333   0.00138   0.00000   0.00069   0.00091   0.99424
   D63       -1.12912   0.00397   0.00000   0.03604   0.03685  -1.09227
   D64        3.11619  -0.00111   0.00000  -0.03311  -0.03352   3.08267
   D65       -1.04264   0.00018   0.00000   0.00270   0.00270  -1.03995
   D66        1.05343   0.00008   0.00000   0.00066   0.00066   1.05410
   D67       -3.13400   0.00015   0.00000   0.00287   0.00287  -3.13113
   D68        1.06491   0.00141   0.00000   0.01060   0.01045   1.07536
   D69       -3.12220   0.00130   0.00000   0.00856   0.00841  -3.11378
   D70       -1.02645   0.00137   0.00000   0.01077   0.01062  -1.01583
   D71        3.11585  -0.00145   0.00000  -0.01167  -0.01152   3.10433
   D72       -1.07126  -0.00155   0.00000  -0.01371  -0.01355  -1.08481
   D73        1.02449  -0.00148   0.00000  -0.01149  -0.01135   1.01314
         Item               Value     Threshold  Converged?
 Maximum Force            0.020583     0.000450     NO 
 RMS     Force            0.004615     0.000300     NO 
 Maximum Displacement     0.294408     0.001800     NO 
 RMS     Displacement     0.079181     0.001200     NO 
 Predicted change in Energy=-5.632846D-03
 GradGradGradGradGradGradGradGradGradGradGradGradGradGradGradGradGradGrad

                          Input orientation:                          
 ---------------------------------------------------------------------
 Center     Atomic      Atomic             Coordinates (Angstroms)
 Number     Number       Type             X           Y           Z
 ---------------------------------------------------------------------
      1          8           0        0.619905   -1.060871    0.008723
      2          6           0        1.166028   -0.006211   -0.335381
      3          7           0        0.504430    1.112071   -0.661770
      4          6           0       -0.947185    1.137360   -0.739192
      5          6           0       -1.331012    2.409373   -1.490981
      6          8           0       -2.638864    2.568274   -1.730940
      7          8           0       -0.512642    3.229994   -1.838216
      8          6           0       -1.642942    1.061688    0.663164
      9          6           0       -2.680880   -0.004418    0.698453
     10          6           0       -4.050228    0.018688    0.850380
     11          7           0       -4.568598   -1.256351    0.768299
     12          6           0       -3.533122   -2.044937    0.568049
     13          7           0       -2.362575   -1.338585    0.514264
     14          6           0        2.695365    0.064221   -0.414784
     15          6           0        3.262988   -0.933295    0.585784
     16          7           0        4.773435   -1.026755    0.470657
     17          1           0        0.968148    1.935217   -1.039347
     18          1           0       -1.276935    0.279822   -1.336981
     19          1           0       -3.167706    1.819874   -1.403043
     20          1           0       -2.109319    2.018825    0.912429
     21          1           0       -0.866329    0.889924    1.415055
     22          1           0       -4.685697    0.876323    1.026504
     23          1           0       -3.568851   -3.119305    0.457730
     24          1           0       -1.421426   -1.686684    0.369344
     25          1           0        3.056032    1.081149   -0.226163
     26          1           0        2.986791   -0.210561   -1.437275
     27          1           0        2.854520   -1.928395    0.406516
     28          1           0        3.037902   -0.651059    1.615722
     29          1           0        5.056719   -1.324542   -0.469567
     30          1           0        5.224574   -0.124124    0.655259
     31          1           0        5.157205   -1.705765    1.137298
 ---------------------------------------------------------------------
                    Distance matrix (angstroms):
                    1          2          3          4          5
     1  O    0.000000
     2  C    1.236513   0.000000
     3  N    2.276966   1.339701   0.000000
     4  C    2.801315   2.436491   1.453898   0.000000
     5  C    4.254149   3.661375   2.395711   1.526606   0.000000
     6  O    5.178483   4.801329   3.625457   2.427520   1.339143
     7  O    4.806803   3.943281   2.627556   2.403288   1.209843
     8  C    3.170808   3.166673   2.523727   1.567293   2.560058
     9  C    3.533695   3.983405   3.639087   2.525110   3.527343
    10  C    4.866619   5.349391   4.922092   3.661563   4.311784
    11  N    5.247450   5.972177   5.778420   4.595326   5.387378
    12  C    4.304517   5.201404   5.270767   4.303832   5.378640
    13  N    3.037743   3.866285   3.950758   3.115251   4.374051
    14  C    2.398484   1.533016   2.441146   3.811173   4.782223
    15  C    2.708351   2.470884   3.653705   4.875318   6.049068
    16  N    4.179277   3.834656   4.907278   6.234791   7.274564
    17  H    3.193159   2.074576   1.017432   2.096466   2.390593
    18  H    2.684470   2.655765   2.078896   1.096111   2.135797
    19  H    4.963644   4.822420   3.812486   2.416037   1.930980
    20  H    4.213060   4.047926   3.183079   2.203495   2.556300
    21  H    2.827059   2.827996   2.498306   2.169918   3.312054
    22  H    5.739164   6.072585   5.462899   4.142740   4.465634
    23  H    4.688756   5.721841   5.979084   5.140521   6.274686
    24  H    2.165346   3.164735   3.550373   3.070665   4.499630
    25  H    3.252405   2.183208   2.588703   4.036348   4.755008
    26  H    2.901049   2.138015   2.917684   4.216678   5.050779
    27  H    2.429886   2.663871   3.988558   5.016419   6.319447
    28  H    2.932082   2.779666   3.835894   4.962356   6.172946
    29  H    4.470302   4.110168   5.166949   6.494653   7.469171
    30  H    4.743256   4.179362   5.053960   6.451856   7.348515
    31  H    4.719816   4.581130   5.729325   6.990575   8.120294
                    6          7          8          9         10
     6  O    0.000000
     7  O    2.229394   0.000000
     8  C    2.998898   3.498003   0.000000
     9  C    3.538708   4.647296   1.488335   0.000000
    10  C    3.893013   5.482294   2.630195   1.377944   0.000000
    11  N    4.959620   6.585742   3.734143   2.266208   1.378829
    12  C    5.231325   6.537454   3.637712   2.215184   2.146080
    13  N    4.514512   5.461531   2.510250   1.383924   2.191652
    14  C    6.037925   4.726477   4.580155   5.490721   6.863362
    15  C    7.242930   6.120794   5.296612   6.017065   7.379662
    16  N    8.527217   7.168920   6.750448   7.527541   8.893490
    17  H    3.726875   2.123059   3.237189   4.483028   5.694581
    18  H    2.692037   3.088510   2.178498   2.488945   3.541736
    19  H    0.973290   3.037627   2.677491   2.825124   3.016791
    20  H    2.751311   3.403286   1.093505   2.113287   2.787746
    21  H    3.981962   4.023032   1.094519   2.146151   3.348899
    22  H    3.828279   5.582184   3.069973   2.214185   1.081840
    23  H    6.164714   7.411166   4.607823   3.247917   3.198890
    24  H    4.898776   5.465613   2.772895   2.127100   3.170219
[...]
 0001245,0.00000001,0.00000554,-0.00000157,0.00000071,-0.00001882,0.000
 01064,0.00000490,-0.01410628,-0.06005973,-0.06409548,0.00465680,0.0226
 4790,0.00445465,0.00073994,-0.00039955,0.00033422,-0.00082994,-0.00000
 054,0.00031752,-0.00001432,0.00001957,-0.00002282,0.00000815,-0.000020
 49,0.00002574,0.00001142,-0.00001096,0.00000845,0.00000978,0.00002665,
 -0.00002764,0.00000223,-0.00000140,0.00000421,-0.00000054,0.00000062,-
 0.00000027,0.00001314,0.00000941,-0.00000173,0.01482401,0.06102638,0.0
 6545557,-0.00140271,-0.00143861,-0.00394447,-0.00908318,0.00541635,0.0
 3326467,-0.00109456,-0.00041850,-0.00152882,-0.00009035,-0.00031161,-0
 .00144138,-0.00016436,-0.00050137,0.00019311,-0.00013618,0.00018048,-0
 .00006056,0.00006136,0.00019019,-0.00022889,0.00026514,0.00006432,-0.0
 0013630,0.00002255,0.00001478,0.00000761,0.00003048,-0.00001228,-0.000
 00581,-0.00004793,-0.00003510,-0.00001058,-0.00001260,0.00000068,0.000
 00175,-0.00001894,0.00002488,0.00000733,-0.06322504,0.01275408,0.07036
 668,0.00273951,-0.00234341,-0.01981204,0.00191495,-0.00104191,-0.00065
 941,-0.00043931,0.00034095,0.00064583,-0.00036603,0.00016237,-0.000010
 28,0.00005933,0.00000367,-0.00000039,-0.00000251,-0.00000512,0.0000190
 4,0.00004348,0.00000480,-0.00002018,0.00000458,-0.00000284,0.00000035,
 -0.00000279,-0.00000001,0.00000166,0.00002587,0.00002622,-0.00000324,0
 .00162660,-0.00087147,-0.00612606,0.07066952,-0.00102133,-0.00058460,-
 0.00149606,-0.00266600,-0.00019611,0.00675522,0.00114365,0.00028948,0.
 00012998,-0.00022233,0.00003069,0.00008789,0.00005373,0.00025360,-0.00
 016145,0.00001486,-0.00007915,0.00004084,-0.00006286,-0.00012982,0.000
 15912,0.00003855,-0.00006176,0.00006741,-0.00000423,-0.00000213,-0.000
 02605,-0.00001983,0.00000582,0.00000614,0.00002595,0.00002343,0.000007
 95,0.00001165,0.00000682,0.00000115,0.00001702,-0.00001402,-0.00001264
 ,0.01288093,-0.05593030,-0.03984895,-0.00594214,0.00342822,0.02202907,
 -0.00099275,0.00098169,-0.00039071,0.00017735,-0.00006034,-0.00058690,
 0.00012109,0.00000563,0.00003902,-0.00002377,0.00000738,-0.00001042,-0
 .00001044,0.00000644,-0.00001798,0.00000083,-0.00001927,0.00001049,-0.
 00000341,0.00000183,-0.00000173,0.00000041,-0.00000067,0.00000106,0.00
 000219,-0.00001126,0.00001087,0.00916310,-0.00329190,-0.02934996,-0.01
 497159,0.05628121,0.00007522,-0.00024347,0.00070065,0.00257731,-0.0001
 0864,-0.00125343,-0.00035760,0.00065875,0.00043757,0.00030688,0.000035
 83,0.00012236,0.00000663,-0.00002036,0.00000878,-0.00000615,0.00000844
 ,-0.00000420,-0.00000702,0.00000804,-0.00002209,-0.00010180,-0.0000337
 8,-0.00002712,-0.00000290,0.00001293,0.00002931,-0.00000037,-0.0000061
 3,-0.00000214,-0.00000606,-0.00000393,-0.00000205,-0.00000639,-0.00000
 048,-0.00000032,0.00000174,0.00000615,0.00000054,0.06329288,-0.0400044
 5,-0.27913038,0.00477889,-0.00271104,-0.02038368,0.00069122,-0.0010153
 1,0.00195629,-0.00001433,-0.00012242,-0.00019818,-0.00000286,-0.000058
 68,-0.00002911,0.00000024,-0.00000116,0.00000458,0.00000008,0.00001151
 ,-0.00000941,0.00000598,-0.00000240,-0.00002880,-0.00000033,0.00000013
 ,-0.00000062,-0.00000041,-0.00000003,-0.00000066,0.00000011,0.00000058
 ,-0.00000314,0.00173627,-0.00088181,-0.00557185,-0.06936873,0.04099231
 ,0.30377435,-0.00206568,-0.00288474,0.00019170,0.00105687,0.00517009,-
 0.00131000,0.00037021,-0.00238714,0.00049921,-0.00032215,-0.00002762,-
 0.00001058,-0.00005970,0.00016779,-0.00012280,0.00004438,-0.00005511,0
 .00003341,0.00002222,-0.00016429,0.00010655,-0.00001192,0.00000266,-0.
 00000838,-0.00001268,0.00003836,-0.00000529,-0.00000229,0.00000257,0.0
 0001005,0.00006057,-0.00000895,-0.00000393,-0.00005829,-0.00000530,-0.
 00000183,0.00004893,-0.00002572,-0.00001288,0.00630529,0.01542063,0.00
 408566,-0.06415889,-0.06585404,-0.00924551,-0.02103065,-0.03391556,-0.
 00413611,0.00050890,0.00002977,0.00010339,-0.00003616,0.00005368,-0.00
 002211,-0.00001699,0.00001436,-0.00001265,0.00002522,-0.00002343,0.000
 01231,-0.00002038,0.00002410,0.00007785,-0.00000100,0.00000108,0.00000
 071,-0.00000169,-0.00000152,0.00000159,-0.00006580,-0.00000676,0.00000
 580,-0.00254397,0.00187294,-0.00277727,0.00050653,-0.00040833,-0.00015
 199,0.08215013,-0.00225704,0.00180982,-0.00106196,-0.00143000,-0.00269
 082,0.00057038,-0.00007695,0.00029225,0.00007404,0.00001391,0.00003188
 ,-0.00001746,-0.00000213,-0.00004147,0.00004493,-0.00000696,0.00000789
 ,-0.00000976,0.00001238,0.00003923,-0.00002093,0.00001176,0.00000601,-
 0.00000246,0.00000944,0.00000977,-0.00000105,0.00000619,-0.00000423,-0
 .00000151,-0.00000602,-0.00001180,-0.00000127,-0.00000889,0.00000338,0
 .00000115,-0.00000296,-0.00000272,0.00000406,-0.00145324,-0.01913930,-
 0.00222094,-0.07709819,-0.30547370,-0.04203608,0.00299590,0.00602338,0
 .00069216,-0.00005661,0.00006625,-0.00009071,0.00001993,0.00001152,0.0
 0000714,0.00000594,0.00000205,-0.00000073,-0.00000648,0.00000294,-0.00
 000098,0.00001508,-0.00000476,-0.00002043,0.00000081,-0.00000080,-0.00
 000026,-0.00000236,0.00000048,-0.00000098,0.00000327,0.00002073,-0.000
 00395,0.00141725,-0.00060178,0.00286498,-0.00023646,0.00079959,0.00003
 588,0.07851989,0.32177627,0.00014272,-0.00102881,-0.00122902,0.0001493
 1,0.00100349,0.00053855,0.00020485,-0.00023600,0.00019824,-0.00006014,
 -0.00007917,0.00000285,-0.00000746,0.00006272,-0.00004192,0.00003559,-
 0.00001732,0.00001030,0.00000978,-0.00004426,0.00001448,-0.00000534,-0
 .00002554,0.00001141,-0.00000500,0.00000521,-0.00000784,-0.00000902,0.
 00000254,-0.00000338,0.00001195,0.00000817,-0.00000249,0.00000182,0.00
 000157,0.00000002,0.00000816,-0.00000249,-0.00002087,0.00499072,0.0207
 3526,0.00373273,-0.01292562,-0.04475945,-0.06032755,0.00527560,0.00890
 816,0.00019365,0.00019133,0.00004259,0.00012344,-0.00002312,-0.0000113
 4,0.00000450,-0.00001681,-0.00000619,0.00001343,0.00000359,-0.00000039
 ,-0.00000293,-0.00000510,-0.00000727,0.00002292,-0.00000144,0.00000061
 ,0.00000284,0.00000019,-0.00000088,0.00000487,-0.00000781,-0.00001190,
 0.00003389,-0.00246024,0.00221904,-0.00198147,0.00087703,-0.00011146,0
 .00067883,0.01178663,0.04133970,0.05985808,-0.00057698,-0.00044900,0.0
 0083881,0.00208029,0.00066642,-0.00094346,-0.00058278,0.00021482,0.000
 24589,0.00015826,0.00001713,-0.00005062,0.00008019,0.00003108,-0.00001
 443,-0.00008735,-0.00000148,0.00000460,-0.00007699,-0.00003115,0.00003
 191,-0.00004854,0.00002557,-0.00005459,-0.00000889,-0.00001089,0.00004
 355,-0.00000117,-0.00000417,0.00001677,0.00000534,0.00000608,-0.000000
 36,0.00000014,-0.00000293,-0.00000097,0.00000388,-0.00000262,0.0000147
 2,0.00359989,-0.00480405,-0.01658370,-0.05131214,0.00320618,0.01877508
 ,-0.01593948,0.01013193,0.03878009,0.00009050,-0.00010030,-0.00004967,
 -0.00001705,-0.00000681,-0.00000946,0.00002122,0.00001663,-0.00003297,
 -0.00001016,0.00001421,-0.00000559,-0.00001836,-0.00003301,-0.00001273
 ,-0.00000097,0.00000096,-0.00000525,0.00000048,0.00000029,-0.00000285,
 -0.00000030,-0.00000026,-0.00002612,0.00039739,-0.00007687,0.00072772,
 -0.00180937,0.00248281,-0.00187548,0.00336221,-0.00112733,-0.00934309,
 0.06516292,-0.00016691,0.00015880,0.00071373,-0.00061242,0.00055744,-0
 .00011737,0.00003739,-0.00035485,-0.00034739,-0.00001795,-0.00000985,-
 0.00000111,0.00001180,0.00000349,0.00001042,-0.00002043,-0.00000275,-0
 .00000300,-0.00000852,-0.00001848,-0.00001870,0.00001037,0.00002798,-0
 .00000240,0.00000288,0.00001115,-0.00000018,0.00001065,0.00000066,0.00
 000259,-0.00000117,-0.00001689,-0.00000178,-0.00001911,-0.00000192,-0.
 00000068,0.00000356,-0.00000510,0.00000630,-0.00252017,0.00554318,0.02
 158960,0.00825545,-0.06992257,-0.06949683,-0.00160383,0.00014120,0.003
 23839,-0.00000309,0.00004991,0.00011754,-0.00001299,0.00000526,0.00000
 068,0.00000711,0.00000829,-0.00000426,0.00001177,-0.00001399,0.0000060
 6,0.00000120,0.00002375,-0.00000069,0.00000232,-0.00000065,-0.00000081
 ,-0.00000127,0.00000007,-0.00000183,-0.00000497,0.00000892,-0.00001526
 ,-0.00100453,0.00097422,-0.00015814,0.00280854,-0.00196909,0.00283016,
 0.00491751,-0.00447344,-0.02866041,-0.00997952,0.06848651,-0.00024702,
 -0.00057578,0.00064771,0.00079656,0.00104733,-0.00034705,-0.00024459,-
 0.00008930,0.00009636,0.00000119,0.00001032,-0.00000785,0.00001506,-0.
 00000268,-0.00000802,-0.00002161,0.00000210,0.00000010,-0.00001692,-0.
 00000236,0.00001793,-0.00000988,0.00000666,-0.00002134,-0.00000250,-0.
 00000307,0.00000981,0.00000088,-0.00000075,0.00000318,0.00000323,0.000
 00004,-0.00000151,-0.00000218,-0.00000102,0.00000020,0.00000250,0.0000
 0043,0.00000161,0.00055255,-0.00375813,-0.01633836,0.03097655,-0.06762
 498,-0.30898379,0.00103963,-0.00063442,-0.00159791,0.00003426,-0.00007
 573,-0.00008412,-0.00001528,0.00001646,-0.00000932,0.00000486,0.000003
 20,-0.00000736,-0.00000109,0.00000078,0.00000146,-0.00001439,-0.000006
 48,0.00001338,-0.00000004,-0.00000027,-0.00000038,0.00000015,0.0000001
 4,-0.00000020,-0.00000460,0.00000051,-0.00000262,0.00041973,-0.0000649
 7,0.00110277,-0.00204036,0.00222786,-0.00044483,-0.00000959,-0.0001937
 5,-0.00236063,-0.03177907,0.06944358,0.32703669,0.00052381,0.00029061,
 -0.00032282,-0.00117208,-0.00079538,-0.00012368,0.00074162,-0.00015000
 ,0.00001784,-0.00023273,-0.00008541,0.00008441,-0.00018007,0.00012930,
 -0.00010626,0.00019840,-0.00004935,0.00004399,0.00012187,-0.00007299,0
 .00005608,0.00001050,-0.00001200,0.00005518,-0.00000131,0.00000980,-0.
 00004511,-0.00002860,0.00001256,-0.00000083,0.00005598,0.00002170,0.00
 000301,-0.00001522,0.00000427,0.00000196,0.00003364,-0.00002717,-0.000
 02019,0.00205704,0.00016633,0.00112071,-0.00496546,0.00993607,0.034017
 92,-0.06888782,0.01943875,0.06545014,-0.00005142,0.00016680,-0.0000404
 0,0.00003919,0.00000445,0.00000412,-0.00005114,-0.00001685,0.00002169,
 0.00000714,-0.00000546,-0.00000284,-0.00000615,0.00000549,0.00003313,-
 0.00000620,0.00000294,0.00000423,-0.00000086,-0.00000170,0.00000272,-0
 .00002975,-0.00002089,0.00001890,0.00008270,-0.00005618,-0.00026657,-0
 .00033724,0.00052939,-0.00160396,0.00114428,-0.00064751,-0.00000857,-0
 .00706641,-0.00074574,-0.00036064,0.07076300,-0.00041761,-0.00070012,0
 .00000436,0.00106578,0.00069723,0.00013842,-0.00037586,-0.00004588,0.0
 0002008,0.00012332,0.00005070,-0.00002207,0.00015755,0.00000019,0.0000
 2944,-0.00014609,0.00000282,-0.00002030,-0.00010645,-0.00001752,-0.000
 00691,-0.00000471,0.00000091,-0.00002655,0.00000225,0.00001719,0.00002
 732,0.00002398,-0.00001001,0.00000352,-0.00002585,-0.00003180,-0.00000
 515,-0.00001692,0.00000149,-0.00000066,-0.00000782,0.00000430,0.000004
 75,-0.00056265,-0.00055233,-0.00079351,0.00072230,0.00128048,0.0028248
 8,0.01671357,-0.08877204,-0.08704674,0.00007260,-0.00006643,0.00002487
 ,-0.00002832,-0.00000466,0.00000023,0.00003253,0.00002371,-0.00001774,
 0.00000024,-0.00000151,0.00000021,0.00000378,0.00000475,-0.00001214,0.
 00000472,-0.00000251,-0.00000316,-0.00000271,0.00000095,-0.00000044,0.
 00000731,0.00002800,-0.00000078,0.00018518,-0.00019227,-0.00011779,0.0
 0030248,0.00033515,0.00049822,-0.00073076,0.00007408,0.00091543,-0.000
 80684,0.00048127,0.00022051,-0.01791482,0.08487682,-0.00019064,0.00025
 472,-0.00026668,-0.00004780,0.00001807,-0.00026325,-0.00034203,0.00005
 615,-0.00007742,0.00007872,0.00010315,0.00003273,-0.00000585,-0.000087
 21,0.00008198,-0.00002452,0.00002732,-0.00003663,0.00000194,0.00004749
 ,-0.00007138,-0.00001236,-0.00000969,0.00000571,0.00000619,0.00000233,
 0.00000059,0.00000863,0.00000022,-0.00000796,-0.00001896,-0.00000999,-
 0.00000659,0.00000218,0.00000107,0.00000080,-0.00000972,0.00000809,-0.
 00000841,-0.00099975,-0.00058792,0.00295280,0.00565269,0.00012149,-0.0
 0260021,0.05504827,-0.08769963,-0.36883225,0.00000962,-0.00003378,0.00
 008598,-0.00000480,-0.00001859,0.00000906,0.00000482,-0.00000314,0.000
 02022,0.00000298,-0.00000244,-0.00000027,0.00000498,0.00000648,-0.0000
 1283,0.00000180,-0.00000165,0.00000362,-0.00000053,-0.00000036,0.00000
 362,0.00001093,0.00000556,0.00001664,0.00005425,0.00001943,-0.00029112
 ,0.00026547,-0.00035974,-0.00049991,-0.00038918,0.00048303,0.00043694,
 -0.00006874,0.00069999,0.00140674,-0.06446435,0.09430428,0.38820720,0.
 00009031,0.00135057,-0.00063579,-0.00205124,-0.00144107,0.00082150,0.0
 0070967,0.00013446,-0.00000439,-0.00020000,-0.00011265,0.00000322,-0.0
 0017314,0.00009897,-0.00008915,0.00018408,-0.00003730,0.00004294,0.000
 11806,-0.00004409,0.00004929,0.00001722,-0.00000239,0.00003492,-0.0000
 0341,-0.00000215,-0.00003491,-0.00003162,0.00001250,0.00000074,0.00005
 238,0.00002852,0.00000441,-0.00000410,0.00000469,0.00000204,0.00003001
 ,-0.00002417,-0.00001353,0.00271124,-0.00081974,-0.00032294,-0.0108374
 3,-0.03233358,-0.00547209,-0.10116428,-0.11922655,-0.02014100,-0.00009
 952,0.00015066,-0.00009507,0.00003979,0.00001371,0.00000616,-0.0000443
 4,-0.00001718,0.00001419,-0.00000215,0.00000209,-0.00000332,-0.0000036
 1,-0.00000986,0.00002280,-0.00000665,0.00000346,0.00000291,-0.00000001
 ,-0.00000131,0.00000150,-0.00002144,-0.00002305,0.00000826,-0.00051827
 ,0.00111028,-0.00018076,-0.00016517,0.00012412,-0.00019568,-0.00593096
 ,0.00214773,0.00200219,0.00145163,0.00005991,0.00040379,0.00281054,0.0
 0852249,0.00034482,0.10450988,0.00031867,-0.00046455,0.00023730,-0.000
 13581,0.00004119,-0.00001628,0.00041670,-0.00029965,0.00002513,-0.0000
 8273,-0.00007689,0.00000616,0.00004267,0.00015446,-0.00008336,-0.00000
 042,-0.00005068,0.00002557,-0.00002776,-0.00012100,0.00004921,0.000007
 26,0.00001139,0.00001507,0.00000034,0.00001411,-0.00000802,-0.00000200
 ,0.00000441,0.00000783,0.00002270,-0.00000725,-0.00000064,-0.00002161,
 0.00000054,-0.00000019,0.00001776,-0.00001831,-0.00000566,0.00056806,0
 .00274142,-0.00035421,-0.00380480,0.00447315,0.00193259,-0.10864817,-0
 .35611689,-0.04567930,0.00007805,0.00011412,0.00002925,-0.00000492,0.0
 0000423,-0.00000323,-0.00000679,0.00001487,-0.00000908,0.00000997,-0.0
 0000702,-0.00000173,-0.00000833,0.00000428,0.00002150,0.00000029,0.000
 00046,-0.00000115,-0.00000162,-0.00000044,0.00000014,-0.00001888,0.000
 00267,0.00000117,-0.00007522,-0.00065354,-0.00044824,-0.00009756,-0.00
 000557,-0.00006197,0.00122326,0.00098931,0.00018905,0.00042909,0.00032
 608,0.00019866,-0.00246393,-0.00660248,0.00032396,0.12122817,0.3744437
 2,0.00046731,0.00017176,-0.00001420,-0.00071114,0.00012635,-0.00021496
 ,0.00026009,-0.00016128,-0.00004371,-0.00011217,-0.00001643,0.00003587
 ,-0.00011881,0.00000452,-0.00001358,0.00011130,-0.00000637,0.00000409,
 0.00008553,0.00000072,-0.00001488,0.00000185,-0.00000019,0.00003280,0.
 00000322,0.00000563,-0.00002926,-0.00001103,0.00000900,-0.00000572,0.0
 0002078,0.00000640,-0.00000314,-0.00000585,0.00000111,0.00000176,0.000
 01127,-0.00001069,-0.00001445,-0.00005045,-0.00047745,-0.00012856,0.00
 161802,0.00755020,0.00183287,-0.01803137,-0.04371231,-0.07068965,-0.00
 005354,0.00006253,0.00002714,0.00001522,0.00000234,-0.00000266,-0.0000
 2610,-0.00001429,0.00002557,0.00001015,-0.00000940,0.00000353,-0.00000
 384,0.00001201,0.00001952,-0.00000147,0.00000048,0.00000587,-0.0000001
 9,-0.00000102,0.00000341,-0.00001376,-0.00001020,0.00001564,-0.0000608
 8,0.00006894,0.00047216,-0.00021744,-0.00028532,-0.00038213,0.00164813
 ,-0.00030698,0.00004360,0.00053474,0.00080913,-0.00025403,-0.01481471,
 -0.03568218,-0.00175860,0.01837301,0.04888121,0.06581724,0.00041931,-0
 .00090612,0.00053655,0.00058329,0.00314131,-0.00155834,-0.00079439,-0.
 00055835,0.00008777,0.00002949,0.00019879,0.00000720,-0.00010806,-0.00
 004910,0.00002022,0.00001113,0.00001841,-0.00001019,0.00003402,0.00000
 561,0.00000099,-0.00003270,0.00000060,-0.00002670,-0.00000843,0.000020
 21,0.00001897,-0.00000007,-0.00000355,0.00000662,0.00002065,-0.0000069
 5,-0.00000389,-0.00002827,0.00000161,0.00000024,0.00002103,-0.00001137
 ,0.00000221,-0.00693803,-0.00246904,0.00285874,-0.01373552,0.02005719,
 -0.02015588,-0.14047596,0.10970650,-0.10812660,0.00001314,-0.00005408,
 0.00000296,0.00000082,0.00000058,-0.00000199,0.00000362,0.00000506,-0.
 00000725,-0.00000294,0.00000204,0.00000188,-0.00000466,-0.00000101,0.0
 0000581,-0.00000182,0.00000083,-0.00000121,-0.00000209,-0.00000036,-0.
 00000082,-0.00001786,0.00000442,-0.00000667,0.00014842,0.00007573,0.00
 023914,0.00042835,-0.00043863,0.00022862,0.00073346,-0.00076033,-0.000
 81269,0.00114259,0.00058219,0.00051880,0.00444272,-0.00679270,0.005080
 95,0.00853254,-0.00896244,0.01107215,0.14558622,-0.00022592,0.00000007
 ,-0.00008800,-0.00009958,0.00028944,0.00004598,-0.00029071,-0.00002151
 ,-0.00000743,0.00008059,0.00003579,0.00000083,0.00012576,-0.00000291,0
 .00002822,-0.00011281,0.00000186,-0.00001577,-0.00007997,-0.00000846,-
 0.00001310,-0.00000312,0.00000939,-0.00002419,0.00000360,0.00001380,0.
 00002199,0.00002243,-0.00000747,0.00000227,-0.00002183,-0.00003020,-0.
 00000361,-0.00001717,0.00000098,-0.00000044,-0.00000701,0.00000294,0.0
 0000699,-0.00046122,0.00006998,0.00024607,0.00052671,0.00354634,-0.004
 49367,0.10285002,-0.19783113,0.13065984,0.00005240,-0.00006950,0.00004
 061,-0.00001685,-0.00000223,-0.00000464,0.00002648,0.00001920,-0.00001
 504,0.00000335,-0.00000457,0.00000260,0.00000683,0.00000743,-0.0000092
 1,0.00000438,-0.00000227,-0.00000238,-0.00000237,0.00000114,-0.0000018
 3,0.00000462,0.00002525,-0.00000754,-0.00023893,0.00018050,0.00000904,
 -0.00000694,-0.00010097,0.00017713,-0.00095942,0.00047800,-0.00043067,
 0.00019403,-0.00001864,-0.00014488,-0.00765308,0.00911951,-0.00766870,
 0.01910278,-0.01891615,0.02298180,-0.11280703,0.20321439,0.00026615,-0
 .00008263,-0.00008850,-0.00011667,-0.00011808,0.00071239,0.00042590,-0
 .00008017,-0.00002633,-0.00010125,-0.00007530,-0.00005023,-0.00011332,
 0.00003126,-0.00004073,0.00011343,-0.00001296,0.00001435,0.00007775,-0
 .00001753,0.00001052,0.00002252,-0.00000716,0.00004294,0.00000330,0.00
 000200,-0.00003204,-0.00001683,0.00000944,-0.00000550,0.00002583,0.000
 01409,-0.00000149,-0.00000002,0.00000284,0.00000143,0.00001376,-0.0000
 1234,-0.00001840,0.00178455,0.00067258,-0.00089107,0.00164571,-0.00737
 701,0.00731737,-0.10056731,0.12933106,-0.18966936,-0.00004274,0.000102
 15,-0.00000322,0.00000332,0.00000908,0.00000101,-0.00002863,-0.0000145
 7,0.00002214,0.00000557,-0.00000588,0.00000027,-0.00000845,0.00000520,
 0.00002222,-0.00000260,0.00000081,0.00000554,0.00000006,-0.00000115,0.
 00000462,-0.00001333,-0.00001292,0.00002158,-0.00016072,0.00013018,-0.
 00002119,-0.00003559,0.00009298,0.00028078,-0.00034291,-0.00012527,0.0
 0005254,0.00084528,-0.00063732,0.00013139,-0.01875509,0.02473960,-0.01
 853110,0.00504994,-0.00527073,0.00522844,0.11002241,-0.14129228,0.1955
 0963\\0.00000151,0.00000116,0.00000002,0.00000061,0.00000079,0.0000003
 9,-0.00000007,-0.00000069,-0.00000088,-0.00000085,0.00000050,0.0000009
 6,0.00000341,0.00000127,-0.00000037,-0.00000141,0.00000113,-0.00000166
 ,-0.00000109,-0.00000022,0.00000029,-0.00000113,-0.00000233,-0.0000000
 2,0.00000074,0.00000045,-0.00000017,0.00000111,-0.00000041,0.00000103,
 -0.00000044,0.,-0.00000042,0.,-0.00000008,-0.00000006,-0.00000062,-0.0
 0000006,0.00000098,-0.00000207,-0.00000099,0.00000050,0.00000091,0.000
 00154,0.00000010,0.00000098,-0.00000127,0.00000006,0.00000016,-0.00000
 142,0.00000010,0.00000002,-0.00000005,0.00000009,0.00000024,0.00000047
 ,0.00000079,-0.00000095,-0.00000017,-0.00000020,0.00000070,0.00000054,
 0.00000073,0.00000034,0.00000006,-0.00000092,0.00000007,0.00000025,-0.
 00000006,-0.00000016,0.00000065,-0.00000096,0.00000031,-0.00000012,-0.
 00000002,-0.00000035,0.00000035,0.00000053,-0.00000085,-0.00000062,-0.
 00000099,-0.00000068,0.00000004,0.,-0.00000023,-0.00000023,0.00000024,
 -0.00000036,-0.00000047,0.00000018,0.00000015,-0.00000010,-0.00000024\
 \\@


 A SUCCESSFUL PURSUIT OF SCIENCE MAKES A MAN THE
 BENEFACTOR OF ALL MANKIND OF EVERY AGE.
   --  JOSEPH PRIESTLEY, "EXPERIMENTS AND
 OBSERVATIONS ON DIFFERENT KINDS OF AIR", 1774
 Job cpu time:       0 days  2 hours 42 minutes 57.4 seconds.
 File lengths (MBytes):  RWF=    460 Int=      0 D2E=      0 Chk=     13 Scr=      1
 Normal termination of Gaussian 09 at Sat Jul 24 02:50:16 2021.
