 Entering Gaussian System, Link 0=g09
 Input=opt_freq-conf-661.com
 Output=opt_freq-conf-661.log
 Initial command:
 /aerosol/software/g09/l1.exe "/scratch/nicole/10440/Gau-72233.inp" -scrdir="/scratch/nicole/10440/"
 Entering Link 1 = /aerosol/software/g09/l1.exe PID=     72239.
  
 Copyright (c) 1988,1990,1992,1993,1995,1998,2003,2009,2013,
            Gaussian, Inc.  All Rights Reserved.
  
 This is part of the Gaussian(R) 09 program.  It is based on
 the Gaussian(R) 03 system (copyright 2003, Gaussian, Inc.),
 the Gaussian(R) 98 system (copyright 1998, Gaussian, Inc.),
 the Gaussian(R) 94 system (copyright 1995, Gaussian, Inc.),
 the Gaussian 92(TM) system (copyright 1992, Gaussian, Inc.),
 the Gaussian 90(TM) system (copyright 1990, Gaussian, Inc.),
 the Gaussian 88(TM) system (copyright 1988, Gaussian, Inc.),
 the Gaussian 86(TM) system (copyright 1986, Carnegie Mellon
 University), and the Gaussian 82(TM) system (copyright 1983,
 Carnegie Mellon University). Gaussian is a federally registered
 trademark of Gaussian, Inc.
  
 This software contains proprietary and confidential information,
 including trade secrets, belonging to Gaussian, Inc.
  
 This software is provided under written license and may be
 used, copied, transmitted, or stored only in accord with that
 written license.
  
 The following legend is applicable only to US Government
 contracts under FAR:
  
                    RESTRICTED RIGHTS LEGEND
  
 Use, reproduction and disclosure by the US Government is
 subject to restrictions as set forth in subparagraphs (a)
 and (c) of the Commercial Computer Software - Restricted
 Rights clause in FAR 52.227-19.
  
 Gaussian, Inc.
 340 Quinnipiac St., Bldg. 40, Wallingford CT 06492
  
  
 ---------------------------------------------------------------
 Warning -- This program may not be used in any manner that
 competes with the business of Gaussian, Inc. or will provide
 assistance to any competitor of Gaussian, Inc.  The licensee
 of this program is prohibited from giving any competitor of
 Gaussian, Inc. access to this program.  By using this program,
 the user acknowledges that Gaussian, Inc. is engaged in the
 business of creating and licensing software in the field of
 computational chemistry and represents and warrants to the
 licensee that it is not a competitor of Gaussian, Inc. and that
 it will not use this program in any manner prohibited above.
 ---------------------------------------------------------------
  

 Cite this work as:
 Gaussian 09, Revision D.01,
 M. J. Frisch, G. W. Trucks, H. B. Schlegel, G. E. Scuseria, 
 M. A. Robb, J. R. Cheeseman, G. Scalmani, V. Barone, B. Mennucci, 
 G. A. Petersson, H. Nakatsuji, M. Caricato, X. Li, H. P. Hratchian, 
 A. F. Izmaylov, J. Bloino, G. Zheng, J. L. Sonnenberg, M. Hada, 
 M. Ehara, K. Toyota, R. Fukuda, J. Hasegawa, M. Ishida, T. Nakajima, 
 Y. Honda, O. Kitao, H. Nakai, T. Vreven, J. A. Montgomery, Jr., 
 J. E. Peralta, F. Ogliaro, M. Bearpark, J. J. Heyd, E. Brothers, 
 K. N. Kudin, V. N. Staroverov, T. Keith, R. Kobayashi, J. Normand, 
 K. Raghavachari, A. Rendell, J. C. Burant, S. S. Iyengar, J. Tomasi, 
 M. Cossi, N. Rega, J. M. Millam, M. Klene, J. E. Knox, J. B. Cross, 
 V. Bakken, C. Adamo, J. Jaramillo, R. Gomperts, R. E. Stratmann, 
 O. Yazyev, A. J. Austin, R. Cammi, C. Pomelli, J. W. Ochterski, 
 R. L. Martin, K. Morokuma, V. G. Zakrzewski, G. A. Voth, 
 P. Salvador, J. J. Dannenberg, S. Dapprich, A. D. Daniels, 
 O. Farkas, J. B. Foresman, J. V. Ortiz, J. Cioslowski, 
 and D. J. Fox, Gaussian, Inc., Wallingford CT, 2013.
 
 ******************************************
 Gaussian 09:  ES64L-G09RevD.01 24-Apr-2013
                24-Jul-2021 
 ******************************************
 %mem=2gb
 %nproc=4
 Will use up to    4 processors via shared memory.
 %chk=conf-661.chk
 ----------------------------------------------------------------------
 # B3LYP/6-31+G(d,p) EmpiricalDispersion=GD3BJ opt=calcfc freq=noraman 
 nosymm integral(ultrafinegrid)
 ----------------------------------------------------------------------
 1/10=4,14=-1,18=20,19=15,26=4,38=1/1,3;
 2/9=110,12=2,15=1,17=6,18=5,40=1/2;
 3/5=1,6=6,7=111,11=2,16=1,25=1,30=1,71=2,74=-5,75=-5,124=41,140=1/1,2,3;
 4//1;
 5/5=2,38=5/2;
 8/6=4,10=90,11=11/1;
 11/6=1,8=1,9=11,15=111,16=1,31=1/1,2,10;
 10/6=1,13=1,31=1/2;
 6/7=2,8=2,9=2,10=2,28=1/1;
 7/10=1,18=20,25=1,30=1/1,2,3,16;
 1/10=4,14=-1,18=20,19=15,26=4/3(2);
 2/9=110,15=1/2;
 99//99;
 2/9=110,15=1/2;
 3/5=1,6=6,7=111,11=2,16=1,25=1,30=1,71=1,74=-5,75=-5,124=41/1,2,3;
 4/5=5,16=3,69=1/1;
 5/5=2,38=5/2;
 7/30=1/1,2,3,16;
 1/14=-1,18=20,19=15,26=4/3(-5);
 2/9=110,15=1/2;
 6/7=2,8=2,9=2,10=2,19=2,28=1/1;
 99/9=1/99;
 ------------------------------------------------------------
 Candidate Structure: Conf:661 OPT and FREQ calc in gas phase
 ------------------------------------------------------------
 Symbolic Z-matrix:
 Charge =  1 Multiplicity = 1
 O                     1.32423   1.81349   0.5401 
 C                     1.12207   1.00651  -0.35344 
 N                     0.17682   0.02404  -0.25786 
 C                    -0.31161  -0.34442   1.05573 
 C                     0.59774  -1.40463   1.66885 
 O                     0.55837  -1.51997   3.00838 
 O                     1.29808  -2.13154   1.01585 
 C                    -1.74475  -0.88705   0.99962 
 C                    -2.7214    0.07774   0.39446 
 C                    -3.37941   0.07444  -0.80347 
 N                    -4.15506   1.20955  -0.94796 
 C                    -3.97043   1.8909    0.15893 
 N                    -3.11353   1.25308   1.00056 
 C                     1.92472   0.99132  -1.63242 
 C                     3.26497   0.28644  -1.39996 
 N                     3.12214  -1.17546  -1.18576 
 H                     0.26239  -0.73584  -0.91142 
 H                    -0.2515    0.56273   1.65523 
 H                    -0.03134  -0.85479   3.38157 
 H                    -2.05656  -1.16569   2.00948 
 H                    -1.75475  -1.79756   0.3993 
 H                    -3.32711  -0.68071  -1.57624 
 H                    -4.42189   2.83492   0.40909 
 H                    -2.82052   1.58386   1.90623 
 H                     2.11161   2.02859  -1.9138 
 H                     1.37537   0.49569  -2.4359 
 H                     3.74155   0.73644  -0.52457 
 H                     3.92106   0.46505  -2.25448 
 H                     4.03225  -1.62419  -1.05353 
 H                     2.55445  -1.40133  -0.36187 
 H                     2.67164  -1.61148  -1.9907 
 

 GradGradGradGradGradGradGradGradGradGradGradGradGradGradGradGradGradGrad
 Berny optimization.
 Initialization pass.
                           ----------------------------
                           !    Initial Parameters    !
                           ! (Angstroms and Degrees)  !
 --------------------------                            --------------------------
 ! Name  Definition              Value          Derivative Info.                !
 --------------------------------------------------------------------------------
 ! R1    R(1,2)                  1.2209         calculate D2E/DX2 analytically  !
 ! R2    R(2,3)                  1.3667         calculate D2E/DX2 analytically  !
 ! R3    R(2,14)                 1.5101         calculate D2E/DX2 analytically  !
 ! R4    R(3,4)                  1.4491         calculate D2E/DX2 analytically  !
 ! R5    R(3,17)                 1.0059         calculate D2E/DX2 analytically  !
 ! R6    R(4,5)                  1.5254         calculate D2E/DX2 analytically  !
 ! R7    R(4,8)                  1.5335         calculate D2E/DX2 analytically  !
 ! R8    R(4,18)                 1.089          calculate D2E/DX2 analytically  !
 ! R9    R(5,6)                  1.3451         calculate D2E/DX2 analytically  !
 ! R10   R(5,7)                  1.2022         calculate D2E/DX2 analytically  !
 ! R11   R(6,19)                 0.9641         calculate D2E/DX2 analytically  !
 ! R12   R(8,9)                  1.5003         calculate D2E/DX2 analytically  !
 ! R13   R(8,20)                 1.093          calculate D2E/DX2 analytically  !
 ! R14   R(8,21)                 1.0907         calculate D2E/DX2 analytically  !
 ! R15   R(9,10)                 1.3668         calculate D2E/DX2 analytically  !
 ! R16   R(9,13)                 1.3793         calculate D2E/DX2 analytically  !
 ! R17   R(10,11)                1.3824         calculate D2E/DX2 analytically  !
 ! R18   R(10,22)                1.0817         calculate D2E/DX2 analytically  !
 ! R19   R(11,12)                1.3128         calculate D2E/DX2 analytically  !
 ! R20   R(12,13)                1.3599         calculate D2E/DX2 analytically  !
 ! R21   R(12,23)                1.0759         calculate D2E/DX2 analytically  !
 ! R22   R(13,24)                1.0077         calculate D2E/DX2 analytically  !
 ! R23   R(14,15)                1.532          calculate D2E/DX2 analytically  !
 ! R24   R(14,25)                1.0909         calculate D2E/DX2 analytically  !
 ! R25   R(14,26)                1.0923         calculate D2E/DX2 analytically  !
 ! R26   R(15,16)                1.4844         calculate D2E/DX2 analytically  !
 ! R27   R(15,27)                1.0936         calculate D2E/DX2 analytically  !
 ! R28   R(15,28)                1.092          calculate D2E/DX2 analytically  !
 ! R29   R(16,29)                1.0233         calculate D2E/DX2 analytically  !
 ! R30   R(16,30)                1.0257         calculate D2E/DX2 analytically  !
 ! R31   R(16,31)                1.0203         calculate D2E/DX2 analytically  !
 ! A1    A(1,2,3)              122.5816         calculate D2E/DX2 analytically  !
 ! A2    A(1,2,14)             122.584          calculate D2E/DX2 analytically  !
 ! A3    A(3,2,14)             114.8107         calculate D2E/DX2 analytically  !
 ! A4    A(2,3,4)              118.6396         calculate D2E/DX2 analytically  !
 ! A5    A(2,3,17)             116.0248         calculate D2E/DX2 analytically  !
 ! A6    A(4,3,17)             115.1862         calculate D2E/DX2 analytically  !
 ! A7    A(3,4,5)              109.886          calculate D2E/DX2 analytically  !
 ! A8    A(3,4,8)              111.8279         calculate D2E/DX2 analytically  !
 ! A9    A(3,4,18)             105.582          calculate D2E/DX2 analytically  !
 ! A10   A(5,4,8)              109.0202         calculate D2E/DX2 analytically  !
 ! A11   A(5,4,18)             108.9531         calculate D2E/DX2 analytically  !
 ! A12   A(8,4,18)             111.4993         calculate D2E/DX2 analytically  !
 ! A13   A(4,5,6)              116.2593         calculate D2E/DX2 analytically  !
 ! A14   A(4,5,7)              123.3129         calculate D2E/DX2 analytically  !
 ! A15   A(6,5,7)              120.4069         calculate D2E/DX2 analytically  !
 ! A16   A(5,6,19)             110.1352         calculate D2E/DX2 analytically  !
 ! A17   A(4,8,9)              113.3029         calculate D2E/DX2 analytically  !
 ! A18   A(4,8,20)             108.8461         calculate D2E/DX2 analytically  !
 ! A19   A(4,8,21)             108.9124         calculate D2E/DX2 analytically  !
 ! A20   A(9,8,20)             110.5424         calculate D2E/DX2 analytically  !
 ! A21   A(9,8,21)             107.9907         calculate D2E/DX2 analytically  !
 ! A22   A(20,8,21)            107.044          calculate D2E/DX2 analytically  !
 ! A23   A(8,9,10)             131.712          calculate D2E/DX2 analytically  !
 ! A24   A(8,9,13)             123.7646         calculate D2E/DX2 analytically  !
 ! A25   A(10,9,13)            104.4972         calculate D2E/DX2 analytically  !
 ! A26   A(9,10,11)            111.0856         calculate D2E/DX2 analytically  !
 ! A27   A(9,10,22)            127.1963         calculate D2E/DX2 analytically  !
 ! A28   A(11,10,22)           121.7136         calculate D2E/DX2 analytically  !
 ! A29   A(10,11,12)           105.0176         calculate D2E/DX2 analytically  !
 ! A30   A(11,12,13)           111.5303         calculate D2E/DX2 analytically  !
 ! A31   A(11,12,23)           126.3273         calculate D2E/DX2 analytically  !
 ! A32   A(13,12,23)           122.1422         calculate D2E/DX2 analytically  !
 ! A33   A(9,13,12)            107.8687         calculate D2E/DX2 analytically  !
 ! A34   A(9,13,24)            126.2962         calculate D2E/DX2 analytically  !
 ! A35   A(12,13,24)           125.8351         calculate D2E/DX2 analytically  !
 ! A36   A(2,14,15)            109.9447         calculate D2E/DX2 analytically  !
 ! A37   A(2,14,25)            107.4551         calculate D2E/DX2 analytically  !
 ! A38   A(2,14,26)            111.1172         calculate D2E/DX2 analytically  !
 ! A39   A(15,14,25)           109.0712         calculate D2E/DX2 analytically  !
 ! A40   A(15,14,26)           110.0499         calculate D2E/DX2 analytically  !
 ! A41   A(25,14,26)           109.1402         calculate D2E/DX2 analytically  !
 ! A42   A(14,15,16)           113.0066         calculate D2E/DX2 analytically  !
 ! A43   A(14,15,27)           108.2627         calculate D2E/DX2 analytically  !
 ! A44   A(14,15,28)           109.3657         calculate D2E/DX2 analytically  !
 ! A45   A(16,15,27)           109.3707         calculate D2E/DX2 analytically  !
 ! A46   A(16,15,28)           109.3779         calculate D2E/DX2 analytically  !
 ! A47   A(27,15,28)           107.2924         calculate D2E/DX2 analytically  !
 ! A48   A(15,16,29)           111.4043         calculate D2E/DX2 analytically  !
 ! A49   A(15,16,30)           112.7081         calculate D2E/DX2 analytically  !
 ! A50   A(15,16,31)           110.4579         calculate D2E/DX2 analytically  !
 ! A51   A(29,16,30)           106.9705         calculate D2E/DX2 analytically  !
 ! A52   A(29,16,31)           107.8933         calculate D2E/DX2 analytically  !
 ! A53   A(30,16,31)           107.1698         calculate D2E/DX2 analytically  !
 ! D1    D(1,2,3,4)            -19.3676         calculate D2E/DX2 analytically  !
 ! D2    D(1,2,3,17)          -163.0987         calculate D2E/DX2 analytically  !
 ! D3    D(14,2,3,4)           158.905          calculate D2E/DX2 analytically  !
 ! D4    D(14,2,3,17)           15.1739         calculate D2E/DX2 analytically  !
 ! D5    D(1,2,14,15)           80.1502         calculate D2E/DX2 analytically  !
 ! D6    D(1,2,14,25)          -38.4355         calculate D2E/DX2 analytically  !
 ! D7    D(1,2,14,26)         -157.7689         calculate D2E/DX2 analytically  !
 ! D8    D(3,2,14,15)          -98.1224         calculate D2E/DX2 analytically  !
 ! D9    D(3,2,14,25)          143.292          calculate D2E/DX2 analytically  !
 ! D10   D(3,2,14,26)           23.9586         calculate D2E/DX2 analytically  !
 ! D11   D(2,3,4,5)            -86.6939         calculate D2E/DX2 analytically  !
 ! D12   D(2,3,4,8)            152.0936         calculate D2E/DX2 analytically  !
 ! D13   D(2,3,4,18)            30.657          calculate D2E/DX2 analytically  !
 ! D14   D(17,3,4,5)            57.3305         calculate D2E/DX2 analytically  !
 ! D15   D(17,3,4,8)           -63.882          calculate D2E/DX2 analytically  !
 ! D16   D(17,3,4,18)          174.6814         calculate D2E/DX2 analytically  !
 ! D17   D(3,4,5,6)            158.3706         calculate D2E/DX2 analytically  !
 ! D18   D(3,4,5,7)            -23.2929         calculate D2E/DX2 analytically  !
 ! D19   D(8,4,5,6)            -78.7465         calculate D2E/DX2 analytically  !
 ! D20   D(8,4,5,7)             99.59           calculate D2E/DX2 analytically  !
 ! D21   D(18,4,5,6)            43.1413         calculate D2E/DX2 analytically  !
 ! D22   D(18,4,5,7)          -138.5222         calculate D2E/DX2 analytically  !
 ! D23   D(3,4,8,9)            -57.6001         calculate D2E/DX2 analytically  !
 ! D24   D(3,4,8,20)           178.9828         calculate D2E/DX2 analytically  !
 ! D25   D(3,4,8,21)            62.6025         calculate D2E/DX2 analytically  !
 ! D26   D(5,4,8,9)           -179.3124         calculate D2E/DX2 analytically  !
 ! D27   D(5,4,8,20)            57.2706         calculate D2E/DX2 analytically  !
 ! D28   D(5,4,8,21)           -59.1097         calculate D2E/DX2 analytically  !
 ! D29   D(18,4,8,9)            60.3545         calculate D2E/DX2 analytically  !
 ! D30   D(18,4,8,20)          -63.0626         calculate D2E/DX2 analytically  !
 ! D31   D(18,4,8,21)         -179.4429         calculate D2E/DX2 analytically  !
 ! D32   D(4,5,6,19)            -2.9337         calculate D2E/DX2 analytically  !
 ! D33   D(7,5,6,19)           178.6781         calculate D2E/DX2 analytically  !
 ! D34   D(4,8,9,10)           108.6852         calculate D2E/DX2 analytically  !
 ! D35   D(4,8,9,13)           -69.1483         calculate D2E/DX2 analytically  !
 ! D36   D(20,8,9,10)         -128.8347         calculate D2E/DX2 analytically  !
 ! D37   D(20,8,9,13)           53.3319         calculate D2E/DX2 analytically  !
 ! D38   D(21,8,9,10)          -12.0404         calculate D2E/DX2 analytically  !
 ! D39   D(21,8,9,13)          170.1262         calculate D2E/DX2 analytically  !
 ! D40   D(8,9,10,11)         -177.9618         calculate D2E/DX2 analytically  !
 ! D41   D(8,9,10,22)            1.267          calculate D2E/DX2 analytically  !
 ! D42   D(13,9,10,11)           0.1779         calculate D2E/DX2 analytically  !
 ! D43   D(13,9,10,22)         179.4068         calculate D2E/DX2 analytically  !
 ! D44   D(8,9,13,12)          178.3006         calculate D2E/DX2 analytically  !
 ! D45   D(8,9,13,24)           -1.761          calculate D2E/DX2 analytically  !
 ! D46   D(10,9,13,12)          -0.0291         calculate D2E/DX2 analytically  !
 ! D47   D(10,9,13,24)         179.9094         calculate D2E/DX2 analytically  !
 ! D48   D(9,10,11,12)          -0.2599         calculate D2E/DX2 analytically  !
 ! D49   D(22,10,11,12)       -179.5378         calculate D2E/DX2 analytically  !
 ! D50   D(10,11,12,13)          0.239          calculate D2E/DX2 analytically  !
 ! D51   D(10,11,12,23)       -179.5856         calculate D2E/DX2 analytically  !
 ! D52   D(11,12,13,9)          -0.1372         calculate D2E/DX2 analytically  !
 ! D53   D(11,12,13,24)        179.9239         calculate D2E/DX2 analytically  !
 ! D54   D(23,12,13,9)         179.6958         calculate D2E/DX2 analytically  !
 ! D55   D(23,12,13,24)         -0.243          calculate D2E/DX2 analytically  !
 ! D56   D(2,14,15,16)          69.9412         calculate D2E/DX2 analytically  !
 ! D57   D(2,14,15,27)         -51.3624         calculate D2E/DX2 analytically  !
 ! D58   D(2,14,15,28)        -167.9634         calculate D2E/DX2 analytically  !
 ! D59   D(25,14,15,16)       -172.4727         calculate D2E/DX2 analytically  !
 ! D60   D(25,14,15,27)         66.2237         calculate D2E/DX2 analytically  !
 ! D61   D(25,14,15,28)        -50.3773         calculate D2E/DX2 analytically  !
 ! D62   D(26,14,15,16)        -52.7714         calculate D2E/DX2 analytically  !
 ! D63   D(26,14,15,27)       -174.075          calculate D2E/DX2 analytically  !
 ! D64   D(26,14,15,28)         69.324          calculate D2E/DX2 analytically  !
 ! D65   D(14,15,16,29)        178.7588         calculate D2E/DX2 analytically  !
 ! D66   D(14,15,16,30)        -60.9842         calculate D2E/DX2 analytically  !
 ! D67   D(14,15,16,31)         58.8614         calculate D2E/DX2 analytically  !
 ! D68   D(27,15,16,29)        -60.5662         calculate D2E/DX2 analytically  !
 ! D69   D(27,15,16,30)         59.6908         calculate D2E/DX2 analytically  !
 ! D70   D(27,15,16,31)        179.5363         calculate D2E/DX2 analytically  !
 ! D71   D(28,15,16,29)         56.6703         calculate D2E/DX2 analytically  !
 ! D72   D(28,15,16,30)        176.9273         calculate D2E/DX2 analytically  !
 ! D73   D(28,15,16,31)        -63.2272         calculate D2E/DX2 analytically  !
 --------------------------------------------------------------------------------
 Trust Radius=3.00D-01 FncErr=1.00D-07 GrdErr=1.00D-06
 Number of steps in this run=    167 maximum allowed number of steps=    186.
 GradGradGradGradGradGradGradGradGradGradGradGradGradGradGradGradGradGrad

                          Input orientation:                          
 ---------------------------------------------------------------------
 Center     Atomic      Atomic             Coordinates (Angstroms)
 Number     Number       Type             X           Y           Z
 ---------------------------------------------------------------------
      1          8           0        1.324230    1.813489    0.540098
      2          6           0        1.122074    1.006515   -0.353441
      3          7           0        0.176817    0.024036   -0.257862
      4          6           0       -0.311607   -0.344423    1.055726
      5          6           0        0.597744   -1.404631    1.668846
      6          8           0        0.558372   -1.519972    3.008380
      7          8           0        1.298083   -2.131538    1.015852
      8          6           0       -1.744746   -0.887049    0.999625
      9          6           0       -2.721402    0.077743    0.394459
     10          6           0       -3.379410    0.074437   -0.803466
     11          7           0       -4.155064    1.209552   -0.947962
     12          6           0       -3.970433    1.890901    0.158934
     13          7           0       -3.113529    1.253076    1.000558
     14          6           0        1.924723    0.991316   -1.632417
     15          6           0        3.264969    0.286443   -1.399957
     16          7           0        3.122144   -1.175457   -1.185759
     17          1           0        0.262385   -0.735838   -0.911425
     18          1           0       -0.251500    0.562729    1.655229
     19          1           0       -0.031336   -0.854794    3.381571
     20          1           0       -2.056564   -1.165693    2.009484
     21          1           0       -1.754749   -1.797564    0.399302
     22          1           0       -3.327112   -0.680712   -1.576235
     23          1           0       -4.421885    2.834916    0.409089
     24          1           0       -2.820524    1.583857    1.906229
     25          1           0        2.111610    2.028590   -1.913800
     26          1           0        1.375365    0.495690   -2.435900
     27          1           0        3.741549    0.736445   -0.524567
     28          1           0        3.921059    0.465053   -2.254483
     29          1           0        4.032249   -1.624195   -1.053526
     30          1           0        2.554447   -1.401334   -0.361874
     31          1           0        2.671637   -1.611483   -1.990702
 ---------------------------------------------------------------------
                    Distance matrix (angstroms):
                    1          2          3          4          5
     1  O    0.000000
     2  C    1.220855   0.000000
     3  N    2.270560   1.366716   0.000000
     4  C    2.756524   2.422030   1.449081   0.000000
     5  C    3.486854   3.190327   2.435256   1.525410   0.000000
     6  O    4.217928   4.242963   3.632888   2.439597   1.345067
     7  O    3.973697   3.428311   2.743371   2.405509   1.202193
     8  C    4.113719   3.692564   2.470577   1.533453   2.490584
     9  C    4.404675   4.024212   2.971209   2.534287   3.852042
    10  C    5.191695   4.618945   3.598190   3.611572   4.910980
    11  N    5.709792   5.314402   4.543884   4.604538   6.022527
    12  C    5.308930   5.194064   4.567120   4.380401   5.831690
    13  N    4.496642   4.453587   3.731024   3.225804   4.613412
    14  C    2.399246   1.510051   2.424914   3.743192   4.289495
    15  C    3.140406   2.491124   3.303017   4.384093   4.403563
    16  N    3.891642   3.074741   3.312812   4.183960   3.817575
    17  H    3.119856   2.021436   1.005919   2.086230   2.686549
    18  H    2.300184   2.473542   2.033117   1.089010   2.142874
    19  H    4.126895   4.329566   3.749819   2.397620   1.905647
    20  H    4.739662   4.517261   3.397691   2.151514   2.686723
    21  H    4.747593   4.087247   2.735148   2.150621   2.701918
    22  H    5.686377   4.912964   3.809500   4.016663   5.143841
    23  H    5.837663   5.887274   5.430832   5.236480   6.690099
    24  H    4.370129   4.580776   4.012528   3.276626   4.546643
    25  H    2.586087   2.111525   3.240955   4.507911   5.187884
    26  H    3.255115   2.159105   2.530381   3.967760   4.589646
    27  H    2.852537   2.638915   3.644993   4.482598   4.390760
    28  H    4.046169   3.426581   4.266186   5.433986   5.471073
    29  H    4.657325   3.984955   4.267798   4.995583   4.388090
    30  H    3.558381   2.801695   2.774099   3.367628   2.820021
    31  H    4.466642   3.454806   3.449896   4.448136   4.211426
                    6          7          8          9         10
     6  O    0.000000
     7  O    2.211640   0.000000
     8  C    3.120904   3.287526   0.000000
     9  C    4.488005   4.628533   1.500302   0.000000
    10  C    5.707752   5.482261   2.616814   1.366751   0.000000
    11  N    6.731970   6.690013   3.741452   2.266820   1.382391
    12  C    6.345350   6.683681   3.657519   2.214292   2.138940
    13  N    5.020358   5.560411   2.540414   1.379322   2.171264
    14  C    5.450731   4.142248   4.890900   5.150662   5.446251
    15  C    5.479255   3.943527   5.677352   6.253010   6.674468
    16  N    4.927719   3.014694   5.342817   6.181798   6.631635
    17  H    4.008408   2.595197   2.775527   3.357117   3.732408
    18  H    2.612384   3.173183   2.182076   2.815168   4.008420
    19  H    0.964100   2.999009   2.934362   4.126611   5.439449
    20  H    2.821559   3.629576   1.093019   2.143933   3.346720
    21  H    3.497838   3.132324   1.090654   2.109791   2.755098
    22  H    6.067951   5.496930   3.030101   2.196764   1.081738
    23  H    7.108046   7.599465   4.622643   3.239423   3.190186
    24  H    4.718625   5.617816   2.843343   2.136271   3.151690
    25  H    6.263600   5.152800   5.644508   5.700164   5.933199
    26  H    5.862640   4.338536   4.842509   4.996911   5.044817
    27  H    5.263625   4.070472   5.921008   6.561116   7.157101
    28  H    6.553298   4.931266   6.672237   7.161647   7.453514
    29  H    5.345817   3.466322   6.175151   7.113723   7.607928
    30  H    3.918801   2.002443   4.538858   5.531211   6.130544
    31  H    5.428175   3.346113   5.382500   6.134114   6.392732
                   11         12         13         14         15
    11  N    0.000000
    12  C    1.312839   0.000000
    13  N    2.209847   1.359939   0.000000
    14  C    6.122084   6.226641   5.690787   0.000000
    15  C    7.490883   7.573340   6.883465   1.532039   0.000000
    16  N    7.661760   7.843175   7.039984   2.515596   1.484396
    17  H    4.826980   5.095309   4.359846   2.503249   3.209242
    18  H    4.736328   4.222961   3.016021   3.965886   4.666482
    19  H    6.325466   5.782794   4.428572   5.689847   5.918704
    20  H    4.334972   4.053418   2.825872   5.810919   6.484729
    21  H    4.076688   4.309502   3.393258   5.044229   5.725206
    22  H    2.157158   3.168259   3.228780   5.511860   6.664983
    23  H    2.134149   1.075896   2.136317   6.917083   8.297897
    24  H    3.172934   2.114144   1.007724   5.948990   7.046089
    25  H    6.393346   6.427008   6.032991   1.090890   2.151592
    26  H    5.771413   6.103879   5.703775   1.092256   2.165079
    27  H    7.922096   7.827810   7.041663   2.143163   1.093589
    28  H    8.214928   8.374561   7.791130   2.156218   1.092048
    29  H    8.664489   8.824334   7.972459   3.408471   2.087886
    30  H    7.223418   7.326944   6.405316   2.781295   2.105005
    31  H    7.459853   7.810552   7.114878   2.731449   2.074403
                   16         17         18         19         20
    16  N    0.000000
    17  H    2.906328   0.000000
    18  H    4.740673   2.921997   0.000000
    19  H    5.559475   4.304675   2.244571   0.000000
    20  H    6.085121   3.754199   2.524123   2.465934   0.000000
    21  H    5.165609   2.629467   3.067262   3.571119   1.755859
    22  H    6.479980   3.650959   4.631187   5.955861   3.834955
    23  H    8.691318   6.036259   4.909970   6.459607   4.915372
    24  H    7.244963   4.777497   2.775893   3.987884   2.855577
    25  H    3.437606   3.473679   4.524490   6.398990   6.555096
    26  H    2.721547   2.253755   4.403241   6.135600   5.856601
    27  H    2.115705   3.797612   4.552597   5.659030   6.607395
    28  H    2.114642   4.078215   5.718885   7.009174   7.521485
    29  H    1.023300   3.875725   5.520009   6.064222   6.831245
    30  H    1.025712   2.449171   3.974870   4.582397   5.190404
    31  H    1.020298   2.781383   5.154100   6.061349   6.209356
                   21         22         23         24         25
    21  H    0.000000
    22  H    2.760875   0.000000
    23  H    5.345427   4.183262   0.000000
    24  H    3.852365   4.184789   2.524071   0.000000
    25  H    5.910890   6.085554   6.980869   6.254306   0.000000
    26  H    4.805726   4.923031   6.868337   6.135444   1.778884
    27  H    6.122420   7.285623   8.480387   7.048949   2.501261
    28  H    6.661592   7.369449   9.072794   8.000761   2.415537
    29  H    5.969096   7.437982   9.669297   8.124791   4.215657
    30  H    4.393809   6.048695   8.198135   6.553317   3.790640
    31  H    5.033849   6.084662   8.709049   7.453865   3.683705
                   26         27         28         29         30
    26  H    0.000000
    27  H    3.051226   0.000000
    28  H    2.552333   1.760251   0.000000
    29  H    3.669319   2.436580   2.412388   0.000000
    30  H    3.048035   2.450669   2.988812   1.646799   0.000000
    31  H    2.513703   2.967664   2.437753   1.652188   1.646504
                   31
    31  H    0.000000
 Symmetry turned off by external request.
 Stoichiometry    C9H15N4O3(1+)
 Framework group  C1[X(C9H15N4O3)]
 Deg. of freedom    87
 Full point group                 C1      NOp   1
 Rotational constants (GHZ):      0.7596368      0.3268271      0.2692534
 Standard basis: 6-31+G(d,p) (6D, 7F)
   379 basis functions,   617 primitive gaussians,   379 cartesian basis functions
    60 alpha electrons       60 beta electrons
       nuclear repulsion energy      1156.3936016042 Hartrees.
 NAtoms=   31 NActive=   31 NUniq=   31 SFac= 1.00D+00 NAtFMM=   60 NAOKFM=F Big=F
 Integral buffers will be    131072 words long.
 Raffenetti 2 integral format.
 Two-electron integral symmetry is turned off.
 Nuclear repulsion after empirical dispersion term =     1156.3362067588 Hartrees.
 One-electron integrals computed using PRISM.
 NBasis=   379 RedAO= T EigKep=  2.70D-06  NBF=   379
 NBsUse=   379 1.00D-06 EigRej= -1.00D+00 NBFU=   379
 ExpMin= 4.38D-02 ExpMax= 5.48D+03 ExpMxC= 8.25D+02 IAcc=3 IRadAn=         5 AccDes= 0.00D+00
 Harris functional with IExCor=  402 and IRadAn=       5 diagonalized for initial guess.
 HarFok:  IExCor=  402 AccDes= 0.00D+00 IRadAn=         5 IDoV= 1 UseB2=F ITyADJ=14
 ICtDFT=  3500011 ScaDFX=  1.000000  1.000000  1.000000  1.000000
 FoFCou: FMM=F IPFlag=           0 FMFlag=      100000 FMFlg1=           0
         NFxFlg=           0 DoJE=T BraDBF=F KetDBF=T FulRan=T
         wScrn=  0.000000 ICntrl=     500 IOpCl=  0 I1Cent=   200000004 NGrid=           0
         NMat0=    1 NMatS0=      1 NMatT0=    0 NMatD0=    1 NMtDS0=    0 NMtDT0=    0
 Symmetry not used in FoFCou.
 Requested convergence on RMS density matrix=1.00D-08 within 128 cycles.
 Requested convergence on MAX density matrix=1.00D-06.
 Requested convergence on             energy=1.00D-06.
 No special actions if energy rises.
 SCF Done:  E(RB3LYP) =  -796.561718229     A.U. after   15 cycles
            NFock= 15  Conv=0.46D-08     -V/T= 2.0090
 DoSCS=F DFT=T ScalE2(SS,OS)=  1.000000  1.000000
 Range of M.O.s used for correlation:     1   379
 NBasis=   379 NAE=    60 NBE=    60 NFC=     0 NFV=     0
 NROrb=    379 NOA=    60 NOB=    60 NVA=   319 NVB=   319

 **** Warning!!: The largest alpha MO coefficient is  0.12957939D+03

 Symmetrizing basis deriv contribution to polar:
 IMax=3 JMax=2 DiffMx= 0.00D+00
 G2DrvN: will do    32 centers at a time, making    1 passes.
 Calling FoFCou, ICntrl=  3107 FMM=F I1Cent=   0 AccDes= 0.00D+00.
 End of G2Drv F.D. properties file   721 does not exist.
 End of G2Drv F.D. properties file   722 does not exist.
 End of G2Drv F.D. properties file   788 does not exist.
          IDoAtm=1111111111111111111111111111111
          Differentiating once with respect to nuclear coordinates.
          There are    96 degrees of freedom in the 1st order CPHF.  IDoFFX=6 NUNeed=     0.
     90 vectors produced by pass  0 Test12= 1.99D-14 1.04D-09 XBig12= 1.95D-01 8.27D-02.
 AX will form    90 AO Fock derivatives at one time.
     90 vectors produced by pass  1 Test12= 1.99D-14 1.04D-09 XBig12= 2.77D-02 3.23D-02.
     90 vectors produced by pass  2 Test12= 1.99D-14 1.04D-09 XBig12= 2.33D-04 2.29D-03.
     90 vectors produced by pass  3 Test12= 1.99D-14 1.04D-09 XBig12= 7.46D-07 1.04D-04.
     90 vectors produced by pass  4 Test12= 1.99D-14 1.04D-09 XBig12= 1.73D-09 3.26D-06.
     81 vectors produced by pass  5 Test12= 1.99D-14 1.04D-09 XBig12= 2.10D-12 1.32D-07.
     25 vectors produced by pass  6 Test12= 1.99D-14 1.04D-09 XBig12= 2.37D-15 4.56D-09.
      2 vectors produced by pass  7 Test12= 1.99D-14 1.04D-09 XBig12= 1.11D-16 1.56D-09.
 InvSVY:  IOpt=1 It=  1 EMax= 7.22D-16
 Solved reduced A of dimension   558 with    96 vectors.
 End of Minotr F.D. properties file   721 does not exist.
 End of Minotr F.D. properties file   722 does not exist.
 End of Minotr F.D. properties file   788 does not exist.

 **********************************************************************

            Population analysis using the SCF density.

 **********************************************************************

 Alpha  occ. eigenvalues --  -19.35795 -19.31330 -19.27943 -14.65346 -14.52437
 Alpha  occ. eigenvalues --  -14.49761 -14.41397 -10.48508 -10.44897 -10.43588
 Alpha  occ. eigenvalues --  -10.39519 -10.37531 -10.34657 -10.33904 -10.33035
 Alpha  occ. eigenvalues --  -10.30153  -1.27076  -1.20833  -1.19942  -1.19280
 Alpha  occ. eigenvalues --   -1.12173  -1.09444  -0.97868  -0.97249  -0.93972
 Alpha  occ. eigenvalues --   -0.87297  -0.84665  -0.79931  -0.78633  -0.78355
 Alpha  occ. eigenvalues --   -0.77185  -0.75020  -0.71953  -0.71764  -0.69601
 Alpha  occ. eigenvalues --   -0.68927  -0.66298  -0.65089  -0.64267  -0.61601
 Alpha  occ. eigenvalues --   -0.61071  -0.60529  -0.58741  -0.57810  -0.56555
 Alpha  occ. eigenvalues --   -0.55478  -0.54774  -0.54533  -0.53609  -0.52392
 Alpha  occ. eigenvalues --   -0.51800  -0.51315  -0.50618  -0.48474  -0.45130
 Alpha  occ. eigenvalues --   -0.42765  -0.41104  -0.38266  -0.36605  -0.33367
 Alpha virt. eigenvalues --   -0.18595  -0.16252  -0.14993  -0.13660  -0.13172
 Alpha virt. eigenvalues --   -0.11608  -0.10705  -0.09700  -0.08908  -0.08421
 Alpha virt. eigenvalues --   -0.07756  -0.07583  -0.06982  -0.06037  -0.05272
 Alpha virt. eigenvalues --   -0.04915  -0.04342  -0.04018  -0.03841  -0.03457
 Alpha virt. eigenvalues --   -0.03067  -0.02777  -0.01886  -0.01682  -0.01112
 Alpha virt. eigenvalues --   -0.00782  -0.00404   0.00048   0.00113   0.00611
 Alpha virt. eigenvalues --    0.01052   0.01930   0.03079   0.03183   0.03550
 Alpha virt. eigenvalues --    0.04123   0.04527   0.05268   0.05726   0.05805
 Alpha virt. eigenvalues --    0.06012   0.06531   0.06990   0.07151   0.07807
 Alpha virt. eigenvalues --    0.08304   0.08946   0.09272   0.09467   0.09816
 Alpha virt. eigenvalues --    0.10221   0.10925   0.11707   0.12119   0.12236
 Alpha virt. eigenvalues --    0.12468   0.12764   0.12921   0.14324   0.14415
 Alpha virt. eigenvalues --    0.15000   0.15333   0.15769   0.15961   0.17257
 Alpha virt. eigenvalues --    0.17421   0.17923   0.18200   0.18273   0.19294
 Alpha virt. eigenvalues --    0.20112   0.20311   0.20429   0.21059   0.21266
 Alpha virt. eigenvalues --    0.21672   0.22237   0.23183   0.23679   0.24191
 Alpha virt. eigenvalues --    0.24266   0.24458   0.25341   0.25844   0.26031
 Alpha virt. eigenvalues --    0.27094   0.28043   0.28336   0.28912   0.29428
 Alpha virt. eigenvalues --    0.31297   0.31520   0.33070   0.33360   0.34886
 Alpha virt. eigenvalues --    0.36699   0.38879   0.40806   0.41848   0.46777
 Alpha virt. eigenvalues --    0.47016   0.50185   0.51607   0.53880   0.56553
 Alpha virt. eigenvalues --    0.58069   0.58470   0.59565   0.61465   0.62494
 Alpha virt. eigenvalues --    0.63952   0.64647   0.65430   0.66777   0.67402
 Alpha virt. eigenvalues --    0.67992   0.68712   0.69288   0.70843   0.72060
 Alpha virt. eigenvalues --    0.73292   0.73932   0.74881   0.76589   0.77485
 Alpha virt. eigenvalues --    0.78398   0.79547   0.80120   0.80704   0.82340
 Alpha virt. eigenvalues --    0.83310   0.84111   0.85494   0.86239   0.87076
 Alpha virt. eigenvalues --    0.88906   0.89460   0.90431   0.91644   0.92213
 Alpha virt. eigenvalues --    0.92706   0.94114   0.94326   0.95096   0.97071
 Alpha virt. eigenvalues --    0.97812   0.98282   0.99502   1.00961   1.02216
 Alpha virt. eigenvalues --    1.03878   1.04258   1.05919   1.07657   1.09026
 Alpha virt. eigenvalues --    1.10284   1.12021   1.13782   1.15086   1.16784
 Alpha virt. eigenvalues --    1.17492   1.18870   1.19257   1.19951   1.20964
 Alpha virt. eigenvalues --    1.22035   1.22876   1.23759   1.24761   1.25614
 Alpha virt. eigenvalues --    1.26726   1.28449   1.29537   1.30926   1.32595
 Alpha virt. eigenvalues --    1.34811   1.35435   1.35946   1.37802   1.39324
 Alpha virt. eigenvalues --    1.41934   1.43716   1.44636   1.45533   1.46903
 Alpha virt. eigenvalues --    1.50226   1.51584   1.51933   1.56319   1.56481
 Alpha virt. eigenvalues --    1.59735   1.62881   1.64050   1.64394   1.66459
 Alpha virt. eigenvalues --    1.67472   1.68432   1.71265   1.71394   1.73922
 Alpha virt. eigenvalues --    1.74378   1.76673   1.77183   1.78514   1.79558
 Alpha virt. eigenvalues --    1.80934   1.81186   1.82193   1.84995   1.86356
 Alpha virt. eigenvalues --    1.87336   1.87826   1.90059   1.91265   1.92419
 Alpha virt. eigenvalues --    1.93361   1.94738   1.95712   1.97551   1.99168
 Alpha virt. eigenvalues --    1.99706   2.02244   2.03567   2.04392   2.05637
 Alpha virt. eigenvalues --    2.06688   2.07563   2.09010   2.10435   2.11771
 Alpha virt. eigenvalues --    2.12032   2.14693   2.14887   2.17557   2.18767
 Alpha virt. eigenvalues --    2.19650   2.20165   2.23153   2.24475   2.25490
 Alpha virt. eigenvalues --    2.27122   2.27941   2.29413   2.34030   2.35518
 Alpha virt. eigenvalues --    2.35837   2.37086   2.39654   2.41348   2.42927
 Alpha virt. eigenvalues --    2.43221   2.44106   2.46255   2.47002   2.47990
 Alpha virt. eigenvalues --    2.49935   2.51055   2.53438   2.54229   2.54878
 Alpha virt. eigenvalues --    2.55607   2.57736   2.58628   2.59911   2.61661
 Alpha virt. eigenvalues --    2.62541   2.63781   2.65452   2.66365   2.70110
 Alpha virt. eigenvalues --    2.71056   2.72351   2.74112   2.76135   2.76485
 Alpha virt. eigenvalues --    2.78013   2.80029   2.80092   2.84715   2.88705
 Alpha virt. eigenvalues --    2.89402   2.92821   2.94830   2.96325   2.99054
 Alpha virt. eigenvalues --    3.07050   3.08403   3.12499   3.14499   3.15155
 Alpha virt. eigenvalues --    3.16627   3.21181   3.24397   3.24935   3.27556
 Alpha virt. eigenvalues --    3.30874   3.35208   3.37988   3.39988   3.41632
 Alpha virt. eigenvalues --    3.44722   3.48951   3.62614   4.01395   4.11656
 Alpha virt. eigenvalues --    4.13071   4.20827   4.23952   4.25827   4.28267
 Alpha virt. eigenvalues --    4.31287   4.37128   4.40537   4.47638   4.50058
 Alpha virt. eigenvalues --    4.57859   4.61231   4.64626   4.70996
          Condensed to atoms (all electrons):
               1          2          3          4          5          6
     1  O    8.120992   0.544630  -0.222548   0.098675  -0.104676  -0.003992
     2  C    0.544630   6.319254   0.047937   0.109313  -0.368169   0.006024
     3  N   -0.222548   0.047937   8.014569  -1.116685   0.604934   0.037172
     4  C    0.098675   0.109313  -1.116685  14.263315  -4.073717  -0.303366
     5  C   -0.104676  -0.368169   0.604934  -4.073717   8.391177   0.345987
     6  O   -0.003992   0.006024   0.037172  -0.303366   0.345987   8.140485
     7  O    0.001737   0.032870  -0.037334   0.053290   0.425072  -0.120609
     8  C   -0.042780  -0.229035   0.300755  -5.242729   2.920517   0.034720
     9  C    0.037012   0.045271  -0.207798   1.516937  -1.538393   0.000954
    10  C    0.006590   0.044297   0.049100   0.015547  -0.152274   0.004686
    11  N    0.000442   0.004685  -0.001633  -0.034498  -0.012765  -0.000135
    12  C    0.000062   0.009885  -0.011854  -0.008353  -0.060510  -0.001402
    13  N   -0.001712   0.034945   0.005239  -0.026760  -0.028081  -0.003211
    14  C    0.014828  -0.542262  -0.378946   0.260596  -0.315140  -0.005741
    15  C   -0.036536  -0.288010  -0.066931   0.126105  -0.082683  -0.001370
    16  N   -0.000170   0.055004   0.010194  -0.007953   0.019391  -0.001196
    17  H    0.003975  -0.020266   0.265859   0.141511  -0.096752  -0.000544
    18  H   -0.008665   0.042743  -0.075726   0.601154  -0.179195  -0.003278
    19  H   -0.000023   0.007328  -0.000546   0.146959  -0.050744   0.203738
    20  H    0.000677  -0.006477   0.003510  -0.003898   0.028210   0.006799
    21  H   -0.000542   0.015791   0.006028   0.011359  -0.048742  -0.001658
    22  H   -0.000023   0.002100   0.000424  -0.001234   0.004877   0.000000
    23  H   -0.000013   0.000216   0.000258   0.001155   0.000032  -0.000001
    24  H    0.000071  -0.002645  -0.000655   0.024986   0.001429   0.000099
    25  H   -0.004739  -0.006850   0.009739  -0.001774   0.002348  -0.000002
    26  H    0.003373  -0.094897   0.015392   0.025801  -0.004421  -0.000008
    27  H    0.002407  -0.011682   0.004693   0.007929  -0.001422  -0.000014
    28  H    0.000371   0.013047  -0.000721  -0.000119   0.000434   0.000001
    29  H   -0.000312  -0.005083   0.003025  -0.005253   0.001622   0.000035
    30  H    0.000152   0.016290   0.013772  -0.021308   0.016911   0.000793
    31  H    0.000068  -0.007357  -0.005782   0.009917  -0.004599  -0.000021
               7          8          9         10         11         12
     1  O    0.001737  -0.042780   0.037012   0.006590   0.000442   0.000062
     2  C    0.032870  -0.229035   0.045271   0.044297   0.004685   0.009885
     3  N   -0.037334   0.300755  -0.207798   0.049100  -0.001633  -0.011854
     4  C    0.053290  -5.242729   1.516937   0.015547  -0.034498  -0.008353
     5  C    0.425072   2.920517  -1.538393  -0.152274  -0.012765  -0.060510
     6  O   -0.120609   0.034720   0.000954   0.004686  -0.000135  -0.001402
     7  O    8.165606  -0.129749  -0.004833   0.007535   0.000099   0.000107
     8  C   -0.129749  16.216006  -5.947937  -1.164959  -0.059890  -0.110907
     9  C   -0.004833  -5.947937  12.044488  -0.764577  -0.018039   0.241562
    10  C    0.007535  -1.164959  -0.764577   7.967871   0.370899  -0.612172
    11  N    0.000099  -0.059890  -0.018039   0.370899   6.748206   0.373947
    12  C    0.000107  -0.110907   0.241562  -0.612172   0.373947   5.299288
    13  N    0.002254   0.173614  -0.067120  -0.146486  -0.013633   0.152808
    14  C    0.004244  -0.338451   0.111943   0.025909   0.002678   0.009807
    15  C    0.020817  -0.009219   0.013952  -0.012146   0.000417   0.002548
    16  N   -0.034679   0.008315  -0.008173   0.003146  -0.000045  -0.000353
    17  H   -0.001021  -0.138328   0.045440   0.014851   0.000227   0.001039
    18  H    0.005009  -0.175194   0.049015  -0.000313   0.000326   0.001775
    19  H    0.009096  -0.075269  -0.003931  -0.001611  -0.000019   0.000125
    20  H   -0.000264   0.367746  -0.096000   0.028159  -0.002279  -0.007346
    21  H    0.003569   0.454166  -0.142417   0.007936   0.000267  -0.002094
    22  H   -0.000019   0.103382  -0.155351   0.375126  -0.059306   0.025702
    23  H    0.000000   0.022216   0.034502  -0.041381  -0.055090   0.445216
    24  H   -0.000033  -0.104171   0.114307  -0.003748   0.008598  -0.010749
    25  H   -0.000097   0.001315  -0.000973  -0.000199  -0.000009  -0.000044
    26  H   -0.000247  -0.005986   0.002398  -0.001080  -0.000066  -0.000072
    27  H    0.000100  -0.000145  -0.000362  -0.000036   0.000000  -0.000001
    28  H   -0.000094  -0.000299   0.000139  -0.000036   0.000000  -0.000001
    29  H    0.000400   0.000249   0.000117   0.000037   0.000000  -0.000001
    30  H    0.047557   0.000063   0.000434  -0.000161  -0.000001  -0.000008
    31  H    0.000271  -0.000444  -0.000071  -0.000223   0.000000   0.000007
              13         14         15         16         17         18
     1  O   -0.001712   0.014828  -0.036536  -0.000170   0.003975  -0.008665
     2  C    0.034945  -0.542262  -0.288010   0.055004  -0.020266   0.042743
     3  N    0.005239  -0.378946  -0.066931   0.010194   0.265859  -0.075726
     4  C   -0.026760   0.260596   0.126105  -0.007953   0.141511   0.601154
     5  C   -0.028081  -0.315140  -0.082683   0.019391  -0.096752  -0.179195
     6  O   -0.003211  -0.005741  -0.001370  -0.001196  -0.000544  -0.003278
     7  O    0.002254   0.004244   0.020817  -0.034679  -0.001021   0.005009
     8  C    0.173614  -0.338451  -0.009219   0.008315  -0.138328  -0.175194
     9  C   -0.067120   0.111943   0.013952  -0.008173   0.045440   0.049015
    10  C   -0.146486   0.025909  -0.012146   0.003146   0.014851  -0.000313
    11  N   -0.013633   0.002678   0.000417  -0.000045   0.000227   0.000326
    12  C    0.152808   0.009807   0.002548  -0.000353   0.001039   0.001775
    13  N    7.059622  -0.007848   0.001834  -0.000168   0.000811   0.007523
    14  C   -0.007848   6.424995   0.313175  -0.111041   0.057562   0.017961
    15  C    0.001834   0.313175   5.475141  -0.011413  -0.008266  -0.001106
    16  N   -0.000168  -0.111041  -0.011413   6.942970   0.008780   0.000328
    17  H    0.000811   0.057562  -0.008266   0.008780   0.417151   0.005234
    18  H    0.007523   0.017961  -0.001106   0.000328   0.005234   0.509116
    19  H    0.000023   0.001550   0.000089   0.000137   0.000007   0.000263
    20  H   -0.010593   0.000557  -0.000024   0.000004  -0.000100  -0.004025
    21  H    0.010184   0.002082  -0.000404   0.000024   0.002301   0.004342
    22  H    0.006880  -0.001125  -0.000087   0.000000  -0.000057  -0.000007
    23  H   -0.098504   0.000090  -0.000003   0.000000   0.000000   0.000003
    24  H    0.253744   0.000016  -0.000027   0.000000  -0.000001  -0.000320
    25  H   -0.000038   0.349753  -0.009627   0.006389   0.000038  -0.000003
    26  H   -0.000092   0.404819  -0.035557   0.001822  -0.001098  -0.000039
    27  H    0.000000  -0.061065   0.428841  -0.037022  -0.000028  -0.000013
    28  H    0.000000  -0.039043   0.390618  -0.029290  -0.000018   0.000000
    29  H   -0.000001   0.022331  -0.016342   0.296135   0.000027   0.000001
    30  H   -0.000024  -0.018907  -0.019896   0.256524  -0.001857  -0.000019
    31  H    0.000002  -0.007459  -0.008082   0.312940  -0.000247  -0.000002
              19         20         21         22         23         24
     1  O   -0.000023   0.000677  -0.000542  -0.000023  -0.000013   0.000071
     2  C    0.007328  -0.006477   0.015791   0.002100   0.000216  -0.002645
     3  N   -0.000546   0.003510   0.006028   0.000424   0.000258  -0.000655
     4  C    0.146959  -0.003898   0.011359  -0.001234   0.001155   0.024986
     5  C   -0.050744   0.028210  -0.048742   0.004877   0.000032   0.001429
     6  O    0.203738   0.006799  -0.001658   0.000000  -0.000001   0.000099
     7  O    0.009096  -0.000264   0.003569  -0.000019   0.000000  -0.000033
     8  C   -0.075269   0.367746   0.454166   0.103382   0.022216  -0.104171
     9  C   -0.003931  -0.096000  -0.142417  -0.155351   0.034502   0.114307
    10  C   -0.001611   0.028159   0.007936   0.375126  -0.041381  -0.003748
    11  N   -0.000019  -0.002279   0.000267  -0.059306  -0.055090   0.008598
    12  C    0.000125  -0.007346  -0.002094   0.025702   0.445216  -0.010749
    13  N    0.000023  -0.010593   0.010184   0.006880  -0.098504   0.253744
    14  C    0.001550   0.000557   0.002082  -0.001125   0.000090   0.000016
    15  C    0.000089  -0.000024  -0.000404  -0.000087  -0.000003  -0.000027
    16  N    0.000137   0.000004   0.000024   0.000000   0.000000   0.000000
    17  H    0.000007  -0.000100   0.002301  -0.000057   0.000000  -0.000001
    18  H    0.000263  -0.004025   0.004342  -0.000007   0.000003  -0.000320
    19  H    0.392597   0.000679   0.000040   0.000000   0.000000  -0.000028
    20  H    0.000679   0.544577  -0.023596  -0.000078  -0.000004   0.001056
    21  H    0.000040  -0.023596   0.522294   0.001779   0.000004  -0.000063
    22  H    0.000000  -0.000078   0.001779   0.567175  -0.000035  -0.000087
    23  H    0.000000  -0.000004   0.000004  -0.000035   0.536536   0.000183
    24  H   -0.000028   0.001056  -0.000063  -0.000087   0.000183   0.422693
    25  H    0.000000   0.000000   0.000000   0.000000   0.000000   0.000000
    26  H    0.000000   0.000000   0.000001  -0.000001   0.000000   0.000000
    27  H    0.000000   0.000000   0.000000   0.000000   0.000000   0.000000
    28  H    0.000000   0.000000   0.000000   0.000000   0.000000   0.000000
    29  H    0.000000   0.000000   0.000000   0.000000   0.000000   0.000000
    30  H   -0.000030   0.000000   0.000007   0.000000   0.000000   0.000000
    31  H    0.000000   0.000000  -0.000001   0.000000   0.000000   0.000000
              25         26         27         28         29         30
     1  O   -0.004739   0.003373   0.002407   0.000371  -0.000312   0.000152
     2  C   -0.006850  -0.094897  -0.011682   0.013047  -0.005083   0.016290
     3  N    0.009739   0.015392   0.004693  -0.000721   0.003025   0.013772
     4  C   -0.001774   0.025801   0.007929  -0.000119  -0.005253  -0.021308
     5  C    0.002348  -0.004421  -0.001422   0.000434   0.001622   0.016911
     6  O   -0.000002  -0.000008  -0.000014   0.000001   0.000035   0.000793
     7  O   -0.000097  -0.000247   0.000100  -0.000094   0.000400   0.047557
     8  C    0.001315  -0.005986  -0.000145  -0.000299   0.000249   0.000063
     9  C   -0.000973   0.002398  -0.000362   0.000139   0.000117   0.000434
    10  C   -0.000199  -0.001080  -0.000036  -0.000036   0.000037  -0.000161
    11  N   -0.000009  -0.000066   0.000000   0.000000   0.000000  -0.000001
    12  C   -0.000044  -0.000072  -0.000001  -0.000001  -0.000001  -0.000008
    13  N   -0.000038  -0.000092   0.000000   0.000000  -0.000001  -0.000024
    14  C    0.349753   0.404819  -0.061065  -0.039043   0.022331  -0.018907
    15  C   -0.009627  -0.035557   0.428841   0.390618  -0.016342  -0.019896
    16  N    0.006389   0.001822  -0.037022  -0.029290   0.296135   0.256524
    17  H    0.000038  -0.001098  -0.000028  -0.000018   0.000027  -0.001857
    18  H   -0.000003  -0.000039  -0.000013   0.000000   0.000001  -0.000019
    19  H    0.000000   0.000000   0.000000   0.000000   0.000000  -0.000030
    20  H    0.000000   0.000000   0.000000   0.000000   0.000000   0.000000
    21  H    0.000000   0.000001   0.000000   0.000000   0.000000   0.000007
    22  H    0.000000  -0.000001   0.000000   0.000000   0.000000   0.000000
    23  H    0.000000   0.000000   0.000000   0.000000   0.000000   0.000000
    24  H    0.000000   0.000000   0.000000   0.000000   0.000000   0.000000
    25  H    0.446258  -0.016674  -0.001510  -0.004576  -0.000093  -0.000058
    26  H   -0.016674   0.528712   0.004146  -0.003480  -0.000069  -0.000813
    27  H   -0.001510   0.004146   0.454875  -0.023387  -0.002214  -0.004013
    28  H   -0.004576  -0.003480  -0.023387   0.486934  -0.002847   0.003502
    29  H   -0.000093  -0.000069  -0.002214  -0.002847   0.326219  -0.012182
    30  H   -0.000058  -0.000813  -0.004013   0.003502  -0.012182   0.288239
    31  H   -0.000015   0.003684   0.003869  -0.004273  -0.014379  -0.017731
              31
     1  O    0.000068
     2  C   -0.007357
     3  N   -0.005782
     4  C    0.009917
     5  C   -0.004599
     6  O   -0.000021
     7  O    0.000271
     8  C   -0.000444
     9  C   -0.000071
    10  C   -0.000223
    11  N    0.000000
    12  C    0.000007
    13  N    0.000002
    14  C   -0.007459
    15  C   -0.008082
    16  N    0.312940
    17  H   -0.000247
    18  H   -0.000002
    19  H    0.000000
    20  H    0.000000
    21  H   -0.000001
    22  H    0.000000
    23  H    0.000000
    24  H    0.000000
    25  H   -0.000015
    26  H    0.003684
    27  H    0.003869
    28  H   -0.004273
    29  H   -0.014379
    30  H   -0.017731
    31  H    0.334736
 Mulliken charges:
               1
     1  O   -0.409329
     2  C    0.231104
     3  N   -0.265445
     4  C   -0.566904
     5  C    0.359341
     6  O   -0.334946
     7  O   -0.450652
     8  C   -0.827571
     9  C    0.697508
    10  C   -0.020286
    11  N   -0.253383
    12  C    0.261988
    13  N   -0.305212
    14  C   -0.197866
    15  C   -0.165808
    16  N   -0.680599
    17  H    0.303770
    18  H    0.203111
    19  H    0.369569
    20  H    0.172710
    21  H    0.177344
    22  H    0.129966
    23  H    0.154620
    24  H    0.295346
    25  H    0.231441
    26  H    0.174453
    27  H    0.236054
    28  H    0.213137
    29  H    0.408579
    30  H    0.452767
    31  H    0.405192
 Sum of Mulliken charges =   1.00000
 Mulliken charges with hydrogens summed into heavy atoms:
               1
     1  O   -0.409329
     2  C    0.231104
     3  N    0.038326
     4  C   -0.363793
     5  C    0.359341
     6  O    0.034623
     7  O   -0.450652
     8  C   -0.477517
     9  C    0.697508
    10  C    0.109681
    11  N   -0.253383
    12  C    0.416608
    13  N   -0.009866
    14  C    0.208028
    15  C    0.283383
    16  N    0.585939
 APT charges:
               1
     1  O   -0.316416
     2  C    0.269020
     3  N   -0.261296
     4  C   -0.659423
     5  C   -0.283343
     6  O   -0.254542
     7  O   -0.278309
     8  C   -1.202068
     9  C   -0.085820
    10  C    0.012822
    11  N   -0.381153
    12  C   -0.288470
    13  N   -0.589473
    14  C   -0.806764
    15  C   -1.236154
    16  N   -1.097923
    17  H    0.479483
    18  H    0.421502
    19  H    0.585207
    20  H    0.582429
    21  H    0.379364
    22  H    0.412890
    23  H    0.978713
    24  H    0.532620
    25  H    0.663001
    26  H    0.294100
    27  H    0.448124
    28  H    0.869068
    29  H    1.132275
    30  H    0.153692
    31  H    0.526843
 Sum of APT charges =   1.00000
 APT charges with hydrogens summed into heavy atoms:
               1
     1  O   -0.316416
     2  C    0.269020
     3  N    0.218186
     4  C   -0.237921
     5  C   -0.283343
     6  O    0.330665
     7  O   -0.278309
     8  C   -0.240275
     9  C   -0.085820
    10  C    0.425712
    11  N   -0.381153
    12  C    0.690243
    13  N   -0.056853
    14  C    0.150336
    15  C    0.081038
    16  N    0.714886
 Electronic spatial extent (au):  <R**2>=           4194.2047
 Charge=              1.0000 electrons
 Dipole moment (field-independent basis, Debye):
    X=             10.3251    Y=             -3.3071    Z=             -2.0475  Tot=             11.0335
 Quadrupole moment (field-independent basis, Debye-Ang):
   XX=            -57.6300   YY=            -89.8705   ZZ=            -70.9412
   XY=            -11.1281   XZ=            -37.4941   YZ=             11.5739
 Traceless Quadrupole moment (field-independent basis, Debye-Ang):
   XX=             15.1839   YY=            -17.0566   ZZ=              1.8727
   XY=            -11.1281   XZ=            -37.4941   YZ=             11.5739
 Octapole moment (field-independent basis, Debye-Ang**2):
  XXX=            310.2294  YYY=             -5.9642  ZZZ=            -29.8130  XYY=             21.3952
  XXY=            -38.9209  XXZ=            -35.7353  XZZ=             49.2169  YZZ=             -6.4995
  YYZ=            -36.4993  XYZ=             -7.3865
 Hexadecapole moment (field-independent basis, Debye-Ang**3):
 XXXX=          -3180.9091 YYYY=           -935.7380 ZZZZ=           -855.0572 XXXY=            116.8016
 XXXZ=           -242.0803 YYYX=            212.9388 YYYZ=            211.6959 ZZZX=             24.8442
 ZZZY=            212.7124 XXYY=           -581.3984 XXZZ=           -680.3861 YYZZ=           -321.8711
 XXYZ=            196.2786 YYXZ=            -55.3154 ZZXY=            105.1871
 N-N= 1.156336206759D+03 E-N=-4.151653097305D+03  KE= 7.894873021557D+02
  Exact polarizability:   0.000   0.000   0.000   0.000   0.000   0.000
 Approx polarizability: 188.314 -17.026 200.156  11.425  16.773 211.243
 Calling FoFJK, ICntrl=    100147 FMM=F ISym2X=0 I1Cent= 0 IOpClX= 0 NMat=1 NMatS=1 NMatT=0.
 -------------------------------------------------------------------
 Center     Atomic                   Forces (Hartrees/Bohr)
 Number     Number              X              Y              Z
 -------------------------------------------------------------------
      1        8           0.005158733    0.002248194    0.001493490
      2        6          -0.006384982    0.003667461    0.003734872
      3        7           0.003401686   -0.005348281    0.006557930
      4        6           0.001605907    0.002065791   -0.002737010
      5        6          -0.011739821    0.015376262    0.023707021
      6        8           0.001782006   -0.004089559   -0.011347854
      7        8           0.023150021   -0.012649894   -0.019744800
      8        6          -0.013218329    0.006022594   -0.003791119
      9        6           0.007776701   -0.006264415    0.005458178
     10        6          -0.003492397    0.000220494   -0.010775902
     11        7           0.001469741   -0.005520322   -0.002210093
     12        6          -0.003290395    0.003347252   -0.002980783
     13        7           0.005950350    0.000953819    0.009945454
     14        6           0.000729327   -0.005866564   -0.001385600
     15        6           0.005286097    0.030364176   -0.002788950
     16        7           0.004472630   -0.005288701   -0.001847228
     17        1          -0.007573297   -0.003264823   -0.005485595
     18        1          -0.001381511    0.002689399    0.001957369
     19        1          -0.002538985    0.002973416    0.006128021
     20        1          -0.000788062   -0.002371136    0.002203111
     21        1          -0.000602242   -0.003210371   -0.000476674
     22        1          -0.001456701    0.000161001   -0.000132874
     23        1          -0.001951847    0.003149675    0.000237034
     24        1          -0.000866940    0.001414475    0.001880109
     25        1           0.002315559   -0.000559569   -0.002048321
     26        1          -0.001751649    0.001737528   -0.004411819
     27        1           0.001369636   -0.005343532    0.001587630
     28        1           0.000769713   -0.005841829   -0.000451638
     29        1           0.001582825   -0.001416274   -0.000387258
     30        1          -0.009363193   -0.005153095    0.010891020
     31        1          -0.000420584   -0.004203172   -0.002777719
 -------------------------------------------------------------------
 Cartesian Forces:  Max     0.030364176 RMS     0.007092103
 FormGI is forming the generalized inverse of G from B-inverse, IUseBI=4.

 GradGradGradGradGradGradGradGradGradGradGradGradGradGradGradGradGradGrad
 Berny optimization.
 Internal  Forces:  Max     0.031859495 RMS     0.005166516
 Search for a local minimum.
 Step number   1 out of a maximum of  167
 All quantities printed in internal units (Hartrees-Bohrs-Radians)
 Mixed Optimization -- RFO/linear search
 Second derivative matrix not updated -- analytic derivatives used.
 ITU=  0
     Eigenvalues ---   -0.00116   0.00070   0.00220   0.00271   0.00354
     Eigenvalues ---    0.00428   0.00606   0.00702   0.00845   0.01005
     Eigenvalues ---    0.01184   0.02054   0.02545   0.03010   0.03647
     Eigenvalues ---    0.03970   0.03994   0.04048   0.04144   0.04297
     Eigenvalues ---    0.04548   0.04921   0.04967   0.05135   0.05320
     Eigenvalues ---    0.05691   0.05817   0.06102   0.06329   0.07644
     Eigenvalues ---    0.07894   0.08272   0.10421   0.10874   0.11032
     Eigenvalues ---    0.11114   0.11823   0.12070   0.12954   0.13449
     Eigenvalues ---    0.14528   0.14797   0.16532   0.16633   0.17091
     Eigenvalues ---    0.18739   0.19699   0.20413   0.21346   0.23184
     Eigenvalues ---    0.23333   0.23914   0.24061   0.25006   0.25487
     Eigenvalues ---    0.26817   0.28754   0.30942   0.32308   0.33031
     Eigenvalues ---    0.33913   0.33975   0.34203   0.34433   0.34558
     Eigenvalues ---    0.34947   0.34980   0.35098   0.35217   0.37284
     Eigenvalues ---    0.38116   0.38497   0.39782   0.41948   0.43653
     Eigenvalues ---    0.44020   0.44436   0.45691   0.45839   0.48182
     Eigenvalues ---    0.48338   0.48904   0.53896   0.54828   0.59925
     Eigenvalues ---    0.84636   0.93585
 RFO step:  Lambda=-2.00789420D-02 EMin=-1.15554020D-03
 Linear search not attempted -- first point.
 Iteration  1 RMS(Cart)=  0.17148324 RMS(Int)=  0.04286545
 Iteration  2 RMS(Cart)=  0.15741003 RMS(Int)=  0.00838972
 Iteration  3 RMS(Cart)=  0.03568527 RMS(Int)=  0.00062224
 Iteration  4 RMS(Cart)=  0.00068587 RMS(Int)=  0.00057870
 Iteration  5 RMS(Cart)=  0.00000037 RMS(Int)=  0.00057870
 Variable       Old X    -DE/DX   Delta X   Delta X   Delta X     New X
                                 (Linear)    (Quad)   (Total)
    R1        2.30708   0.00343   0.00000   0.00378   0.00378   2.31086
    R2        2.58272   0.00561   0.00000   0.01945   0.01945   2.60217
    R3        2.85358   0.00574   0.00000   0.01980   0.01980   2.87338
    R4        2.73837  -0.00365   0.00000   0.00115   0.00115   2.73952
    R5        1.90091   0.00539   0.00000   0.01132   0.01132   1.91223
    R6        2.88261   0.00473   0.00000   0.02244   0.02244   2.90505
    R7        2.89781   0.01055   0.00000   0.03156   0.03156   2.92937
    R8        2.05793   0.00324   0.00000   0.00629   0.00629   2.06422
    R9        2.54181  -0.00508   0.00000  -0.04639  -0.04639   2.49542
   R10        2.27182   0.03186   0.00000   0.05087   0.05087   2.32268
   R11        1.82188   0.00598   0.00000   0.01234   0.01234   1.83422
   R12        2.83516  -0.00490   0.00000  -0.02094  -0.02094   2.81422
   R13        2.06551   0.00286   0.00000   0.00804   0.00804   2.07355
   R14        2.06104   0.00295   0.00000   0.00952   0.00952   2.07056
   R15        2.58279   0.00969   0.00000   0.01809   0.01807   2.60086
   R16        2.60654   0.00717   0.00000   0.01268   0.01271   2.61925
   R17        2.61234  -0.00297   0.00000  -0.01340  -0.01344   2.59890
   R18        2.04419  -0.00009   0.00000   0.00007   0.00007   2.04426
   R19        2.48091   0.00498   0.00000   0.00485   0.00484   2.48574
   R20        2.56991   0.00904   0.00000   0.02019   0.02022   2.59014
   R21        2.03315   0.00364   0.00000   0.00852   0.00852   2.04167
   R22        1.90432   0.00190   0.00000   0.00354   0.00354   1.90786
   R23        2.89513   0.00244   0.00000   0.00625   0.00625   2.90138
   R24        2.06148   0.00039   0.00000   0.00248   0.00248   2.06397
   R25        2.06407   0.00334   0.00000   0.00708   0.00708   2.07115
   R26        2.80510   0.01703   0.00000   0.04933   0.04933   2.85443
   R27        2.06658  -0.00033   0.00000  -0.00295  -0.00295   2.06364
   R28        2.06367  -0.00014   0.00000  -0.00127  -0.00127   2.06240
   R29        1.93376   0.00198   0.00000   0.00093   0.00093   1.93468
   R30        1.93832   0.01506   0.00000   0.07061   0.07061   2.00893
   R31        1.92808   0.00417   0.00000   0.00531   0.00531   1.93339
    A1        2.13945   0.00751   0.00000  -0.00313  -0.00443   2.13503
    A2        2.13949  -0.00168   0.00000  -0.03086  -0.03202   2.10748
    A3        2.00383  -0.00601   0.00000   0.03152   0.03030   2.03412
    A4        2.07065   0.00050   0.00000  -0.07710  -0.08017   1.99048
    A5        2.02501   0.00180   0.00000  -0.00828  -0.01168   2.01333
    A6        2.01038  -0.00407   0.00000   0.00765   0.00382   2.01420
    A7        1.91787  -0.01567   0.00000  -0.02789  -0.02783   1.89004
    A8        1.95177   0.00072   0.00000  -0.00962  -0.00939   1.94237
    A9        1.84275   0.00597   0.00000   0.03139   0.03111   1.87387
   A10        1.90276   0.01334   0.00000   0.03818   0.03824   1.94100
   A11        1.90159  -0.00073   0.00000  -0.03047  -0.03034   1.87125
   A12        1.94603  -0.00444   0.00000  -0.00400  -0.00382   1.94221
   A13        2.02911   0.00850   0.00000   0.04116   0.04114   2.07025
   A14        2.15222  -0.00810   0.00000  -0.01200  -0.01203   2.14019
   A15        2.10150  -0.00033   0.00000  -0.02884  -0.02886   2.07263
   A16        1.92222   0.00750   0.00000   0.04235   0.04235   1.96457
   A17        1.97751  -0.00240   0.00000  -0.00290  -0.00293   1.97458
   A18        1.89972   0.00097   0.00000  -0.00062  -0.00067   1.89905
   A19        1.90088   0.00090   0.00000   0.00003   0.00001   1.90089
   A20        1.92933   0.00164   0.00000   0.02008   0.02008   1.94941
   A21        1.88479   0.00018   0.00000  -0.00214  -0.00212   1.88267
   A22        1.86827  -0.00127   0.00000  -0.01558  -0.01557   1.85270
   A23        2.29881  -0.00253   0.00000  -0.01664  -0.01667   2.28214
   A24        2.16010   0.00123   0.00000   0.01325   0.01322   2.17332
   A25        1.82382   0.00129   0.00000   0.00349   0.00354   1.82736
   A26        1.93881  -0.00084   0.00000  -0.00208  -0.00213   1.93668
   A27        2.21999   0.00154   0.00000   0.00677   0.00673   2.22673
   A28        2.12430  -0.00069   0.00000  -0.00449  -0.00453   2.11977
   A29        1.83290   0.00317   0.00000   0.00899   0.00898   1.84188
   A30        1.94657   0.00013   0.00000  -0.00015  -0.00010   1.94647
   A31        2.20483  -0.00081   0.00000  -0.00396  -0.00399   2.20083
   A32        2.13178   0.00069   0.00000   0.00410   0.00406   2.13585
   A33        1.88266  -0.00375   0.00000  -0.01024  -0.01029   1.87238
   A34        2.20428   0.00323   0.00000   0.01488   0.01467   2.21895
   A35        2.19624   0.00051   0.00000  -0.00467  -0.00486   2.19137
   A36        1.91890  -0.01449   0.00000  -0.05043  -0.05043   1.86847
   A37        1.87545   0.00719   0.00000   0.02272   0.02153   1.89697
   A38        1.93936   0.00370   0.00000   0.03209   0.03230   1.97166
   A39        1.90365   0.00118   0.00000  -0.02324  -0.02321   1.88044
   A40        1.92073   0.00563   0.00000   0.02986   0.03041   1.95115
   A41        1.90486  -0.00316   0.00000  -0.01214  -0.01234   1.89252
   A42        1.97234  -0.00551   0.00000  -0.01221  -0.01211   1.96023
   A43        1.88954   0.00445   0.00000   0.01589   0.01513   1.90467
   A44        1.90879   0.00487   0.00000   0.03706   0.03673   1.94552
   A45        1.90888  -0.00299   0.00000  -0.03748  -0.03752   1.87136
   A46        1.90900  -0.00080   0.00000  -0.02497  -0.02481   1.88419
   A47        1.87261   0.00029   0.00000   0.02403   0.02280   1.89541
   A48        1.94437  -0.00036   0.00000  -0.01354  -0.01351   1.93086
   A49        1.96713   0.00218   0.00000   0.02566   0.02557   1.99270
   A50        1.92785   0.00255   0.00000   0.00798   0.00782   1.93568
   A51        1.86699  -0.00056   0.00000  -0.00015  -0.00009   1.86690
   A52        1.88309  -0.00194   0.00000  -0.01527  -0.01530   1.86780
   A53        1.87047  -0.00220   0.00000  -0.00631  -0.00655   1.86391
    D1       -0.33803  -0.00397   0.00000  -0.07819  -0.07687  -0.41490
    D2       -2.84661   0.00027   0.00000   0.04114   0.04068  -2.80593
    D3        2.77341  -0.01087   0.00000  -0.16922  -0.16875   2.60466
    D4        0.26483  -0.00663   0.00000  -0.04989  -0.05121   0.21363
    D5        1.39888  -0.00369   0.00000  -0.22205  -0.22176   1.17712
    D6       -0.67083  -0.00126   0.00000  -0.17940  -0.17873  -0.84955
    D7       -2.75359  -0.00400   0.00000  -0.19723  -0.19719  -2.95078
    D8       -1.71256   0.00304   0.00000  -0.13155  -0.13193  -1.84449
    D9        2.50092   0.00547   0.00000  -0.08890  -0.08890   2.41202
   D10        0.41816   0.00273   0.00000  -0.10674  -0.10736   0.31080
   D11       -1.51309   0.00886   0.00000   0.48113   0.48109  -1.03201
   D12        2.65453   0.00226   0.00000   0.45836   0.45805   3.11259
   D13        0.53507   0.00345   0.00000   0.44865   0.44816   0.98323
   D14        1.00061   0.00669   0.00000   0.35753   0.35804   1.35864
   D15       -1.11495   0.00009   0.00000   0.33475   0.33500  -0.77995
   D16        3.04877   0.00128   0.00000   0.32504   0.32511  -2.90931
   D17        2.76409   0.00127   0.00000   0.02795   0.02827   2.79236
   D18       -0.40654   0.00390   0.00000   0.04025   0.04059  -0.36594
   D19       -1.37439   0.00079   0.00000   0.02298   0.02298  -1.35140
   D20        1.73817   0.00342   0.00000   0.03527   0.03531   1.77348
   D21        0.75296   0.00316   0.00000   0.02282   0.02246   0.77542
   D22       -2.41767   0.00578   0.00000   0.03512   0.03478  -2.38288
   D23       -1.00531  -0.00402   0.00000   0.00464   0.00465  -1.00066
   D24        3.12384  -0.00519   0.00000  -0.01882  -0.01879   3.10505
   D25        1.09262  -0.00472   0.00000   0.00007   0.00009   1.09271
   D26       -3.12959   0.00613   0.00000   0.01993   0.01999  -3.10960
   D27        0.99956   0.00495   0.00000  -0.00353  -0.00345   0.99611
   D28       -1.03166   0.00543   0.00000   0.01537   0.01543  -1.01623
   D29        1.05338   0.00105   0.00000   0.03528   0.03519   1.08858
   D30       -1.10065  -0.00012   0.00000   0.01183   0.01175  -1.08890
   D31       -3.13187   0.00035   0.00000   0.03072   0.03063  -3.10124
   D32       -0.05120   0.00084   0.00000  -0.02585  -0.02590  -0.07710
   D33        3.11852  -0.00156   0.00000  -0.03802  -0.03798   3.08054
   D34        1.89691  -0.00042   0.00000  -0.03320  -0.03320   1.86371
   D35       -1.20687  -0.00041   0.00000  -0.03768  -0.03772  -1.24459
   D36       -2.24859   0.00035   0.00000  -0.02104  -0.02099  -2.26958
   D37        0.93082   0.00036   0.00000  -0.02553  -0.02551   0.90531
   D38       -0.21014  -0.00016   0.00000  -0.02991  -0.02990  -0.24005
   D39        2.96926  -0.00015   0.00000  -0.03440  -0.03443   2.93484
   D40       -3.10602  -0.00020   0.00000  -0.00762  -0.00765  -3.11367
   D41        0.02211   0.00057   0.00000   0.00964   0.00968   0.03179
   D42        0.00311  -0.00019   0.00000  -0.00351  -0.00354  -0.00043
   D43        3.13124   0.00058   0.00000   0.01375   0.01379  -3.13816
   D44        3.11193  -0.00003   0.00000   0.00584   0.00593   3.11786
   D45       -0.03073  -0.00036   0.00000  -0.02503  -0.02517  -0.05591
   D46       -0.00051   0.00006   0.00000   0.00284   0.00284   0.00234
   D47        3.14001  -0.00028   0.00000  -0.02803  -0.02826   3.11175
   D48       -0.00454   0.00026   0.00000   0.00281   0.00283  -0.00171
   D49       -3.13352  -0.00049   0.00000  -0.01345  -0.01337   3.13630
   D50        0.00417  -0.00021   0.00000  -0.00090  -0.00092   0.00326
   D51       -3.13436   0.00010   0.00000   0.00491   0.00481  -3.12955
   D52       -0.00240   0.00011   0.00000  -0.00122  -0.00122  -0.00362
   D53        3.14027   0.00044   0.00000   0.02946   0.02924  -3.11368
   D54        3.13628  -0.00019   0.00000  -0.00676  -0.00671   3.12957
   D55       -0.00424   0.00014   0.00000   0.02391   0.02375   0.01951
   D56        1.22070  -0.00274   0.00000  -0.02702  -0.02743   1.19328
   D57       -0.89644   0.00149   0.00000   0.01711   0.01705  -0.87939
   D58       -2.93151  -0.00399   0.00000  -0.04061  -0.04133  -2.97284
   D59       -3.01022  -0.00173   0.00000  -0.04245  -0.04207  -3.05229
   D60        1.15582   0.00249   0.00000   0.00168   0.00240   1.15823
   D61       -0.87925  -0.00299   0.00000  -0.05603  -0.05597  -0.93522
   D62       -0.92104  -0.00147   0.00000  -0.05357  -0.05357  -0.97460
   D63       -3.03818   0.00276   0.00000  -0.00944  -0.00909  -3.04728
   D64        1.20993  -0.00272   0.00000  -0.06715  -0.06747   1.14246
   D65        3.11993   0.00061   0.00000   0.02582   0.02573  -3.13753
   D66       -1.06437   0.00115   0.00000   0.03388   0.03369  -1.03069
   D67        1.02732   0.00158   0.00000   0.04859   0.04853   1.07586
   D68       -1.05708   0.00053   0.00000   0.01164   0.01170  -1.04538
   D69        1.04180   0.00107   0.00000   0.01970   0.01966   1.06146
   D70        3.13350   0.00150   0.00000   0.03442   0.03451  -3.11518
   D71        0.98908  -0.00131   0.00000   0.00463   0.00474   0.99382
   D72        3.08796  -0.00077   0.00000   0.01269   0.01269   3.10066
   D73       -1.10352  -0.00034   0.00000   0.02741   0.02754  -1.07598
         Item               Value     Threshold  Converged?
 Maximum Force            0.031859     0.000450     NO 
 RMS     Force            0.005167     0.000300     NO 
 Maximum Displacement     1.059207     0.001800     NO 
 RMS     Displacement     0.300849     0.001200     NO 
 Predicted change in Energy=-1.789034D-02
 GradGradGradGradGradGradGradGradGradGradGradGradGradGradGradGradGradGrad

                          Input orientation:                          
 ---------------------------------------------------------------------
 Center     Atomic      Atomic             Coordinates (Angstroms)
 Number     Number       Type             X           Y           Z
 ---------------------------------------------------------------------
      1          8           0        1.740837    1.627744    0.679964
      2          6           0        1.293701    1.087368   -0.321752
      3          7           0        0.099735    0.401375   -0.317682
      4          6           0       -0.294461   -0.090530    0.987784
      5          6           0        0.808631   -1.029156    1.502965
      6          8           0        0.874354   -1.276726    2.798401
      7          8           0        1.620081   -1.571030    0.755547
      8          6           0       -1.663671   -0.814742    0.926473
      9          6           0       -2.756334    0.043958    0.391209
     10          6           0       -3.403358    0.021872   -0.823334
     11          7           0       -4.333630    1.031590   -0.903686
     12          6           0       -4.263803    1.667157    0.245860
     13          7           0       -3.320250    1.112286    1.070772
     14          6           0        2.119786    1.006127   -1.595719
     15          6           0        3.300914    0.068497   -1.307502
     16          7           0        2.862077   -1.363804   -1.113716
     17          1           0       -0.029897   -0.247378   -1.083365
     18          1           0       -0.329806    0.767756    1.662543
     19          1           0        0.228820   -0.762320    3.309079
     20          1           0       -1.904099   -1.201878    1.924637
     21          1           0       -1.573538   -1.690070    0.273619
     22          1           0       -3.249250   -0.670030   -1.640500
     23          1           0       -4.863036    2.516261    0.541189
     24          1           0       -3.108051    1.418113    2.009241
     25          1           0        2.526240    1.996324   -1.813006
     26          1           0        1.537632    0.672650   -2.462388
     27          1           0        3.791348    0.384101   -0.384248
     28          1           0        4.033977    0.089373   -2.115762
     29          1           0        3.667839   -1.964829   -0.919646
     30          1           0        2.171815   -1.503672   -0.317402
     31          1           0        2.414993   -1.726282   -1.959571
 ---------------------------------------------------------------------
                    Distance matrix (angstroms):
                    1          2          3          4          5
     1  O    0.000000
     2  C    1.222853   0.000000
     3  N    2.278704   1.377011   0.000000
     4  C    2.681352   2.371620   1.449690   0.000000
     5  C    2.933506   2.836293   2.421510   1.537285   0.000000
     6  O    3.697907   3.937023   3.622987   2.459985   1.320517
     7  O    3.201945   2.886898   2.711763   2.431314   1.229110
     8  C    4.197282   3.731238   2.477189   1.550155   2.547665
     9  C    4.776641   4.242617   2.964355   2.536693   3.885429
    10  C    5.594771   4.842441   3.559686   3.599726   4.925158
    11  N    6.305750   5.657615   4.516115   4.599097   6.039991
    12  C    6.020440   5.616421   4.578236   4.404043   5.880477
    13  N    5.102257   4.819573   3.758922   3.257154   4.671213
    14  C    2.389298   1.520530   2.465707   3.702125   3.932347
    15  C    2.969025   2.457378   3.367210   4.268529   3.913443
    16  N    3.663853   3.015834   3.373435   4.000157   3.343000
    17  H    3.124245   2.028180   1.011907   2.093860   2.829029
    18  H    2.447980   2.583671   2.059133   1.092338   2.133166
    19  H    3.861457   4.211680   3.811068   2.472557   1.915576
    20  H    4.779281   4.529110   3.407898   2.168808   2.750736
    21  H    4.707237   4.036049   2.742922   2.169009   2.760947
    22  H    5.963663   5.046380   3.756788   3.996808   5.145556
    23  H    6.664822   6.379013   5.462553   5.278890   6.757426
    24  H    5.032160   4.991827   4.091236   3.351964   4.646056
    25  H    2.639623   2.137567   3.266158   4.489514   4.806181
    26  H    3.290573   2.194042   2.596325   3.980288   4.376256
    27  H    2.623698   2.595521   3.692254   4.336079   3.802035
    28  H    3.929524   3.423971   4.336900   5.329140   4.974851
    29  H    4.379346   3.912789   4.323500   4.780283   3.862590
    30  H    3.314551   2.735798   2.814733   3.127778   2.323182
    31  H    4.321009   3.443309   3.547273   4.324780   3.880147
                    6          7          8          9         10
     6  O    0.000000
     7  O    2.194534   0.000000
     8  C    3.187337   3.374051   0.000000
     9  C    4.551997   4.679096   1.489224   0.000000
    10  C    5.753446   5.501377   2.605429   1.376315   0.000000
    11  N    6.793884   6.706218   3.726541   2.267164   1.375279
    12  C    6.448455   6.735409   3.658380   2.219992   2.142546
    13  N    5.127063   5.630846   2.545292   1.386049   2.187132
    14  C    5.105959   3.524188   4.898119   5.352588   5.663078
    15  C    4.955427   3.125606   5.515239   6.290983   6.721894
    16  N    4.388996   2.253805   4.994621   5.984407   6.423402
    17  H    4.116471   2.802870   2.651522   3.113311   3.394165
    18  H    2.630605   3.177204   2.196655   2.833410   4.022766
    19  H    0.970628   3.018302   3.043202   4.251493   5.557383
    20  H    2.913566   3.731339   1.097275   2.151701   3.361055
    21  H    3.540840   3.231970   1.095692   2.102305   2.735378
    22  H    6.089009   5.501203   3.020654   2.209205   1.081776
    23  H    7.238743   7.666988   4.634648   3.251610   3.196022
    24  H    4.872830   5.732535   2.871282   2.151751   3.171778
    25  H    5.891236   4.488274   5.741272   6.047800   6.327563
    26  H    5.649417   3.923775   4.893369   5.193882   5.246274
    27  H    4.625631   3.136251   5.736938   6.602210   7.217188
    28  H    5.999870   4.102224   6.521949   7.238459   7.549098
    29  H    4.701162   2.674820   5.758113   6.857373   7.345617
[...]
 864,0.00001093,0.00001520,-0.00000868,0.00003291,-0.00001888,0.0000373
 9,0.00001626,0.00793805,0.02698630,-0.05101227,-0.00245117,-0.00285013
 ,-0.00065518,0.00113331,-0.00089373,0.00070700,0.00001581,0.00015231,-
 0.00019037,0.00013138,0.00014676,-0.00016668,0.00002979,-0.00000482,0.
 00004460,0.00008854,0.00006447,0.00003356,0.00000681,0.00000682,0.0000
 0664,0.00001630,0.00001398,-0.00000363,0.00000368,0.00000120,0.0000039
 1,-0.00000320,0.00001670,0.00000044,-0.01213918,-0.02915446,0.05205998
 ,0.00035159,-0.00038753,0.00487854,0.01065519,0.00258874,0.00731859,-0
 .00060873,-0.00001587,0.00025795,0.00035719,0.00040126,-0.00033423,0.0
 0007041,0.00011511,0.00000765,-0.00002018,-0.00002843,-0.00003410,0.00
 007554,-0.00006736,-0.00005506,-0.00002635,-0.00000956,-0.00006270,0.0
 0003000,0.00002341,0.00006902,0.00006911,-0.00000646,-0.00007544,-0.00
 000787,0.00004312,-0.00000065,-0.00001825,0.00000040,-0.00001778,0.000
 01348,-0.00003553,-0.00000746,-0.17416600,-0.03134678,-0.12697615,-0.0
 1930803,-0.00583610,-0.01837656,0.00163337,-0.00049061,0.00042384,-0.0
 0009522,-0.00045635,0.00116970,0.00004168,0.00002641,0.00002457,0.0000
 0842,0.00001453,-0.00000447,0.00001415,0.00001631,0.00000297,0.0000027
 1,0.00000721,-0.00000549,-0.00001884,-0.00002267,0.00000414,-0.0000006
 8,0.00000110,-0.00000168,0.00000446,0.00000068,0.00000446,-0.00671923,
 -0.00085882,-0.00708319,0.18968624,0.00015009,0.00221079,0.00049623,0.
 00203338,-0.00264606,0.00240463,0.00026066,-0.00016159,-0.00007091,0.0
 0018481,0.00004422,-0.00000515,-0.00003935,-0.00000561,0.00017464,-0.0
 0000312,0.00000974,-0.00010852,0.00005617,0.00001391,-0.00015251,-0.00
 007969,0.00002987,-0.00004658,0.00001237,0.00001423,0.00002914,-0.0000
 2110,0.00007469,-0.00003385,0.00000129,-0.00006830,0.00004429,0.000018
 42,-0.00005402,-0.00005051,0.00001697,-0.00000521,0.00002632,-0.032163
 27,-0.05759609,-0.03188894,0.01611525,0.00225434,0.01625137,-0.0003272
 6,0.00216186,0.00056591,-0.00032136,0.00055844,0.00033898,0.00000831,0
 .00003529,-0.00004953,-0.00000465,-0.00000525,0.00002291,0.00002745,0.
 00000114,0.00000533,0.00000836,-0.00001369,0.00000340,-0.00002601,-0.0
 0001864,-0.00001014,0.00001011,0.00000271,-0.00000558,-0.00000173,0.00
 001037,-0.00000353,-0.01976446,-0.00231369,-0.02159860,0.03170462,0.05
 752230,0.00320708,0.00188540,-0.00865554,-0.02674925,-0.00832439,-0.01
 377429,0.00111763,0.00054047,0.00219392,0.00017256,0.00018305,0.000216
 80,-0.00030582,-0.00032024,-0.00003875,0.00009162,-0.00000013,0.000129
 19,0.00005312,0.00018868,0.00024487,-0.00008999,-0.00000940,0.00003856
 ,0.00002398,-0.00004345,-0.00008602,-0.00009244,-0.00001931,0.00002861
 ,-0.00000226,-0.00007270,0.00003876,0.00002715,-0.00000622,0.00001313,
 -0.00002147,0.00007972,0.00004720,-0.12484734,-0.03042952,-0.18230383,
 0.00490067,0.00163143,0.00491420,-0.00003236,0.00030356,0.00008822,0.0
 0173715,0.00029123,-0.00100944,-0.00013071,-0.00004505,0.00020198,-0.0
 0005885,-0.00004157,-0.00000657,-0.00001116,-0.00000907,0.00000503,0.0
 0002141,0.00002155,-0.00000423,0.00004868,0.00005055,0.00000636,0.0000
 0572,0.00000116,0.00000236,-0.00001200,-0.00000266,-0.00001872,0.00319
 001,0.00014817,0.00304831,0.13724811,0.03423661,0.19415977,0.00269527,
 -0.00035164,0.00067746,-0.00264298,-0.00133138,-0.00381366,0.00063049,
 0.00053334,0.00032891,0.00004295,-0.00003227,0.00015587,-0.00017879,-0
 .00009939,0.00027555,0.00001523,0.00004373,-0.00013592,0.00013038,0.00
 010143,-0.00003477,-0.00007811,-0.00001308,-0.00001168,0.00002507,0.00
 000572,-0.00000956,-0.00001223,0.00000484,-0.00003766,0.00001819,-0.00
 003540,0.00002600,0.00000624,-0.00001532,-0.00000193,0.00000682,0.0000
 3921,0.00003090,-0.01893392,-0.00229477,-0.01614676,-0.17883862,-0.039
 79155,-0.13076478,-0.00616664,-0.00419117,-0.00546245,0.00012674,0.000
 10054,-0.00011364,-0.00003873,-0.00000529,-0.00000110,-0.00002184,-0.0
 0001974,0.00003810,0.00001655,0.00000083,0.00000219,0.00001020,0.00000
 284,0.00000160,0.00000464,0.00000615,-0.00000543,-0.00000002,0.0000013
 0,0.00000045,-0.00001775,0.00000401,0.00000306,0.00109160,-0.00029952,
 0.00007042,-0.00255114,0.00322192,0.00117882,0.19209631,-0.00101965,-0
 .00061669,-0.00059276,0.00043049,0.00056630,0.00187302,-0.00028083,0.0
 0010470,-0.00030748,-0.00008831,0.00002559,0.00000477,0.00011664,-0.00
 009844,-0.00012273,-0.00003520,0.00004247,0.00006217,-0.00009458,0.000
 06654,0.00036813,0.00000893,-0.00002256,-0.00001695,0.00000262,0.00001
 338,0.00002424,0.00003368,-0.00001060,-0.00001742,0.00000185,0.0000299
 7,-0.00001827,-0.00001180,0.00001241,0.00001005,0.00000053,-0.00001533
 ,-0.00001978,0.01651090,0.00425085,0.01514344,-0.03372203,-0.05804888,
 -0.03182085,-0.02722196,-0.01771111,-0.02431860,-0.00021984,-0.0001880
 7,0.00014458,0.00001581,0.00000510,-0.00002741,0.00000488,0.00000151,0
 .00001900,0.00000327,0.00000705,-0.00000249,0.00000251,0.00000330,-0.0
 0000108,-0.00000852,-0.00001657,0.00000605,-0.00000278,-0.00000034,0.0
 0000067,-0.00000026,-0.00000014,0.00000655,-0.00028956,0.00078608,0.00
 044373,0.00392879,-0.00221470,-0.00155408,0.04148589,0.07570962,-0.000
 01428,-0.00011949,-0.00057480,0.00218832,0.00071116,0.00086860,-0.0007
 0872,-0.00056989,-0.00031193,0.00003781,0.00005775,-0.00015988,0.00001
 830,0.00018855,0.00002061,0.00000370,-0.00006564,-0.00003059,0.0000221
 8,-0.00015899,-0.00020756,0.00005227,0.00002022,0.00002271,-0.00001923
 ,-0.00000859,0.00000113,-0.00000491,0.00000407,0.00003519,-0.00001584,
 0.00001284,-0.00001418,0.00000139,0.00000561,-0.00000068,-0.00000545,-
 0.00003015,-0.00001958,0.00223816,0.00170156,0.00302554,-0.13789886,-0
 .04144851,-0.19350204,0.00799827,0.00437496,0.00699504,-0.00003187,-0.
 00003943,0.00014500,0.00003017,-0.00000710,0.00002720,0.00002217,0.000
 02555,-0.00003334,-0.00001556,-0.00000430,-0.00000104,-0.00000868,-0.0
 0000356,-0.00000474,-0.00000091,0.00000109,0.00000170,0.00000207,-0.00
 000073,-0.00000046,0.00001604,-0.00000114,-0.00000428,-0.00055458,0.00
 034957,0.00039952,0.00140027,-0.00036719,0.00046369,0.14343211,0.03958
 759,0.19767177,0.00142557,-0.00075597,0.00069881,-0.00364955,0.0039555
 9,-0.00284320,0.00002628,-0.00042265,0.00089760,-0.00004233,-0.0002833
 8,-0.00020417,-0.00008244,-0.00002335,-0.00007044,0.00001435,-0.000028
 67,0.00008284,-0.00007146,-0.00001926,0.00032252,0.00005650,-0.0000110
 8,0.00010883,-0.00000726,-0.00000261,0.00000673,0.00000945,0.00000826,
 0.00004062,-0.00001240,0.00002218,-0.00003048,-0.00000110,0.00001385,0
 .00000641,-0.00000441,-0.00003904,-0.00003860,-0.01090816,0.00089201,0
 .02312294,-0.09619848,-0.00470476,0.09975102,-0.00491927,-0.00387022,0
 .00931235,0.00007064,0.00011339,0.00013464,0.00002279,0.00001149,0.000
 00032,-0.00000816,0.00000782,-0.00002232,-0.00003881,-0.00001094,-0.00
 000629,-0.00000216,-0.00000130,-0.00000216,-0.00000609,-0.00000823,0.0
 0000911,-0.00000003,-0.00000143,-0.00000066,0.00001262,-0.00000321,-0.
 00000195,0.00092453,-0.00025126,-0.00033618,0.00072054,-0.00100504,-0.
 00017709,0.01184848,0.00221089,-0.01941147,0.10046415,0.00016461,0.000
 59700,-0.00070002,0.00284688,-0.00346943,0.00191761,0.00069368,0.00095
 132,-0.00127361,0.00001709,0.00010697,0.00048873,0.00084193,-0.0011611
 5,-0.00065001,-0.00024895,0.00025436,0.00049748,-0.00156803,0.00067646
 ,0.00189551,-0.00004329,0.00007164,-0.00015934,0.00001301,0.00000738,0
 .00001596,0.00002408,0.00000400,-0.00004888,0.00001091,0.00000686,0.00
 001239,-0.00001157,-0.00000824,-0.00001170,0.00000786,0.00002714,0.000
 01257,0.00794983,0.00164517,-0.02002569,-0.00091265,-0.04901472,-0.000
 88427,-0.01908453,-0.01235907,0.03682857,-0.00012020,-0.00012626,-0.00
 012388,-0.00005195,0.00004036,-0.00006529,0.00002992,-0.00003726,0.000
 09718,0.00006252,0.00002614,0.00000401,0.00003486,0.00001038,0.0000154
 8,-0.00000711,-0.00000978,-0.00000099,-0.00000302,0.00000126,-0.000000
 79,-0.00001813,-0.00000177,0.00001030,-0.00058912,0.00056728,-0.000055
 04,-0.00037203,0.00058881,0.00062933,0.00396181,0.00153556,-0.00546851
 ,0.00544125,0.06186006,0.00130669,-0.00014676,0.00067402,-0.00125586,0
 .00003116,-0.00073282,0.00027494,-0.00010968,0.00014222,-0.00000817,-0
 .00009421,0.00006735,-0.00007637,-0.00008413,0.00009085,0.00000070,0.0
 0002847,-0.00004561,-0.00001658,0.00002702,0.00009194,-0.00002954,-0.0
 0000627,0.00000467,0.00000964,0.00000443,0.00001088,0.00000514,0.00000
 675,-0.00001755,0.00000885,-0.00000707,0.00000089,0.00000031,-0.000002
 91,0.00000223,0.00000304,0.00000525,0.00000238,-0.00151803,-0.00028413
 ,0.00132953,0.10255771,0.00974912,-0.28430731,-0.00043577,0.00008677,-
 0.00000779,-0.00001665,0.00003007,-0.00000881,-0.00000850,0.00000437,-
 0.00000852,-0.00000743,-0.00000390,0.00002084,0.00000134,0.00000100,0.
 00000078,0.00000390,0.00000110,0.00000176,-0.00000421,-0.00000411,-0.0
 0000089,-0.00000111,0.00000019,-0.00000005,-0.00000693,0.00000143,0.00
 000365,0.00035873,-0.00038099,0.00001162,0.00020215,-0.00010157,0.0006
 1540,0.00987819,0.00084931,-0.01644327,-0.11123505,-0.01028791,0.29747
 670,0.00005809,-0.00006409,-0.00032616,-0.00065477,-0.00007152,0.00073
 397,0.00017947,0.00024110,-0.00011190,0.00009517,0.00000683,0.00004562
 ,-0.00036097,0.00037750,0.00082125,0.00006977,-0.00000830,-0.00054590,
 0.00076762,-0.00068879,-0.00050156,-0.00006381,-0.00003600,-0.00001242
 ,0.00001398,0.00003023,0.00002161,0.00000023,0.00002543,-0.00003662,0.
 00003781,-0.00003636,0.00000080,0.00000103,-0.00000971,0.00001034,0.00
 001663,0.00000202,0.00000537,-0.00101260,-0.00289357,0.00034206,0.0138
 3337,-0.00633642,-0.00057890,-0.28566059,0.16733594,-0.00518959,-0.000
 06335,-0.00003245,-0.00000939,0.00000819,-0.00002419,-0.00000239,-0.00
 001450,0.00000927,0.00004689,0.00001298,-0.00000023,-0.00000177,-0.000
 01541,-0.00000592,-0.00000035,-0.00001470,-0.00000965,-0.00000715,-0.0
 0000407,-0.00000029,0.00000037,-0.00001993,0.00000896,0.00001430,0.000
 70280,-0.00067708,-0.00005577,0.00001908,0.00004863,0.00008590,0.00058
 302,-0.00056264,-0.00018960,0.00030921,-0.00024028,0.00022326,0.300479
 56,-0.00028226,0.00020976,-0.00015138,-0.00056457,-0.00006244,0.000866
 54,-0.00019097,0.00029958,0.00016491,0.00008203,0.00003019,-0.00015143
 ,0.00028174,-0.00020988,-0.00058272,-0.00004461,-0.00002238,0.00040282
 ,-0.00059852,-0.00047973,0.00119674,0.00006755,0.00002656,0.00002039,-
 0.00002757,-0.00002897,-0.00002538,-0.00002230,-0.00002348,0.00004423,
 -0.00002837,0.00000933,-0.00000337,0.00000520,0.00001396,0.00000244,-0
 .00001704,-0.00000845,-0.00000463,-0.00416434,-0.00558409,0.00098691,0
 .02557612,-0.01778831,-0.00077833,0.17276453,-0.18410593,0.00120398,0.
 00017821,-0.00013294,0.00000213,-0.00002207,-0.00000178,0.00005430,0.0
 0003427,0.00002671,-0.00001601,-0.00001844,0.00000528,0.00000652,0.000
 00443,0.00002048,-0.00001287,0.00002646,0.00002367,0.00000338,0.000004
 32,0.00000109,-0.00000007,0.00002015,-0.00000124,-0.00001158,0.0016186
 8,-0.00082007,-0.00023280,-0.00019029,0.00026353,0.00019686,0.00013585
 ,0.00091093,-0.00106251,0.00022199,0.00109388,0.00059935,-0.17995076,0
 .19316522,-0.00026402,0.00017797,-0.00022352,0.00052145,0.00028991,0.0
 0056473,-0.00016556,-0.00034177,-0.00020044,-0.00007168,0.00010034,0.0
 0015963,0.00028207,-0.00020332,-0.00018201,-0.00014660,-0.00006012,-0.
 00000657,-0.00045372,0.00132076,-0.00134913,0.00006266,0.00003465,-0.0
 0000891,-0.00000649,-0.00000325,0.00000017,0.00000913,0.00000012,0.000
 02236,-0.00001551,0.00002338,-0.00001969,-0.00000271,0.00000749,0.0000
 0346,-0.00000551,-0.00001395,-0.00002692,0.00067740,0.00083593,-0.0002
 9437,-0.00442677,0.00332283,-0.00062147,-0.00030309,-0.00236697,-0.059
 14870,-0.00002321,0.00001117,-0.00002870,0.00000030,0.00003617,-0.0000
 4004,0.00003506,-0.00001905,-0.00004428,0.00000852,0.00000169,-0.00000
 710,0.00000830,-0.00000414,0.00001208,0.00000185,0.00000007,0.00000712
 ,0.00000078,-0.00000041,0.00000011,0.00000863,-0.00000519,0.00000248,-
 0.00016812,0.00013767,0.00035378,0.00023525,-0.00022047,0.00004845,0.0
 0009223,-0.00108199,0.00036002,-0.00040278,0.00053534,-0.00048342,0.00
 401363,-0.00057420,0.05338563,-0.00285979,-0.00048082,0.00020473,0.006
 55832,0.00435794,-0.00104580,-0.00230084,-0.00381228,0.00070001,0.0007
 8138,0.00111508,-0.00066837,-0.00946526,0.00982309,0.00972316,0.001997
 15,-0.00166445,-0.00687065,0.00607834,-0.00528650,-0.01144896,-0.00051
 524,-0.00052066,0.00013317,0.00012150,0.00015601,-0.00004435,-0.000100
 90,0.00002347,-0.00029386,0.00022243,-0.00035343,0.00016975,0.00008437
 ,-0.00009823,0.00007586,0.00006610,0.00015931,0.00023764,0.00094736,0.
 00134205,-0.00038760,-0.00313247,-0.00680976,0.00361659,-0.11641845,-0
 .00798700,0.09181744,-0.00037150,0.00043281,-0.00013992,0.00039668,-0.
 00036743,0.00022896,-0.00012790,0.00024129,-0.00038333,0.00000031,-0.0
 0006339,0.00002646,-0.00024490,-0.00012378,-0.00004863,-0.00000929,0.0
 0000689,-0.00006982,0.00000257,0.00000646,0.00001043,-0.00010447,0.000
 08313,0.00002672,-0.00063612,0.00019956,0.00021278,-0.00016921,-0.0000
 0497,0.00000749,-0.00044551,0.00018001,0.00008438,0.00028184,0.0008729
 3,-0.00039425,-0.01256467,-0.00304433,0.02446054,0.11640937,-0.0014451
 4,0.00058027,-0.00020449,0.00374033,-0.00341447,0.00018375,-0.00101867
 ,-0.00046664,-0.00000138,0.00087175,-0.00014696,-0.00164754,-0.0026463
 9,0.00439878,-0.00053632,0.00174639,-0.00072041,-0.00234876,0.00292371
 ,-0.01066917,-0.00019979,-0.00010171,-0.00005187,0.00014627,-0.0000638
 2,-0.00003020,-0.00006336,-0.00011670,-0.00000425,0.00006639,0.0000344
 6,-0.00013074,0.00003031,0.00005607,-0.00000442,0.00003917,-0.00001455
 ,-0.00002501,0.00004960,0.00025628,0.00104177,0.00081472,-0.01422401,-
 0.00153858,0.02773127,-0.01328187,-0.06768144,0.02387946,0.00032029,0.
 00003789,0.00038664,0.00013948,-0.00027876,0.00038202,0.00006119,0.000
 29841,-0.00027897,-0.00009270,-0.00004495,0.00002277,-0.00013895,-0.00
 001341,-0.00006621,0.00002711,0.00004453,-0.00002370,0.00001231,0.0000
 0132,0.00000184,0.00001715,0.00003319,-0.00002459,-0.00029125,0.000327
 70,-0.00018068,0.00013396,-0.00016548,-0.00002767,-0.00012372,0.000972
 82,-0.00021700,-0.00155643,-0.00550655,-0.00020956,0.00955264,0.003787
 39,-0.02187738,0.00768380,0.07800941,0.00052805,0.00228698,-0.00356061
 ,-0.00210849,-0.00225794,0.00721261,0.00185015,0.00111561,-0.00290949,
 -0.00232945,-0.00180455,0.00263433,0.01455736,-0.01851530,-0.01726018,
 -0.00300687,0.00294532,0.01158486,-0.02127881,0.00963326,0.01069887,0.
 00102089,0.00150661,-0.00029968,-0.00032527,-0.00019545,0.00012487,0.0
 0025579,0.00010115,0.00047688,-0.00032620,0.00062023,-0.00031355,-0.00
 016248,0.00010191,-0.00021072,-0.00002869,-0.00038781,-0.00042716,-0.0
 0050513,-0.00124489,-0.00070187,-0.00051027,0.01219257,0.00398578,0.09
 069686,0.01429416,-0.23563595,-0.00056564,0.00055456,0.00015194,-0.000
 46491,0.00071468,-0.00068239,0.00114825,-0.00007425,0.00044876,0.00010
 997,0.00002150,-0.00010494,0.00026457,0.00001286,0.00017709,-0.0000956
 8,-0.00009722,0.00006720,-0.00000671,-0.00001082,-0.00002288,0.0001554
 0,-0.00012706,0.00000551,0.00063439,-0.00040523,-0.00029025,0.00008907
 ,0.00026583,-0.00049176,-0.00045319,-0.00109338,0.00094873,-0.00050730
 ,-0.00373432,0.00092295,-0.00171287,-0.00280225,0.00671024,-0.08702620
 ,-0.01540476,0.23574929,-0.00072017,0.00020744,-0.00043639,0.00143010,
 0.00043725,0.00037613,-0.00048619,-0.00088620,-0.00026580,-0.00020405,
 -0.00013602,0.00021261,0.00051146,-0.00060089,-0.00033576,-0.00008861,
 0.00015802,0.00026198,-0.00204445,-0.00041165,0.00105758,0.00006863,0.
 00017684,0.00004320,-0.00002851,0.00003749,0.00008612,0.00003095,0.000
 14587,0.00006144,0.00002551,-0.00000333,-0.00006268,-0.00000532,-0.000
 02837,-0.00003379,0.00003357,-0.00012622,-0.00008719,0.00183949,0.0006
 6475,0.00126155,-0.00580067,-0.00480251,-0.00521443,-0.18915888,-0.059
 50268,-0.15464075,-0.00026734,0.00047478,0.00022993,-0.00000709,0.0000
 3195,-0.00007756,0.00009144,0.00002985,0.00005409,0.00000477,-0.000034
 09,-0.00003372,-0.00002146,-0.00006412,0.00004034,-0.00009598,-0.00005
 990,-0.00001507,-0.00000157,-0.00000246,-0.00000908,0.00000743,0.00000
 552,0.00002181,-0.00039828,0.00013006,-0.00009198,-0.00004342,-0.00011
 682,-0.00058637,0.00057809,-0.00137973,0.00133235,-0.00023484,0.000297
 66,0.00017985,-0.01673865,-0.01185510,-0.02396205,0.01551881,0.0075389
 8,0.01010340,0.19620525,0.00032745,-0.00003380,0.00075336,-0.00003953,
 -0.00022541,-0.00124090,-0.00024345,0.00017746,0.00038167,0.00010298,0
 .00016222,-0.00026750,-0.00010155,0.00012158,-0.00021703,0.00004689,-0
 .00007545,0.00019157,-0.00059054,-0.00057943,0.00040455,0.00009110,0.0
 0007746,0.00006872,-0.00004923,-0.00003668,-0.00004636,-0.00006766,0.0
 0001199,0.00009620,-0.00002755,-0.00003569,-0.00000453,0.00002087,0.00
 000270,0.00000222,-0.00001678,-0.00002647,-0.00000906,-0.00052498,0.00
 128078,-0.00087248,-0.02135250,-0.00918198,-0.02574281,-0.06579803,-0.
 09173301,-0.08247915,0.00035821,-0.00012927,-0.00007616,-0.00001600,-0
 .00002621,0.00009828,0.00003334,0.00004616,-0.00004488,-0.00003106,-0.
 00001798,0.00000102,-0.00002021,0.00000479,-0.00000428,0.00002904,0.00
 004862,-0.00000783,0.00000958,0.00000171,-0.00000232,0.00002782,0.0000
 0500,-0.00001503,0.00004158,0.00029822,0.00057945,0.00111874,-0.000527
 93,0.00051768,-0.00104516,-0.00610075,0.00253221,0.00010009,0.00162222
 ,0.00029742,0.01400970,0.00938213,0.01993671,0.00393320,0.00135980,0.0
 0178799,0.06967366,0.09412724,0.00031772,0.00005162,0.00024052,-0.0010
 1225,-0.00078279,-0.00055126,0.00007075,0.00085927,0.00035099,0.000019
 16,0.00009369,-0.00018032,0.00058452,-0.00031018,-0.00075609,-0.000161
 85,-0.00004972,0.00049225,0.00098469,0.00105371,0.00043907,0.00011591,
 -0.00004595,0.00001898,-0.00000391,-0.00002224,0.00001103,0.00000170,-
 0.00000209,0.00008768,-0.00004632,0.00004672,-0.00005835,-0.00000705,0
 .00003997,0.00002359,-0.00003146,-0.00004733,-0.00008509,0.00088701,-0
 .00028890,0.00018582,0.00608716,0.00073303,0.00838947,-0.15987966,-0.0
 7756656,-0.24910988,0.00032569,-0.00028552,0.00006383,-0.00003907,0.00
 000991,0.00005945,-0.00003687,-0.00004922,-0.00004228,-0.00003024,0.00
 001817,-0.00000190,0.00004187,0.00003962,-0.00000367,0.00001386,0.0000
 0231,0.00004237,0.00000312,-0.00000159,-0.00000167,0.00003085,-0.00001
 213,-0.00001007,-0.00006294,0.00006915,-0.00005072,-0.00030132,-0.0001
 5201,-0.00011566,0.00080067,0.00245199,0.00032194,0.00079539,0.0005298
 1,0.00058537,0.00291697,0.00065802,0.00105501,-0.02291439,-0.01042206,
 -0.01898849,0.17053026,0.08338128,0.25758805\\-0.00000478,-0.00000166,
 0.00000561,0.00001070,0.00000167,0.00000182,0.00000420,0.00001895,-0.0
 0000890,0.00000764,-0.00000794,-0.00000458,0.00000437,0.00000717,-0.00
 000699,-0.00000027,-0.00000170,0.00000415,-0.00000210,-0.00000169,0.00
 000707,0.00000195,-0.00000748,0.00000454,-0.00000800,-0.00000375,0.000
 00069,0.00000394,-0.00000098,-0.00000092,-0.00000392,0.00000636,0.0000
 0170,-0.00000243,-0.00000089,0.00000016,0.00000022,-0.00000363,-0.0000
 0328,0.00000008,-0.00000258,0.00000597,-0.00000234,-0.00000616,-0.0000
 0776,0.00000896,0.00000745,-0.00003086,-0.00001363,-0.00000985,-0.0000
 0747,0.00000432,-0.00000108,0.00000766,0.00000126,-0.00000199,-0.00000
 318,-0.00000187,0.00000138,-0.00000301,-0.00000118,0.00000263,0.000002
 18,-0.00000014,-0.00000097,0.00000121,0.00000035,-0.00000199,0.0000012
 2,-0.00000033,-0.00000135,0.00000009,0.00000044,-0.00000051,0.00000297
 ,0.00000046,0.00000117,0.00000104,0.00000064,0.00000209,-0.00000014,-0
 .00000086,0.00000249,-0.00000046,-0.00000009,0.00000298,0.00000019,-0.
 00000999,-0.00000159,0.00003069,0.00000241,0.00000346,-0.00000142\\\@


 BE NOT THE FIRST BY WHOM THE NEW ARE TRIED,
 NOR YET THE THE LAST TO LAY THE OLD ASIDE.

                          -- ALEXANDER POPE
 Job cpu time:       0 days  2 hours 59 minutes 50.6 seconds.
 File lengths (MBytes):  RWF=    460 Int=      0 D2E=      0 Chk=     13 Scr=      1
 Normal termination of Gaussian 09 at Sat Jul 24 03:24:08 2021.
