 Entering Gaussian System, Link 0=g09
 Input=opt_freq-conf-715.com
 Output=opt_freq-conf-715.log
 Initial command:
 /aerosol/software/g09/l1.exe "/scratch/nicole/10434/Gau-72475.inp" -scrdir="/scratch/nicole/10434/"
 Entering Link 1 = /aerosol/software/g09/l1.exe PID=     72479.
  
 Copyright (c) 1988,1990,1992,1993,1995,1998,2003,2009,2013,
            Gaussian, Inc.  All Rights Reserved.
  
 This is part of the Gaussian(R) 09 program.  It is based on
 the Gaussian(R) 03 system (copyright 2003, Gaussian, Inc.),
 the Gaussian(R) 98 system (copyright 1998, Gaussian, Inc.),
 the Gaussian(R) 94 system (copyright 1995, Gaussian, Inc.),
 the Gaussian 92(TM) system (copyright 1992, Gaussian, Inc.),
 the Gaussian 90(TM) system (copyright 1990, Gaussian, Inc.),
 the Gaussian 88(TM) system (copyright 1988, Gaussian, Inc.),
 the Gaussian 86(TM) system (copyright 1986, Carnegie Mellon
 University), and the Gaussian 82(TM) system (copyright 1983,
 Carnegie Mellon University). Gaussian is a federally registered
 trademark of Gaussian, Inc.
  
 This software contains proprietary and confidential information,
 including trade secrets, belonging to Gaussian, Inc.
  
 This software is provided under written license and may be
 used, copied, transmitted, or stored only in accord with that
 written license.
  
 The following legend is applicable only to US Government
 contracts under FAR:
  
                    RESTRICTED RIGHTS LEGEND
  
 Use, reproduction and disclosure by the US Government is
 subject to restrictions as set forth in subparagraphs (a)
 and (c) of the Commercial Computer Software - Restricted
 Rights clause in FAR 52.227-19.
  
 Gaussian, Inc.
 340 Quinnipiac St., Bldg. 40, Wallingford CT 06492
  
  
 ---------------------------------------------------------------
 Warning -- This program may not be used in any manner that
 competes with the business of Gaussian, Inc. or will provide
 assistance to any competitor of Gaussian, Inc.  The licensee
 of this program is prohibited from giving any competitor of
 Gaussian, Inc. access to this program.  By using this program,
 the user acknowledges that Gaussian, Inc. is engaged in the
 business of creating and licensing software in the field of
 computational chemistry and represents and warrants to the
 licensee that it is not a competitor of Gaussian, Inc. and that
 it will not use this program in any manner prohibited above.
 ---------------------------------------------------------------
  

 Cite this work as:
 Gaussian 09, Revision D.01,
 M. J. Frisch, G. W. Trucks, H. B. Schlegel, G. E. Scuseria, 
 M. A. Robb, J. R. Cheeseman, G. Scalmani, V. Barone, B. Mennucci, 
 G. A. Petersson, H. Nakatsuji, M. Caricato, X. Li, H. P. Hratchian, 
 A. F. Izmaylov, J. Bloino, G. Zheng, J. L. Sonnenberg, M. Hada, 
 M. Ehara, K. Toyota, R. Fukuda, J. Hasegawa, M. Ishida, T. Nakajima, 
 Y. Honda, O. Kitao, H. Nakai, T. Vreven, J. A. Montgomery, Jr., 
 J. E. Peralta, F. Ogliaro, M. Bearpark, J. J. Heyd, E. Brothers, 
 K. N. Kudin, V. N. Staroverov, T. Keith, R. Kobayashi, J. Normand, 
 K. Raghavachari, A. Rendell, J. C. Burant, S. S. Iyengar, J. Tomasi, 
 M. Cossi, N. Rega, J. M. Millam, M. Klene, J. E. Knox, J. B. Cross, 
 V. Bakken, C. Adamo, J. Jaramillo, R. Gomperts, R. E. Stratmann, 
 O. Yazyev, A. J. Austin, R. Cammi, C. Pomelli, J. W. Ochterski, 
 R. L. Martin, K. Morokuma, V. G. Zakrzewski, G. A. Voth, 
 P. Salvador, J. J. Dannenberg, S. Dapprich, A. D. Daniels, 
 O. Farkas, J. B. Foresman, J. V. Ortiz, J. Cioslowski, 
 and D. J. Fox, Gaussian, Inc., Wallingford CT, 2013.
 
 ******************************************
 Gaussian 09:  ES64L-G09RevD.01 24-Apr-2013
                24-Jul-2021 
 ******************************************
 %mem=2gb
 %nproc=4
 Will use up to    4 processors via shared memory.
 %chk=conf-715.chk
 ----------------------------------------------------------------------
 # B3LYP/6-31+G(d,p) EmpiricalDispersion=GD3BJ opt=calcfc freq=noraman 
 nosymm integral(ultrafinegrid)
 ----------------------------------------------------------------------
 1/10=4,14=-1,18=20,19=15,26=4,38=1/1,3;
 2/9=110,12=2,15=1,17=6,18=5,40=1/2;
 3/5=1,6=6,7=111,11=2,16=1,25=1,30=1,71=2,74=-5,75=-5,124=41,140=1/1,2,3;
 4//1;
 5/5=2,38=5/2;
 8/6=4,10=90,11=11/1;
 11/6=1,8=1,9=11,15=111,16=1,31=1/1,2,10;
 10/6=1,13=1,31=1/2;
 6/7=2,8=2,9=2,10=2,28=1/1;
 7/10=1,18=20,25=1,30=1/1,2,3,16;
 1/10=4,14=-1,18=20,19=15,26=4/3(2);
 2/9=110,15=1/2;
 99//99;
 2/9=110,15=1/2;
 3/5=1,6=6,7=111,11=2,16=1,25=1,30=1,71=1,74=-5,75=-5,124=41/1,2,3;
 4/5=5,16=3,69=1/1;
 5/5=2,38=5/2;
 7/30=1/1,2,3,16;
 1/14=-1,18=20,19=15,26=4/3(-5);
 2/9=110,15=1/2;
 6/7=2,8=2,9=2,10=2,19=2,28=1/1;
 99/9=1/99;
 ------------------------------------------------------------
 Candidate Structure: Conf:715 OPT and FREQ calc in gas phase
 ------------------------------------------------------------
 Symbolic Z-matrix:
 Charge =  1 Multiplicity = 1
 O                    -2.0885    1.182    -0.21825 
 C                    -1.46719   0.20547   0.19926 
 N                    -0.12132   0.20757   0.28624 
 C                     0.63783   1.29466  -0.29198 
 C                     0.98029   1.0447   -1.75562 
 O                     1.23244   2.14989  -2.48335 
 O                     1.08562  -0.04757  -2.25602 
 C                     1.91546   1.5648    0.52718 
 C                     2.70196   0.33131   0.85697 
 C                     3.40428  -0.01181   1.97613 
 N                     3.95687  -1.26981   1.84035 
 C                     3.5892   -1.67166   0.64641 
 N                     2.82178  -0.74817   0.01529 
 C                    -2.16715  -1.04944   0.69628 
 C                    -3.29142  -1.47616  -0.2379 
 N                    -4.33054  -0.42348  -0.32038 
 H                     0.38118  -0.63739   0.50118 
 H                    -0.00933   2.17279  -0.24627 
 H                     1.09821   2.93528  -1.94331 
 H                     2.53317   2.28932  -0.01518 
 H                     1.6259    2.0376    1.46797 
 H                     3.54597   0.56831   2.87675 
 H                     3.83588  -2.61477   0.19139 
 H                     2.44531  -0.82716  -0.92241 
 H                    -1.44086  -1.85534   0.81604 
 H                    -2.58091  -0.82551   1.683 
 H                    -3.73537  -2.40919   0.11305 
 H                    -2.88608  -1.66138  -1.23542 
 H                    -3.83816   0.47228  -0.44803 
 H                    -4.9767   -0.56907  -1.09527 
 H                    -4.85767  -0.35807   0.54953 
 

 GradGradGradGradGradGradGradGradGradGradGradGradGradGradGradGradGradGrad
 Berny optimization.
 Initialization pass.
                           ----------------------------
                           !    Initial Parameters    !
                           ! (Angstroms and Degrees)  !
 --------------------------                            --------------------------
 ! Name  Definition              Value          Derivative Info.                !
 --------------------------------------------------------------------------------
 ! R1    R(1,2)                  1.2304         calculate D2E/DX2 analytically  !
 ! R2    R(2,3)                  1.3487         calculate D2E/DX2 analytically  !
 ! R3    R(2,14)                 1.5205         calculate D2E/DX2 analytically  !
 ! R4    R(3,4)                  1.4465         calculate D2E/DX2 analytically  !
 ! R5    R(3,17)                 1.0063         calculate D2E/DX2 analytically  !
 ! R6    R(4,5)                  1.5238         calculate D2E/DX2 analytically  !
 ! R7    R(4,8)                  1.5415         calculate D2E/DX2 analytically  !
 ! R8    R(4,18)                 1.0918         calculate D2E/DX2 analytically  !
 ! R9    R(5,6)                  1.3471         calculate D2E/DX2 analytically  !
 ! R10   R(5,7)                  1.206          calculate D2E/DX2 analytically  !
 ! R11   R(6,19)                 0.9625         calculate D2E/DX2 analytically  !
 ! R12   R(8,9)                  1.4996         calculate D2E/DX2 analytically  !
 ! R13   R(8,20)                 1.0957         calculate D2E/DX2 analytically  !
 ! R14   R(8,21)                 1.092          calculate D2E/DX2 analytically  !
 ! R15   R(9,10)                 1.3651         calculate D2E/DX2 analytically  !
 ! R16   R(9,13)                 1.3741         calculate D2E/DX2 analytically  !
 ! R17   R(10,11)                1.3807         calculate D2E/DX2 analytically  !
 ! R18   R(10,22)                1.0806         calculate D2E/DX2 analytically  !
 ! R19   R(11,12)                1.3123         calculate D2E/DX2 analytically  !
 ! R20   R(12,13)                1.3565         calculate D2E/DX2 analytically  !
 ! R21   R(12,23)                1.0758         calculate D2E/DX2 analytically  !
 ! R22   R(13,24)                1.0135         calculate D2E/DX2 analytically  !
 ! R23   R(14,15)                1.5227         calculate D2E/DX2 analytically  !
 ! R24   R(14,25)                1.0915         calculate D2E/DX2 analytically  !
 ! R25   R(14,26)                1.0932         calculate D2E/DX2 analytically  !
 ! R26   R(15,16)                1.4815         calculate D2E/DX2 analytically  !
 ! R27   R(15,27)                1.0912         calculate D2E/DX2 analytically  !
 ! R28   R(15,28)                1.0925         calculate D2E/DX2 analytically  !
 ! R29   R(16,29)                1.0301         calculate D2E/DX2 analytically  !
 ! R30   R(16,30)                1.0194         calculate D2E/DX2 analytically  !
 ! R31   R(16,31)                1.0193         calculate D2E/DX2 analytically  !
 ! A1    A(1,2,3)              121.6382         calculate D2E/DX2 analytically  !
 ! A2    A(1,2,14)             122.2423         calculate D2E/DX2 analytically  !
 ! A3    A(3,2,14)             116.0786         calculate D2E/DX2 analytically  !
 ! A4    A(2,3,4)              119.9412         calculate D2E/DX2 analytically  !
 ! A5    A(2,3,17)             120.7154         calculate D2E/DX2 analytically  !
 ! A6    A(4,3,17)             117.0225         calculate D2E/DX2 analytically  !
 ! A7    A(3,4,5)              112.2482         calculate D2E/DX2 analytically  !
 ! A8    A(3,4,8)              110.7476         calculate D2E/DX2 analytically  !
 ! A9    A(3,4,18)             106.0591         calculate D2E/DX2 analytically  !
 ! A10   A(5,4,8)              110.6642         calculate D2E/DX2 analytically  !
 ! A11   A(5,4,18)             107.7799         calculate D2E/DX2 analytically  !
 ! A12   A(8,4,18)             109.152          calculate D2E/DX2 analytically  !
 ! A13   A(4,5,6)              115.2382         calculate D2E/DX2 analytically  !
 ! A14   A(4,5,7)              124.5212         calculate D2E/DX2 analytically  !
 ! A15   A(6,5,7)              120.1687         calculate D2E/DX2 analytically  !
 ! A16   A(5,6,19)             109.8912         calculate D2E/DX2 analytically  !
 ! A17   A(4,8,9)              114.0417         calculate D2E/DX2 analytically  !
 ! A18   A(4,8,20)             108.6675         calculate D2E/DX2 analytically  !
 ! A19   A(4,8,21)             108.2948         calculate D2E/DX2 analytically  !
 ! A20   A(9,8,20)             110.9204         calculate D2E/DX2 analytically  !
 ! A21   A(9,8,21)             107.8024         calculate D2E/DX2 analytically  !
 ! A22   A(20,8,21)            106.8359         calculate D2E/DX2 analytically  !
 ! A23   A(8,9,10)             131.062          calculate D2E/DX2 analytically  !
 ! A24   A(8,9,13)             123.8635         calculate D2E/DX2 analytically  !
 ! A25   A(10,9,13)            105.0617         calculate D2E/DX2 analytically  !
 ! A26   A(9,10,11)            110.7505         calculate D2E/DX2 analytically  !
 ! A27   A(9,10,22)            128.0101         calculate D2E/DX2 analytically  !
 ! A28   A(11,10,22)           121.2392         calculate D2E/DX2 analytically  !
 ! A29   A(10,11,12)           104.8527         calculate D2E/DX2 analytically  !
 ! A30   A(11,12,13)           111.9211         calculate D2E/DX2 analytically  !
 ! A31   A(11,12,23)           126.0866         calculate D2E/DX2 analytically  !
 ! A32   A(13,12,23)           121.9891         calculate D2E/DX2 analytically  !
 ! A33   A(9,13,12)            107.4082         calculate D2E/DX2 analytically  !
 ! A34   A(9,13,24)            126.5521         calculate D2E/DX2 analytically  !
 ! A35   A(12,13,24)           125.9817         calculate D2E/DX2 analytically  !
 ! A36   A(2,14,15)            111.7551         calculate D2E/DX2 analytically  !
 ! A37   A(2,14,25)            109.8128         calculate D2E/DX2 analytically  !
 ! A38   A(2,14,26)            107.4722         calculate D2E/DX2 analytically  !
 ! A39   A(15,14,25)           110.5913         calculate D2E/DX2 analytically  !
 ! A40   A(15,14,26)           109.3721         calculate D2E/DX2 analytically  !
 ! A41   A(25,14,26)           107.7021         calculate D2E/DX2 analytically  !
 ! A42   A(14,15,16)           110.6653         calculate D2E/DX2 analytically  !
 ! A43   A(14,15,27)           110.0394         calculate D2E/DX2 analytically  !
 ! A44   A(14,15,28)           109.4941         calculate D2E/DX2 analytically  !
 ! A45   A(16,15,27)           109.8828         calculate D2E/DX2 analytically  !
 ! A46   A(16,15,28)           109.2605         calculate D2E/DX2 analytically  !
 ! A47   A(27,15,28)           107.4348         calculate D2E/DX2 analytically  !
 ! A48   A(15,16,29)           106.8291         calculate D2E/DX2 analytically  !
 ! A49   A(15,16,30)           112.6713         calculate D2E/DX2 analytically  !
 ! A50   A(15,16,31)           111.1517         calculate D2E/DX2 analytically  !
 ! A51   A(29,16,30)           109.4498         calculate D2E/DX2 analytically  !
 ! A52   A(29,16,31)           107.287          calculate D2E/DX2 analytically  !
 ! A53   A(30,16,31)           109.2757         calculate D2E/DX2 analytically  !
 ! D1    D(1,2,3,4)             -8.8925         calculate D2E/DX2 analytically  !
 ! D2    D(1,2,3,17)          -171.0822         calculate D2E/DX2 analytically  !
 ! D3    D(14,2,3,4)           173.3831         calculate D2E/DX2 analytically  !
 ! D4    D(14,2,3,17)           11.1934         calculate D2E/DX2 analytically  !
 ! D5    D(1,2,14,15)           44.9129         calculate D2E/DX2 analytically  !
 ! D6    D(1,2,14,25)          168.0241         calculate D2E/DX2 analytically  !
 ! D7    D(1,2,14,26)          -75.0887         calculate D2E/DX2 analytically  !
 ! D8    D(3,2,14,15)         -137.3777         calculate D2E/DX2 analytically  !
 ! D9    D(3,2,14,25)          -14.2664         calculate D2E/DX2 analytically  !
 ! D10   D(3,2,14,26)          102.6207         calculate D2E/DX2 analytically  !
 ! D11   D(2,3,4,5)            -88.0776         calculate D2E/DX2 analytically  !
 ! D12   D(2,3,4,8)            147.6811         calculate D2E/DX2 analytically  !
 ! D13   D(2,3,4,18)            29.379          calculate D2E/DX2 analytically  !
 ! D14   D(17,3,4,5)            74.7538         calculate D2E/DX2 analytically  !
 ! D15   D(17,3,4,8)           -49.4875         calculate D2E/DX2 analytically  !
 ! D16   D(17,3,4,18)         -167.7896         calculate D2E/DX2 analytically  !
 ! D17   D(3,4,5,6)            156.7686         calculate D2E/DX2 analytically  !
 ! D18   D(3,4,5,7)            -26.3232         calculate D2E/DX2 analytically  !
 ! D19   D(8,4,5,6)            -78.9439         calculate D2E/DX2 analytically  !
 ! D20   D(8,4,5,7)             97.9644         calculate D2E/DX2 analytically  !
 ! D21   D(18,4,5,6)            40.3419         calculate D2E/DX2 analytically  !
 ! D22   D(18,4,5,7)          -142.7499         calculate D2E/DX2 analytically  !
 ! D23   D(3,4,8,9)             47.6667         calculate D2E/DX2 analytically  !
 ! D24   D(3,4,8,20)           171.9589         calculate D2E/DX2 analytically  !
 ! D25   D(3,4,8,21)           -72.3392         calculate D2E/DX2 analytically  !
 ! D26   D(5,4,8,9)            -77.4741         calculate D2E/DX2 analytically  !
 ! D27   D(5,4,8,20)            46.8182         calculate D2E/DX2 analytically  !
 ! D28   D(5,4,8,21)           162.5201         calculate D2E/DX2 analytically  !
 ! D29   D(18,4,8,9)           164.0713         calculate D2E/DX2 analytically  !
 ! D30   D(18,4,8,20)          -71.6365         calculate D2E/DX2 analytically  !
 ! D31   D(18,4,8,21)           44.0654         calculate D2E/DX2 analytically  !
 ! D32   D(4,5,6,19)            -3.3164         calculate D2E/DX2 analytically  !
 ! D33   D(7,5,6,19)           179.6299         calculate D2E/DX2 analytically  !
 ! D34   D(4,8,9,10)          -143.0645         calculate D2E/DX2 analytically  !
 ! D35   D(4,8,9,13)            35.4293         calculate D2E/DX2 analytically  !
 ! D36   D(20,8,9,10)           93.8599         calculate D2E/DX2 analytically  !
 ! D37   D(20,8,9,13)          -87.6463         calculate D2E/DX2 analytically  !
 ! D38   D(21,8,9,10)          -22.7823         calculate D2E/DX2 analytically  !
 ! D39   D(21,8,9,13)          155.7115         calculate D2E/DX2 analytically  !
 ! D40   D(8,9,10,11)          179.0039         calculate D2E/DX2 analytically  !
 ! D41   D(8,9,10,22)           -0.8137         calculate D2E/DX2 analytically  !
 ! D42   D(13,9,10,11)           0.299          calculate D2E/DX2 analytically  !
 ! D43   D(13,9,10,22)        -179.5186         calculate D2E/DX2 analytically  !
 ! D44   D(8,9,13,12)         -179.4715         calculate D2E/DX2 analytically  !
 ! D45   D(8,9,13,24)            3.1788         calculate D2E/DX2 analytically  !
 ! D46   D(10,9,13,12)          -0.6475         calculate D2E/DX2 analytically  !
 ! D47   D(10,9,13,24)        -177.9972         calculate D2E/DX2 analytically  !
 ! D48   D(9,10,11,12)           0.1762         calculate D2E/DX2 analytically  !
 ! D49   D(22,10,11,12)       -179.9919         calculate D2E/DX2 analytically  !
 ! D50   D(10,11,12,13)         -0.6066         calculate D2E/DX2 analytically  !
 ! D51   D(10,11,12,23)       -179.9715         calculate D2E/DX2 analytically  !
 ! D52   D(11,12,13,9)           0.8136         calculate D2E/DX2 analytically  !
 ! D53   D(11,12,13,24)        178.1827         calculate D2E/DX2 analytically  !
 ! D54   D(23,12,13,9)        -179.7915         calculate D2E/DX2 analytically  !
 ! D55   D(23,12,13,24)         -2.4224         calculate D2E/DX2 analytically  !
 ! D56   D(2,14,15,16)         -61.657          calculate D2E/DX2 analytically  !
 ! D57   D(2,14,15,27)         176.7094         calculate D2E/DX2 analytically  !
 ! D58   D(2,14,15,28)          58.8408         calculate D2E/DX2 analytically  !
 ! D59   D(25,14,15,16)        175.6747         calculate D2E/DX2 analytically  !
 ! D60   D(25,14,15,27)         54.0411         calculate D2E/DX2 analytically  !
 ! D61   D(25,14,15,28)        -63.8274         calculate D2E/DX2 analytically  !
 ! D62   D(26,14,15,16)         57.2232         calculate D2E/DX2 analytically  !
 ! D63   D(26,14,15,27)        -64.4103         calculate D2E/DX2 analytically  !
 ! D64   D(26,14,15,28)        177.7211         calculate D2E/DX2 analytically  !
 ! D65   D(14,15,16,29)         45.9451         calculate D2E/DX2 analytically  !
 ! D66   D(14,15,16,30)        166.1675         calculate D2E/DX2 analytically  !
 ! D67   D(14,15,16,31)        -70.7928         calculate D2E/DX2 analytically  !
 ! D68   D(27,15,16,29)        167.6708         calculate D2E/DX2 analytically  !
 ! D69   D(27,15,16,30)        -72.1068         calculate D2E/DX2 analytically  !
 ! D70   D(27,15,16,31)         50.9329         calculate D2E/DX2 analytically  !
 ! D71   D(28,15,16,29)        -74.6919         calculate D2E/DX2 analytically  !
 ! D72   D(28,15,16,30)         45.5305         calculate D2E/DX2 analytically  !
 ! D73   D(28,15,16,31)        168.5702         calculate D2E/DX2 analytically  !
 --------------------------------------------------------------------------------
 Trust Radius=3.00D-01 FncErr=1.00D-07 GrdErr=1.00D-06
 Number of steps in this run=    167 maximum allowed number of steps=    186.
 GradGradGradGradGradGradGradGradGradGradGradGradGradGradGradGradGradGrad

                          Input orientation:                          
 ---------------------------------------------------------------------
 Center     Atomic      Atomic             Coordinates (Angstroms)
 Number     Number       Type             X           Y           Z
 ---------------------------------------------------------------------
      1          8           0       -2.088503    1.182001   -0.218250
      2          6           0       -1.467191    0.205474    0.199256
      3          7           0       -0.121320    0.207573    0.286237
      4          6           0        0.637831    1.294657   -0.291983
      5          6           0        0.980290    1.044701   -1.755619
      6          8           0        1.232437    2.149894   -2.483347
      7          8           0        1.085624   -0.047571   -2.256015
      8          6           0        1.915465    1.564801    0.527178
      9          6           0        2.701962    0.331315    0.856973
     10          6           0        3.404279   -0.011806    1.976126
     11          7           0        3.956873   -1.269812    1.840347
     12          6           0        3.589197   -1.671656    0.646407
     13          7           0        2.821779   -0.748170    0.015291
     14          6           0       -2.167146   -1.049439    0.696276
     15          6           0       -3.291419   -1.476156   -0.237902
     16          7           0       -4.330544   -0.423485   -0.320382
     17          1           0        0.381180   -0.637395    0.501180
     18          1           0       -0.009331    2.172793   -0.246272
     19          1           0        1.098213    2.935276   -1.943309
     20          1           0        2.533171    2.289324   -0.015180
     21          1           0        1.625897    2.037598    1.467968
     22          1           0        3.545970    0.568313    2.876746
     23          1           0        3.835878   -2.614765    0.191386
     24          1           0        2.445311   -0.827160   -0.922414
     25          1           0       -1.440857   -1.855343    0.816045
     26          1           0       -2.580910   -0.825509    1.683004
     27          1           0       -3.735367   -2.409192    0.113052
     28          1           0       -2.886078   -1.661376   -1.235420
     29          1           0       -3.838156    0.472280   -0.448030
     30          1           0       -4.976697   -0.569074   -1.095267
     31          1           0       -4.857675   -0.358075    0.549529
 ---------------------------------------------------------------------
                    Distance matrix (angstroms):
                    1          2          3          4          5
     1  O    0.000000
     2  C    1.230425   0.000000
     3  N    2.252516   1.348680   0.000000
     4  C    2.729657   2.420487   1.446514   0.000000
     5  C    3.435090   3.242838   2.466476   1.523806   0.000000
     6  O    4.134746   4.273771   3.643606   2.426327   1.347078
     7  O    3.967293   3.550951   2.825749   2.420644   1.206047
     8  C    4.090716   3.660281   2.459393   1.541541   2.521154
     9  C    4.982803   4.222590   2.883049   2.551228   3.209160
    10  C    6.034163   5.189961   3.915827   3.808464   4.573604
    11  N    6.840744   5.855776   4.607557   4.705249   5.210372
    12  C    6.413055   5.412081   4.174825   4.288374   4.467071
    13  N    5.281191   4.397561   3.106234   3.006192   3.121152
    14  C    2.412854   1.520451   2.435901   3.786732   4.505947
    15  C    2.917737   2.519285   3.627560   4.808258   5.187069
    16  N    2.759486   2.977315   4.299277   5.257145   5.693894
    17  H    3.150733   2.053792   1.006318   2.104234   2.877762
    18  H    2.303348   2.488814   2.039166   1.091802   2.128396
    19  H    4.025538   4.315518   3.728069   2.372858   1.903525
    20  H    4.756814   4.515674   3.386867   2.158308   2.643796
    21  H    4.167990   3.812283   2.792534   2.150735   3.434263
    22  H    6.457778   5.694944   4.504430   4.361845   5.316809
    23  H    7.048512   6.006359   4.861481   5.073926   5.033577
    24  H    5.008797   4.199066   3.019786   2.857715   2.518805
    25  H    3.273327   2.151299   2.505493   3.933341   4.570083
    26  H    2.808439   2.122452   3.011279   4.330817   5.291877
    27  H    3.964668   3.462446   4.465287   5.745208   6.136671
    28  H    3.123388   2.748939   3.667737   4.695333   4.747869
    29  H    1.902049   2.472174   3.797906   4.553584   5.025423
    30  H    3.489568   3.819993   5.107486   5.970066   6.206933
    31  H    3.260311   3.454802   4.777273   5.800022   6.431432
                    6          7          8          9         10
     6  O    0.000000
     7  O    2.214066   0.000000
     8  C    3.141993   3.321828   0.000000
     9  C    4.077311   3.528002   1.499610   0.000000
    10  C    5.410799   4.825812   2.608008   1.365095   0.000000
    11  N    6.149086   5.149575   3.731861   2.259520   1.380715
    12  C    5.473018   4.162882   3.645580   2.200777   2.134819
    13  N    4.143425   2.943451   2.536388   1.374071   2.174032
    14  C    5.648265   4.505582   4.850830   5.063647   5.809947
    15  C    6.217358   5.027140   6.078191   6.355023   7.202682
    16  N    6.499804   5.763927   6.609407   7.170218   8.079042
    17  H    4.171452   2.906245   2.684095   2.539885   3.421397
    18  H    2.558714   3.188732   2.161647   3.458222   4.622149
    19  H    0.962539   2.999219   2.940987   4.146589   5.418967
    20  H    2.793420   3.546522   1.095741   2.150103   3.165332
    21  H    3.972443   4.302078   1.092004   2.107755   2.760602
    22  H    6.048506   5.725195   3.028532   2.201818   1.080615
    23  H    6.052609   4.488224   4.611888   3.226168   3.185431
    24  H    3.573573   2.057912   2.846670   2.138727   3.160057
    25  H    5.837329   4.369061   4.800596   4.684666   5.312228
    26  H    6.383817   5.437328   5.221772   5.470769   6.047357
    27  H    7.225346   5.867852   6.920695   7.035837   7.758418
    28  H    5.748501   4.406858   6.047295   6.290876   7.252842
    29  H    5.715577   5.270926   5.937069   6.670536   7.652696
    30  H    6.919024   6.194435   7.395109   7.973941   8.943420
    31  H    7.251048   6.579535   7.040835   7.597229   8.391362
                   11         12         13         14         15
    11  N    0.000000
    12  C    1.312310   0.000000
    13  N    2.211646   1.356490   0.000000
    14  C    6.233865   5.790089   5.044193   0.000000
    15  C    7.543171   6.939965   6.161596   1.522749   0.000000
    16  N    8.606177   8.075575   7.167553   2.470972   1.481452
    17  H    3.870258   3.373746   2.490960   2.588785   3.838978
    18  H    5.651219   5.340980   4.076227   3.990907   4.907851
    19  H    6.338039   5.842555   4.513819   5.788603   6.452752
    20  H    4.258797   4.152379   3.051326   5.809173   6.939330
    21  H    4.063382   4.276456   3.361682   4.951008   6.279845
    22  H    2.149806   3.161288   3.231951   6.325446   7.786577
    23  H    2.131340   1.075802   2.131568   6.224263   7.230427
    24  H    3.180189   2.117274   1.013537   4.893295   5.813762
    25  H    5.525172   5.036265   4.476282   1.091478   2.163139
    26  H    6.554752   6.313535   5.654759   1.093151   2.148964
    27  H    7.965694   7.380899   6.764962   2.156014   1.091245
    28  H    7.512632   6.743187   5.914208   2.150065   1.092543
    29  H    8.308672   7.807678   6.786671   2.533247   2.034570
    30  H    9.429609   8.810429   7.879190   3.366593   2.097148
    31  H    8.955094   8.548949   7.707892   2.781809   2.079257
                   16         17         18         19         20
    16  N    0.000000
    17  H    4.787595   0.000000
    18  H    5.041729   2.933997   0.000000
    19  H    6.586847   4.387896   2.165172   0.000000
    20  H    7.386682   3.669247   2.555641   2.488782   0.000000
    21  H    6.688371   3.104768   2.372944   3.566663   1.756770
    22  H    8.558315   4.136779   4.996775   5.901436   3.514382
    23  H    8.470776   3.992606   6.156126   6.546348   5.078366
    24  H    6.814515   2.514611   3.934737   4.124660   3.247040
    25  H    3.419353   2.214127   4.404959   6.083661   5.801905
    26  H    2.690055   3.194695   4.396014   6.389804   6.224134
    27  H    2.117814   4.498430   5.916675   7.493694   7.834990
    28  H    2.110960   3.839179   4.894379   6.124123   6.816545
    29  H    1.030113   4.464883   4.194324   5.715763   6.639490
    30  H    1.019390   5.591078   5.737015   7.064288   8.107721
    31  H    1.019260   5.246519   5.526755   7.247965   7.870973
                   21         22         23         24         25
    21  H    0.000000
    22  H    2.798238   0.000000
    23  H    5.306426   4.174589   0.000000
    24  H    3.819974   4.194331   2.523838   0.000000
    25  H    4.998497   5.915153   5.367573   4.379692   0.000000
    26  H    5.093216   6.395813   6.826531   5.661370   1.764058
    27  H    7.095977   8.337950   7.574440   6.463420   2.462869
    28  H    6.430290   7.953155   6.937537   5.405331   2.516903
    29  H    5.998095   8.098684   8.296354   6.433938   3.572501
    30  H    7.547128   9.471345   9.137931   7.428505   4.220162
    31  H    6.972767   8.769001   8.988813   7.464601   3.739985
                   26         27         28         29         30
    26  H    0.000000
    27  H    2.511090   0.000000
    28  H    3.051066   1.760369   0.000000
    29  H    2.793963   2.937390   2.465547   0.000000
    30  H    3.677545   2.527246   2.362933   1.673202   0.000000
    31  H    2.585907   2.378481   2.961728   1.650464   1.662540
                   31
    31  H    0.000000
 Symmetry turned off by external request.
 Stoichiometry    C9H15N4O3(1+)
 Framework group  C1[X(C9H15N4O3)]
 Deg. of freedom    87
 Full point group                 C1      NOp   1
 Rotational constants (GHZ):      0.7862783      0.3062208      0.2589168
 Standard basis: 6-31+G(d,p) (6D, 7F)
   379 basis functions,   617 primitive gaussians,   379 cartesian basis functions
    60 alpha electrons       60 beta electrons
       nuclear repulsion energy      1154.5710476958 Hartrees.
 NAtoms=   31 NActive=   31 NUniq=   31 SFac= 1.00D+00 NAtFMM=   60 NAOKFM=F Big=F
 Integral buffers will be    131072 words long.
 Raffenetti 2 integral format.
 Two-electron integral symmetry is turned off.
 Nuclear repulsion after empirical dispersion term =     1154.5137904666 Hartrees.
 One-electron integrals computed using PRISM.
 NBasis=   379 RedAO= T EigKep=  5.80D-06  NBF=   379
 NBsUse=   379 1.00D-06 EigRej= -1.00D+00 NBFU=   379
 ExpMin= 4.38D-02 ExpMax= 5.48D+03 ExpMxC= 8.25D+02 IAcc=3 IRadAn=         5 AccDes= 0.00D+00
 Harris functional with IExCor=  402 and IRadAn=       5 diagonalized for initial guess.
 HarFok:  IExCor=  402 AccDes= 0.00D+00 IRadAn=         5 IDoV= 1 UseB2=F ITyADJ=14
 ICtDFT=  3500011 ScaDFX=  1.000000  1.000000  1.000000  1.000000
 FoFCou: FMM=F IPFlag=           0 FMFlag=      100000 FMFlg1=           0
         NFxFlg=           0 DoJE=T BraDBF=F KetDBF=T FulRan=T
         wScrn=  0.000000 ICntrl=     500 IOpCl=  0 I1Cent=   200000004 NGrid=           0
         NMat0=    1 NMatS0=      1 NMatT0=    0 NMatD0=    1 NMtDS0=    0 NMtDT0=    0
 Symmetry not used in FoFCou.
 Requested convergence on RMS density matrix=1.00D-08 within 128 cycles.
 Requested convergence on MAX density matrix=1.00D-06.
 Requested convergence on             energy=1.00D-06.
 No special actions if energy rises.
 SCF Done:  E(RB3LYP) =  -796.570412210     A.U. after   15 cycles
            NFock= 15  Conv=0.29D-08     -V/T= 2.0089
 DoSCS=F DFT=T ScalE2(SS,OS)=  1.000000  1.000000
 Range of M.O.s used for correlation:     1   379
 NBasis=   379 NAE=    60 NBE=    60 NFC=     0 NFV=     0
 NROrb=    379 NOA=    60 NOB=    60 NVA=   319 NVB=   319

 **** Warning!!: The largest alpha MO coefficient is  0.81547882D+02

 Symmetrizing basis deriv contribution to polar:
 IMax=3 JMax=2 DiffMx= 0.00D+00
 G2DrvN: will do    32 centers at a time, making    1 passes.
 Calling FoFCou, ICntrl=  3107 FMM=F I1Cent=   0 AccDes= 0.00D+00.
 End of G2Drv F.D. properties file   721 does not exist.
 End of G2Drv F.D. properties file   722 does not exist.
 End of G2Drv F.D. properties file   788 does not exist.
          IDoAtm=1111111111111111111111111111111
          Differentiating once with respect to nuclear coordinates.
          There are    96 degrees of freedom in the 1st order CPHF.  IDoFFX=6 NUNeed=     0.
     90 vectors produced by pass  0 Test12= 1.99D-14 1.04D-09 XBig12= 2.08D-01 8.87D-02.
 AX will form    90 AO Fock derivatives at one time.
     90 vectors produced by pass  1 Test12= 1.99D-14 1.04D-09 XBig12= 2.53D-02 2.72D-02.
     90 vectors produced by pass  2 Test12= 1.99D-14 1.04D-09 XBig12= 2.37D-04 1.76D-03.
     90 vectors produced by pass  3 Test12= 1.99D-14 1.04D-09 XBig12= 8.88D-07 1.05D-04.
     90 vectors produced by pass  4 Test12= 1.99D-14 1.04D-09 XBig12= 1.71D-09 3.50D-06.
     75 vectors produced by pass  5 Test12= 1.99D-14 1.04D-09 XBig12= 1.92D-12 1.32D-07.
     25 vectors produced by pass  6 Test12= 1.99D-14 1.04D-09 XBig12= 2.36D-15 5.35D-09.
      2 vectors produced by pass  7 Test12= 1.99D-14 1.04D-09 XBig12= 4.08D-16 2.71D-09.
 InvSVY:  IOpt=1 It=  1 EMax= 4.44D-16
 Solved reduced A of dimension   552 with    96 vectors.
 End of Minotr F.D. properties file   721 does not exist.
 End of Minotr F.D. properties file   722 does not exist.
 End of Minotr F.D. properties file   788 does not exist.

 **********************************************************************

            Population analysis using the SCF density.

 **********************************************************************

 Alpha  occ. eigenvalues --  -19.33575 -19.30131 -19.28090 -14.64655 -14.52810
 Alpha  occ. eigenvalues --  -14.48867 -14.40818 -10.46581 -10.46011 -10.43925
 Alpha  occ. eigenvalues --  -10.38832 -10.38659 -10.33592 -10.33155 -10.32330
 Alpha  occ. eigenvalues --  -10.29348  -1.24522  -1.22417  -1.19816  -1.16438
 Alpha  occ. eigenvalues --   -1.11877  -1.09638  -0.98112  -0.96936  -0.93336
 Alpha  occ. eigenvalues --   -0.86970  -0.84624  -0.79118  -0.78471  -0.78170
 Alpha  occ. eigenvalues --   -0.75983  -0.74984  -0.71662  -0.70275  -0.69532
 Alpha  occ. eigenvalues --   -0.68935  -0.66281  -0.65453  -0.62428  -0.61562
 Alpha  occ. eigenvalues --   -0.59909  -0.59278  -0.58276  -0.57782  -0.57056
 Alpha  occ. eigenvalues --   -0.55770  -0.55389  -0.54257  -0.52950  -0.51625
 Alpha  occ. eigenvalues --   -0.50810  -0.50443  -0.49925  -0.45701  -0.44342
 Alpha  occ. eigenvalues --   -0.43465  -0.41132  -0.37887  -0.36043  -0.32713
 Alpha virt. eigenvalues --   -0.18240  -0.15870  -0.14073  -0.13084  -0.12751
 Alpha virt. eigenvalues --   -0.11877  -0.11163  -0.09504  -0.08266  -0.07522
 Alpha virt. eigenvalues --   -0.07379  -0.07158  -0.06703  -0.05798  -0.05326
 Alpha virt. eigenvalues --   -0.05125  -0.04413  -0.04166  -0.03318  -0.03163
 Alpha virt. eigenvalues --   -0.02623  -0.02304  -0.01292  -0.01120  -0.00915
 Alpha virt. eigenvalues --   -0.00623   0.00195   0.00460   0.00674   0.01530
 Alpha virt. eigenvalues --    0.01846   0.01916   0.02834   0.03290   0.03451
 Alpha virt. eigenvalues --    0.03839   0.04631   0.05168   0.05436   0.06094
 Alpha virt. eigenvalues --    0.06280   0.06675   0.07563   0.07944   0.08179
 Alpha virt. eigenvalues --    0.08630   0.08888   0.09655   0.09862   0.10061
 Alpha virt. eigenvalues --    0.10669   0.11015   0.11711   0.12023   0.12459
 Alpha virt. eigenvalues --    0.12739   0.13471   0.13879   0.14523   0.14676
 Alpha virt. eigenvalues --    0.15621   0.16346   0.16655   0.16807   0.17006
 Alpha virt. eigenvalues --    0.17780   0.17991   0.18565   0.18629   0.19264
 Alpha virt. eigenvalues --    0.20197   0.20620   0.20690   0.21415   0.21723
 Alpha virt. eigenvalues --    0.21869   0.22686   0.23180   0.23627   0.24054
 Alpha virt. eigenvalues --    0.24203   0.25045   0.25622   0.26373   0.26576
 Alpha virt. eigenvalues --    0.27942   0.28206   0.29519   0.30465   0.30737
 Alpha virt. eigenvalues --    0.32387   0.33083   0.34075   0.34716   0.38428
 Alpha virt. eigenvalues --    0.38558   0.40483   0.41945   0.43235   0.44984
 Alpha virt. eigenvalues --    0.46565   0.50011   0.53221   0.55316   0.56733
 Alpha virt. eigenvalues --    0.57416   0.58075   0.58898   0.61401   0.62156
 Alpha virt. eigenvalues --    0.62906   0.63411   0.65128   0.65796   0.66442
 Alpha virt. eigenvalues --    0.67107   0.68323   0.69416   0.71084   0.72092
 Alpha virt. eigenvalues --    0.73760   0.74566   0.75041   0.76346   0.76825
 Alpha virt. eigenvalues --    0.78449   0.79004   0.79754   0.80988   0.81878
 Alpha virt. eigenvalues --    0.83478   0.84921   0.85356   0.85663   0.87750
 Alpha virt. eigenvalues --    0.89546   0.89658   0.90688   0.91741   0.92024
 Alpha virt. eigenvalues --    0.93478   0.94011   0.95123   0.95735   0.97239
 Alpha virt. eigenvalues --    0.99173   1.00162   1.00367   1.01242   1.03330
 Alpha virt. eigenvalues --    1.05189   1.06804   1.07700   1.07957   1.10301
 Alpha virt. eigenvalues --    1.12307   1.12653   1.14115   1.14702   1.17325
 Alpha virt. eigenvalues --    1.17979   1.19660   1.20550   1.21554   1.22126
 Alpha virt. eigenvalues --    1.23352   1.23643   1.24304   1.26578   1.28130
 Alpha virt. eigenvalues --    1.28526   1.29690   1.30561   1.31666   1.32545
 Alpha virt. eigenvalues --    1.33865   1.36089   1.38260   1.39214   1.40978
 Alpha virt. eigenvalues --    1.41346   1.43884   1.46480   1.47119   1.47901
 Alpha virt. eigenvalues --    1.48824   1.51343   1.52411   1.54583   1.59962
 Alpha virt. eigenvalues --    1.61310   1.62269   1.65275   1.66052   1.66370
 Alpha virt. eigenvalues --    1.67405   1.68948   1.69754   1.72084   1.72704
 Alpha virt. eigenvalues --    1.74280   1.76939   1.78653   1.79258   1.79597
 Alpha virt. eigenvalues --    1.81087   1.81882   1.82392   1.83445   1.83816
 Alpha virt. eigenvalues --    1.88089   1.89513   1.90470   1.90800   1.92504
 Alpha virt. eigenvalues --    1.94995   1.96096   1.97513   1.98531   1.99618
 Alpha virt. eigenvalues --    2.01632   2.03477   2.03952   2.04546   2.05371
 Alpha virt. eigenvalues --    2.05942   2.07147   2.09166   2.10330   2.11067
 Alpha virt. eigenvalues --    2.14490   2.15734   2.16688   2.17776   2.19332
 Alpha virt. eigenvalues --    2.19935   2.21719   2.24524   2.26088   2.27336
 Alpha virt. eigenvalues --    2.29071   2.29367   2.32659   2.34072   2.36333
 Alpha virt. eigenvalues --    2.36591   2.37925   2.39650   2.42337   2.42807
 Alpha virt. eigenvalues --    2.44501   2.46210   2.46361   2.47379   2.48792
 Alpha virt. eigenvalues --    2.50058   2.51480   2.53930   2.54259   2.55078
 Alpha virt. eigenvalues --    2.57029   2.58036   2.59383   2.60515   2.61352
 Alpha virt. eigenvalues --    2.62513   2.63512   2.65144   2.66876   2.70305
 Alpha virt. eigenvalues --    2.70731   2.72673   2.75716   2.76241   2.76622
 Alpha virt. eigenvalues --    2.78316   2.79317   2.80555   2.85419   2.89533
 Alpha virt. eigenvalues --    2.91516   2.94166   2.96484   2.97759   3.02624
 Alpha virt. eigenvalues --    3.05023   3.08641   3.12657   3.12835   3.16062
 Alpha virt. eigenvalues --    3.17074   3.20059   3.22352   3.22881   3.26909
 Alpha virt. eigenvalues --    3.31936   3.33951   3.38156   3.38740   3.44148
 Alpha virt. eigenvalues --    3.49187   3.50768   3.66681   3.99102   4.13485
 Alpha virt. eigenvalues --    4.14436   4.20983   4.24494   4.25900   4.28411
 Alpha virt. eigenvalues --    4.34938   4.36750   4.41558   4.48708   4.51410
 Alpha virt. eigenvalues --    4.55230   4.61122   4.66568   4.73883
          Condensed to atoms (all electrons):
               1          2          3          4          5          6
     1  O    8.280616   0.426465  -0.133131  -0.000017  -0.093858  -0.000489
     2  C    0.426465   6.353271   0.113620  -0.333826  -0.220195   0.001875
     3  N   -0.133131   0.113620   7.518116  -0.486753   0.362868   0.003486
     4  C   -0.000017  -0.333826  -0.486753   9.812135  -0.600080   0.105903
     5  C   -0.093858  -0.220195   0.362868  -0.600080   6.313368   0.036192
     6  O   -0.000489   0.001875   0.003486   0.105903   0.036192   8.175970
     7  O    0.005407   0.039588   0.010431  -0.250297   0.589686  -0.115516
     8  C    0.001880   0.060559   0.154878  -1.909924   0.178828  -0.104883
     9  C   -0.002515  -0.186775  -0.341043   0.668997  -0.553401   0.016603
    10  C   -0.002400   0.016896  -0.030594  -0.160985  -0.284771   0.013730
    11  N   -0.000088  -0.002691  -0.012717   0.014940  -0.016745   0.000034
    12  C   -0.001024  -0.012456  -0.040245  -0.025486  -0.131474  -0.001386
    13  N   -0.000255   0.003794   0.058303  -0.249412   0.015822  -0.004372
    14  C   -0.017891  -0.394307  -0.187572  -0.529319   0.078312  -0.008836
    15  C    0.036131  -0.220385   0.009777   0.093141  -0.034852   0.001009
    16  N   -0.062182  -0.017839  -0.005901  -0.020868   0.002615  -0.000146
    17  H    0.006137  -0.005809   0.276511   0.034588  -0.035568  -0.000622
    18  H   -0.008446   0.023468  -0.073835   0.425616  -0.095310  -0.001362
    19  H   -0.000394   0.009566   0.002868   0.047457   0.039289   0.188429
    20  H    0.000529   0.005102   0.020756  -0.024626   0.006340   0.007989
    21  H   -0.000270  -0.008581  -0.006177  -0.095570   0.009320  -0.001319
    22  H    0.000000   0.001248   0.000373   0.004973  -0.002002  -0.000003
    23  H   -0.000001   0.000466   0.000272  -0.001548  -0.002648   0.000010
    24  H   -0.000052  -0.001039   0.002449   0.036536  -0.012275   0.000914
    25  H    0.004699  -0.021554  -0.001836   0.011193  -0.001895  -0.000019
    26  H    0.005253  -0.078773  -0.003315   0.000845   0.000896  -0.000004
    27  H   -0.001948   0.027982  -0.001265   0.000818  -0.000406   0.000000
    28  H    0.002490  -0.005514   0.004349   0.006434   0.002338  -0.000024
    29  H    0.061361   0.042071   0.006989  -0.000732   0.001986  -0.000003
    30  H    0.003023  -0.007165   0.000264  -0.000316   0.000188   0.000000
    31  H    0.002135  -0.001826   0.000007   0.000883  -0.000007   0.000000
               7          8          9         10         11         12
     1  O    0.005407   0.001880  -0.002515  -0.002400  -0.000088  -0.001024
     2  C    0.039588   0.060559  -0.186775   0.016896  -0.002691  -0.012456
     3  N    0.010431   0.154878  -0.341043  -0.030594  -0.012717  -0.040245
     4  C   -0.250297  -1.909924   0.668997  -0.160985   0.014940  -0.025486
     5  C    0.589686   0.178828  -0.553401  -0.284771  -0.016745  -0.131474
     6  O   -0.115516  -0.104883   0.016603   0.013730   0.000034  -0.001386
     7  O    8.074842  -0.038870  -0.045651   0.014415   0.001409   0.023277
     8  C   -0.038870   9.850973  -2.325373  -0.065261  -0.076774  -0.103146
     9  C   -0.045651  -2.325373  10.846898  -1.851428  -0.120965  -0.309538
    10  C    0.014415  -0.065261  -1.851428   7.969285   0.457471  -0.086928
    11  N    0.001409  -0.076774  -0.120965   0.457471   6.741594   0.412602
    12  C    0.023277  -0.103146  -0.309538  -0.086928   0.412602   5.566130
    13  N    0.028056   0.203517  -0.002121  -0.148723  -0.020125   0.042650
    14  C    0.015454  -0.122671  -0.002419  -0.070530  -0.002116  -0.037068
    15  C    0.003582   0.012209  -0.011684   0.001999   0.000211   0.008117
    16  N   -0.000055  -0.001373  -0.000686  -0.000202  -0.000003  -0.000177
    17  H   -0.003196  -0.039282   0.032422  -0.008763  -0.000565  -0.001466
    18  H    0.005085  -0.049436   0.052116   0.008245   0.000172   0.002219
    19  H    0.008117  -0.018721  -0.037620  -0.005783  -0.000024  -0.000731
    20  H    0.001299   0.411345  -0.065608  -0.054848  -0.002036  -0.009930
    21  H   -0.000009   0.584677  -0.189795   0.024244  -0.000825   0.000829
    22  H   -0.000003   0.028633  -0.098339   0.410087  -0.061999   0.024343
    23  H   -0.000297   0.007093   0.027626  -0.018449  -0.049746   0.460445
    24  H    0.012307  -0.088077   0.079498  -0.012039   0.010170  -0.002336
    25  H   -0.000187  -0.004146   0.003545  -0.000028  -0.000019  -0.000436
    26  H   -0.000075   0.001222  -0.000882  -0.000115   0.000002   0.000026
    27  H    0.000001  -0.000083   0.000046   0.000010   0.000000   0.000004
    28  H   -0.000263   0.000843  -0.000169  -0.000030   0.000000  -0.000007
    29  H    0.000025  -0.001137   0.000048  -0.000020   0.000000  -0.000005
    30  H    0.000001   0.000044  -0.000024   0.000001   0.000000   0.000000
    31  H    0.000001   0.000027   0.000004  -0.000001   0.000000   0.000000
              13         14         15         16         17         18
     1  O   -0.000255  -0.017891   0.036131  -0.062182   0.006137  -0.008446
     2  C    0.003794  -0.394307  -0.220385  -0.017839  -0.005809   0.023468
     3  N    0.058303  -0.187572   0.009777  -0.005901   0.276511  -0.073835
     4  C   -0.249412  -0.529319   0.093141  -0.020868   0.034588   0.425616
     5  C    0.015822   0.078312  -0.034852   0.002615  -0.035568  -0.095310
     6  O   -0.004372  -0.008836   0.001009  -0.000146  -0.000622  -0.001362
     7  O    0.028056   0.015454   0.003582  -0.000055  -0.003196   0.005085
     8  C    0.203517  -0.122671   0.012209  -0.001373  -0.039282  -0.049436
     9  C   -0.002121  -0.002419  -0.011684  -0.000686   0.032422   0.052116
    10  C   -0.148723  -0.070530   0.001999  -0.000202  -0.008763   0.008245
    11  N   -0.020125  -0.002116   0.000211  -0.000003  -0.000565   0.000172
    12  C    0.042650  -0.037068   0.008117  -0.000177  -0.001466   0.002219
    13  N    7.303883  -0.008427   0.008916  -0.000183   0.003667   0.001777
    14  C   -0.008427   6.832722   0.089169  -0.012316   0.039144   0.001708
    15  C    0.008916   0.089169   5.431477   0.049447  -0.001233  -0.001465
    16  N   -0.000183  -0.012316   0.049447   6.880940   0.000388  -0.000012
    17  H    0.003667   0.039144  -0.001233   0.000388   0.360830   0.003719
    18  H    0.001777   0.001708  -0.001465  -0.000012   0.003719   0.524222
    19  H   -0.000136   0.000086  -0.000151   0.000004   0.000027   0.001277
    20  H   -0.000987   0.001309  -0.000199  -0.000001   0.000222  -0.000606
    21  H    0.014625  -0.003271   0.000199   0.000002  -0.000311  -0.008168
    22  H   -0.002139  -0.000038  -0.000001   0.000000   0.000015   0.000003
    23  H   -0.117138  -0.000366   0.000027   0.000000   0.000014   0.000000
    24  H    0.262238  -0.000605  -0.000035   0.000000  -0.000548  -0.000017
    25  H   -0.001256   0.363228  -0.021860   0.008067   0.002876  -0.000015
    26  H   -0.000077   0.428032  -0.045787   0.007699  -0.000009   0.000008
    27  H    0.000001  -0.063732   0.408113  -0.029752  -0.000005   0.000000
    28  H   -0.000040  -0.051270   0.410440  -0.036293  -0.000001   0.000000
    29  H   -0.000004  -0.050021  -0.019501   0.255326  -0.000046  -0.000029
    30  H    0.000001   0.022074  -0.017547   0.295351   0.000000   0.000000
    31  H    0.000000  -0.009716  -0.007124   0.311676  -0.000001   0.000000
              19         20         21         22         23         24
     1  O   -0.000394   0.000529  -0.000270   0.000000  -0.000001  -0.000052
     2  C    0.009566   0.005102  -0.008581   0.001248   0.000466  -0.001039
     3  N    0.002868   0.020756  -0.006177   0.000373   0.000272   0.002449
     4  C    0.047457  -0.024626  -0.095570   0.004973  -0.001548   0.036536
     5  C    0.039289   0.006340   0.009320  -0.002002  -0.002648  -0.012275
     6  O    0.188429   0.007989  -0.001319  -0.000003   0.000010   0.000914
     7  O    0.008117   0.001299  -0.000009  -0.000003  -0.000297   0.012307
     8  C   -0.018721   0.411345   0.584677   0.028633   0.007093  -0.088077
     9  C   -0.037620  -0.065608  -0.189795  -0.098339   0.027626   0.079498
    10  C   -0.005783  -0.054848   0.024244   0.410087  -0.018449  -0.012039
    11  N   -0.000024  -0.002036  -0.000825  -0.061999  -0.049746   0.010170
    12  C   -0.000731  -0.009930   0.000829   0.024343   0.460445  -0.002336
    13  N   -0.000136  -0.000987   0.014625  -0.002139  -0.117138   0.262238
    14  C    0.000086   0.001309  -0.003271  -0.000038  -0.000366  -0.000605
    15  C   -0.000151  -0.000199   0.000199  -0.000001   0.000027  -0.000035
    16  N    0.000004  -0.000001   0.000002   0.000000   0.000000   0.000000
    17  H    0.000027   0.000222  -0.000311   0.000015   0.000014  -0.000548
    18  H    0.001277  -0.000606  -0.008168   0.000003   0.000000  -0.000017
    19  H    0.407495   0.000668  -0.000043   0.000000   0.000000  -0.000036
    20  H    0.000668   0.551056  -0.028073  -0.000063   0.000001   0.000312
    21  H   -0.000043  -0.028073   0.521859   0.001300   0.000004  -0.000076
    22  H    0.000000  -0.000063   0.001300   0.551621  -0.000036  -0.000068
    23  H    0.000000   0.000001   0.000004  -0.000036   0.543942   0.000726
    24  H   -0.000036   0.000312  -0.000076  -0.000068   0.000726   0.374259
    25  H    0.000000   0.000000  -0.000001   0.000000   0.000000   0.000002
    26  H    0.000000   0.000000  -0.000001   0.000000   0.000000   0.000000
    27  H    0.000000   0.000000   0.000000   0.000000   0.000000   0.000000
    28  H    0.000000   0.000000   0.000000   0.000000   0.000000   0.000000
    29  H    0.000000   0.000000   0.000000   0.000000   0.000000   0.000000
    30  H    0.000000   0.000000   0.000000   0.000000   0.000000   0.000000
    31  H    0.000000   0.000000   0.000000   0.000000   0.000000   0.000000
              25         26         27         28         29         30
     1  O    0.004699   0.005253  -0.001948   0.002490   0.061361   0.003023
     2  C   -0.021554  -0.078773   0.027982  -0.005514   0.042071  -0.007165
     3  N   -0.001836  -0.003315  -0.001265   0.004349   0.006989   0.000264
     4  C    0.011193   0.000845   0.000818   0.006434  -0.000732  -0.000316
     5  C   -0.001895   0.000896  -0.000406   0.002338   0.001986   0.000188
     6  O   -0.000019  -0.000004   0.000000  -0.000024  -0.000003   0.000000
     7  O   -0.000187  -0.000075   0.000001  -0.000263   0.000025   0.000001
     8  C   -0.004146   0.001222  -0.000083   0.000843  -0.001137   0.000044
     9  C    0.003545  -0.000882   0.000046  -0.000169   0.000048  -0.000024
    10  C   -0.000028  -0.000115   0.000010  -0.000030  -0.000020   0.000001
    11  N   -0.000019   0.000002   0.000000   0.000000   0.000000   0.000000
    12  C   -0.000436   0.000026   0.000004  -0.000007  -0.000005   0.000000
    13  N   -0.001256  -0.000077   0.000001  -0.000040  -0.000004   0.000001
    14  C    0.363228   0.428032  -0.063732  -0.051270  -0.050021   0.022074
    15  C   -0.021860  -0.045787   0.408113   0.410440  -0.019501  -0.017547
    16  N    0.008067   0.007699  -0.029752  -0.036293   0.255326   0.295351
    17  H    0.002876  -0.000009  -0.000005  -0.000001  -0.000046   0.000000
    18  H   -0.000015   0.000008   0.000000   0.000000  -0.000029   0.000000
    19  H    0.000000   0.000000   0.000000   0.000000   0.000000   0.000000
    20  H    0.000000   0.000000   0.000000   0.000000   0.000000   0.000000
    21  H   -0.000001  -0.000001   0.000000   0.000000   0.000000   0.000000
    22  H    0.000000   0.000000   0.000000   0.000000   0.000000   0.000000
    23  H    0.000000   0.000000   0.000000   0.000000   0.000000   0.000000
    24  H    0.000002   0.000000   0.000000   0.000000   0.000000   0.000000
    25  H    0.490048  -0.016561  -0.003458  -0.001734   0.000205  -0.000098
    26  H   -0.016561   0.493219  -0.003742   0.003801  -0.001331  -0.000030
    27  H   -0.003458  -0.003742   0.479689  -0.024194   0.003467  -0.001752
    28  H   -0.001734   0.003801  -0.024194   0.469539  -0.003218  -0.003073
    29  H    0.000205  -0.001331   0.003467  -0.003218   0.297269  -0.010079
    30  H   -0.000098  -0.000030  -0.001752  -0.003073  -0.010079   0.333094
    31  H   -0.000058   0.002459  -0.005275   0.003642  -0.015919  -0.013397
              31
     1  O    0.002135
     2  C   -0.001826
     3  N    0.000007
     4  C    0.000883
     5  C   -0.000007
     6  O    0.000000
     7  O    0.000001
     8  C    0.000027
     9  C    0.000004
    10  C   -0.000001
    11  N    0.000000
    12  C    0.000000
    13  N    0.000000
    14  C   -0.009716
    15  C   -0.007124
    16  N    0.311676
    17  H   -0.000001
    18  H    0.000000
    19  H    0.000000
    20  H    0.000000
    21  H    0.000000
    22  H    0.000000
    23  H    0.000000
    24  H    0.000000
    25  H   -0.000058
    26  H    0.002459
    27  H   -0.005275
    28  H    0.003642
    29  H   -0.015919
    30  H   -0.013397
    31  H    0.333066
 Mulliken charges:
               1
     1  O   -0.511167
     2  C    0.392761
     3  N   -0.221932
     4  C   -0.574701
     5  C    0.447437
     6  O   -0.313161
     7  O   -0.378563
     8  C   -0.547570
     9  C    0.418230
    10  C   -0.114485
    11  N   -0.271167
    12  C    0.223198
    13  N   -0.391852
    14  C   -0.298747
    15  C   -0.182141
    16  N   -0.623527
    17  H    0.336864
    18  H    0.189065
    19  H    0.358356
    20  H    0.180049
    21  H    0.185429
    22  H    0.142093
    23  H    0.149603
    24  H    0.337793
    25  H    0.191297
    26  H    0.207240
    27  H    0.215479
    28  H    0.221954
    29  H    0.433297
    30  H    0.399440
    31  H    0.399427
 Sum of Mulliken charges =   1.00000
 Mulliken charges with hydrogens summed into heavy atoms:
               1
     1  O   -0.511167
     2  C    0.392761
     3  N    0.114932
     4  C   -0.385635
     5  C    0.447437
     6  O    0.045195
     7  O   -0.378563
     8  C   -0.182091
     9  C    0.418230
    10  C    0.027608
    11  N   -0.271167
    12  C    0.372801
    13  N   -0.054059
    14  C    0.099790
    15  C    0.255292
    16  N    0.608637
 APT charges:
               1
     1  O   -0.420812
     2  C    0.319924
     3  N   -0.228495
     4  C   -0.952045
     5  C   -0.038165
     6  O   -0.289094
     7  O   -0.314909
     8  C   -1.309894
     9  C    0.141411
    10  C   -0.258824
    11  N   -0.163650
    12  C   -0.315611
    13  N   -0.507775
    14  C   -0.695169
    15  C   -0.717119
    16  N   -1.556890
    17  H    0.429763
    18  H    0.477055
    19  H    0.654248
    20  H    0.623944
    21  H    0.443430
    22  H    0.733021
    23  H    0.739104
    24  H    0.263089
    25  H    0.250542
    26  H    0.536141
    27  H    0.757645
    28  H    0.234154
    29  H    0.210369
    30  H    1.091263
    31  H    0.863347
 Sum of APT charges =   1.00000
 APT charges with hydrogens summed into heavy atoms:
               1
     1  O   -0.420812
     2  C    0.319924
     3  N    0.201268
     4  C   -0.474990
     5  C   -0.038165
     6  O    0.365154
     7  O   -0.314909
     8  C   -0.242521
     9  C    0.141411
    10  C    0.474197
    11  N   -0.163650
    12  C    0.423494
    13  N   -0.244686
    14  C    0.091514
    15  C    0.274680
    16  N    0.608089
 Electronic spatial extent (au):  <R**2>=           4394.0263
 Charge=              1.0000 electrons
 Dipole moment (field-independent basis, Debye):
    X=            -16.3387    Y=             -0.5655    Z=             -0.3139  Tot=             16.3515
 Quadrupole moment (field-independent basis, Debye-Ang):
   XX=            -27.5645   YY=            -75.8816   ZZ=           -100.6939
   XY=             22.3405   XZ=             -3.1846   YZ=              3.8452
 Traceless Quadrupole moment (field-independent basis, Debye-Ang):
   XX=             40.4822   YY=             -7.8349   ZZ=            -32.6473
   XY=             22.3405   XZ=             -3.1846   YZ=              3.8452
 Octapole moment (field-independent basis, Debye-Ang**2):
  XXX=           -546.3241  YYY=             -0.4052  ZZZ=             25.0182  XYY=            -41.2746
  XXY=            -39.0943  XXZ=            -57.0606  XZZ=            -89.8050  YZZ=              5.6332
  YYZ=            -16.8549  XYZ=             20.4138
 Hexadecapole moment (field-independent basis, Debye-Ang**3):
 XXXX=          -2497.0463 YYYY=           -727.8466 ZZZZ=          -1043.5343 XXXY=            233.0363
 XXXZ=           -312.4817 YYYX=             10.5561 YYYZ=            139.2244 ZZZX=           -214.8659
 ZZZY=            231.1427 XXYY=           -717.6161 XXZZ=           -812.4821 YYZZ=           -314.6023
 XXYZ=            172.2451 YYXZ=           -117.8822 ZZXY=             50.0800
 N-N= 1.154513790467D+03 E-N=-4.148654236920D+03  KE= 7.895372105526D+02
  Exact polarizability:   0.000   0.000   0.000   0.000   0.000   0.000
 Approx polarizability: 188.899 -19.509 212.988  18.290  -0.954 188.469
 Calling FoFJK, ICntrl=    100147 FMM=F ISym2X=0 I1Cent= 0 IOpClX= 0 NMat=1 NMatS=1 NMatT=0.
 -------------------------------------------------------------------
 Center     Atomic                   Forces (Hartrees/Bohr)
 Number     Number              X              Y              Z
 -------------------------------------------------------------------
      1        8          -0.022462686    0.007233644   -0.008737168
      2        6           0.019172201   -0.010592090    0.007887764
      3        7          -0.006749562    0.001901514   -0.007602501
      4        6           0.000020572    0.007412004    0.007887699
      5        6           0.001653523    0.006013608   -0.008844037
      6        8          -0.000876239   -0.007218744    0.002084094
      7        8          -0.001986278   -0.009507815   -0.000771996
      8        6           0.005808508   -0.000944610    0.003222607
      9        6          -0.008940484    0.013472520   -0.001485990
     10        6           0.005318147   -0.003811755    0.011997356
     11        7           0.000881831    0.003538768    0.003008668
     12        6           0.005326642   -0.010059043    0.002527002
     13        7          -0.004041433   -0.003627041   -0.014395792
     14        6           0.001220556    0.006462029    0.003136627
     15        6           0.016618725   -0.020006736   -0.001144024
     16        7          -0.005920185    0.002511969   -0.000889582
     17        1           0.002512909   -0.004669543    0.003237178
     18        1           0.000037436    0.001386630    0.000713589
     19        1          -0.000532186    0.009262799    0.000131335
     20        1           0.000201591    0.001465860   -0.000978644
     21        1          -0.000173369    0.001212322    0.000330397
     22        1          -0.000218899    0.000380199    0.000323523
     23        1           0.001483949   -0.003493994   -0.001250799
     24        1           0.001189830   -0.000027785   -0.001211340
     25        1          -0.003643627   -0.003557978   -0.000172455
     26        1           0.001039810   -0.000838429    0.004486005
     27        1          -0.003684976    0.001269128   -0.000380573
     28        1          -0.003962831    0.003179295   -0.002413050
     29        1           0.009222738    0.012394614   -0.001611532
     30        1          -0.003899546   -0.001072793   -0.001653340
     31        1          -0.004616667    0.000331446    0.002568980
 -------------------------------------------------------------------
 Cartesian Forces:  Max     0.022462686 RMS     0.006447751
 FormGI is forming the generalized inverse of G from B-inverse, IUseBI=4.
 GSVD:  received Info=                   1 from GESDD.

 GradGradGradGradGradGradGradGradGradGradGradGradGradGradGradGradGradGrad
 Berny optimization.
 Internal  Forces:  Max     0.020422862 RMS     0.005048605
 Search for a local minimum.
 Step number   1 out of a maximum of  167
 All quantities printed in internal units (Hartrees-Bohrs-Radians)
 Mixed Optimization -- RFO/linear search
 Second derivative matrix not updated -- analytic derivatives used.
 ITU=  0
     Eigenvalues ---   -0.00249   0.00107   0.00251   0.00299   0.00332
     Eigenvalues ---    0.00546   0.00682   0.00846   0.01021   0.01136
     Eigenvalues ---    0.01651   0.01795   0.02091   0.02750   0.03375
     Eigenvalues ---    0.03893   0.04006   0.04133   0.04262   0.04372
     Eigenvalues ---    0.04750   0.04999   0.05065   0.05261   0.05495
     Eigenvalues ---    0.05640   0.05898   0.05987   0.06157   0.07766
     Eigenvalues ---    0.08206   0.08210   0.10837   0.10961   0.11370
     Eigenvalues ---    0.11866   0.12280   0.12654   0.12967   0.13257
     Eigenvalues ---    0.14727   0.15349   0.15979   0.16847   0.17924
     Eigenvalues ---    0.20391   0.20947   0.22113   0.22446   0.23052
     Eigenvalues ---    0.23489   0.23714   0.24664   0.25359   0.26248
     Eigenvalues ---    0.27258   0.29602   0.32117   0.32441   0.32783
     Eigenvalues ---    0.33421   0.34282   0.34359   0.34482   0.34569
     Eigenvalues ---    0.34875   0.35293   0.35438   0.37169   0.37642
     Eigenvalues ---    0.38488   0.40071   0.42186   0.42949   0.44644
     Eigenvalues ---    0.44820   0.45686   0.46186   0.46618   0.48368
     Eigenvalues ---    0.49266   0.54380   0.54602   0.56102   0.60457
     Eigenvalues ---    0.82317   0.90756
 RFO step:  Lambda=-1.48321988D-02 EMin=-2.48583574D-03
 Linear search not attempted -- first point.
 Iteration  1 RMS(Cart)=  0.17429231 RMS(Int)=  0.02543626
 Iteration  2 RMS(Cart)=  0.10906199 RMS(Int)=  0.00250709
 Iteration  3 RMS(Cart)=  0.00659249 RMS(Int)=  0.00034654
 Iteration  4 RMS(Cart)=  0.00001163 RMS(Int)=  0.00034652
 Iteration  5 RMS(Cart)=  0.00000000 RMS(Int)=  0.00034652
 Variable       Old X    -DE/DX   Delta X   Delta X   Delta X     New X
                                 (Linear)    (Quad)   (Total)
    R1        2.32517   0.02005   0.00000   0.03883   0.03883   2.36399
    R2        2.54864   0.00085   0.00000  -0.02631  -0.02631   2.52233
    R3        2.87324  -0.00102   0.00000   0.00339   0.00339   2.87662
    R4        2.73352   0.00549   0.00000   0.01339   0.01339   2.74691
    R5        1.90167   0.00587   0.00000   0.01462   0.01462   1.91628
    R6        2.87958   0.00696   0.00000   0.03051   0.03051   2.91009
    R7        2.91309   0.00644   0.00000   0.01027   0.01027   2.92336
    R8        2.06321   0.00112   0.00000   0.00456   0.00456   2.06777
    R9        2.54561   0.00022   0.00000  -0.01389  -0.01389   2.53172
   R10        2.27910   0.00876   0.00000   0.00944   0.00944   2.28854
   R11        1.81893   0.00771   0.00000   0.01360   0.01360   1.83253
   R12        2.83385   0.00340   0.00000   0.00093   0.00093   2.83478
   R13        2.07065   0.00157   0.00000   0.00399   0.00399   2.07464
   R14        2.06359   0.00086   0.00000   0.00221   0.00221   2.06580
   R15        2.57966   0.01259   0.00000   0.02367   0.02368   2.60334
   R16        2.59662   0.01652   0.00000   0.03297   0.03301   2.62963
   R17        2.60917   0.00092   0.00000  -0.00845  -0.00848   2.60070
   R18        2.04207   0.00045   0.00000   0.00137   0.00137   2.04344
   R19        2.47991   0.00568   0.00000   0.00698   0.00695   2.48685
   R20        2.56339   0.01327   0.00000   0.02412   0.02413   2.58753
   R21        2.03297   0.00393   0.00000   0.00906   0.00906   2.04204
   R22        1.91531   0.00068   0.00000  -0.00107  -0.00107   1.91424
   R23        2.87758   0.00101   0.00000   0.01905   0.01905   2.89663
   R24        2.06259   0.00018   0.00000   0.00164   0.00164   2.06423
   R25        2.06576   0.00348   0.00000   0.00752   0.00752   2.07327
   R26        2.79954   0.01381   0.00000   0.05023   0.05023   2.84977
   R27        2.06215   0.00029   0.00000  -0.00110  -0.00110   2.06105
   R28        2.06461   0.00019   0.00000  -0.00028  -0.00028   2.06433
   R29        1.94663   0.01539   0.00000   0.06293   0.06293   2.00957
   R30        1.92637   0.00388   0.00000   0.00578   0.00578   1.93215
   R31        1.92612   0.00460   0.00000   0.00720   0.00720   1.93333
    A1        2.12299   0.01331   0.00000   0.01022   0.00983   2.13282
    A2        2.13353  -0.02042   0.00000  -0.05540  -0.05576   2.07777
    A3        2.02595   0.00717   0.00000   0.04697   0.04660   2.07255
    A4        2.09337   0.00847   0.00000   0.01241   0.01166   2.10503
    A5        2.10688  -0.00510   0.00000  -0.02312  -0.02383   2.08305
    A6        2.04243  -0.00288   0.00000  -0.00899  -0.00983   2.03259
    A7        1.95910  -0.00558   0.00000  -0.04633  -0.04617   1.91293
    A8        1.93291  -0.00057   0.00000  -0.01473  -0.01460   1.91831
    A9        1.85108   0.00214   0.00000   0.02686   0.02685   1.87793
   A10        1.93145   0.00526   0.00000   0.02812   0.02752   1.95897
   A11        1.88111  -0.00012   0.00000  -0.00385  -0.00395   1.87716
   A12        1.90506  -0.00122   0.00000   0.01143   0.01132   1.91638
   A13        2.01129   0.00371   0.00000   0.01894   0.01887   2.03015
   A14        2.17330  -0.00616   0.00000  -0.02903  -0.02910   2.14421
   A15        2.09734   0.00251   0.00000   0.01110   0.01104   2.10838
   A16        1.91796   0.00930   0.00000   0.04703   0.04703   1.96499
   A17        1.99040   0.00339   0.00000   0.00594   0.00593   1.99633
   A18        1.89661   0.00002   0.00000  -0.00257  -0.00264   1.89397
   A19        1.89010  -0.00268   0.00000  -0.01022  -0.01023   1.87987
   A20        1.93593  -0.00083   0.00000   0.00912   0.00911   1.94503
   A21        1.88151  -0.00032   0.00000  -0.00015  -0.00012   1.88138
   A22        1.86464   0.00017   0.00000  -0.00318  -0.00322   1.86142
   A23        2.28746  -0.00340   0.00000  -0.01377  -0.01389   2.27357
   A24        2.16183   0.00603   0.00000   0.02158   0.02146   2.18329
   A25        1.83367  -0.00262   0.00000  -0.00733  -0.00735   1.82633
   A26        1.93296   0.00104   0.00000   0.00380   0.00380   1.93676
   A27        2.23420  -0.00080   0.00000  -0.00721  -0.00722   2.22698
   A28        2.11602  -0.00024   0.00000   0.00343   0.00342   2.11944
   A29        1.83003   0.00498   0.00000   0.01168   0.01163   1.84166
   A30        1.95339  -0.00161   0.00000  -0.00349  -0.00349   1.94990
   A31        2.20063   0.00015   0.00000  -0.00098  -0.00099   2.19964
   A32        2.12911   0.00147   0.00000   0.00450   0.00450   2.13361
   A33        1.87463  -0.00178   0.00000  -0.00464  -0.00460   1.87003
   A34        2.20875   0.00147   0.00000   0.00429   0.00423   2.21298
   A35        2.19879   0.00029   0.00000   0.00093   0.00086   2.19965
   A36        1.95049  -0.01948   0.00000  -0.05867  -0.05848   1.89202
   A37        1.91659   0.01166   0.00000   0.04901   0.04838   1.96498
   A38        1.87574   0.00343   0.00000   0.01321   0.01304   1.88879
   A39        1.93018   0.00205   0.00000  -0.01234  -0.01170   1.91848
   A40        1.90890   0.00631   0.00000   0.01816   0.01831   1.92721
   A41        1.87976  -0.00340   0.00000  -0.00693  -0.00740   1.87235
   A42        1.93147  -0.01264   0.00000  -0.04180  -0.04194   1.88953
   A43        1.92055   0.00567   0.00000   0.04237   0.04196   1.96251
   A44        1.91103   0.00655   0.00000   0.01959   0.01749   1.92852
   A45        1.91782   0.00368   0.00000   0.00058   0.00134   1.91916
   A46        1.90696  -0.00176   0.00000  -0.04206  -0.04215   1.86480
   A47        1.87509  -0.00114   0.00000   0.02277   0.02179   1.89688
   A48        1.86452  -0.00301   0.00000  -0.05488  -0.05484   1.80968
   A49        1.96649   0.00063   0.00000   0.00320   0.00317   1.96966
   A50        1.93996   0.00250   0.00000   0.01504   0.01508   1.95505
   A51        1.91026   0.00143   0.00000   0.03521   0.03517   1.94543
   A52        1.87251   0.00071   0.00000   0.01650   0.01662   1.88914
   A53        1.90722  -0.00221   0.00000  -0.01413  -0.01414   1.89308
    D1       -0.15520   0.00219   0.00000   0.00342   0.00425  -0.15096
    D2       -2.98595   0.00086   0.00000   0.07852   0.07890  -2.90705
    D3        3.02611   0.00117   0.00000  -0.04526  -0.04564   2.98047
    D4        0.19536  -0.00016   0.00000   0.02984   0.02901   0.22438
    D5        0.78388  -0.00166   0.00000  -0.00531  -0.00450   0.77938
    D6        2.93257  -0.00419   0.00000  -0.02673  -0.02696   2.90561
    D7       -1.31055  -0.00006   0.00000  -0.00129  -0.00062  -1.31117
    D8       -2.39769   0.00022   0.00000   0.04534   0.04532  -2.35237
    D9       -0.24900  -0.00231   0.00000   0.02392   0.02286  -0.22614
   D10        1.79107   0.00182   0.00000   0.04937   0.04920   1.84027
   D11       -1.53724   0.00231   0.00000   0.34727   0.34781  -1.18943
   D12        2.57752  -0.00003   0.00000   0.35571   0.35546   2.93298
   D13        0.51276   0.00048   0.00000   0.33415   0.33405   0.84682
   D14        1.30470   0.00310   0.00000   0.27223   0.27264   1.57734
   D15       -0.86372   0.00076   0.00000   0.28067   0.28029  -0.58343
   D16       -2.92848   0.00127   0.00000   0.25911   0.25888  -2.66960
   D17        2.73613  -0.00041   0.00000   0.03580   0.03611   2.77223
   D18       -0.45943   0.00095   0.00000   0.05803   0.05819  -0.40123
   D19       -1.37783  -0.00130   0.00000   0.00364   0.00362  -1.37421
   D20        1.70980   0.00005   0.00000   0.02587   0.02571   1.73551
   D21        0.70410   0.00019   0.00000   0.03147   0.03140   0.73550
   D22       -2.49146   0.00154   0.00000   0.05370   0.05349  -2.43797
   D23        0.83194  -0.00212   0.00000  -0.01551  -0.01559   0.81635
   D24        3.00125  -0.00077   0.00000  -0.00133  -0.00142   2.99983
   D25       -1.26256  -0.00199   0.00000  -0.01191  -0.01197  -1.27452
   D26       -1.35218   0.00168   0.00000   0.03465   0.03485  -1.31733
   D27        0.81713   0.00303   0.00000   0.04882   0.04901   0.86614
   D28        2.83651   0.00181   0.00000   0.03824   0.03846   2.87497
   D29        2.86358  -0.00058   0.00000   0.01544   0.01532   2.87890
   D30       -1.25029   0.00078   0.00000   0.02962   0.02948  -1.22082
   D31        0.76909  -0.00045   0.00000   0.01904   0.01893   0.78802
   D32       -0.05788  -0.00016   0.00000  -0.01300  -0.01278  -0.07066
   D33        3.13513  -0.00115   0.00000  -0.03282  -0.03303   3.10210
   D34       -2.49695   0.00262   0.00000   0.05378   0.05377  -2.44318
   D35        0.61836   0.00322   0.00000   0.08168   0.08173   0.70009
   D36        1.63816   0.00071   0.00000   0.04562   0.04557   1.68373
   D37       -1.52972   0.00130   0.00000   0.07352   0.07353  -1.45618
   D38       -0.39763   0.00115   0.00000   0.04452   0.04449  -0.35314
   D39        2.71768   0.00175   0.00000   0.07242   0.07245   2.79013
   D40        3.12421   0.00072   0.00000   0.02823   0.02790  -3.13108
   D41       -0.01420   0.00045   0.00000   0.02132   0.02110   0.00690
   D42        0.00522   0.00010   0.00000   0.00387   0.00388   0.00910
   D43       -3.13319  -0.00017   0.00000  -0.00304  -0.00292  -3.13611
   D44       -3.13237  -0.00035   0.00000  -0.02290  -0.02316   3.12766
   D45        0.05548   0.00034   0.00000  -0.03604  -0.03624   0.01924
   D46       -0.01130   0.00007   0.00000  -0.00133  -0.00131  -0.01261
   D47       -3.10664   0.00076   0.00000  -0.01446  -0.01439  -3.12103
   D48        0.00308  -0.00020   0.00000  -0.00484  -0.00489  -0.00182
   D49       -3.14145   0.00004   0.00000   0.00151   0.00140  -3.14005
   D50       -0.01059   0.00023   0.00000   0.00391   0.00395  -0.00663
   D51       -3.14110  -0.00039   0.00000   0.00097   0.00098  -3.14012
   D52        0.01420  -0.00021   0.00000  -0.00174  -0.00174   0.01246
   D53        3.10987  -0.00086   0.00000   0.01141   0.01132   3.12120
   D54       -3.13795   0.00037   0.00000   0.00102   0.00107  -3.13689
   D55       -0.04228  -0.00028   0.00000   0.01418   0.01413  -0.02815
   D56       -1.07612   0.00561   0.00000   0.05891   0.05915  -1.01697
   D57        3.08416   0.00555   0.00000   0.05750   0.05828  -3.14075
   D58        1.02697  -0.00035   0.00000  -0.00714  -0.00735   1.01962
   D59        3.06610   0.00283   0.00000   0.04593   0.04563   3.11174
   D60        0.94320   0.00277   0.00000   0.04452   0.04476   0.98796
   D61       -1.11400  -0.00312   0.00000  -0.02012  -0.02086  -1.13486
   D62        0.99873   0.00187   0.00000   0.05066   0.05062   1.04935
   D63       -1.12417   0.00181   0.00000   0.04925   0.04975  -1.07442
   D64        3.10182  -0.00409   0.00000  -0.01539  -0.01587   3.08594
   D65        0.80189  -0.00071   0.00000  -0.04751  -0.04711   0.75478
   D66        2.90017  -0.00056   0.00000  -0.03830  -0.03785   2.86232
   D67       -1.23557  -0.00112   0.00000  -0.04316  -0.04268  -1.27825
   D68        2.92641   0.00054   0.00000  -0.02145  -0.02139   2.90501
   D69       -1.25850   0.00069   0.00000  -0.01224  -0.01213  -1.27063
   D70        0.88895   0.00013   0.00000  -0.01710  -0.01696   0.87198
   D71       -1.30362   0.00026   0.00000  -0.01835  -0.01894  -1.32256
   D72        0.79466   0.00041   0.00000  -0.00914  -0.00968   0.78498
   D73        2.94211  -0.00015   0.00000  -0.01400  -0.01451   2.92760
         Item               Value     Threshold  Converged?
 Maximum Force            0.020423     0.000450     NO 
 RMS     Force            0.005049     0.000300     NO 
 Maximum Displacement     1.004291     0.001800     NO 
 RMS     Displacement     0.267755     0.001200     NO 
 Predicted change in Energy=-1.038001D-02
 GradGradGradGradGradGradGradGradGradGradGradGradGradGradGradGradGradGrad

                          Input orientation:                          
 ---------------------------------------------------------------------
 Center     Atomic      Atomic             Coordinates (Angstroms)
 Number     Number       Type             X           Y           Z
 ---------------------------------------------------------------------
      1          8           0       -2.139334    1.076654   -0.337032
      2          6           0       -1.482840    0.251631    0.336231
      3          7           0       -0.176156    0.399485    0.564915
      4          6           0        0.582277    1.434582   -0.117956
      5          6           0        0.676650    1.101110   -1.618404
      6          8           0        0.942746    2.126062   -2.439100
      7          8           0        0.554176   -0.023603   -2.050428
      8          6           0        1.975573    1.585661    0.537052
      9          6           0        2.687137    0.288578    0.785168
     10          6           0        3.448831   -0.118002    1.858652
     11          7           0        3.929196   -1.393325    1.666800
     12          6           0        3.469027   -1.770019    0.492848
     13          7           0        2.700637   -0.795990   -0.086563
     14          6           0       -2.191939   -0.969715    0.904315
     15          6           0       -3.088982   -1.560681   -0.189142
     16          7           0       -4.061833   -0.495696   -0.629069
     17          1           0        0.355471   -0.381542    0.933253
     18          1           0        0.024300    2.370986   -0.022465
     19          1           0        0.981477    2.975753   -1.973367
     20          1           0        2.579629    2.263024   -0.080665
     21          1           0        1.837532    2.080863    1.501805
     22          1           0        3.677407    0.441807    2.755124
     23          1           0        3.647136   -2.723438    0.016441
     24          1           0        2.254669   -0.850248   -0.994461
     25          1           0       -1.494915   -1.729555    1.264888
     26          1           0       -2.795481   -0.647851    1.762122
     27          1           0       -3.631894   -2.443791    0.149839
     28          1           0       -2.496102   -1.829700   -1.066324
     29          1           0       -3.461192    0.378726   -0.703040
     30          1           0       -4.514798   -0.714857   -1.519122
     31          1           0       -4.788245   -0.326896    0.071295
 ---------------------------------------------------------------------
                    Distance matrix (angstroms):
                    1          2          3          4          5
     1  O    0.000000
     2  C    1.250972   0.000000
     3  N    2.264097   1.334759   0.000000
     4  C    2.753774   2.422884   1.453602   0.000000
     5  C    3.093909   3.034075   2.446719   1.539952   0.000000
     6  O    3.875456   4.135145   3.641031   2.448630   1.339729
     7  O    3.376579   3.149814   2.748164   2.421062   1.211042
     8  C    4.237401   3.712222   2.457179   1.546976   2.562807
     9  C    5.017491   4.194236   2.873892   2.561131   3.237194
    10  C    6.121750   5.174532   3.883566   3.812431   4.610981
    11  N    6.851511   5.810889   4.613267   4.731203   5.252983
    12  C    6.343971   5.350943   4.242558   4.356131   4.527487
    13  N    5.195657   4.333330   3.182691   3.076343   3.168919
    14  C    2.394021   1.522243   2.460342   3.810768   4.345253
    15  C    2.806998   2.477939   3.591018   4.738651   4.827826
    16  N    2.500714   2.853332   4.162383   5.055192   5.097234
    17  H    3.156582   2.033895   1.014053   2.110637   2.968563
    18  H    2.540779   2.625224   2.066885   1.094216   2.141300
    19  H    4.002952   4.339118   3.797386   2.444814   1.932151
    20  H    4.872557   4.552270   3.388790   2.162665   2.708508
    21  H    4.495021   3.966046   2.785629   2.148713   3.470341
    22  H    6.618077   5.702225   4.432692   4.338205   5.344808
    23  H    6.931729   5.938851   4.966994   5.167258   5.111132
    24  H    4.842771   4.117506   3.146808   2.964052   2.585972
    25  H    3.294880   2.188069   2.600366   4.029733   4.587127
    26  H    2.794798   2.136646   3.064488   4.390953   5.151943
    27  H    3.854648   3.452314   4.494289   5.733474   5.852910
    28  H    3.017622   2.706621   3.607265   4.585996   4.354400
    29  H    1.538952   2.238328   3.521307   4.219810   4.299007
    30  H    3.201512   3.683640   4.940525   5.706446   5.500793
    31  H    3.025461   3.366093   4.694960   5.655185   5.895707
                    6          7          8          9         10
     6  O    0.000000
     7  O    2.218808   0.000000
     8  C    3.196286   3.362314   0.000000
     9  C    4.100628   3.561964   1.500103   0.000000
    10  C    5.457743   4.865064   2.611434   1.377626   0.000000
    11  N    6.177652   5.204295   3.737290   2.269093   1.376229
    12  C    5.491617   4.244359   3.673275   2.221402   2.143592
    13  N    4.142825   3.010091   2.566491   1.391541   2.191649
    14  C    5.530687   4.143281   4.902345   5.040127   5.783983
    15  C    5.908402   4.370309   6.006375   6.142686   7.001270
    16  N    5.932591   4.852903   6.491699   6.940010   7.920952
    17  H    4.243316   3.011637   2.579069   2.430568   3.239552
    18  H    2.596854   3.182367   2.176525   3.475542   4.632611
    19  H    0.969733   3.030621   3.036904   4.211852   5.508496
    20  H    2.874084   3.634706   1.097851   2.158625   3.191512
    21  H    4.041462   4.323672   1.093173   2.108953   2.749297
    22  H    6.106967   5.750175   3.020677   2.210168   1.081340
    23  H    6.071330   4.596462   4.651182   3.253426   3.197086
    24  H    3.559009   2.165661   2.890862   2.156625   3.178437
    25  H    5.876010   4.254453   4.854348   4.668249   5.233573
    26  H    6.270502   5.113260   5.408542   5.647162   6.267495
    27  H    6.965163   5.312407   6.915931   6.913728   7.646307
    28  H    5.418325   3.678946   5.850760   5.897550   6.843072
[...]
 03871,-0.00003242,-0.00003702,0.00003805,-0.00001925,-0.00003493,-0.00
 001804,-0.00001564,-0.00007521,-0.08360571,0.07584171,-0.10948316,-0.0
 1486910,0.01433422,-0.01083249,-0.00190070,-0.00256281,-0.00408703,0.0
 0079753,0.00041352,0.00071100,-0.00007130,-0.00009901,0.00007292,-0.00
 001370,0.00001732,-0.00001061,-0.00001420,-0.00000019,-0.00000408,-0.0
 0000351,-0.00000441,-0.00000347,-0.00002550,-0.00002217,-0.00000352,0.
 00001954,-0.00000105,-0.00000376,0.00003072,0.00000912,-0.00001114,0.0
 9391727,-0.08223054,0.11715702,0.00145771,0.00034944,-0.00170514,-0.01
 361095,0.00425012,0.00805870,-0.00053001,-0.00256065,0.00090893,-0.000
 12875,-0.00077225,-0.00077329,0.00001512,0.00000510,-0.00038878,-0.000
 02657,-0.00003539,0.00013929,0.00012142,0.00008488,0.00017555,0.000018
 19,-0.00013934,0.00020122,-0.00002432,0.00000039,-0.00004515,-0.000045
 18,-0.00001047,0.00008185,-0.00003213,0.00000909,-0.00001243,0.0000136
 6,0.00001336,-0.00001698,0.00000077,-0.00001485,-0.00003487,-0.1825487
 5,0.05367329,0.12373183,0.01181127,-0.00459752,-0.01224126,0.00149586,
 -0.00013247,0.00089277,0.00061253,0.00021952,0.00085489,-0.00024659,-0
 .00012997,0.00016301,0.00000136,0.00003199,-0.00004256,-0.00008588,0.0
 0001680,-0.00001950,0.00000717,0.00000494,0.00000078,-0.00000044,0.000
 00226,0.00001227,0.00000310,-0.00000202,-0.00000154,0.00001565,-0.0000
 0388,-0.00001496,-0.01362786,0.00458190,0.01373054,0.19542895,0.001530
 72,-0.00090899,-0.00253096,-0.02138619,0.01028993,0.01928726,-0.001078
 39,-0.00334542,0.00015396,-0.00042734,-0.00069539,-0.00094633,0.000005
 11,-0.00017118,-0.00041537,0.00000520,0.00003865,0.00011389,0.00012082
 ,0.00026464,0.00017443,0.00001519,-0.00025582,0.00026787,-0.00002850,0
 .00000961,-0.00003821,-0.00000208,-0.00006252,0.00003989,-0.00000094,0
 .00006718,0.00001436,-0.00000875,0.00004858,0.00001279,0.00001134,-0.0
 0002447,-0.00003858,0.05176133,-0.06785711,-0.04349866,0.01444150,-0.0
 0601580,-0.01223414,-0.00040843,0.00098693,0.00156417,0.00013429,-0.00
 004321,0.00056745,-0.00018324,-0.00007424,0.00010870,0.00000138,0.0000
 3060,-0.00004535,-0.00012172,0.00002773,-0.00002051,0.00001895,0.00001
 397,0.00000224,-0.00000290,-0.00000304,0.00000468,-0.00000935,-0.00000
 023,-0.00000159,-0.00000190,-0.00001486,-0.00000811,0.01209299,-0.0044
 0158,-0.01235898,-0.05396526,0.07245522,-0.00146208,0.00076316,0.00130
 492,0.00874422,-0.00286974,-0.00678684,-0.00063677,0.00051971,-0.00067
 741,0.00027967,0.00001532,0.00007060,-0.00003087,-0.00005891,0.0000701
 0,0.00001234,0.00004550,-0.00003346,0.00003056,0.00006019,0.00002113,0
 .00000671,0.00010213,-0.00006008,-0.00001381,-0.00000695,-0.00001816,-
 0.00003047,0.00001736,0.00002425,-0.00001037,-0.00002681,-0.00000917,0
 .00001010,-0.00000661,-0.00001334,0.00000055,0.00000488,0.00001133,0.1
 2155063,-0.04460038,-0.15747465,0.01692432,-0.00854309,-0.01879387,0.0
 0081711,0.00020909,0.00177317,0.00007082,0.00009068,0.00016529,0.00002
 751,-0.00001531,0.00003700,0.00001101,-0.00000424,-0.00000210,0.000024
 76,-0.00000612,0.00000828,-0.00000446,-0.00000529,0.00000570,0.0000037
 0,0.00000466,0.00000527,0.00000043,-0.00000093,-0.00000030,-0.00000007
 ,0.00000082,-0.00000384,-0.01134355,0.00378358,0.01177383,-0.13192357,
 0.05197732,0.17100944,0.00118895,-0.00009912,0.00150426,0.00004774,0.0
 0077701,-0.00338462,-0.00000490,-0.00060504,0.00036172,-0.00006996,0.0
 0026828,0.00010087,0.00009489,0.00033278,-0.00009512,-0.00009803,-0.00
 025783,0.00023523,-0.00032564,-0.00032489,0.00000030,0.00006375,-0.000
 06121,0.00004309,-0.00002363,0.00001020,0.00000178,-0.00000347,-0.0000
 4410,0.00001797,0.00000586,0.00006323,-0.00001710,0.00000661,-0.000015
 22,0.00004660,-0.00001837,0.00000755,-0.00005544,-0.00525655,-0.009057
 02,0.00419652,-0.11859707,-0.11653061,0.04897477,0.00844714,0.03017081
 ,-0.01235612,0.00014980,-0.00008877,0.00004164,-0.00000849,-0.00001084
 ,-0.00001670,0.00001757,0.00001991,-0.00000608,-0.00002447,0.00001313,
 -0.00000688,-0.00000790,0.00001209,-0.00000912,0.00000416,-0.00000337,
 0.00001043,-0.00000674,-0.00000418,0.00000102,0.00002971,-0.00001137,-
 0.00000544,-0.00000055,-0.00005170,0.00002892,0.00067989,0.00046460,-0
 .00020746,0.12392792,0.00013233,0.00039608,-0.00017912,-0.00090461,0.0
 0023754,-0.00312283,-0.00059902,-0.00055924,0.00045245,0.00000286,0.00
 027041,-0.00002452,-0.00014970,-0.00039497,-0.00013788,0.00005156,0.00
 013818,0.00001616,0.00021820,0.00030850,0.00006650,-0.00001178,-0.0000
 2196,0.00006270,-0.00000806,-0.00001626,-0.00001934,-0.00000866,-0.000
 01358,0.00001332,-0.00000302,0.00000950,0.00000445,-0.00000475,0.00002
 224,-0.00000062,0.00001002,-0.00000540,0.00000011,-0.00785072,-0.01162
 685,0.00350797,-0.10638241,-0.23353017,0.07257754,-0.00405792,-0.01707
 811,0.00795487,0.00004922,-0.00007011,-0.00000974,0.00001283,-0.000000
 45,0.00001412,0.00000470,0.00001765,-0.00002428,-0.00002548,0.00000048
 ,-0.00000823,0.00000947,0.00000370,0.00000262,0.00000230,-0.00000118,0
 .00000438,-0.00000139,0.00000115,-0.00000058,-0.00000800,-0.00000319,-
 0.00000378,-0.00003202,0.00057765,0.00000949,0.00057402,0.00031146,0.0
 0061183,0.11348703,0.25172179,0.00172145,-0.00026503,0.00183926,-0.001
 80169,0.00006076,-0.00689723,-0.00099820,-0.00120840,0.00128876,-0.000
 12468,0.00053474,-0.00001546,-0.00026073,-0.00059832,-0.00031710,0.000
 07672,0.00016888,0.00010936,0.00033896,0.00044270,0.00019457,-0.000016
 35,-0.00006586,0.00014459,-0.00001185,-0.00002320,-0.00003556,-0.00001
 990,-0.00003034,0.00002995,-0.00000855,0.00002351,-0.00000034,-0.00000
 463,0.00003237,0.00001059,0.00000712,-0.00000428,-0.00001485,-0.012836
 33,-0.02373382,0.00915790,0.04318767,0.07160650,-0.07948036,0.00508942
 ,0.01610868,-0.00658412,0.00014942,-0.00014898,-0.00003493,0.00001394,
 -0.00000774,0.00002687,0.00000066,0.00004055,-0.00005375,-0.00006197,0
 .00000052,-0.00001877,0.00001853,0.00000913,0.00000339,0.00000814,-0.0
 0000222,0.00001122,0.00000120,0.00000061,0.00000023,-0.00000566,-0.000
 00239,-0.00000841,0.00027125,0.00067812,0.00085449,0.00068258,0.000465
 69,0.00119248,-0.04181069,-0.08067239,0.08458748,-0.00010010,0.0000407
 6,0.00024749,0.00185636,0.00039203,-0.00071320,-0.00030965,0.00013340,
 0.00012062,0.00007449,0.00011694,-0.00006751,-0.00034248,-0.00094295,-
 0.00013788,0.00023704,0.00045334,-0.00018731,-0.00012894,0.00078000,0.
 00039022,-0.00005740,0.00000404,0.00003460,0.00002324,-0.00002813,-0.0
 0004596,-0.00000394,-0.00001089,-0.00002681,0.00002223,-0.00000579,0.0
 0003088,-0.00003301,0.00006978,-0.00001720,0.00005794,-0.00000354,0.00
 007981,0.01236022,-0.00507149,-0.01025765,-0.18761328,0.04675996,0.127
 66012,-0.02120398,0.00802782,0.01069918,-0.00001603,-0.00011716,-0.000
 19698,0.00001192,0.00001371,0.00003278,0.00001740,-0.00000720,-0.00003
 081,-0.00001180,-0.00000289,-0.00000672,0.00002474,0.00000092,0.000012
 97,0.00000576,0.00000518,0.00000312,-0.00002033,0.00000422,0.00000124,
 -0.00005982,-0.00001448,0.00000584,0.00049554,0.00039965,0.00058785,-0
 .00097223,-0.00249890,-0.00279724,-0.00781965,0.00335675,0.00873740,0.
 20485110,-0.00065243,-0.00024337,0.00041047,0.00169763,-0.00017058,-0.
 00156891,-0.00021508,0.00020026,0.00011459,0.00012739,-0.00005456,-0.0
 0011251,-0.00050577,-0.00143689,-0.00013108,0.00030221,0.00068527,-0.0
 0036388,0.00097409,0.00106448,0.00026317,-0.00014436,0.00008406,0.0000
 1109,0.00003869,-0.00002065,-0.00003495,0.00000449,0.00004319,-0.00002
 443,-0.00000779,-0.00008636,0.00002631,-0.00001632,0.00003910,-0.00004
 819,0.00002784,-0.00000576,0.00007915,0.01043660,-0.00501901,-0.012245
 91,0.04147730,-0.06836462,-0.03815085,0.01903289,-0.00776488,-0.010827
 82,-0.00012793,0.00002160,-0.00014268,0.00001332,0.00001366,0.00004803
 ,-0.00004907,-0.00000301,-0.00003710,0.00000679,-0.00002325,0.00000184
 ,0.00004066,-0.00001329,0.00001952,0.00000009,0.00000176,-0.00000977,0
 .00001757,0.00000480,0.00000139,-0.00005796,0.00002951,0.00000557,-0.0
 0009103,0.00061692,0.00055868,-0.00160723,-0.00095560,-0.00245145,-0.0
 1884175,0.00960283,0.01728376,-0.05442005,0.07213981,0.00046498,-0.000
 30732,0.00074884,0.00068958,0.00159405,-0.00048562,-0.00034879,-0.0002
 3497,0.00017981,-0.00004087,-0.00014537,-0.00011372,0.00000755,0.00008
 183,0.00001373,-0.00003392,0.00000993,-0.00002216,0.00024289,0.0001468
 2,-0.00041498,0.00000828,-0.00005012,0.00001078,0.00000298,-0.00000463
 ,0.00002151,0.00002545,-0.00002013,-0.00003408,0.00002974,0.00004212,-
 0.00000700,-0.00002009,0.00000413,0.00004477,0.00000368,0.00001052,-0.
 00001198,0.01536786,-0.00757285,-0.01670700,0.13746829,-0.04563724,-0.
 17506445,-0.02088291,0.00860430,0.01127475,0.00000138,-0.00012654,-0.0
 0013976,-0.00000605,0.00000602,-0.00001235,0.00000663,0.00000860,-0.00
 000070,-0.00000628,0.00000938,-0.00000309,-0.00000341,0.00000354,0.000
 00135,-0.00000073,-0.00000093,0.00000077,-0.00001028,-0.00000105,0.000
 00335,0.00000081,-0.00000432,0.00001684,0.00006041,0.00033224,0.000499
 57,-0.00295452,-0.00241880,-0.00234087,0.00568416,-0.00304715,-0.00486
 592,-0.13218608,0.04639112,0.18713687,0.01160696,0.00168001,0.02122919
 ,-0.02194395,0.01835003,-0.02021087,0.01033639,-0.00236670,0.00367053,
 -0.00126655,-0.00205632,0.00102828,-0.00066281,-0.00002765,0.00189030,
 0.00024683,0.00053917,-0.00140933,0.00068646,-0.00052041,-0.00096340,-
 0.00052761,0.00004531,-0.00032145,0.00040068,0.00001821,0.00027712,0.0
 0023137,0.00035721,-0.00026746,0.00011016,-0.00032017,-0.00001213,-0.0
 0002957,-0.00013751,-0.00009568,0.00005302,0.00006039,0.00021506,-0.00
 035552,-0.00100633,0.00001350,0.01584521,0.01790062,0.00355057,-0.0838
 6590,-0.05519763,0.00694321,0.00011179,0.00053087,-0.00151075,-0.00022
 787,-0.00006592,-0.00018416,-0.00019037,-0.00026346,0.00027285,0.00019
 436,-0.00006057,-0.00001279,-0.00002996,-0.00008901,0.00000127,-0.0000
 8095,0.00000072,-0.00010154,0.00000821,0.00001105,0.00000378,-0.000141
 15,0.00006420,0.00009337,-0.00070506,-0.00128658,0.00032681,0.00011114
 ,-0.00044123,0.00049096,-0.00469785,0.00250457,-0.00320922,-0.00040801
 ,0.00104856,-0.00047056,0.08568639,0.02039186,-0.01493967,0.02172744,-
 0.01101957,0.02614649,-0.01616453,0.01108892,-0.00431790,0.00599534,-0
 .00157189,-0.00199286,0.00119366,-0.00012383,0.00169009,0.00189769,0.0
 0002663,-0.00019720,-0.00097425,-0.00027569,-0.00149486,-0.00123492,-0
 .00047852,-0.00001275,-0.00032981,0.00042155,0.00001633,0.00031725,0.0
 0023669,0.00036807,-0.00027498,0.00008665,-0.00031400,-0.00003966,-0.0
 0001016,-0.00019520,-0.00009480,0.00001535,0.00005640,0.00017380,-0.00
 174027,-0.00096517,0.00094584,0.00603978,-0.02456945,0.01215591,-0.068
 23818,-0.21655864,-0.00077630,0.00061722,0.00100937,-0.00119870,-0.000
 15932,-0.00012352,-0.00026158,-0.00022308,-0.00019598,0.00028421,0.000
 19089,-0.00005119,-0.00000275,-0.00005954,-0.00007847,-0.00002523,-0.0
 0007582,0.00000378,-0.00010201,0.00002288,0.00001109,0.00000354,-0.000
 07544,0.00007325,0.00009609,-0.00115361,-0.00211682,-0.00051323,0.0002
 7393,-0.00010604,0.00055689,0.00031298,0.00003603,-0.00112764,-0.00042
 386,0.00069517,-0.00092083,0.04419676,0.22840716,0.01362451,0.00482747
 ,-0.00269423,-0.01305141,0.00552658,-0.00960491,0.00411710,-0.00043748
 ,0.00184336,-0.00050952,-0.00085296,0.00059932,0.00031824,0.00114384,0
 .00143675,-0.00012550,-0.00007122,-0.00062698,-0.00051408,-0.00078531,
 -0.00093994,-0.00018158,-0.00005655,-0.00020976,0.00017095,-0.00000023
 ,0.00019364,0.00013668,0.00015724,-0.00011746,0.00005758,-0.00009508,-
 0.00005407,-0.00000070,-0.00012195,-0.00000005,-0.00000473,0.00002911,
 0.00000284,-0.00098388,0.00061352,-0.00006914,0.00695467,0.01706694,-0
 .00000912,0.00964682,0.00522310,-0.06437643,-0.00001801,0.00044078,-0.
 00000021,-0.00007421,-0.00015281,-0.00013335,-0.00001355,-0.00009719,0
 .00018930,0.00012433,-0.00000552,0.00000007,-0.00004788,-0.00003150,-0
 .00001917,-0.00005630,-0.00001114,-0.00005267,0.00000657,0.00000283,0.
 00000159,-0.00000602,0.00001842,0.00006199,0.00007978,-0.00073014,0.00
 011565,0.00016628,-0.00001367,-0.00064705,-0.00354693,0.00198116,-0.00
 171143,-0.00002086,-0.00040323,-0.00007911,-0.00855020,-0.02089669,0.0
 7296892,-0.00115544,-0.00125518,0.00038200,0.00051888,0.00051920,-0.00
 033251,-0.00015361,-0.00005431,0.00021152,0.00007279,0.00013127,-0.000
 08011,-0.00050155,-0.00105659,-0.00019263,0.00022967,0.00038490,-0.000
 13487,0.00068135,0.00064170,0.00037942,-0.00007432,0.00003102,0.000040
 56,0.00000678,-0.00001044,-0.00006214,-0.00002186,-0.00000614,-0.00000
 523,0.00000866,-0.00003485,0.00003577,-0.00000733,0.00004917,-0.000033
 85,0.00003966,-0.00000604,0.00008066,-0.00323250,0.00377822,-0.0018898
 0,-0.00282167,-0.00986529,-0.01952614,-0.06616527,-0.01601291,-0.04593
 116,0.00006717,0.00004243,-0.00009088,0.00000306,0.00000165,0.00005093
 ,-0.00003528,-0.00002326,-0.00002392,-0.00001595,-0.00001371,-0.000005
 55,0.00002978,-0.00000423,0.00001545,0.00000639,0.00000667,0.00000232,
 -0.00001349,0.00000137,-0.00000112,-0.00006075,-0.00000224,-0.00001218
 ,-0.00045518,-0.00095671,-0.00094337,0.00021793,0.00015902,0.00010446,
 0.00014672,0.00010100,0.00032681,-0.00012407,-0.00009294,-0.00036005,-
 0.00038373,0.00015983,-0.01267813,0.06479512,-0.00372614,-0.00222681,-
 0.00016597,0.00059954,-0.00117726,0.00076255,-0.00019969,0.00015967,-0
 .00010095,-0.00000706,0.00004564,-0.00002479,-0.00014289,-0.00013168,-
 0.00017984,0.00008060,-0.00001038,0.00004646,0.00021070,-0.00000058,0.
 00010971,-0.00002350,0.00003551,-0.00000159,-0.00000673,-0.00000289,-0
 .00000522,0.00000349,0.00000972,0.00000035,0.00000514,-0.00002764,0.00
 000093,-0.00000680,0.00001743,-0.00000452,0.00000625,-0.00000883,0.000
 00717,0.00288036,-0.00343028,0.00134441,0.00120580,0.00903496,0.020929
 24,-0.01407825,-0.09019118,-0.10993488,-0.00011482,0.00004012,-0.00001
 657,0.00000797,0.00001859,0.00000072,-0.00004915,0.00000381,-0.0000169
 2,-0.00000271,-0.00000728,0.00000192,0.00000634,-0.00000454,0.00000309
 ,-0.00000576,-0.00000214,-0.00000651,0.00000768,0.00000271,0.00000090,
 -0.00001389,0.00001619,0.00000280,0.00052066,0.00075262,0.00085912,-0.
 00019880,-0.00001172,-0.00013741,0.00017970,-0.00047653,0.00099683,0.0
 0002845,0.00131478,-0.00029783,0.00218962,-0.00049321,-0.03043094,0.01
 132622,0.08732292,0.00233273,0.00101397,0.00096658,-0.00154053,0.00043
 413,-0.00045081,0.00092160,0.00003373,0.00015567,-0.00012830,-0.000279
 35,0.00014556,0.00000985,0.00009110,0.00040619,-0.00000449,0.00009019,
 -0.00025501,-0.00002964,-0.00006404,-0.00031433,-0.00003369,0.00000300
 ,-0.00005765,0.00003037,0.00000783,0.00006090,0.00004759,0.00003514,-0
 .00003025,0.00003179,-0.00000695,-0.00002826,-0.00000712,-0.00003218,0
 .00002535,0.00000295,0.00001042,-0.00002277,-0.00118921,0.00245466,-0.
 00015307,-0.00221246,-0.00340552,-0.01078417,-0.03880990,-0.10603009,-
 0.37744499,-0.00006438,0.00007082,-0.00010753,-0.00000505,0.00000469,-
 0.00003355,-0.00000004,-0.00002732,0.00005092,0.00003611,0.00000138,-0
 .00000108,-0.00001613,-0.00000971,-0.00000430,-0.00001974,-0.00000652,
 -0.00001487,-0.00000131,-0.00000056,0.00000296,-0.00000531,0.00000453,
 0.00003043,-0.00017213,-0.00062834,-0.00007442,0.00014195,0.00021720,0
 .00018623,0.00027942,-0.00007804,-0.00024204,0.00066431,-0.00073013,0.
 00201303,-0.00219021,-0.00220646,0.00330319,0.04637221,0.11424259,0.39
 553887,0.00100628,-0.00024485,-0.00021959,-0.00114605,-0.00010597,-0.0
 0010584,0.00069751,0.00018318,0.00013461,-0.00007638,-0.00016928,0.000
 10227,-0.00015832,-0.00022137,0.00018129,0.00009279,0.00014610,-0.0002
 0793,0.00020198,0.00011076,-0.00003549,-0.00007457,0.00002757,-0.00004
 952,0.00003825,-0.00000632,0.00003514,0.00004322,0.00003874,-0.0000362
 0,0.00002913,-0.00002575,0.00000510,-0.00001096,-0.00000131,-0.0000108
 7,0.00002133,0.00000004,0.00002429,-0.00000375,-0.00049020,-0.00000383
 ,-0.01612187,0.00101460,0.00852299,-0.33917535,0.00779459,0.14936679,-
 0.00012421,0.00006299,-0.00007650,0.00001298,0.00000661,-0.00002334,-0
 .00003378,-0.00004208,0.00003301,0.00002809,-0.00000850,-0.00000297,0.
 00000027,-0.00001323,0.00000492,-0.00002195,-0.00000549,-0.00001687,-0
 .00000687,0.00000154,-0.00000047,-0.00003653,0.00000295,0.00001150,0.0
 0032580,0.00006924,-0.00004378,-0.00013204,-0.00019731,-0.00064914,0.0
 0215255,-0.00046930,0.00053919,-0.00081325,0.00158360,-0.00274016,-0.0
 1011207,0.00154687,0.00498000,0.00839805,-0.00068235,-0.00444123,0.354
 99973,-0.00091100,-0.00245476,-0.00305900,0.00043389,-0.00068591,0.000
 20697,-0.00044447,0.00007828,0.00008333,0.00002043,0.00009363,-0.00002
 959,0.00001248,0.00004583,-0.00003040,0.00000645,-0.00002697,0.0000386
 4,-0.00005069,0.00001262,-0.00002611,-0.00000409,0.00000204,0.00001071
 ,-0.00000370,-0.00000501,-0.00000376,-0.00000338,0.00000113,0.00000045
 ,0.00000077,-0.00000769,0.00000156,-0.00000191,0.00000952,-0.00000481,
 0.00000349,-0.00000844,0.00000538,-0.00090088,-0.00002382,0.00030351,0
 .02045968,-0.00171847,-0.01241559,0.00202482,-0.05388813,-0.00408550,-
 0.00003127,0.00000698,0.00010098,0.00002156,-0.00001142,0.00000171,-0.
 00001181,0.00001638,-0.00000596,-0.00000459,-0.00000059,0.00000092,-0.
 00000101,0.00000211,-0.00000181,-0.00000012,0.00000174,-0.00000093,-0.
 00000013,0.00000177,-0.00000019,-0.00000261,0.00000182,0.00000119,-0.0
 0003638,-0.00006386,-0.00011566,0.00007908,0.00040273,-0.00002987,-0.0
 0011226,0.00014281,-0.00056275,0.00296036,-0.00239535,0.00354549,-0.02
 565780,0.01020970,0.01816261,0.01206117,-0.00057173,-0.00521017,-0.009
 90609,0.05083309,-0.00059441,-0.00043280,-0.00088690,0.00014481,-0.000
 38719,0.00033292,-0.00010294,0.00015727,-0.00014658,0.00000558,0.00004
 166,0.00004310,0.00003782,0.00008695,0.00007439,-0.00002761,-0.0000403
 3,-0.00000218,-0.00004119,-0.00010788,-0.00003245,0.00001178,0.0000081
 0,-0.00000971,-0.00000456,0.00000360,0.00001448,0.00000318,0.00000610,
 0.00000945,0.00000062,-0.00000049,-0.00001434,0.00000255,-0.00001075,0
 .00000802,-0.00000794,0.00000022,-0.00002591,-0.00080063,0.00070587,0.
 00119006,-0.01620506,-0.00161296,0.01206879,0.14112402,-0.00700457,-0.
 13966768,-0.00004402,0.00001090,0.00004495,0.00000942,0.00000119,-0.00
 000384,0.00000762,-0.00000451,0.00001361,0.00000702,0.00000095,0.00000
 096,-0.00000686,-0.00000096,-0.00000300,-0.00000515,-0.00000328,-0.000
 00171,0.00000532,-0.00000028,0.00000028,0.00000936,0.00000331,0.000004
 91,0.00033924,-0.00006504,-0.00044100,0.00023213,-0.00040263,-0.000797
 86,-0.00001102,0.00004884,0.00082913,-0.00261623,0.00206818,-0.0016631
 7,-0.00049705,0.00179670,0.00062845,0.03430151,0.00201517,-0.01286680,
 -0.15527734,0.00311864,0.14129965\\0.00000672,0.00001099,-0.00000324,0
 .00000245,-0.00000151,0.00000410,-0.00000203,-0.00000064,-0.00000121,-
 0.00000006,0.00000383,0.00000311,0.,-0.00000673,0.00000103,0.00000158,
 0.00000126,-0.00000325,-0.00000121,-0.00000076,0.00000268,0.00000368,-
 0.00000032,-0.00000047,-0.00000199,0.00000004,0.00000285,-0.00000191,0
 .00000098,0.00000060,0.00000083,-0.00000083,-0.00000130,0.00000051,-0.
 00000159,0.00000027,-0.00000159,0.00000156,-0.00000151,0.00000115,0.00
 000170,0.00000005,-0.00000107,-0.00000114,-0.00000225,-0.00001214,-0.0
 0001745,-0.00000484,0.00000054,-0.00000102,-0.00000085,-0.00000039,-0.
 00000121,-0.00000085,-0.00000046,-0.00000071,-0.00000078,0.00000063,-0
 .00000056,0.00000027,0.00000059,0.00000034,-0.00000068,0.00000025,0.00
 000019,-0.00000011,-0.00000064,-0.00000053,0.,-0.00000227,0.00000200,-
 0.00000097,-0.00000005,0.00000012,-0.00000062,-0.00000016,-0.00000010,
 0.00000027,-0.00000029,0.00000069,0.00000079,0.00000293,0.00000209,-0.
 00000050,0.00000676,0.00001085,0.00000596,-0.00000203,-0.00000150,0.00
 000180,-0.00000032,-0.00000003,-0.00000035\\\@


 A true friend is someone who is there for
 you when he'd rather be anywhere else.
                               -- Len Wein
 Job cpu time:       0 days  2 hours 55 minutes 58.9 seconds.
 File lengths (MBytes):  RWF=    460 Int=      0 D2E=      0 Chk=     13 Scr=      1
 Normal termination of Gaussian 09 at Sat Jul 24 04:02:06 2021.
