 Entering Gaussian System, Link 0=g09
 Input=opt_freq-conf-719.com
 Output=opt_freq-conf-719.log
 Initial command:
 /aerosol/software/g09/l1.exe "/scratch/nicole/10436/Gau-72472.inp" -scrdir="/scratch/nicole/10436/"
 Entering Link 1 = /aerosol/software/g09/l1.exe PID=     72477.
  
 Copyright (c) 1988,1990,1992,1993,1995,1998,2003,2009,2013,
            Gaussian, Inc.  All Rights Reserved.
  
 This is part of the Gaussian(R) 09 program.  It is based on
 the Gaussian(R) 03 system (copyright 2003, Gaussian, Inc.),
 the Gaussian(R) 98 system (copyright 1998, Gaussian, Inc.),
 the Gaussian(R) 94 system (copyright 1995, Gaussian, Inc.),
 the Gaussian 92(TM) system (copyright 1992, Gaussian, Inc.),
 the Gaussian 90(TM) system (copyright 1990, Gaussian, Inc.),
 the Gaussian 88(TM) system (copyright 1988, Gaussian, Inc.),
 the Gaussian 86(TM) system (copyright 1986, Carnegie Mellon
 University), and the Gaussian 82(TM) system (copyright 1983,
 Carnegie Mellon University). Gaussian is a federally registered
 trademark of Gaussian, Inc.
  
 This software contains proprietary and confidential information,
 including trade secrets, belonging to Gaussian, Inc.
  
 This software is provided under written license and may be
 used, copied, transmitted, or stored only in accord with that
 written license.
  
 The following legend is applicable only to US Government
 contracts under FAR:
  
                    RESTRICTED RIGHTS LEGEND
  
 Use, reproduction and disclosure by the US Government is
 subject to restrictions as set forth in subparagraphs (a)
 and (c) of the Commercial Computer Software - Restricted
 Rights clause in FAR 52.227-19.
  
 Gaussian, Inc.
 340 Quinnipiac St., Bldg. 40, Wallingford CT 06492
  
  
 ---------------------------------------------------------------
 Warning -- This program may not be used in any manner that
 competes with the business of Gaussian, Inc. or will provide
 assistance to any competitor of Gaussian, Inc.  The licensee
 of this program is prohibited from giving any competitor of
 Gaussian, Inc. access to this program.  By using this program,
 the user acknowledges that Gaussian, Inc. is engaged in the
 business of creating and licensing software in the field of
 computational chemistry and represents and warrants to the
 licensee that it is not a competitor of Gaussian, Inc. and that
 it will not use this program in any manner prohibited above.
 ---------------------------------------------------------------
  

 Cite this work as:
 Gaussian 09, Revision D.01,
 M. J. Frisch, G. W. Trucks, H. B. Schlegel, G. E. Scuseria, 
 M. A. Robb, J. R. Cheeseman, G. Scalmani, V. Barone, B. Mennucci, 
 G. A. Petersson, H. Nakatsuji, M. Caricato, X. Li, H. P. Hratchian, 
 A. F. Izmaylov, J. Bloino, G. Zheng, J. L. Sonnenberg, M. Hada, 
 M. Ehara, K. Toyota, R. Fukuda, J. Hasegawa, M. Ishida, T. Nakajima, 
 Y. Honda, O. Kitao, H. Nakai, T. Vreven, J. A. Montgomery, Jr., 
 J. E. Peralta, F. Ogliaro, M. Bearpark, J. J. Heyd, E. Brothers, 
 K. N. Kudin, V. N. Staroverov, T. Keith, R. Kobayashi, J. Normand, 
 K. Raghavachari, A. Rendell, J. C. Burant, S. S. Iyengar, J. Tomasi, 
 M. Cossi, N. Rega, J. M. Millam, M. Klene, J. E. Knox, J. B. Cross, 
 V. Bakken, C. Adamo, J. Jaramillo, R. Gomperts, R. E. Stratmann, 
 O. Yazyev, A. J. Austin, R. Cammi, C. Pomelli, J. W. Ochterski, 
 R. L. Martin, K. Morokuma, V. G. Zakrzewski, G. A. Voth, 
 P. Salvador, J. J. Dannenberg, S. Dapprich, A. D. Daniels, 
 O. Farkas, J. B. Foresman, J. V. Ortiz, J. Cioslowski, 
 and D. J. Fox, Gaussian, Inc., Wallingford CT, 2013.
 
 ******************************************
 Gaussian 09:  ES64L-G09RevD.01 24-Apr-2013
                24-Jul-2021 
 ******************************************
 %mem=2gb
 %nproc=4
 Will use up to    4 processors via shared memory.
 %chk=conf-719.chk
 ----------------------------------------------------------------------
 # B3LYP/6-31+G(d,p) EmpiricalDispersion=GD3BJ opt=calcfc freq=noraman 
 nosymm integral(ultrafinegrid)
 ----------------------------------------------------------------------
 1/10=4,14=-1,18=20,19=15,26=4,38=1/1,3;
 2/9=110,12=2,15=1,17=6,18=5,40=1/2;
 3/5=1,6=6,7=111,11=2,16=1,25=1,30=1,71=2,74=-5,75=-5,124=41,140=1/1,2,3;
 4//1;
 5/5=2,38=5/2;
 8/6=4,10=90,11=11/1;
 11/6=1,8=1,9=11,15=111,16=1,31=1/1,2,10;
 10/6=1,13=1,31=1/2;
 6/7=2,8=2,9=2,10=2,28=1/1;
 7/10=1,18=20,25=1,30=1/1,2,3,16;
 1/10=4,14=-1,18=20,19=15,26=4/3(2);
 2/9=110,15=1/2;
 99//99;
 2/9=110,15=1/2;
 3/5=1,6=6,7=111,11=2,16=1,25=1,30=1,71=1,74=-5,75=-5,124=41/1,2,3;
 4/5=5,16=3,69=1/1;
 5/5=2,38=5/2;
 7/30=1/1,2,3,16;
 1/14=-1,18=20,19=15,26=4/3(-5);
 2/9=110,15=1/2;
 6/7=2,8=2,9=2,10=2,19=2,28=1/1;
 99/9=1/99;
 ------------------------------------------------------------
 Candidate Structure: Conf:719 OPT and FREQ calc in gas phase
 ------------------------------------------------------------
 Symbolic Z-matrix:
 Charge =  1 Multiplicity = 1
 O                    -0.72005  -0.63766   1.42408 
 C                    -1.30854  -0.35072   0.39193 
 N                    -0.64886   0.02779  -0.73425 
 C                     0.78942   0.22717  -0.70361 
 C                     1.13934   1.06531  -1.91425 
 O                     2.46404   1.31793  -2.00859 
 O                     0.34195   1.46947  -2.71894 
 C                     1.53736  -1.12922  -0.66353 
 C                     2.755    -1.09635   0.19636 
 C                     3.09564  -1.82049   1.30301 
 N                     4.33164  -1.42286   1.78318 
 C                     4.71835  -0.46405   0.97732 
 N                     3.79481  -0.22334   0.00813 
 C                    -2.81985  -0.36212   0.28429 
 C                    -3.40988   0.91549   0.86784 
 N                    -4.89591   0.90764   0.82254 
 H                    -1.13699   0.44142  -1.51384 
 H                     1.02385   0.8044    0.19829 
 H                     2.57954   1.86672  -2.79947 
 H                     0.86206  -1.86744  -0.23474 
 H                     1.76766  -1.4608   -1.67591 
 H                     2.52688  -2.60269   1.78513 
 H                     5.63852   0.08929   1.03276 
 H                     3.82338   0.4747   -0.71798 
 H                    -3.18715  -1.21463   0.85492 
 H                    -3.13759  -0.46911  -0.75496 
 H                    -3.04499   1.77791   0.30734 
 H                    -3.07045   1.02624   1.89791 
 H                    -5.2757    0.11714   1.34345 
 H                    -5.29549   1.75648   1.22538 
 H                    -5.23775   0.83645  -0.1361 
 

 GradGradGradGradGradGradGradGradGradGradGradGradGradGradGradGradGradGrad
 Berny optimization.
 Initialization pass.
                           ----------------------------
                           !    Initial Parameters    !
                           ! (Angstroms and Degrees)  !
 --------------------------                            --------------------------
 ! Name  Definition              Value          Derivative Info.                !
 --------------------------------------------------------------------------------
 ! R1    R(1,2)                  1.2223         calculate D2E/DX2 analytically  !
 ! R2    R(2,3)                  1.3589         calculate D2E/DX2 analytically  !
 ! R3    R(2,14)                 1.5152         calculate D2E/DX2 analytically  !
 ! R4    R(3,4)                  1.4524         calculate D2E/DX2 analytically  !
 ! R5    R(3,17)                 1.0085         calculate D2E/DX2 analytically  !
 ! R6    R(4,5)                  1.5135         calculate D2E/DX2 analytically  !
 ! R7    R(4,8)                  1.5495         calculate D2E/DX2 analytically  !
 ! R8    R(4,18)                 1.0962         calculate D2E/DX2 analytically  !
 ! R9    R(5,6)                  1.3519         calculate D2E/DX2 analytically  !
 ! R10   R(5,7)                  1.2028         calculate D2E/DX2 analytically  !
 ! R11   R(6,19)                 0.9695         calculate D2E/DX2 analytically  !
 ! R12   R(8,9)                  1.491          calculate D2E/DX2 analytically  !
 ! R13   R(8,20)                 1.0885         calculate D2E/DX2 analytically  !
 ! R14   R(8,21)                 1.0899         calculate D2E/DX2 analytically  !
 ! R15   R(9,10)                 1.3657         calculate D2E/DX2 analytically  !
 ! R16   R(9,13)                 1.3707         calculate D2E/DX2 analytically  !
 ! R17   R(10,11)                1.3843         calculate D2E/DX2 analytically  !
 ! R18   R(10,22)                1.0806         calculate D2E/DX2 analytically  !
 ! R19   R(11,12)                1.3108         calculate D2E/DX2 analytically  !
 ! R20   R(12,13)                1.3602         calculate D2E/DX2 analytically  !
 ! R21   R(12,23)                1.0752         calculate D2E/DX2 analytically  !
 ! R22   R(13,24)                1.0076         calculate D2E/DX2 analytically  !
 ! R23   R(14,15)                1.5235         calculate D2E/DX2 analytically  !
 ! R24   R(14,25)                1.0896         calculate D2E/DX2 analytically  !
 ! R25   R(14,26)                1.092          calculate D2E/DX2 analytically  !
 ! R26   R(15,16)                1.4867         calculate D2E/DX2 analytically  !
 ! R27   R(15,27)                1.0914         calculate D2E/DX2 analytically  !
 ! R28   R(15,28)                1.0902         calculate D2E/DX2 analytically  !
 ! R29   R(16,29)                1.02           calculate D2E/DX2 analytically  !
 ! R30   R(16,30)                1.021          calculate D2E/DX2 analytically  !
 ! R31   R(16,31)                1.0202         calculate D2E/DX2 analytically  !
 ! A1    A(1,2,3)              122.1047         calculate D2E/DX2 analytically  !
 ! A2    A(1,2,14)             122.5785         calculate D2E/DX2 analytically  !
 ! A3    A(3,2,14)             115.3041         calculate D2E/DX2 analytically  !
 ! A4    A(2,3,4)              120.0984         calculate D2E/DX2 analytically  !
 ! A5    A(2,3,17)             121.3245         calculate D2E/DX2 analytically  !
 ! A6    A(4,3,17)             116.06           calculate D2E/DX2 analytically  !
 ! A7    A(3,4,5)              106.7453         calculate D2E/DX2 analytically  !
 ! A8    A(3,4,8)              111.0018         calculate D2E/DX2 analytically  !
 ! A9    A(3,4,18)             107.5444         calculate D2E/DX2 analytically  !
 ! A10   A(5,4,8)              113.1954         calculate D2E/DX2 analytically  !
 ! A11   A(5,4,18)             108.4867         calculate D2E/DX2 analytically  !
 ! A12   A(8,4,18)             109.6613         calculate D2E/DX2 analytically  !
 ! A13   A(4,5,6)              112.698          calculate D2E/DX2 analytically  !
 ! A14   A(4,5,7)              124.6084         calculate D2E/DX2 analytically  !
 ! A15   A(6,5,7)              122.6933         calculate D2E/DX2 analytically  !
 ! A16   A(5,6,19)             106.227          calculate D2E/DX2 analytically  !
 ! A17   A(4,8,9)              112.9434         calculate D2E/DX2 analytically  !
 ! A18   A(4,8,20)             107.7227         calculate D2E/DX2 analytically  !
 ! A19   A(4,8,21)             110.1385         calculate D2E/DX2 analytically  !
 ! A20   A(9,8,20)             107.1225         calculate D2E/DX2 analytically  !
 ! A21   A(9,8,21)             111.7052         calculate D2E/DX2 analytically  !
 ! A22   A(20,8,21)            106.8981         calculate D2E/DX2 analytically  !
 ! A23   A(8,9,10)             131.2491         calculate D2E/DX2 analytically  !
 ! A24   A(8,9,13)             123.6667         calculate D2E/DX2 analytically  !
 ! A25   A(10,9,13)            105.0567         calculate D2E/DX2 analytically  !
 ! A26   A(9,10,11)            110.5779         calculate D2E/DX2 analytically  !
 ! A27   A(9,10,22)            127.8827         calculate D2E/DX2 analytically  !
 ! A28   A(11,10,22)           121.5393         calculate D2E/DX2 analytically  !
 ! A29   A(10,11,12)           105.0849         calculate D2E/DX2 analytically  !
 ! A30   A(11,12,13)           111.5417         calculate D2E/DX2 analytically  !
 ! A31   A(11,12,23)           126.6715         calculate D2E/DX2 analytically  !
 ! A32   A(13,12,23)           121.7867         calculate D2E/DX2 analytically  !
 ! A33   A(9,13,12)            107.7286         calculate D2E/DX2 analytically  !
 ! A34   A(9,13,24)            124.1734         calculate D2E/DX2 analytically  !
 ! A35   A(12,13,24)           128.0822         calculate D2E/DX2 analytically  !
 ! A36   A(2,14,15)            110.6579         calculate D2E/DX2 analytically  !
 ! A37   A(2,14,25)            107.7526         calculate D2E/DX2 analytically  !
 ! A38   A(2,14,26)            111.0128         calculate D2E/DX2 analytically  !
 ! A39   A(15,14,25)           108.964          calculate D2E/DX2 analytically  !
 ! A40   A(15,14,26)           109.5123         calculate D2E/DX2 analytically  !
 ! A41   A(25,14,26)           108.8845         calculate D2E/DX2 analytically  !
 ! A42   A(14,15,16)           111.7778         calculate D2E/DX2 analytically  !
 ! A43   A(14,15,27)           109.6626         calculate D2E/DX2 analytically  !
 ! A44   A(14,15,28)           109.0578         calculate D2E/DX2 analytically  !
 ! A45   A(16,15,27)           108.8269         calculate D2E/DX2 analytically  !
 ! A46   A(16,15,28)           109.9093         calculate D2E/DX2 analytically  !
 ! A47   A(27,15,28)           107.5104         calculate D2E/DX2 analytically  !
 ! A48   A(15,16,29)           111.1423         calculate D2E/DX2 analytically  !
 ! A49   A(15,16,30)           112.0089         calculate D2E/DX2 analytically  !
 ! A50   A(15,16,31)           111.3396         calculate D2E/DX2 analytically  !
 ! A51   A(29,16,30)           107.2825         calculate D2E/DX2 analytically  !
 ! A52   A(29,16,31)           107.5184         calculate D2E/DX2 analytically  !
 ! A53   A(30,16,31)           107.3143         calculate D2E/DX2 analytically  !
 ! D1    D(1,2,3,4)             -5.9537         calculate D2E/DX2 analytically  !
 ! D2    D(1,2,3,17)          -167.2503         calculate D2E/DX2 analytically  !
 ! D3    D(14,2,3,4)           172.7854         calculate D2E/DX2 analytically  !
 ! D4    D(14,2,3,17)           11.4887         calculate D2E/DX2 analytically  !
 ! D5    D(1,2,14,15)           80.5041         calculate D2E/DX2 analytically  !
 ! D6    D(1,2,14,25)          -38.5329         calculate D2E/DX2 analytically  !
 ! D7    D(1,2,14,26)         -157.6785         calculate D2E/DX2 analytically  !
 ! D8    D(3,2,14,15)          -98.2283         calculate D2E/DX2 analytically  !
 ! D9    D(3,2,14,25)          142.7347         calculate D2E/DX2 analytically  !
 ! D10   D(3,2,14,26)           23.5891         calculate D2E/DX2 analytically  !
 ! D11   D(2,3,4,5)           -161.334          calculate D2E/DX2 analytically  !
 ! D12   D(2,3,4,8)             74.8806         calculate D2E/DX2 analytically  !
 ! D13   D(2,3,4,18)           -45.0767         calculate D2E/DX2 analytically  !
 ! D14   D(17,3,4,5)             0.9122         calculate D2E/DX2 analytically  !
 ! D15   D(17,3,4,8)          -122.8732         calculate D2E/DX2 analytically  !
 ! D16   D(17,3,4,18)          117.1695         calculate D2E/DX2 analytically  !
 ! D17   D(3,4,5,6)           -179.5997         calculate D2E/DX2 analytically  !
 ! D18   D(3,4,5,7)              0.1965         calculate D2E/DX2 analytically  !
 ! D19   D(8,4,5,6)            -57.1805         calculate D2E/DX2 analytically  !
 ! D20   D(8,4,5,7)            122.6157         calculate D2E/DX2 analytically  !
 ! D21   D(18,4,5,6)            64.7729         calculate D2E/DX2 analytically  !
 ! D22   D(18,4,5,7)          -115.4308         calculate D2E/DX2 analytically  !
 ! D23   D(3,4,8,9)           -142.7371         calculate D2E/DX2 analytically  !
 ! D24   D(3,4,8,20)           -24.6433         calculate D2E/DX2 analytically  !
 ! D25   D(3,4,8,21)            91.6021         calculate D2E/DX2 analytically  !
 ! D26   D(5,4,8,9)             97.2454         calculate D2E/DX2 analytically  !
 ! D27   D(5,4,8,20)          -144.6608         calculate D2E/DX2 analytically  !
 ! D28   D(5,4,8,21)           -28.4154         calculate D2E/DX2 analytically  !
 ! D29   D(18,4,8,9)           -24.0484         calculate D2E/DX2 analytically  !
 ! D30   D(18,4,8,20)           94.0454         calculate D2E/DX2 analytically  !
 ! D31   D(18,4,8,21)         -149.7092         calculate D2E/DX2 analytically  !
 ! D32   D(4,5,6,19)          -179.099          calculate D2E/DX2 analytically  !
 ! D33   D(7,5,6,19)             1.1003         calculate D2E/DX2 analytically  !
 ! D34   D(4,8,9,10)           120.2227         calculate D2E/DX2 analytically  !
 ! D35   D(4,8,9,13)           -57.5692         calculate D2E/DX2 analytically  !
 ! D36   D(20,8,9,10)            1.7786         calculate D2E/DX2 analytically  !
 ! D37   D(20,8,9,13)         -176.0133         calculate D2E/DX2 analytically  !
 ! D38   D(21,8,9,10)         -114.9644         calculate D2E/DX2 analytically  !
 ! D39   D(21,8,9,13)           67.2437         calculate D2E/DX2 analytically  !
 ! D40   D(8,9,10,11)         -179.0325         calculate D2E/DX2 analytically  !
 ! D41   D(8,9,10,22)            0.8577         calculate D2E/DX2 analytically  !
 ! D42   D(13,9,10,11)          -0.9355         calculate D2E/DX2 analytically  !
 ! D43   D(13,9,10,22)         178.9547         calculate D2E/DX2 analytically  !
 ! D44   D(8,9,13,12)          179.2791         calculate D2E/DX2 analytically  !
 ! D45   D(8,9,13,24)            0.6241         calculate D2E/DX2 analytically  !
 ! D46   D(10,9,13,12)           0.9981         calculate D2E/DX2 analytically  !
 ! D47   D(10,9,13,24)        -177.6569         calculate D2E/DX2 analytically  !
 ! D48   D(9,10,11,12)           0.5011         calculate D2E/DX2 analytically  !
 ! D49   D(22,10,11,12)       -179.3972         calculate D2E/DX2 analytically  !
 ! D50   D(10,11,12,13)          0.156          calculate D2E/DX2 analytically  !
 ! D51   D(10,11,12,23)       -179.7186         calculate D2E/DX2 analytically  !
 ! D52   D(11,12,13,9)          -0.7455         calculate D2E/DX2 analytically  !
 ! D53   D(11,12,13,24)        177.8408         calculate D2E/DX2 analytically  !
 ! D54   D(23,12,13,9)         179.1361         calculate D2E/DX2 analytically  !
 ! D55   D(23,12,13,24)         -2.2776         calculate D2E/DX2 analytically  !
 ! D56   D(2,14,15,16)        -177.8071         calculate D2E/DX2 analytically  !
 ! D57   D(2,14,15,27)          61.41           calculate D2E/DX2 analytically  !
 ! D58   D(2,14,15,28)         -56.0723         calculate D2E/DX2 analytically  !
 ! D59   D(25,14,15,16)        -59.5052         calculate D2E/DX2 analytically  !
 ! D60   D(25,14,15,27)        179.7119         calculate D2E/DX2 analytically  !
 ! D61   D(25,14,15,28)         62.2295         calculate D2E/DX2 analytically  !
 ! D62   D(26,14,15,16)         59.4978         calculate D2E/DX2 analytically  !
 ! D63   D(26,14,15,27)        -61.2851         calculate D2E/DX2 analytically  !
 ! D64   D(26,14,15,28)       -178.7675         calculate D2E/DX2 analytically  !
 ! D65   D(14,15,16,29)         59.1679         calculate D2E/DX2 analytically  !
 ! D66   D(14,15,16,30)        179.1595         calculate D2E/DX2 analytically  !
 ! D67   D(14,15,16,31)        -60.6717         calculate D2E/DX2 analytically  !
 ! D68   D(27,15,16,29)       -179.5642         calculate D2E/DX2 analytically  !
 ! D69   D(27,15,16,30)        -59.5726         calculate D2E/DX2 analytically  !
 ! D70   D(27,15,16,31)         60.5963         calculate D2E/DX2 analytically  !
 ! D71   D(28,15,16,29)        -62.0751         calculate D2E/DX2 analytically  !
 ! D72   D(28,15,16,30)         57.9166         calculate D2E/DX2 analytically  !
 ! D73   D(28,15,16,31)        178.0854         calculate D2E/DX2 analytically  !
 --------------------------------------------------------------------------------
 Trust Radius=3.00D-01 FncErr=1.00D-07 GrdErr=1.00D-06
 Number of steps in this run=    167 maximum allowed number of steps=    186.
 GradGradGradGradGradGradGradGradGradGradGradGradGradGradGradGradGradGrad

                          Input orientation:                          
 ---------------------------------------------------------------------
 Center     Atomic      Atomic             Coordinates (Angstroms)
 Number     Number       Type             X           Y           Z
 ---------------------------------------------------------------------
      1          8           0       -0.720054   -0.637656    1.424079
      2          6           0       -1.308542   -0.350722    0.391926
      3          7           0       -0.648861    0.027789   -0.734248
      4          6           0        0.789418    0.227174   -0.703607
      5          6           0        1.139344    1.065305   -1.914246
      6          8           0        2.464037    1.317927   -2.008589
      7          8           0        0.341951    1.469473   -2.718944
      8          6           0        1.537357   -1.129224   -0.663526
      9          6           0        2.754998   -1.096350    0.196361
     10          6           0        3.095644   -1.820487    1.303006
     11          7           0        4.331642   -1.422865    1.783184
     12          6           0        4.718350   -0.464049    0.977320
     13          7           0        3.794806   -0.223340    0.008132
     14          6           0       -2.819851   -0.362120    0.284292
     15          6           0       -3.409884    0.915491    0.867843
     16          7           0       -4.895913    0.907638    0.822538
     17          1           0       -1.136988    0.441420   -1.513845
     18          1           0        1.023851    0.804405    0.198290
     19          1           0        2.579543    1.866720   -2.799467
     20          1           0        0.862055   -1.867444   -0.234739
     21          1           0        1.767665   -1.460804   -1.675913
     22          1           0        2.526878   -2.602694    1.785128
     23          1           0        5.638517    0.089285    1.032764
     24          1           0        3.823382    0.474704   -0.717982
     25          1           0       -3.187149   -1.214629    0.854924
     26          1           0       -3.137595   -0.469107   -0.754956
     27          1           0       -3.044991    1.777907    0.307343
     28          1           0       -3.070450    1.026240    1.897911
     29          1           0       -5.275703    0.117144    1.343445
     30          1           0       -5.295491    1.756479    1.225383
     31          1           0       -5.237750    0.836447   -0.136097
 ---------------------------------------------------------------------
                    Distance matrix (angstroms):
                    1          2          3          4          5
     1  O    0.000000
     2  C    1.222289   0.000000
     3  N    2.259704   1.358940   0.000000
     4  C    2.748360   2.436307   1.452357   0.000000
     5  C    4.183521   3.649069   2.380444   1.513459   0.000000
     6  O    5.074047   4.772757   3.602573   2.386853   1.351861
     7  O    4.767860   3.964183   2.645596   2.409381   1.202800
     8  C    3.113782   3.133558   2.474516   1.549463   2.557082
     9  C    3.713984   4.136009   3.703510   2.534791   3.426040
    10  C    3.996661   4.731504   4.646272   3.679414   4.744008
    11  N    5.124953   5.907348   5.766045   4.631858   5.482038
    12  C    5.459484   6.056315   5.654938   4.328951   4.848645
    13  N    4.749792   5.119345   4.512247   3.121201   3.522445
    14  C    2.405033   1.515180   2.429537   3.788144   4.748299
    15  C    3.155448   2.499086   3.313301   4.536229   5.334599
    16  N    4.493060   3.825980   4.608163   5.925802   6.628663
    17  H    3.157473   2.070962   1.008528   2.100815   2.394001
    18  H    2.573578   2.609956   2.066574   1.096163   2.131717
    19  H    5.915876   5.497203   4.250811   3.207068   1.870844
    20  H    2.601369   2.721148   2.474729   2.147682   3.390966
    21  H    4.059097   3.869275   2.990358   2.179820   2.613965
    22  H    3.812387   4.660776   4.832393   4.149786   5.391181
    23  H    6.411942   6.990416   6.531251   5.152452   5.466263
    24  H    5.144763   5.315061   4.494548   3.044079   2.997318
    25  H    2.596804   2.118930   3.242217   4.507870   5.620048
    26  H    3.259004   2.162126   2.537938   3.988593   4.689412
    27  H    3.533748   2.748357   3.144719   4.257873   4.790816
    28  H    2.918463   2.695984   3.713389   4.722815   5.679475
    29  H    4.618459   4.106416   5.072717   6.402204   7.257024
    30  H    5.167784   4.585925   5.331012   6.563984   7.193198
    31  H    5.001671   4.138460   4.697831   6.084409   6.624313
                    6          7          8          9         10
     6  O    0.000000
     7  O    2.242949   0.000000
     8  C    2.942189   3.522352   0.000000
     9  C    3.282560   4.572226   1.491019   0.000000
    10  C    4.605999   5.880709   2.602567   1.365678   0.000000
    11  N    5.037602   6.674759   3.725674   2.260625   1.384329
    12  C    4.144034   6.045969   3.640543   2.205550   2.139900
    13  N    2.865940   4.714316   2.523456   1.370685   2.171729
    14  C    5.999944   4.729815   4.524607   5.623680   6.177191
    15  C    6.552768   5.219981   5.567867   6.519522   7.070844
    16  N    7.896359   6.347674   6.909714   7.933758   8.458043
    17  H    3.739039   2.167122   3.215911   4.520741   5.564714
    18  H    2.684801   3.068804   2.178379   2.570942   3.521758
    19  H    0.969538   2.274008   3.824144   4.217292   5.540048
    20  H    3.982396   4.192469   1.088512   2.088939   2.712155
    21  H    2.883912   3.421563   1.089915   2.147805   3.281289
    22  H    5.455961   6.453148   3.024264   2.201202   1.080641
    23  H    4.564725   6.635800   4.602356   3.228000   3.191624
    24  H    2.055362   4.136880   2.793110   2.108478   3.143549
    25  H    6.822715   5.694864   4.963259   5.979700   6.327822
    26  H    6.011935   4.441011   4.722212   6.001757   6.701843
    27  H    5.993706   4.552462   5.512885   6.474067   7.186597
    28  H    6.780588   5.758149   5.695513   6.429347   6.817513
    29  H    8.519483   7.063273   7.211044   8.202471   8.592759
    30  H    8.417908   6.886278   7.653957   8.602784   9.122053
    31  H    7.940754   6.181010   7.074186   8.229840   8.864298
                   11         12         13         14         15
    11  N    0.000000
    12  C    1.310835   0.000000
    13  N    2.208588   1.360220   0.000000
    14  C    7.383476   7.570677   6.621874   0.000000
    15  C    8.138611   8.245199   7.344631   1.523470   0.000000
    16  N    9.565660   9.712854   8.801760   2.492394   1.486740
    17  H    6.652208   6.427345   5.203933   2.590560   3.326145
    18  H    4.291165   3.983112   2.961522   4.017739   4.485382
    19  H    5.906937   4.926570   3.705108   6.605358   7.087119
    20  H    4.038279   4.278973   3.370919   4.011462   5.216309
    21  H    4.305900   4.091419   2.911465   5.108308   6.238949
    22  H    2.156194   3.166845   3.229038   5.988338   6.961622
    23  H    2.134866   1.075156   2.132340   8.503410   9.087540
    24  H    3.180398   2.134543   1.007633   6.770331   7.418173
    25  H    7.578736   7.941993   7.102634   1.089632   2.141772
    26  H    7.946150   8.044667   6.978602   1.091990   2.150519
    27  H    8.175436   8.108310   7.132836   2.151961   1.091361
    28  H    7.797579   7.983349   7.229416   2.143387   1.090193
    29  H    9.739922  10.017631   9.174592   2.717114   2.084427
    30  H   10.153869  10.260082   9.382691   3.391594   2.095378
    31  H   10.018053  10.102223   9.095660   2.731213   2.086921
                   16         17         18         19         20
    16  N    0.000000
    17  H    4.450344   0.000000
    18  H    5.953482   2.780718   0.000000
    19  H    8.361890   4.182931   3.540514   0.000000
    20  H    6.478666   3.311063   2.711543   4.844747   0.000000
    21  H    7.500336   3.475878   3.032667   3.604710   1.749991
    22  H    8.267214   5.794287   4.047897   6.402886   2.718840
    23  H   10.568260   7.246840   4.743721   5.215610   5.315067
    24  H    8.864917   5.023921   2.964057   2.795965   3.806395
    25  H    2.724874   3.543546   4.715950   7.490262   4.243770
    26  H    2.734154   2.325382   4.455126   6.505519   4.268860
    27  H    2.109196   2.956923   4.185102   6.426161   5.370981
    28  H    2.121982   3.964892   4.438606   7.395552   5.327870
    29  H    1.020032   5.039665   6.439572   9.051499   6.640883
    30  H    1.021018   5.150329   6.472669   8.844644   7.292472
    31  H    1.020246   4.344017   6.270605   8.322565   6.672959
                   21         22         23         24         25
    21  H    0.000000
    22  H    3.722785   0.000000
    23  H    4.972244   4.182715   0.000000
    24  H    2.981577   4.173352   2.551151   0.000000
    25  H    5.569193   5.953327   8.923239   7.380747   0.000000
    26  H    5.088536   6.564333   8.973733   7.024767   1.774815
    27  H    6.130596   7.240113   8.875866   7.065705   3.045541
    28  H    6.508837   6.671728   8.801845   7.394053   2.474456
    29  H    7.824032   8.274834  10.918677   9.336525   2.524744
    30  H    8.285927   8.972467  11.062060   9.411347   3.661943
    31  H    7.531549   8.706793  10.964382   9.087000   3.064963
                   26         27         28         29         30
    26  H    0.000000
    27  H    2.487192   0.000000
    28  H    3.046026   1.759420   0.000000
    29  H    3.052619   2.967780   2.448883   0.000000
    30  H    3.678518   2.430639   2.436463   1.643701   0.000000
    31  H    2.549139   2.427175   2.978322   1.645565   1.644208
                   31
    31  H    0.000000
 Symmetry turned off by external request.
 Stoichiometry    C9H15N4O3(1+)
 Framework group  C1[X(C9H15N4O3)]
 Deg. of freedom    87
 Full point group                 C1      NOp   1
 Rotational constants (GHZ):      0.8514921      0.2642997      0.2133469
 Standard basis: 6-31+G(d,p) (6D, 7F)
   379 basis functions,   617 primitive gaussians,   379 cartesian basis functions
    60 alpha electrons       60 beta electrons
       nuclear repulsion energy      1124.7477579563 Hartrees.
 NAtoms=   31 NActive=   31 NUniq=   31 SFac= 1.00D+00 NAtFMM=   60 NAOKFM=F Big=F
 Integral buffers will be    131072 words long.
 Raffenetti 2 integral format.
 Two-electron integral symmetry is turned off.
 Nuclear repulsion after empirical dispersion term =     1124.6929369732 Hartrees.
 One-electron integrals computed using PRISM.
 NBasis=   379 RedAO= T EigKep=  7.42D-06  NBF=   379
 NBsUse=   379 1.00D-06 EigRej= -1.00D+00 NBFU=   379
 ExpMin= 4.38D-02 ExpMax= 5.48D+03 ExpMxC= 8.25D+02 IAcc=3 IRadAn=         5 AccDes= 0.00D+00
 Harris functional with IExCor=  402 and IRadAn=       5 diagonalized for initial guess.
 HarFok:  IExCor=  402 AccDes= 0.00D+00 IRadAn=         5 IDoV= 1 UseB2=F ITyADJ=14
 ICtDFT=  3500011 ScaDFX=  1.000000  1.000000  1.000000  1.000000
 FoFCou: FMM=F IPFlag=           0 FMFlag=      100000 FMFlg1=           0
         NFxFlg=           0 DoJE=T BraDBF=F KetDBF=T FulRan=T
         wScrn=  0.000000 ICntrl=     500 IOpCl=  0 I1Cent=   200000004 NGrid=           0
         NMat0=    1 NMatS0=      1 NMatT0=    0 NMatD0=    1 NMtDS0=    0 NMtDT0=    0
 Symmetry not used in FoFCou.
 Requested convergence on RMS density matrix=1.00D-08 within 128 cycles.
 Requested convergence on MAX density matrix=1.00D-06.
 Requested convergence on             energy=1.00D-06.
 No special actions if energy rises.
 EnCoef did     2 forward-backward iterations
 SCF Done:  E(RB3LYP) =  -796.552346411     A.U. after   17 cycles
            NFock= 17  Conv=0.50D-08     -V/T= 2.0089
 DoSCS=F DFT=T ScalE2(SS,OS)=  1.000000  1.000000
 Range of M.O.s used for correlation:     1   379
 NBasis=   379 NAE=    60 NBE=    60 NFC=     0 NFV=     0
 NROrb=    379 NOA=    60 NOB=    60 NVA=   319 NVB=   319

 **** Warning!!: The largest alpha MO coefficient is  0.10881801D+03


 **** Warning!!: The smallest alpha delta epsilon is  0.92101621D-01

 Symmetrizing basis deriv contribution to polar:
 IMax=3 JMax=2 DiffMx= 0.00D+00
 G2DrvN: will do    32 centers at a time, making    1 passes.
 Calling FoFCou, ICntrl=  3107 FMM=F I1Cent=   0 AccDes= 0.00D+00.
 End of G2Drv F.D. properties file   721 does not exist.
 End of G2Drv F.D. properties file   722 does not exist.
 End of G2Drv F.D. properties file   788 does not exist.
          IDoAtm=1111111111111111111111111111111
          Differentiating once with respect to nuclear coordinates.
          There are    96 degrees of freedom in the 1st order CPHF.  IDoFFX=6 NUNeed=     0.
     90 vectors produced by pass  0 Test12= 1.99D-14 1.04D-09 XBig12= 1.93D-01 9.38D-02.
 AX will form    90 AO Fock derivatives at one time.
     90 vectors produced by pass  1 Test12= 1.99D-14 1.04D-09 XBig12= 2.62D-02 3.77D-02.
     90 vectors produced by pass  2 Test12= 1.99D-14 1.04D-09 XBig12= 2.95D-04 3.24D-03.
     90 vectors produced by pass  3 Test12= 1.99D-14 1.04D-09 XBig12= 1.09D-06 1.34D-04.
     90 vectors produced by pass  4 Test12= 1.99D-14 1.04D-09 XBig12= 2.01D-09 3.96D-06.
     82 vectors produced by pass  5 Test12= 1.99D-14 1.04D-09 XBig12= 2.22D-12 1.20D-07.
     26 vectors produced by pass  6 Test12= 1.99D-14 1.04D-09 XBig12= 2.26D-15 4.38D-09.
      9 vectors produced by pass  7 Test12= 1.99D-14 1.04D-09 XBig12= 4.10D-16 2.10D-09.
      9 vectors produced by pass  8 Test12= 1.99D-14 1.04D-09 XBig12= 1.35D-15 4.25D-09.
      5 vectors produced by pass  9 Test12= 1.99D-14 1.04D-09 XBig12= 6.78D-16 2.10D-09.
      5 vectors produced by pass 10 Test12= 1.99D-14 1.04D-09 XBig12= 5.46D-15 7.35D-09.
      5 vectors produced by pass 11 Test12= 1.99D-14 1.04D-09 XBig12= 1.69D-15 3.50D-09.
      5 vectors produced by pass 12 Test12= 1.99D-14 1.04D-09 XBig12= 3.67D-15 5.55D-09.
      4 vectors produced by pass 13 Test12= 1.99D-14 1.04D-09 XBig12= 1.55D-15 3.97D-09.
      4 vectors produced by pass 14 Test12= 1.99D-14 1.04D-09 XBig12= 1.67D-15 3.32D-09.
      4 vectors produced by pass 15 Test12= 1.99D-14 1.04D-09 XBig12= 7.91D-16 2.28D-09.
      3 vectors produced by pass 16 Test12= 1.99D-14 1.04D-09 XBig12= 6.82D-16 1.85D-09.
      3 vectors produced by pass 17 Test12= 1.99D-14 1.04D-09 XBig12= 2.99D-15 4.91D-09.
      3 vectors produced by pass 18 Test12= 1.99D-14 1.04D-09 XBig12= 7.66D-16 2.61D-09.
      3 vectors produced by pass 19 Test12= 1.99D-14 1.04D-09 XBig12= 3.47D-15 4.74D-09.
      3 vectors produced by pass 20 Test12= 1.99D-14 1.04D-09 XBig12= 7.47D-16 2.39D-09.
      3 vectors produced by pass 21 Test12= 1.99D-14 1.04D-09 XBig12= 3.29D-15 4.05D-09.
      3 vectors produced by pass 22 Test12= 1.99D-14 1.04D-09 XBig12= 1.69D-15 3.04D-09.
      3 vectors produced by pass 23 Test12= 1.99D-14 1.04D-09 XBig12= 1.49D-15 3.24D-09.
      3 vectors produced by pass 24 Test12= 1.99D-14 1.04D-09 XBig12= 2.39D-15 3.63D-09.
      3 vectors produced by pass 25 Test12= 1.99D-14 1.04D-09 XBig12= 2.50D-15 4.24D-09.
      3 vectors produced by pass 26 Test12= 1.99D-14 1.04D-09 XBig12= 1.30D-15 2.72D-09.
      3 vectors produced by pass 27 Test12= 1.99D-14 1.04D-09 XBig12= 1.91D-15 3.87D-09.
      3 vectors produced by pass 28 Test12= 1.99D-14 1.04D-09 XBig12= 2.40D-15 3.89D-09.
      3 vectors produced by pass 29 Test12= 1.99D-14 1.04D-09 XBig12= 2.51D-15 4.71D-09.
      3 vectors produced by pass 30 Test12= 1.99D-14 1.04D-09 XBig12= 1.22D-15 2.42D-09.
      3 vectors produced by pass 31 Test12= 1.99D-14 1.04D-09 XBig12= 2.87D-15 4.17D-09.
      3 vectors produced by pass 32 Test12= 1.99D-14 1.04D-09 XBig12= 1.24D-15 2.64D-09.
      3 vectors produced by pass 33 Test12= 1.99D-14 1.04D-09 XBig12= 1.71D-15 3.37D-09.
      1 vectors produced by pass 34 Test12= 1.99D-14 1.04D-09 XBig12= 3.67D-16 1.44D-09.
 InvSVY:  IOpt=1 It=  1 EMax= 5.00D-16
 Solved reduced A of dimension   663 with    96 vectors.
 End of Minotr F.D. properties file   721 does not exist.
 End of Minotr F.D. properties file   722 does not exist.
 End of Minotr F.D. properties file   788 does not exist.

 **********************************************************************

            Population analysis using the SCF density.

 **********************************************************************

 Alpha  occ. eigenvalues --  -19.33798 -19.28581 -19.26271 -14.68086 -14.50327
 Alpha  occ. eigenvalues --  -14.45953 -14.38211 -10.45996 -10.44670 -10.43810
 Alpha  occ. eigenvalues --  -10.37964 -10.36870 -10.30685 -10.30604 -10.29361
 Alpha  occ. eigenvalues --  -10.26641  -1.25102  -1.22860  -1.18551  -1.16349
 Alpha  occ. eigenvalues --   -1.08926  -1.06983  -0.98317  -0.94318  -0.91395
 Alpha  occ. eigenvalues --   -0.86338  -0.83848  -0.80874  -0.80241  -0.77739
 Alpha  occ. eigenvalues --   -0.75224  -0.71891  -0.71361  -0.68896  -0.66584
 Alpha  occ. eigenvalues --   -0.65963  -0.65427  -0.63648  -0.61917  -0.60543
 Alpha  occ. eigenvalues --   -0.59652  -0.59544  -0.58291  -0.55494  -0.54970
 Alpha  occ. eigenvalues --   -0.54456  -0.54062  -0.51928  -0.50435  -0.49488
 Alpha  occ. eigenvalues --   -0.48477  -0.48286  -0.47426  -0.46185  -0.42023
 Alpha  occ. eigenvalues --   -0.40231  -0.39782  -0.35014  -0.33479  -0.29947
 Alpha virt. eigenvalues --   -0.20737  -0.15223  -0.14345  -0.14063  -0.13024
 Alpha virt. eigenvalues --   -0.12093  -0.10101  -0.09815  -0.08592  -0.08391
 Alpha virt. eigenvalues --   -0.07466  -0.06751  -0.06055  -0.05088  -0.04782
 Alpha virt. eigenvalues --   -0.03878  -0.03756  -0.03483  -0.03128  -0.02723
 Alpha virt. eigenvalues --   -0.01992  -0.01502  -0.01189  -0.00773  -0.00224
 Alpha virt. eigenvalues --    0.00299   0.00651   0.00955   0.01138   0.02152
 Alpha virt. eigenvalues --    0.02645   0.02814   0.03086   0.03474   0.04594
 Alpha virt. eigenvalues --    0.05340   0.05943   0.06131   0.07025   0.07290
 Alpha virt. eigenvalues --    0.07791   0.08207   0.08600   0.08711   0.08917
 Alpha virt. eigenvalues --    0.09456   0.09846   0.10701   0.11123   0.11243
 Alpha virt. eigenvalues --    0.11624   0.12219   0.12844   0.13289   0.13613
 Alpha virt. eigenvalues --    0.13993   0.14249   0.14864   0.15136   0.15681
 Alpha virt. eigenvalues --    0.16239   0.16978   0.17207   0.18092   0.18475
 Alpha virt. eigenvalues --    0.19061   0.19232   0.19641   0.19974   0.20324
 Alpha virt. eigenvalues --    0.20431   0.20792   0.21662   0.22248   0.22651
 Alpha virt. eigenvalues --    0.23667   0.24018   0.24369   0.25140   0.25458
 Alpha virt. eigenvalues --    0.25586   0.26907   0.27645   0.28094   0.28638
 Alpha virt. eigenvalues --    0.29120   0.29743   0.30650   0.31547   0.32308
 Alpha virt. eigenvalues --    0.33356   0.34004   0.35502   0.37632   0.38584
 Alpha virt. eigenvalues --    0.40309   0.41242   0.43260   0.44001   0.45122
 Alpha virt. eigenvalues --    0.45793   0.47181   0.51820   0.54285   0.55637
 Alpha virt. eigenvalues --    0.57020   0.59060   0.60695   0.61641   0.63067
 Alpha virt. eigenvalues --    0.64501   0.65065   0.66183   0.67435   0.67759
 Alpha virt. eigenvalues --    0.68389   0.69669   0.70147   0.71537   0.72027
 Alpha virt. eigenvalues --    0.73831   0.74100   0.74576   0.74745   0.76809
 Alpha virt. eigenvalues --    0.79323   0.79513   0.80249   0.81706   0.83481
 Alpha virt. eigenvalues --    0.84411   0.85474   0.86719   0.87523   0.88421
 Alpha virt. eigenvalues --    0.89051   0.89872   0.91719   0.92702   0.93522
 Alpha virt. eigenvalues --    0.94260   0.95645   0.96984   0.97410   0.98924
 Alpha virt. eigenvalues --    0.99782   1.00736   1.01487   1.03013   1.04700
 Alpha virt. eigenvalues --    1.06533   1.07083   1.08147   1.11009   1.11585
 Alpha virt. eigenvalues --    1.13553   1.15870   1.16557   1.17627   1.17832
 Alpha virt. eigenvalues --    1.19286   1.19817   1.21615   1.22309   1.22388
 Alpha virt. eigenvalues --    1.23862   1.25424   1.26247   1.26615   1.27879
 Alpha virt. eigenvalues --    1.28419   1.29380   1.30891   1.33208   1.33760
 Alpha virt. eigenvalues --    1.33992   1.37629   1.38497   1.39681   1.41218
 Alpha virt. eigenvalues --    1.42917   1.43667   1.44542   1.45837   1.47879
 Alpha virt. eigenvalues --    1.51059   1.52710   1.54008   1.57323   1.59058
 Alpha virt. eigenvalues --    1.61844   1.62331   1.64616   1.66494   1.67867
 Alpha virt. eigenvalues --    1.68559   1.69043   1.70926   1.71671   1.72425
 Alpha virt. eigenvalues --    1.73530   1.75547   1.76998   1.77317   1.77902
 Alpha virt. eigenvalues --    1.79316   1.81860   1.82913   1.84171   1.85149
 Alpha virt. eigenvalues --    1.86005   1.89229   1.90530   1.92902   1.94025
 Alpha virt. eigenvalues --    1.96682   1.96955   1.98567   2.00071   2.01564
 Alpha virt. eigenvalues --    2.02159   2.02606   2.03922   2.04393   2.06148
 Alpha virt. eigenvalues --    2.07837   2.09437   2.11391   2.12055   2.12828
 Alpha virt. eigenvalues --    2.13710   2.14860   2.18074   2.19444   2.20636
 Alpha virt. eigenvalues --    2.21309   2.24108   2.25296   2.28131   2.29945
 Alpha virt. eigenvalues --    2.31433   2.32110   2.33938   2.37097   2.38576
 Alpha virt. eigenvalues --    2.39301   2.39716   2.41681   2.43623   2.44781
 Alpha virt. eigenvalues --    2.45027   2.47407   2.48237   2.50792   2.51491
 Alpha virt. eigenvalues --    2.52346   2.53092   2.54789   2.55070   2.56797
 Alpha virt. eigenvalues --    2.57557   2.58936   2.60295   2.61052   2.63560
 Alpha virt. eigenvalues --    2.65476   2.65644   2.66526   2.69286   2.70513
 Alpha virt. eigenvalues --    2.71257   2.71500   2.74082   2.74786   2.76455
 Alpha virt. eigenvalues --    2.80564   2.82121   2.82291   2.87522   2.88580
 Alpha virt. eigenvalues --    2.94595   2.95298   2.97806   2.98922   3.03269
 Alpha virt. eigenvalues --    3.04425   3.08686   3.12131   3.12797   3.15718
 Alpha virt. eigenvalues --    3.17987   3.18961   3.23795   3.26450   3.28900
 Alpha virt. eigenvalues --    3.29901   3.33978   3.39045   3.40616   3.44999
 Alpha virt. eigenvalues --    3.48021   3.53431   3.69128   3.96986   4.12821
 Alpha virt. eigenvalues --    4.15744   4.18690   4.21225   4.25846   4.27739
 Alpha virt. eigenvalues --    4.32392   4.37513   4.44471   4.47560   4.52823
 Alpha virt. eigenvalues --    4.55342   4.62821   4.67322   4.75077
          Condensed to atoms (all electrons):
               1          2          3          4          5          6
     1  O    8.198363   0.461006  -0.186506   0.058119  -0.018719   0.000024
     2  C    0.461006   8.048486  -0.111897  -0.068022   0.061160   0.001369
     3  N   -0.186506  -0.111897   7.507878  -0.492360   0.251471   0.023244
     4  C    0.058119  -0.068022  -0.492360  10.358928  -2.128906  -0.175167
     5  C   -0.018719   0.061160   0.251471  -2.128906   6.812288   0.108556
     6  O    0.000024   0.001369   0.023244  -0.175167   0.108556   8.426782
     7  O    0.000401   0.036430   0.012998  -0.160197   0.456301  -0.142652
     8  C   -0.108198  -0.036321   0.001902  -0.015105   0.244641  -0.014610
     9  C    0.059757  -0.096301   0.182091  -1.222451  -0.085229   0.072471
    10  C   -0.030968  -0.051376   0.016679   0.185117  -0.002462   0.006149
    11  N   -0.000117   0.004055   0.001459  -0.014536  -0.005528  -0.000703
    12  C   -0.000530   0.007992   0.008273  -0.051521  -0.016226  -0.007105
    13  N    0.000431  -0.007500   0.000006  -0.026628   0.036515   0.010354
    14  C    0.027312  -1.944986  -0.185737  -0.217081  -0.255733  -0.001819
    15  C   -0.032314  -0.435377  -0.009148   0.064144  -0.015749  -0.000440
    16  N   -0.001977   0.037180  -0.003859   0.003607   0.001625   0.000004
    17  H    0.006563  -0.057919   0.283800   0.070868  -0.058557   0.001643
    18  H    0.010862   0.032903  -0.080880   0.433930  -0.137277   0.003768
    19  H    0.000001  -0.000988  -0.002574   0.051896  -0.005792   0.197363
    20  H   -0.000642   0.001350  -0.005784   0.018342  -0.035023   0.000012
    21  H    0.000551   0.001631   0.011500  -0.144363   0.047589   0.002876
    22  H   -0.000042   0.001508  -0.000272   0.014179  -0.001111  -0.000034
    23  H    0.000002  -0.000120  -0.000027   0.003598  -0.001395  -0.000457
    24  H   -0.000018   0.001086  -0.000118   0.007088  -0.003463   0.001405
    25  H    0.000431  -0.166999   0.013222  -0.009264  -0.002841  -0.000003
    26  H    0.001952   0.050076  -0.007789   0.005578   0.003694   0.000015
    27  H    0.001536  -0.019636   0.006384  -0.001908  -0.004307  -0.000007
    28  H    0.000417   0.053833   0.001755   0.005051   0.001004   0.000001
    29  H    0.000128   0.000170   0.000190  -0.000216  -0.000062   0.000000
    30  H    0.000051  -0.008950  -0.000118  -0.000308  -0.000079   0.000000
    31  H   -0.000096   0.020109  -0.000039   0.000183   0.000242   0.000000
               7          8          9         10         11         12
     1  O    0.000401  -0.108198   0.059757  -0.030968  -0.000117  -0.000530
     2  C    0.036430  -0.036321  -0.096301  -0.051376   0.004055   0.007992
     3  N    0.012998   0.001902   0.182091   0.016679   0.001459   0.008273
     4  C   -0.160197  -0.015105  -1.222451   0.185117  -0.014536  -0.051521
     5  C    0.456301   0.244641  -0.085229  -0.002462  -0.005528  -0.016226
     6  O   -0.142652  -0.014610   0.072471   0.006149  -0.000703  -0.007105
     7  O    8.217939  -0.016011   0.005132   0.003270  -0.000046  -0.000033
     8  C   -0.016011   8.451822  -2.351894  -0.229607  -0.043639  -0.016389
     9  C    0.005132  -2.351894   9.816031  -0.931380  -0.102719   0.080584
    10  C    0.003270  -0.229607  -0.931380   7.074742   0.408331  -0.520270
    11  N   -0.000046  -0.043639  -0.102719   0.408331   6.761907   0.410005
    12  C   -0.000033  -0.016389   0.080584  -0.520270   0.410005   5.309096
    13  N   -0.001123  -0.103634   0.316427  -0.150594  -0.025973   0.082302
    14  C    0.007521  -0.171200   0.214598  -0.036055   0.001792   0.006871
    15  C   -0.001026  -0.007228  -0.005920  -0.002883   0.000084   0.000204
    16  N   -0.000043   0.001282  -0.000785  -0.000040   0.000000  -0.000004
    17  H    0.020296  -0.003725  -0.007798  -0.000030  -0.000006  -0.000134
    18  H    0.004619  -0.017131   0.024922   0.002866  -0.001582  -0.007223
    19  H    0.005302  -0.001633  -0.009131  -0.001382   0.000020  -0.000453
    20  H   -0.000067   0.422670  -0.091787   0.006788  -0.000388  -0.005502
    21  H    0.001503   0.522277  -0.118712  -0.004061  -0.002273  -0.007708
    22  H   -0.000002   0.046378  -0.093599   0.367932  -0.061527   0.025590
    23  H   -0.000001   0.017136   0.033794  -0.031127  -0.051503   0.446014
    24  H    0.000371  -0.060388   0.096963  -0.005250   0.008819  -0.028792
    25  H    0.000002   0.002245  -0.001178  -0.000242   0.000000  -0.000011
    26  H   -0.000086  -0.002447   0.002049   0.000268   0.000000   0.000007
    27  H    0.000050   0.001119  -0.000156   0.000007   0.000000  -0.000006
    28  H   -0.000001  -0.000573   0.000082   0.000061   0.000000   0.000004
    29  H    0.000000   0.000037  -0.000011   0.000001   0.000000   0.000000
    30  H    0.000000  -0.000014   0.000013   0.000001   0.000000   0.000000
    31  H    0.000000  -0.000005   0.000003   0.000001   0.000000   0.000000
              13         14         15         16         17         18
     1  O    0.000431   0.027312  -0.032314  -0.001977   0.006563   0.010862
     2  C   -0.007500  -1.944986  -0.435377   0.037180  -0.057919   0.032903
     3  N    0.000006  -0.185737  -0.009148  -0.003859   0.283800  -0.080880
     4  C   -0.026628  -0.217081   0.064144   0.003607   0.070868   0.433930
     5  C    0.036515  -0.255733  -0.015749   0.001625  -0.058557  -0.137277
     6  O    0.010354  -0.001819  -0.000440   0.000004   0.001643   0.003768
     7  O   -0.001123   0.007521  -0.001026  -0.000043   0.020296   0.004619
     8  C   -0.103634  -0.171200  -0.007228   0.001282  -0.003725  -0.017131
     9  C    0.316427   0.214598  -0.005920  -0.000785  -0.007798   0.024922
    10  C   -0.150594  -0.036055  -0.002883  -0.000040  -0.000030   0.002866
    11  N   -0.025973   0.001792   0.000084   0.000000  -0.000006  -0.001582
    12  C    0.082302   0.006871   0.000204  -0.000004  -0.000134  -0.007223
    13  N    7.016637   0.000247   0.000377   0.000002  -0.000119  -0.006863
    14  C    0.000247   7.654717   0.512486  -0.147951   0.040396   0.014329
    15  C    0.000377   0.512486   5.315932   0.133398   0.004403  -0.003454
    16  N    0.000002  -0.147951   0.133398   6.689928  -0.000328   0.000001
    17  H   -0.000119   0.040396   0.004403  -0.000328   0.375213   0.003468
    18  H   -0.006863   0.014329  -0.003454   0.000001   0.003468   0.515329
    19  H    0.001788  -0.000145   0.000032   0.000000  -0.000045  -0.000196
    20  H    0.005310   0.013857   0.001157  -0.000021   0.000257  -0.001226
    21  H   -0.004368  -0.007299  -0.000521   0.000002  -0.000244   0.004264
    22  H    0.002876   0.000386   0.000056   0.000000   0.000000  -0.000030
    23  H   -0.111870  -0.000010   0.000001   0.000000   0.000000  -0.000003
    24  H    0.259103   0.000082  -0.000023   0.000000   0.000001   0.000263
    25  H   -0.000001   0.522734  -0.023286  -0.002379   0.000155  -0.000015
    26  H   -0.000001   0.343809  -0.074464  -0.001470  -0.000303  -0.000004
    27  H   -0.000003  -0.024595   0.402983  -0.034750   0.000185   0.000006
    28  H    0.000001  -0.089200   0.391397  -0.029211  -0.000031  -0.000005
    29  H    0.000000  -0.005455  -0.015599   0.319958   0.000000   0.000000
    30  H    0.000000   0.033785  -0.029860   0.304403   0.000001   0.000000
    31  H    0.000000  -0.021278  -0.020947   0.322108  -0.000003   0.000000
              19         20         21         22         23         24
     1  O    0.000001  -0.000642   0.000551  -0.000042   0.000002  -0.000018
     2  C   -0.000988   0.001350   0.001631   0.001508  -0.000120   0.001086
     3  N   -0.002574  -0.005784   0.011500  -0.000272  -0.000027  -0.000118
     4  C    0.051896   0.018342  -0.144363   0.014179   0.003598   0.007088
     5  C   -0.005792  -0.035023   0.047589  -0.001111  -0.001395  -0.003463
     6  O    0.197363   0.000012   0.002876  -0.000034  -0.000457   0.001405
     7  O    0.005302  -0.000067   0.001503  -0.000002  -0.000001   0.000371
     8  C   -0.001633   0.422670   0.522277   0.046378   0.017136  -0.060388
     9  C   -0.009131  -0.091787  -0.118712  -0.093599   0.033794   0.096963
    10  C   -0.001382   0.006788  -0.004061   0.367932  -0.031127  -0.005250
    11  N    0.000020  -0.000388  -0.002273  -0.061527  -0.051503   0.008819
    12  C   -0.000453  -0.005502  -0.007708   0.025590   0.446014  -0.028792
    13  N    0.001788   0.005310  -0.004368   0.002876  -0.111870   0.259103
    14  C   -0.000145   0.013857  -0.007299   0.000386  -0.000010   0.000082
    15  C    0.000032   0.001157  -0.000521   0.000056   0.000001  -0.000023
    16  N    0.000000  -0.000021   0.000002   0.000000   0.000000   0.000000
    17  H   -0.000045   0.000257  -0.000244   0.000000   0.000000   0.000001
    18  H   -0.000196  -0.001226   0.004264  -0.000030  -0.000003   0.000263
    19  H    0.343580   0.000007  -0.000113   0.000000   0.000000   0.000418
    20  H    0.000007   0.517602  -0.027442   0.002271   0.000004  -0.000064
    21  H   -0.000113  -0.027442   0.549530  -0.000077  -0.000004   0.000643
    22  H    0.000000   0.002271  -0.000077   0.564520  -0.000037  -0.000090
    23  H    0.000000   0.000004  -0.000004  -0.000037   0.554227   0.000449
    24  H    0.000418  -0.000064   0.000643  -0.000090   0.000449   0.396247
    25  H    0.000000   0.000027  -0.000001   0.000000   0.000000   0.000000
    26  H    0.000000  -0.000011   0.000000   0.000000   0.000000   0.000000
    27  H    0.000000   0.000000   0.000000   0.000000   0.000000   0.000000
    28  H    0.000000   0.000000   0.000000   0.000000   0.000000   0.000000
    29  H    0.000000   0.000000   0.000000   0.000000   0.000000   0.000000
    30  H    0.000000   0.000000   0.000000   0.000000   0.000000   0.000000
    31  H    0.000000   0.000000   0.000000   0.000000   0.000000   0.000000
              25         26         27         28         29         30
     1  O    0.000431   0.001952   0.001536   0.000417   0.000128   0.000051
     2  C   -0.166999   0.050076  -0.019636   0.053833   0.000170  -0.008950
     3  N    0.013222  -0.007789   0.006384   0.001755   0.000190  -0.000118
     4  C   -0.009264   0.005578  -0.001908   0.005051  -0.000216  -0.000308
     5  C   -0.002841   0.003694  -0.004307   0.001004  -0.000062  -0.000079
     6  O   -0.000003   0.000015  -0.000007   0.000001   0.000000   0.000000
     7  O    0.000002  -0.000086   0.000050  -0.000001   0.000000   0.000000
     8  C    0.002245  -0.002447   0.001119  -0.000573   0.000037  -0.000014
     9  C   -0.001178   0.002049  -0.000156   0.000082  -0.000011   0.000013
    10  C   -0.000242   0.000268   0.000007   0.000061   0.000001   0.000001
    11  N    0.000000   0.000000   0.000000   0.000000   0.000000   0.000000
    12  C   -0.000011   0.000007  -0.000006   0.000004   0.000000   0.000000
    13  N   -0.000001  -0.000001  -0.000003   0.000001   0.000000   0.000000
    14  C    0.522734   0.343809  -0.024595  -0.089200  -0.005455   0.033785
    15  C   -0.023286  -0.074464   0.402983   0.391397  -0.015599  -0.029860
    16  N   -0.002379  -0.001470  -0.034750  -0.029211   0.319958   0.304403
    17  H    0.000155  -0.000303   0.000185  -0.000031   0.000000   0.000001
    18  H   -0.000015  -0.000004   0.000006  -0.000005   0.000000   0.000000
    19  H    0.000000   0.000000   0.000000   0.000000   0.000000   0.000000
    20  H    0.000027  -0.000011   0.000000   0.000000   0.000000   0.000000
    21  H   -0.000001   0.000000   0.000000   0.000000   0.000000   0.000000
    22  H    0.000000   0.000000   0.000000   0.000000   0.000000   0.000000
    23  H    0.000000   0.000000   0.000000   0.000000   0.000000   0.000000
    24  H    0.000000   0.000000   0.000000   0.000000   0.000000   0.000000
    25  H    0.489257  -0.027973   0.004046  -0.004424   0.003977  -0.000045
    26  H   -0.027973   0.533478  -0.004777   0.004248  -0.000765   0.000004
    27  H    0.004046  -0.004777   0.484308  -0.022663   0.004049  -0.002173
    28  H   -0.004424   0.004248  -0.022663   0.448540  -0.004165  -0.002097
    29  H    0.003977  -0.000765   0.004049  -0.004165   0.324450  -0.014064
    30  H   -0.000045   0.000004  -0.002173  -0.002097  -0.014064   0.326215
    31  H   -0.000670   0.003864  -0.004843   0.003628  -0.020695  -0.014947
              31
     1  O   -0.000096
     2  C    0.020109
     3  N   -0.000039
     4  C    0.000183
     5  C    0.000242
     6  O    0.000000
     7  O    0.000000
     8  C   -0.000005
     9  C    0.000003
    10  C    0.000001
    11  N    0.000000
    12  C    0.000000
    13  N    0.000000
    14  C   -0.021278
    15  C   -0.020947
    16  N    0.322108
    17  H   -0.000003
    18  H    0.000000
    19  H    0.000000
    20  H    0.000000
    21  H    0.000000
    22  H    0.000000
    23  H    0.000000
    24  H    0.000000
    25  H   -0.000670
    26  H    0.003864
    27  H   -0.004843
    28  H    0.003628
    29  H   -0.020695
    30  H   -0.014947
    31  H    0.327841
 Mulliken charges:
               1
     1  O   -0.447780
     2  C    0.186047
     3  N   -0.235741
     4  C   -0.552596
     5  C    0.753376
     6  O   -0.513040
     7  O   -0.450847
     8  C   -0.511756
     9  C    0.214135
    10  C   -0.074486
    11  N   -0.285930
    12  C    0.284966
    13  N   -0.293698
    14  C   -0.286379
    15  C   -0.148417
    16  N   -0.590679
    17  H    0.321992
    18  H    0.204359
    19  H    0.422047
    20  H    0.178301
    21  H    0.174821
    22  H    0.131124
    23  H    0.141331
    24  H    0.325269
    25  H    0.203236
    26  H    0.171048
    27  H    0.215152
    28  H    0.242348
    29  H    0.408071
    30  H    0.408183
    31  H    0.405544
 Sum of Mulliken charges =   1.00000
 Mulliken charges with hydrogens summed into heavy atoms:
               1
     1  O   -0.447780
     2  C    0.186047
     3  N    0.086251
     4  C   -0.348238
     5  C    0.753376
     6  O   -0.090993
     7  O   -0.450847
     8  C   -0.158634
     9  C    0.214135
    10  C    0.056639
    11  N   -0.285930
    12  C    0.426297
    13  N    0.031571
    14  C    0.087905
    15  C    0.309083
    16  N    0.631119
 APT charges:
               1
     1  O   -0.533419
     2  C    0.455033
     3  N   -0.528119
     4  C   -0.635093
     5  C    0.348811
     6  O   -0.795553
     7  O   -0.172807
     8  C   -1.135670
     9  C   -0.360813
    10  C   -0.021768
    11  N   -0.326239
    12  C   -0.370908
    13  N   -0.461257
    14  C   -1.101593
    15  C   -0.014751
    16  N   -2.078332
    17  H    0.615658
    18  H    0.322024
    19  H    1.059413
    20  H    0.285442
    21  H    0.537832
    22  H    0.410093
    23  H    1.045826
    24  H    0.432262
    25  H    0.551866
    26  H    0.398220
    27  H    0.183406
    28  H    0.307066
    29  H    0.816770
    30  H    1.089046
    31  H    0.677554
 Sum of APT charges =   1.00000
 APT charges with hydrogens summed into heavy atoms:
               1
     1  O   -0.533419
     2  C    0.455033
     3  N    0.087539
     4  C   -0.313069
     5  C    0.348811
     6  O    0.263860
     7  O   -0.172807
     8  C   -0.312396
     9  C   -0.360813
    10  C    0.388326
    11  N   -0.326239
    12  C    0.674918
    13  N   -0.028995
    14  C   -0.151507
    15  C    0.475720
    16  N    0.505038
 Electronic spatial extent (au):  <R**2>=           5048.6388
 Charge=              1.0000 electrons
 Dipole moment (field-independent basis, Debye):
    X=            -20.7516    Y=              6.8501    Z=             -2.0087  Tot=             21.9451
 Quadrupole moment (field-independent basis, Debye-Ang):
   XX=             16.7274   YY=            -85.9572   ZZ=            -94.9802
   XY=             -3.9376   XZ=            -35.0268   YZ=              6.4469
 Traceless Quadrupole moment (field-independent basis, Debye-Ang):
   XX=             71.4641   YY=            -31.2205   ZZ=            -40.2436
   XY=             -3.9376   XZ=            -35.0268   YZ=              6.4469
 Octapole moment (field-independent basis, Debye-Ang**2):
  XXX=           -724.7987  YYY=             42.8401  ZZZ=            -10.3341  XYY=            -94.9327
  XXY=            174.5088  XXZ=             21.2596  XZZ=            -89.8233  YZZ=             29.1058
  YYZ=              1.0015  XYZ=            -14.7333
 Hexadecapole moment (field-independent basis, Debye-Ang**3):
 XXXX=          -1926.8078 YYYY=           -656.9091 ZZZZ=          -1067.4637 XXXY=            191.0108
 XXXZ=           -675.8132 YYYX=            351.5608 YYYZ=            221.1158 ZZZX=           -154.3404
 ZZZY=            247.9582 XXYY=           -814.3304 XXZZ=           -888.4790 YYZZ=           -272.8102
 XXYZ=            201.5613 YYXZ=            -83.4774 ZZXY=            185.9099
 N-N= 1.124692936973D+03 E-N=-4.090623952787D+03  KE= 7.895090174137D+02
  Exact polarizability:   0.000   0.000   0.000   0.000   0.000   0.000
 Approx polarizability: 213.165   6.709 170.595  20.968 -32.475 209.418
 Calling FoFJK, ICntrl=    100147 FMM=F ISym2X=0 I1Cent= 0 IOpClX= 0 NMat=1 NMatS=1 NMatT=0.
 -------------------------------------------------------------------
 Center     Atomic                   Forces (Hartrees/Bohr)
 Number     Number              X              Y              Z
 -------------------------------------------------------------------
      1        8          -0.006138929   -0.001559247    0.007364199
      2        6           0.015858825    0.004815733   -0.005754835
      3        7          -0.007047575    0.002074300    0.002261733
      4        6          -0.004938538   -0.000519704    0.001294576
      5        6           0.012686061   -0.004410905    0.010072173
      6        8          -0.005901317   -0.000306555    0.000956329
      7        8          -0.012790639    0.005935611   -0.010867140
      8        6           0.006553177   -0.000846755    0.006083442
      9        6          -0.010183916   -0.001779494   -0.004218455
     10        6           0.005141180   -0.006017709    0.009987255
     11        7          -0.004247159   -0.005917598    0.002780833
     12        6           0.003916104    0.002794599    0.001412409
     13        7           0.003342870    0.006541083   -0.008724258
     14        6          -0.015101509   -0.001839635   -0.001925520
     15        6           0.029104074    0.001745156   -0.000029799
     16        7          -0.006651215    0.002000944    0.001656561
     17        1          -0.001957570   -0.000604702   -0.006053974
     18        1           0.004023574   -0.001462657    0.000818865
     19        1           0.003933011    0.002252394   -0.003834791
     20        1          -0.001116609   -0.000417442    0.000597607
     21        1           0.000254686   -0.000311427   -0.005098023
     22        1           0.000126791   -0.000201579    0.000023085
     23        1           0.003901020    0.001656941    0.001710291
     24        1           0.003274800    0.000742556   -0.000784990
     25        1           0.000873292   -0.004956992    0.000391093
     26        1          -0.000106088   -0.002183635   -0.003303092
     27        1          -0.005211232    0.003424018   -0.000354505
     28        1          -0.005553947    0.001149810    0.003573278
     29        1          -0.002392888   -0.005000116    0.002745718
     30        1          -0.001649857    0.004299935    0.002191088
     31        1          -0.002000477   -0.001096931   -0.004971153
 -------------------------------------------------------------------
 Cartesian Forces:  Max     0.029104074 RMS     0.005881744
 FormGI is forming the generalized inverse of G from B-inverse, IUseBI=4.

 GradGradGradGradGradGradGradGradGradGradGradGradGradGradGradGradGradGrad
 Berny optimization.
 Internal  Forces:  Max     0.017744272 RMS     0.003965970
 Search for a local minimum.
 Step number   1 out of a maximum of  167
 All quantities printed in internal units (Hartrees-Bohrs-Radians)
 Mixed Optimization -- RFO/linear search
 Second derivative matrix not updated -- analytic derivatives used.
 ITU=  0
     Eigenvalues ---   -0.00117   0.00129   0.00189   0.00194   0.00250
     Eigenvalues ---    0.00323   0.00585   0.00684   0.00781   0.00971
     Eigenvalues ---    0.01890   0.02032   0.02038   0.02557   0.03538
     Eigenvalues ---    0.03752   0.03975   0.04080   0.04248   0.04313
     Eigenvalues ---    0.04430   0.04611   0.04963   0.05026   0.05047
     Eigenvalues ---    0.05284   0.05715   0.06152   0.06336   0.07603
     Eigenvalues ---    0.07904   0.07994   0.10367   0.10578   0.11029
     Eigenvalues ---    0.11702   0.11807   0.12250   0.12967   0.13107
     Eigenvalues ---    0.13546   0.15094   0.15589   0.15988   0.16499
     Eigenvalues ---    0.18448   0.18883   0.19903   0.21020   0.21592
     Eigenvalues ---    0.23134   0.23505   0.23547   0.24900   0.25468
     Eigenvalues ---    0.27272   0.29300   0.31269   0.31484   0.33016
     Eigenvalues ---    0.33769   0.34290   0.34518   0.34663   0.34973
     Eigenvalues ---    0.35121   0.35447   0.35497   0.36552   0.37598
     Eigenvalues ---    0.38176   0.38584   0.41346   0.42523   0.44094
     Eigenvalues ---    0.44277   0.44803   0.45821   0.47432   0.47514
     Eigenvalues ---    0.47557   0.49187   0.52130   0.58447   0.61037
     Eigenvalues ---    0.84061   0.93244
 RFO step:  Lambda=-1.02517970D-02 EMin=-1.16578416D-03
 Linear search not attempted -- first point.
 Iteration  1 RMS(Cart)=  0.15939400 RMS(Int)=  0.04215754
 Iteration  2 RMS(Cart)=  0.12194410 RMS(Int)=  0.00649469
 Iteration  3 RMS(Cart)=  0.01227152 RMS(Int)=  0.00045130
 Iteration  4 RMS(Cart)=  0.00012587 RMS(Int)=  0.00044875
 Iteration  5 RMS(Cart)=  0.00000013 RMS(Int)=  0.00044875
 Variable       Old X    -DE/DX   Delta X   Delta X   Delta X     New X
                                 (Linear)    (Quad)   (Total)
    R1        2.30979   0.00363   0.00000   0.00932   0.00932   2.31911
    R2        2.56802   0.00059   0.00000  -0.02290  -0.02290   2.54513
    R3        2.86328   0.00869   0.00000   0.03686   0.03686   2.90014
    R4        2.74456   0.00763   0.00000   0.01420   0.01420   2.75876
    R5        1.90584   0.00538   0.00000   0.01091   0.01091   1.91675
    R6        2.86002   0.00438   0.00000   0.01260   0.01260   2.87262
    R7        2.92806   0.00868   0.00000   0.02431   0.02431   2.95237
    R8        2.07145   0.00076   0.00000   0.00120   0.00120   2.07265
    R9        2.55465  -0.00136   0.00000  -0.01191  -0.01191   2.54274
   R10        2.27296   0.01774   0.00000   0.01957   0.01957   2.29253
   R11        1.83216   0.00487   0.00000   0.00819   0.00819   1.84035
   R12        2.81762   0.00552   0.00000   0.00099   0.00099   2.81860
   R13        2.05699   0.00121   0.00000   0.00430   0.00430   2.06129
   R14        2.05964   0.00488   0.00000   0.01313   0.01313   2.07277
   R15        2.58076   0.01179   0.00000   0.02121   0.02122   2.60198
   R16        2.59022   0.01378   0.00000   0.02639   0.02641   2.61663
   R17        2.61600  -0.00236   0.00000  -0.01346  -0.01348   2.60252
   R18        2.04211   0.00009   0.00000   0.00061   0.00061   2.04273
   R19        2.47712   0.00678   0.00000   0.01090   0.01088   2.48800
   R20        2.57044   0.00885   0.00000   0.01597   0.01598   2.58642
   R21        2.03175   0.00428   0.00000   0.01013   0.01013   2.04189
   R22        1.90415   0.00117   0.00000   0.00302   0.00302   1.90717
   R23        2.87894   0.00513   0.00000   0.00012   0.00012   2.87906
   R24        2.05911   0.00379   0.00000   0.01194   0.01194   2.07105
   R25        2.06356   0.00339   0.00000   0.00538   0.00538   2.06894
   R26        2.80953   0.01264   0.00000   0.06042   0.06042   2.86995
   R27        2.06237   0.00115   0.00000   0.00163   0.00163   2.06401
   R28        2.06017   0.00176   0.00000   0.00360   0.00360   2.06377
   R29        1.92758   0.00617   0.00000   0.01193   0.01193   1.93951
   R30        1.92945   0.00508   0.00000   0.00957   0.00957   1.93901
   R31        1.92799   0.00542   0.00000   0.01009   0.01009   1.93808
    A1        2.13113   0.00987   0.00000   0.04411   0.04411   2.17524
    A2        2.13940  -0.01090   0.00000  -0.06883  -0.06884   2.07056
    A3        2.01244   0.00104   0.00000   0.02474   0.02474   2.03718
    A4        2.09611   0.00370   0.00000   0.02277   0.02129   2.11740
    A5        2.11751  -0.00105   0.00000   0.00817   0.00671   2.12422
    A6        2.02563  -0.00216   0.00000  -0.00332  -0.00486   2.02077
    A7        1.86306  -0.00745   0.00000  -0.01987  -0.01982   1.84323
    A8        1.93735   0.00386   0.00000   0.02266   0.02267   1.96001
    A9        1.87700   0.00250   0.00000   0.02371   0.02387   1.90088
   A10        1.97563   0.00392   0.00000   0.00022   0.00025   1.97588
   A11        1.89345   0.00111   0.00000   0.00193   0.00189   1.89534
   A12        1.91395  -0.00401   0.00000  -0.02715  -0.02736   1.88659
   A13        1.96695   0.00330   0.00000   0.00238   0.00238   1.96933
   A14        2.17483  -0.00311   0.00000  -0.01017  -0.01017   2.16466
   A15        2.14140  -0.00019   0.00000   0.00778   0.00777   2.14918
   A16        1.85401   0.00607   0.00000   0.02970   0.02970   1.88371
   A17        1.97123   0.01133   0.00000   0.02341   0.02343   1.99467
   A18        1.88012  -0.00412   0.00000  -0.01723  -0.01724   1.86287
   A19        1.92228  -0.00376   0.00000  -0.01121  -0.01139   1.91089
   A20        1.86964  -0.00364   0.00000  -0.00482  -0.00467   1.86497
   A21        1.94962  -0.00220   0.00000   0.00485   0.00487   1.95449
   A22        1.86572   0.00183   0.00000   0.00323   0.00309   1.86881
   A23        2.29073  -0.00496   0.00000  -0.01109  -0.01117   2.27955
   A24        2.15839   0.00721   0.00000   0.01754   0.01747   2.17586
   A25        1.83359  -0.00223   0.00000  -0.00583  -0.00588   1.82771
   A26        1.92995   0.00165   0.00000   0.00538   0.00537   1.93532
   A27        2.23197  -0.00069   0.00000  -0.00665  -0.00664   2.22533
   A28        2.12126  -0.00096   0.00000   0.00127   0.00127   2.12253
   A29        1.83408   0.00290   0.00000   0.00651   0.00645   1.84053
   A30        1.94677   0.00020   0.00000   0.00000  -0.00001   1.94676
   A31        2.21083  -0.00168   0.00000  -0.01111  -0.01110   2.19973
   A32        2.12558   0.00148   0.00000   0.01110   0.01111   2.13669
   A33        1.88022  -0.00249   0.00000  -0.00580  -0.00578   1.87444
   A34        2.16723   0.00399   0.00000   0.01985   0.01984   2.18707
   A35        2.23546  -0.00150   0.00000  -0.01400  -0.01401   2.22144
   A36        1.93134  -0.00720   0.00000  -0.07930  -0.07970   1.85164
   A37        1.88064  -0.00026   0.00000  -0.02743  -0.02882   1.85181
   A38        1.93754   0.00187   0.00000   0.04851   0.04987   1.98740
   A39        1.90178   0.00315   0.00000   0.00735   0.00459   1.90637
   A40        1.91135   0.00435   0.00000   0.05282   0.05347   1.96482
   A41        1.90039  -0.00190   0.00000  -0.00292  -0.00311   1.89728
   A42        1.95089  -0.00229   0.00000  -0.00481  -0.00463   1.94626
   A43        1.91397   0.00415   0.00000   0.04607   0.04575   1.95973
   A44        1.90342   0.00378   0.00000   0.01427   0.01338   1.91679
   A45        1.89939  -0.00239   0.00000  -0.03381  -0.03382   1.86557
   A46        1.91828  -0.00376   0.00000  -0.04887  -0.04903   1.86925
   A47        1.87641   0.00064   0.00000   0.02868   0.02678   1.90319
   A48        1.93980   0.00010   0.00000  -0.00542  -0.00544   1.93436
   A49        1.95492  -0.00044   0.00000  -0.00744  -0.00745   1.94747
   A50        1.94324   0.00030   0.00000   0.00437   0.00437   1.94762
   A51        1.87243   0.00022   0.00000   0.00435   0.00432   1.87675
   A52        1.87655  -0.00047   0.00000  -0.00119  -0.00119   1.87536
   A53        1.87299   0.00030   0.00000   0.00592   0.00593   1.87892
    D1       -0.10391   0.00029   0.00000   0.04393   0.04413  -0.05978
    D2       -2.91907  -0.00112   0.00000  -0.05512  -0.05537  -2.97444
    D3        3.01567   0.00056   0.00000   0.04396   0.04422   3.05989
    D4        0.20052  -0.00085   0.00000  -0.05509  -0.05529   0.14523
    D5        1.40506  -0.00160   0.00000  -0.43249  -0.43138   0.97368
    D6       -0.67253  -0.00113   0.00000  -0.37907  -0.38019  -1.05272
    D7       -2.75201   0.00025   0.00000  -0.38673  -0.38677  -3.13878
    D8       -1.71441  -0.00217   0.00000  -0.43410  -0.43296  -2.14736
    D9        2.49119  -0.00169   0.00000  -0.38069  -0.38177   2.10942
   D10        0.41171  -0.00031   0.00000  -0.38834  -0.38835   0.02336
   D11       -2.81581   0.00111   0.00000  -0.05433  -0.05424  -2.87005
   D12        1.30691  -0.00118   0.00000  -0.05544  -0.05517   1.25174
   D13       -0.78674  -0.00010   0.00000  -0.05039  -0.05056  -0.83730
   D14        0.01592   0.00258   0.00000   0.04146   0.04142   0.05734
   D15       -2.14454   0.00028   0.00000   0.04035   0.04049  -2.10405
   D16        2.04499   0.00136   0.00000   0.04540   0.04510   2.09010
   D17       -3.13461  -0.00085   0.00000  -0.00102  -0.00099  -3.13560
   D18        0.00343  -0.00066   0.00000  -0.00486  -0.00482  -0.00139
   D19       -0.99799   0.00126   0.00000   0.01370   0.01375  -0.98424
   D20        2.14005   0.00144   0.00000   0.00986   0.00992   2.14997
   D21        1.13050  -0.00046   0.00000  -0.01934  -0.01942   1.11108
   D22       -2.01465  -0.00028   0.00000  -0.02318  -0.02325  -2.03790
   D23       -2.49123  -0.00078   0.00000  -0.01508  -0.01495  -2.50618
   D24       -0.43011  -0.00129   0.00000  -0.01846  -0.01843  -0.44854
   D25        1.59876  -0.00347   0.00000  -0.03039  -0.03020   1.56856
   D26        1.69725   0.00335   0.00000  -0.00585  -0.00579   1.69146
   D27       -2.52481   0.00284   0.00000  -0.00924  -0.00927  -2.53408
   D28       -0.49594   0.00066   0.00000  -0.02116  -0.02104  -0.51698
   D29       -0.41972   0.00215   0.00000   0.01103   0.01088  -0.40884
   D30        1.64140   0.00164   0.00000   0.00765   0.00740   1.64880
   D31       -2.61292  -0.00054   0.00000  -0.00427  -0.00437  -2.61729
   D32       -3.12587  -0.00056   0.00000  -0.01950  -0.01951   3.13780
   D33        0.01920  -0.00073   0.00000  -0.01570  -0.01568   0.00352
   D34        2.09828  -0.00146   0.00000  -0.05681  -0.05685   2.04144
   D35       -1.00477  -0.00244   0.00000  -0.08137  -0.08144  -1.08622
   D36        0.03104  -0.00059   0.00000  -0.04606  -0.04605  -0.01501
   D37       -3.07201  -0.00158   0.00000  -0.07061  -0.07065   3.14052
   D38       -2.00651   0.00059   0.00000  -0.04971  -0.04962  -2.05612
   D39        1.17362  -0.00040   0.00000  -0.07426  -0.07421   1.09941
   D40       -3.12471  -0.00018   0.00000  -0.01053  -0.01028  -3.13498
   D41        0.01497  -0.00041   0.00000  -0.01102  -0.01086   0.00411
   D42       -0.01633   0.00085   0.00000   0.01107   0.01108  -0.00524
   D43        3.12335   0.00062   0.00000   0.01058   0.01050   3.13385
   D44        3.12901  -0.00043   0.00000   0.00550   0.00573   3.13474
   D45        0.01089  -0.00022   0.00000   0.00355   0.00369   0.01458
   D46        0.01742  -0.00109   0.00000  -0.01337  -0.01333   0.00409
   D47       -3.10070  -0.00088   0.00000  -0.01532  -0.01537  -3.11607
   D48        0.00875  -0.00030   0.00000  -0.00441  -0.00441   0.00433
   D49       -3.13107  -0.00009   0.00000  -0.00395  -0.00386  -3.13493
   D50        0.00272  -0.00036   0.00000  -0.00426  -0.00432  -0.00160
   D51       -3.13668   0.00011   0.00000  -0.00327  -0.00329  -3.13997
   D52       -0.01301   0.00092   0.00000   0.01136   0.01139  -0.00162
   D53        3.10391   0.00080   0.00000   0.01402   0.01409   3.11800
   D54        3.12652   0.00047   0.00000   0.01040   0.01037   3.13689
   D55       -0.03975   0.00034   0.00000   0.01305   0.01307  -0.02668
   D56       -3.10332   0.00203   0.00000   0.11499   0.11459  -2.98873
   D57        1.07181   0.00374   0.00000   0.12950   0.12940   1.20120
   D58       -0.97865  -0.00161   0.00000   0.06004   0.05917  -0.91948
   D59       -1.03856  -0.00062   0.00000   0.03892   0.03903  -0.99953
   D60        3.13656   0.00108   0.00000   0.05343   0.05384  -3.09278
   D61        1.08611  -0.00427   0.00000  -0.01603  -0.01639   1.06972
   D62        1.03843   0.00152   0.00000   0.07088   0.07134   1.10977
   D63       -1.06963   0.00322   0.00000   0.08539   0.08615  -0.98348
   D64       -3.12008  -0.00213   0.00000   0.01593   0.01592  -3.10416
   D65        1.03267  -0.00057   0.00000  -0.01593  -0.01576   1.01691
   D66        3.12692  -0.00053   0.00000  -0.01919  -0.01900   3.10792
   D67       -1.05892  -0.00025   0.00000  -0.01370  -0.01352  -1.07244
   D68       -3.13399   0.00154   0.00000   0.01593   0.01566  -3.11833
   D69       -1.03974   0.00158   0.00000   0.01267   0.01242  -1.02732
   D70        1.05760   0.00186   0.00000   0.01816   0.01790   1.07550
   D71       -1.08341  -0.00125   0.00000   0.00278   0.00286  -1.08055
   D72        1.01083  -0.00121   0.00000  -0.00047  -0.00037   1.01046
   D73        3.10818  -0.00092   0.00000   0.00502   0.00510   3.11328
         Item               Value     Threshold  Converged?
 Maximum Force            0.017744     0.000450     NO 
 RMS     Force            0.003966     0.000300     NO 
 Maximum Displacement     1.106179     0.001800     NO 
 RMS     Displacement     0.275379     0.001200     NO 
 Predicted change in Energy=-8.794697D-03
 GradGradGradGradGradGradGradGradGradGradGradGradGradGradGradGradGradGrad

                          Input orientation:                          
 ---------------------------------------------------------------------
 Center     Atomic      Atomic             Coordinates (Angstroms)
 Number     Number       Type             X           Y           Z
 ---------------------------------------------------------------------
      1          8           0       -0.896986   -0.399897    1.299130
      2          6           0       -1.357765   -0.163246    0.186588
      3          7           0       -0.619857    0.135213   -0.899850
      4          6           0        0.830978    0.274561   -0.816855
      5          6           0        1.248001    0.980363   -2.096977
      6          8           0        2.576633    1.178265   -2.175101
      7          8           0        0.473959    1.325094   -2.965175
      8          6           0        1.547482   -1.098154   -0.609148
      9          6           0        2.743710   -1.037468    0.279700
     10          6           0        2.988731   -1.636974    1.494784
     11          7           0        4.235765   -1.294729    1.968542
     12          6           0        4.748022   -0.491504    1.059785
     13          7           0        3.885298   -0.300032    0.014645
     14          6           0       -2.881475   -0.175548    0.003779
     15          6           0       -3.436519    0.816347    1.018283
     16          7           0       -4.951811    0.747263    1.093153
     17          1           0       -1.045929    0.462037   -1.760349
     18          1           0        1.077970    0.920034    0.034806
     19          1           0        2.763588    1.628664   -3.018079
     20          1           0        0.826848   -1.758500   -0.124951
     21          1           0        1.783243   -1.539235   -1.585348
     22          1           0        2.332099   -2.292382    2.049547
     23          1           0        5.722775   -0.026915    1.098958
     24          1           0        4.028024    0.282624   -0.796952
     25          1           0       -3.211337   -1.186320    0.269559
     26          1           0       -3.206802    0.042509   -1.018610
     27          1           0       -3.177692    1.848627    0.772594
     28          1           0       -3.054723    0.580535    2.013927
     29          1           0       -5.262106   -0.198351    1.343973
     30          1           0       -5.324628    1.392207    1.798773
     31          1           0       -5.385278    0.984967    0.194581
 ---------------------------------------------------------------------
                    Distance matrix (angstroms):
                    1          2          3          4          5
     1  O    0.000000
     2  C    1.227221   0.000000
     3  N    2.280057   1.346824   0.000000
     4  C    2.813920   2.447278   1.459873   0.000000
     5  C    4.247309   3.648634   2.374086   1.520124   0.000000
     6  O    5.160127   4.780870   3.596077   2.389315   1.345560
     7  O    4.799936   3.937510   2.622559   2.417925   1.213156
     8  C    3.178759   3.153999   2.510589   1.562327   2.573628
     9  C    3.834111   4.194643   3.752346   2.565618   3.457945
    10  C    4.082577   4.772345   4.679404   3.695069   4.772981
    11  N    5.252996   5.978561   5.818030   4.670512   5.534548
    12  C    5.650822   6.176638   5.748658   4.410427   4.937782
    13  N    4.952789   5.247665   4.617593   3.217207   3.612990
    14  C    2.380434   1.534687   2.455206   3.828622   4.775132
    15  C    2.829727   2.443878   3.475164   4.676837   5.628186
    16  N    4.219005   3.816811   4.807545   6.108373   6.976312
[...]
 1831,0.00039659,0.00179870,0.00006715,0.00060603,0.00026703,0.00005900
 ,0.00002589,-0.00004349,-0.00000542,-0.00000134,0.00001289,-0.00001737
 ,0.00000374,0.00000561,0.00001874,-0.00002698,-0.00000879,-0.00000218,
 -0.00000466,-0.00000322,0.00000094,0.00000079,0.00000076,-0.00001275,0
 .00000564,0.00000294,0.00804451,0.04368420,0.05775199,-0.00824782,-0.0
 0203446,-0.00237708,0.00062328,0.01871729,-0.02784562,0.00086762,-0.00
 116388,0.00165250,-0.00002236,-0.00023490,-0.00001279,-0.00025618,0.00
 007840,-0.00027755,0.00017217,0.00000276,0.00003769,0.00022507,-0.0001
 0639,0.00019070,0.00014818,0.00001017,0.00004516,0.00003194,-0.0000274
 5,-0.00004048,0.00001808,0.00002650,-0.00000112,-0.00000182,0.00000994
 ,0.00002475,-0.00002408,-0.00000882,0.00000126,-0.00002576,-0.00001110
 ,0.00002741,-0.06502595,0.03678212,-0.04993050,0.00360335,-0.00986254,
 0.01615227,0.00134889,-0.00036176,0.00008311,-0.00182714,0.00036506,0.
 00073037,0.00010779,0.00004319,-0.00000121,-0.00002314,0.00000750,0.00
 000878,0.00003146,-0.00008709,-0.00002393,-0.00002101,-0.00000142,0.00
 001901,0.00000593,-0.00003446,0.00001419,-0.00000097,-0.00000189,0.000
 00207,-0.00001263,0.00001251,-0.00001765,0.00219532,-0.00462577,0.0077
 8212,0.06840025,-0.00050108,0.00103080,-0.00079850,-0.00257153,-0.0001
 1626,-0.00106387,0.00026117,-0.00009488,-0.00054177,0.00006204,0.00009
 347,-0.00021420,0.00006225,-0.00003257,0.00016712,-0.00000942,0.000019
 46,-0.00004689,-0.00004120,-0.00004319,-0.00013030,-0.00004583,-0.0000
 2679,0.00001337,-0.00001346,0.00000389,-0.00000555,-0.00001172,-0.0000
 0950,0.00000461,0.00001117,-0.00000198,-0.00000113,0.00000842,0.000003
 97,-0.00000448,0.00001386,0.00000524,-0.00000191,0.03724069,-0.1273031
 1,0.11611842,-0.00386797,0.00746120,-0.01277962,-0.00070241,0.00011570
 ,0.00024188,0.00048958,0.00053561,-0.00014687,-0.00006752,-0.00000074,
 -0.00000370,0.00000323,0.00000686,0.00000916,-0.00001158,0.00002211,-0
 .00000681,0.00001463,-0.00000813,-0.00000793,-0.00000369,0.00000835,-0
 .00000873,0.00000078,0.00000071,-0.00000033,-0.00000380,0.00000223,0.0
 0000748,0.00803614,-0.01497742,0.02480433,-0.03927036,0.13244004,-0.00
 128506,0.00038168,0.00130042,-0.00109734,0.00104044,-0.00501785,0.0014
 8986,-0.00032420,0.00026471,-0.00043404,-0.00059623,0.00003760,-0.0000
 4710,0.00003266,0.00003326,0.00000008,-0.00000222,-0.00001220,-0.00000
 102,-0.00002037,-0.00003227,0.00013086,0.00007806,0.00000121,0.0000273
 7,-0.00003990,-0.00000400,0.00000589,0.00000526,-0.00003094,0.00002012
 ,0.00001177,0.00001183,0.00000862,-0.00000457,0.00001599,-0.00002222,-
 0.00001320,0.00001724,-0.04966972,0.11415816,-0.22002386,-0.00762052,0
 .01359078,-0.02168329,0.00002255,-0.00000367,0.00076047,0.00057521,0.0
 0029658,0.00085208,-0.00003291,0.00004976,0.00002813,0.00000050,0.0000
 0494,0.00000117,-0.00000271,-0.00000453,-0.00001214,0.00000524,-0.0000
 1743,0.00000709,0.00000171,-0.00000926,0.00000159,-0.00000043,0.000000
 24,0.00000133,-0.00000375,0.00000100,-0.00000152,0.00156274,-0.0029802
 1,0.00542175,0.05281332,-0.12374148,0.24018588,-0.00068284,-0.00069267
 ,-0.00062431,0.00207227,0.00066846,0.00076000,-0.00055763,-0.00029628,
 0.00014459,0.00010892,0.00005138,0.00006989,0.00004194,0.00003550,-0.0
 0002477,-0.00005878,-0.00002497,0.00002348,-0.00004060,-0.00003681,0.0
 0000443,-0.00001126,-0.00000259,-0.00000823,0.00000813,-0.00000292,0.0
 0000321,0.00001090,-0.00000073,0.00000102,-0.00001889,-0.00001126,-0.0
 0000939,-0.00001166,-0.00000083,-0.00000147,0.00000070,-0.00000344,-0.
 00000987,0.00277774,0.01542620,0.00054430,-0.04989175,-0.00599869,-0.0
 0229104,-0.01416760,-0.04085969,-0.00176738,0.00006285,0.00011115,-0.0
 0004800,-0.00004619,0.00001480,-0.00001151,0.00000104,0.00001154,0.000
 00180,0.00000688,-0.00000023,0.00001270,0.00000589,-0.00000124,-0.0000
 0690,0.00000266,0.00000501,0.00000595,-0.00000189,0.00000263,0.0000003
 8,0.00000444,0.00000535,0.00000266,-0.00134984,0.00071035,0.00277341,0
 .00029371,-0.00066523,-0.00025872,0.06235568,0.00040217,0.00054969,0.0
 0059567,-0.00045861,0.00003334,-0.00105508,0.00023990,-0.00009134,0.00
 014360,-0.00002387,-0.00001126,-0.00003020,-0.00001030,0.00000043,0.00
 000188,0.00001616,0.00000226,-0.00000671,0.00000948,0.00000119,0.00000
 570,0.00000828,0.00001258,-0.00000154,0.00000067,0.00000048,-0.0000043
 0,0.00000047,0.00000219,-0.00000282,0.00000502,0.00000311,0.00000586,0
 .00000210,0.00000045,-0.00000088,-0.00000227,-0.00000337,0.00000743,0.
 00067137,-0.00747653,-0.00100153,-0.01940948,-0.32771831,-0.01894677,-
 0.00112500,-0.00280503,0.00035092,-0.00002180,-0.00006012,0.00001761,0
 .00001063,0.00000491,0.00000713,-0.00000097,0.00000029,0.00000064,-0.0
 0000341,-0.00000267,-0.00000507,-0.00000035,-0.00000267,0.00000262,-0.
 00000048,-0.00000404,-0.00000182,0.00000010,-0.00000029,0.00000019,-0.
 00000234,0.00000069,-0.00000142,0.00081054,0.00101474,-0.00108480,-0.0
 0006861,0.00102437,0.00008544,0.02086306,0.34502924,-0.00013107,-0.000
 53296,0.00025642,-0.00102721,-0.00017419,0.00001445,0.00015132,0.00043
 151,-0.00010297,0.00000051,0.00002215,-0.00002266,0.00007339,-0.000030
 34,0.00006739,-0.00003615,0.00000386,-0.00001451,-0.00004352,0.0000475
 6,-0.00003892,0.00000610,-0.00001811,-0.00000307,-0.00000463,0.0000075
 3,0.00000334,0.00000372,-0.00000141,-0.00000038,-0.00000217,-0.0000034
 7,-0.00000823,0.00000004,-0.00000241,0.00000700,0.00000198,0.00000637,
 -0.00000815,-0.00166397,-0.02784474,-0.00228135,-0.00147918,-0.0180551
 8,-0.05252983,-0.00052514,0.00003958,-0.00052327,0.00002220,-0.0001587
 8,-0.00001176,0.00002357,-0.00000535,0.00000697,0.00000871,-0.00000560
 ,-0.00000242,-0.00000119,0.00000011,-0.00001399,-0.00000616,-0.0000018
 5,0.00000379,0.00000179,0.00000325,0.00000202,0.00000011,0.00000012,0.
 00000036,0.00000361,-0.00000448,0.00000442,0.00329154,-0.00177726,-0.0
 0384991,-0.00104808,0.00018951,0.00118748,-0.00138164,0.02295144,0.053
 06864,-0.00279587,0.00079153,-0.00272406,0.00115203,-0.00059800,0.0058
 6013,0.00025777,0.00030648,-0.00279646,-0.00032535,-0.00000346,-0.0000
 0044,-0.00008514,-0.00012559,0.00025208,0.00006777,0.00004175,-0.00008
 262,0.00002829,0.00010172,-0.00021134,-0.00001975,0.00001512,0.0000143
 0,-0.00002377,-0.00004552,0.00001878,-0.00003233,-0.00003193,-0.000003
 72,0.00004825,-0.00000032,-0.00000529,0.00002722,0.00001002,0.00000648
 ,0.00001827,0.00000551,-0.00001265,0.00744710,-0.00789453,0.01090924,-
 0.08099227,0.04121471,-0.08004884,-0.02383258,0.01330353,-0.02761442,0
 .00058885,0.00000792,-0.00004266,-0.00003149,-0.00002000,0.00005523,-0
 .00000768,-0.00001258,0.00001514,-0.00001328,0.00007575,0.00002125,0.0
 0002525,0.00000106,-0.00002138,-0.00001337,0.00003878,-0.00001494,0.00
 000235,0.00000250,-0.00000175,-0.00001226,-0.00000001,0.00001369,0.000
 41809,0.00027020,-0.00023959,-0.00236075,0.00166192,0.00276496,0.00350
 441,-0.00108910,0.00354855,0.10084470,0.00053991,-0.00171581,-0.000180
 12,0.00034079,0.00073431,0.00017732,-0.00023128,0.00019844,0.00029263,
 0.00010967,0.00000445,0.00008971,0.00002650,0.00003593,-0.00007083,-0.
 00003815,-0.00002182,0.00002979,-0.00001134,-0.00002175,0.00004237,0.0
 0001302,0.00000708,-0.00001343,0.00001270,-0.00000545,0.00000401,0.000
 02430,0.00000548,-0.00000973,-0.00002339,-0.00001238,-0.00000528,-0.00
 001318,-0.00000291,0.00000465,-0.00000980,-0.00000308,-0.00000370,-0.0
 0521021,0.00640501,-0.01044385,0.04868478,-0.10943210,0.10352119,-0.00
 842436,0.00427375,-0.01080798,-0.00016422,0.00007327,-0.00000324,0.000
 01395,-0.00000289,-0.00002035,0.00000315,0.00000482,-0.00000338,0.0000
 1019,-0.00000963,-0.00000526,-0.00000726,-0.00000015,0.00000096,0.0000
 0710,0.00000404,0.00001119,-0.00000185,0.00000129,0.00000132,0.0000050
 5,0.00000322,-0.00000181,-0.00072292,0.00059187,0.00011633,0.00164977,
 -0.00009179,-0.00204388,0.01224191,-0.01099334,0.02538224,-0.04706878,
 0.10923065,-0.00216705,-0.00023795,0.00257728,-0.00170084,0.00080182,-
 0.00339900,-0.00016004,-0.00004557,0.00049126,0.00006805,0.00000285,0.
 00006093,0.00000668,0.00005922,-0.00009315,-0.00002124,-0.00001741,0.0
 0002872,0.00001038,-0.00003525,0.00006966,0.00002406,-0.00000322,0.000
 00963,0.00001605,0.00000085,0.00001235,0.00000038,-0.00000662,0.000013
 43,-0.00001508,-0.00000320,-0.00001663,-0.00001368,-0.00000477,0.00000
 403,0.00000402,0.00000708,-0.00002332,-0.00568643,0.01171856,-0.023275
 98,-0.08927699,0.10092741,-0.23833370,0.00358773,-0.00266347,0.0049713
 0,-0.00014530,0.00000124,0.00011586,0.00003656,0.00000655,-0.00001218,
 -0.00000006,0.00000160,-0.00000177,0.00001370,-0.00003599,-0.00000280,
 -0.00001699,0.00000048,0.00000350,0.00000127,0.00000125,0.00001341,-0.
 00000082,0.00000108,-0.00000059,0.00000586,0.00000126,0.00000032,-0.00
 044568,-0.00013376,0.00078931,0.00213230,-0.00280124,-0.00277939,0.002
 26906,-0.00207392,0.00425945,0.09061988,-0.10528676,0.25327125,0.00048
 481,0.00022412,0.00021043,-0.00101627,0.00031019,-0.00050333,0.0006702
 1,-0.00001519,-0.00020459,-0.00020949,-0.00006294,-0.00009923,-0.00015
 052,-0.00009007,0.00017282,0.00015885,0.00004821,-0.00008673,0.0000955
 1,0.00005281,-0.00010093,-0.00000010,0.00003972,0.00000194,-0.00001011
 ,-0.00002677,-0.00000939,-0.00002543,-0.00001145,-0.00001892,0.0000580
 4,0.00000938,0.00001753,0.00002275,0.00000569,0.00000563,0.00000227,-0
 .00000773,0.00001811,0.00190920,-0.00095719,-0.00042786,-0.00313934,-0
 .03569831,-0.00128112,-0.06327005,-0.05200029,-0.00192860,-0.00002704,
 -0.00004154,0.00014216,0.00002884,-0.00000234,0.00000888,-0.00001722,-
 0.00001244,0.00001833,-0.00001255,0.00003349,-0.00001055,0.00001312,-0
 .00001058,0.00000065,-0.00000713,0.00001022,-0.00001322,0.00000201,0.0
 0000098,-0.00000017,-0.00002221,0.00000385,0.00000367,-0.00023409,0.00
 128118,0.00109698,0.00012513,0.00031581,-0.00000373,-0.00716933,0.0001
 2884,0.00010340,0.00098777,0.00017017,-0.00070676,0.06507415,0.0003208
 4,-0.00023274,-0.00010459,-0.00037940,-0.00009451,-0.00032595,0.000481
 14,-0.00004075,-0.00007566,-0.00013447,0.00005281,-0.00006553,-0.00007
 807,-0.00002518,0.00005444,0.00009293,0.00001148,-0.00004250,0.0000661
 1,-0.00000603,-0.00002518,-0.00000428,0.00004274,-0.00001298,0.0000052
 1,-0.00002919,-0.00000556,0.00000911,-0.00000705,-0.00002357,0.0000163
 6,-0.00001042,0.00001295,0.00000293,0.00000370,0.00000105,-0.00001044,
 -0.00001520,0.00001723,0.00131266,0.00212552,0.00143518,-0.00577026,-0
 .00355401,-0.00059661,-0.04123479,-0.39904273,-0.01190533,-0.00003189,
 0.00003881,0.00007633,0.00000863,-0.00000043,-0.00000237,-0.00000789,0
 .00000569,0.00000970,-0.00000428,0.00002625,0.00000890,0.00001346,-0.0
 0000384,-0.00000764,-0.00000252,0.00001672,0.00000111,-0.00000098,0.00
 000313,0.00000148,-0.00001303,0.00001411,-0.00000177,-0.00036559,-0.00
 030012,0.00017969,-0.00009375,-0.00030443,-0.00007954,-0.00017502,0.00
 162658,-0.00032888,0.00057552,0.00090360,-0.00032869,0.04970678,0.4206
 1460,-0.00040432,0.00016981,-0.00073547,0.00116833,-0.00046578,0.00057
 676,-0.00031433,-0.00000425,-0.00006256,0.00011096,0.00004965,0.000026
 03,0.00013369,0.00002862,-0.00001143,-0.00011574,-0.00002084,0.0000292
 7,-0.00008925,-0.00001872,-0.00001019,0.00000288,-0.00002911,0.0000207
 6,-0.00000232,0.00001021,0.00001782,-0.00000597,-0.00000595,0.00003202
 ,-0.00002727,-0.00000047,-0.00003092,-0.00001077,-0.00000488,0.0000048
 2,0.00001582,0.00001577,-0.00004169,-0.00042807,0.00185280,0.00029329,
 -0.00066440,-0.00056577,0.00018310,-0.00113035,-0.01148527,-0.06424753
 ,0.00005517,0.00004650,-0.00006161,-0.00001805,-0.00000155,-0.00000088
 ,0.00001381,0.00000758,-0.00000587,0.00000242,-0.00001584,0.00001745,-
 0.00000422,0.00000692,-0.00001002,0.00000101,-0.00000324,0.00000794,-0
 .00000012,0.00000043,-0.00000097,0.00001601,-0.00000473,0.00000699,0.0
 0026322,-0.00087820,0.00001842,0.00011278,0.00000961,-0.00017673,-0.00
 007811,0.00011203,0.00036268,-0.00067241,-0.00070288,-0.00019048,0.002
 27420,0.01320040,0.05835411,0.00033523,-0.00016748,-0.00109223,0.00079
 685,0.00032063,0.00347560,-0.00085184,0.00004200,-0.00051188,0.0000505
 5,-0.00005241,0.00019091,-0.00009384,0.00000796,-0.00004703,0.00001063
 ,-0.00000867,0.00002266,0.00002618,-0.00000506,0.00000056,-0.00000512,
 -0.00001630,0.00000137,-0.00000485,-0.00000161,0.00000804,-0.00001376,
 -0.00000991,0.00000804,0.00001000,-0.00000351,-0.00000854,0.00000099,0
 .00000154,0.00000003,0.00001309,0.00000453,-0.00001236,-0.00699919,-0.
 00215459,-0.00259722,-0.01191676,0.01204558,0.02688700,-0.12249894,0.0
 5617764,0.12945988,0.00001509,0.00003329,-0.00005112,-0.00001889,0.000
 00022,0.00000721,-0.00001372,-0.00000047,0.00000677,0.00000117,0.00001
 026,0.00000203,0.00000111,0.00000185,-0.00000321,-0.00000295,0.0000098
 1,-0.00000151,0.00000015,0.00000181,-0.00000080,-0.00000281,0.00000120
 ,0.00000522,0.00040412,-0.00009328,-0.00055961,0.00008186,-0.00023267,
 0.00003032,0.00123265,-0.00060602,0.00026858,0.00051026,0.00108859,-0.
 00044902,0.00273872,-0.00181853,-0.00655056,0.12658063,-0.00015197,-0.
 00013362,-0.00000896,0.00022370,0.00064353,0.00042278,-0.00035123,-0.0
 0004094,0.00005991,0.00006941,-0.00006072,0.00005605,0.00003811,0.0000
 4226,-0.00007968,-0.00005788,-0.00002667,0.00003735,-0.00002934,-0.000
 03545,0.00004091,0.00001034,-0.00000963,-0.00000312,0.00000689,0.00000
 591,-0.00000009,0.00001433,0.00000332,0.00000011,-0.00001996,-0.000009
 56,-0.00000449,-0.00000900,-0.00000226,-0.00000141,-0.00000351,-0.0000
 0321,-0.00000129,-0.00199277,-0.00068143,-0.00092100,-0.00189999,0.003
 82914,0.00877935,0.05140827,-0.10450495,-0.09748394,0.00001462,0.00005
 059,-0.00004749,-0.00002337,0.00000493,0.00000138,0.00000318,0.0000122
 0,-0.00000337,0.00000493,-0.00000806,0.00000294,-0.00000184,0.00000203
 ,-0.00000179,0.00000205,0.00000062,0.00000511,-0.00000171,0.00000175,0
 .00000094,0.00000602,0.00000404,-0.00000102,0.00007590,0.00032571,0.00
 002410,0.00024066,0.00004914,-0.00016446,-0.00073585,-0.00020490,0.000
 68408,0.00067021,0.00000178,-0.00014923,0.01793580,-0.00950983,-0.0335
 8046,-0.05590323,0.10310445,-0.00034003,0.00005512,0.00017839,-0.00009
 913,0.00006131,0.00000296,-0.00032037,0.00000510,0.00006606,0.00010358
 ,-0.00000806,0.00001468,0.00015219,0.00002972,-0.00002441,-0.00013024,
 -0.00002319,0.00003584,-0.00009795,-0.00001058,0.00000370,0.00001699,-
 0.00003324,0.00001756,0.00000006,0.00001227,0.00001376,0.00000382,-0.0
 0000262,0.00002725,-0.00003273,-0.00000355,-0.00003114,-0.00001310,-0.
 00000684,0.00000801,0.00001100,0.00001531,-0.00003929,-0.00036009,-0.0
 0033174,0.00008099,0.00155208,0.00327618,0.00509349,0.12062642,-0.0997
 7037,-0.30077967,0.00005424,0.00002140,-0.00008769,-0.00001882,-0.0000
 0353,0.00000485,0.00001634,0.00000590,-0.00000793,0.00000766,-0.000016
 50,0.00000896,-0.00000713,0.00000572,-0.00000702,0.00000314,-0.0000023
 4,0.00001036,-0.00000049,0.00000048,-0.00000021,0.00001769,-0.00000603
 ,0.00000575,-0.00004201,-0.00000807,-0.00009674,-0.00018755,-0.0000328
 1,0.00012216,-0.00019548,0.00015437,0.00023040,-0.00079010,0.00008638,
 0.00074676,-0.00141038,0.00111598,0.00179419,-0.13274948,0.10754527,0.
 31455241,0.00015263,0.00013170,0.00150023,-0.00221539,-0.00022801,-0.0
 0158727,0.00075418,-0.00004743,0.00007198,-0.00020188,0.00001870,-0.00
 009987,-0.00016460,-0.00006323,0.00013531,0.00017305,0.00004174,-0.000
 08178,0.00011505,0.00002709,-0.00006680,-0.00000309,0.00004990,-0.0000
 0732,-0.00000149,-0.00003361,-0.00000862,-0.00001285,-0.00000668,-0.00
 002592,0.00004969,0.00000457,0.00002077,0.00001597,0.00000543,0.000004
 36,-0.00000526,-0.00001270,0.00002350,0.00275239,0.00058907,-0.0005392
 2,-0.01433714,0.01446422,-0.02699217,-0.12840077,0.06931018,-0.1286228
 1,-0.00007746,-0.00001684,0.00016835,0.00003068,0.00000355,0.00000158,
 -0.00001901,-0.00000972,0.00001940,-0.00000675,0.00002140,-0.00001146,
 0.00001062,-0.00001184,0.00000340,-0.00000434,0.00001027,-0.00000899,0
 .00000103,0.00000130,0.00000046,-0.00002363,0.00000865,0.00000083,-0.0
 0019489,0.00018926,0.00021457,-0.00043046,-0.00016223,0.00101992,0.001
 51744,-0.00034616,-0.00015901,-0.00538249,-0.00301479,0.00201000,0.002
 93951,-0.00248651,0.00634598,0.00961338,-0.00954275,0.01422986,0.13335
 589,-0.00052612,0.00008554,0.00015929,0.00057024,-0.00016646,-0.000318
 01,-0.00031554,-0.00009000,0.00023756,0.00011857,0.00002010,0.00004574
 ,0.00004809,0.00007439,-0.00012262,-0.00006272,-0.00003403,0.00004903,
 -0.00002839,-0.00006587,0.00007391,-0.00000560,-0.00000874,0.00000285,
 0.00000999,0.00001214,0.00000193,0.00001342,0.00000415,0.00000810,-0.0
 0002737,-0.00000753,-0.00000611,-0.00001327,-0.00000306,-0.00000522,-0
 .00000158,-0.00000150,-0.00000525,-0.00000790,0.00002474,-0.00053631,-
 0.00192885,0.00576521,-0.00872845,0.06360906,-0.12190158,0.11047274,0.
 00000271,0.00007753,-0.00005817,-0.00001594,0.00000743,-0.00000986,0.0
 0000339,0.00001637,-0.00000586,0.00000488,-0.00002259,0.00000892,-0.00
 000505,0.00000400,-0.00000227,0.00000244,-0.00000495,0.00000731,-0.000
 00174,0.00000130,0.00000042,0.00000809,0.00000470,-0.00000298,0.000251
 78,-0.00045044,0.00010240,0.00004878,0.00018767,0.00030838,-0.00063887
 ,0.00006733,-0.00082431,-0.00220441,-0.00016589,0.00029580,0.01865961,
 -0.01230926,0.03227762,-0.00867317,0.00714980,-0.01213101,-0.06889452,
 0.12172951,0.00012550,-0.00005863,-0.00068417,0.00028231,-0.00002614,0
 .00012101,0.00022987,0.00000837,-0.00025994,-0.00003282,0.00003431,-0.
 00004202,0.00008638,-0.00004363,0.00015219,-0.00004491,0.00000866,-0.0
 0003657,-0.00006192,0.00003458,-0.00011214,0.00000188,-0.00000303,0.00
 001064,-0.00000902,-0.00000654,0.00000575,-0.00000871,-0.00000783,0.00
 000783,0.00000312,0.00000034,-0.00001542,0.00000367,-0.00000083,0.0000
 0949,0.00000918,0.00000641,-0.00002039,0.00047927,-0.00066313,0.002592
 00,-0.00254084,-0.00327750,0.00421106,-0.11929398,0.11242667,-0.278145
 03,0.00010297,-0.00001392,0.00003817,-0.00000196,-0.00000069,0.0000034
 3,0.00001028,-0.00000011,0.00000473,-0.00000452,0.00001359,0.00000458,
 0.00000548,-0.00000294,-0.00000809,-0.00000121,0.00000585,-0.00000018,
 0.00000049,0.00000107,0.,0.00000342,-0.00000253,0.00000919,0.00000750,
 -0.00013560,0.00007450,-0.00006623,0.00077263,-0.00047721,0.00009995,-
 0.00022566,-0.00006342,0.00118296,-0.00015761,0.00069055,0.00273078,-0
 .00218209,0.00384070,-0.01573965,0.01479152,-0.02194441,0.13244074,-0.
 12129559,0.29003319\\-0.00000086,-0.00000087,0.00000102,-0.00000186,0.
 00000244,-0.00000058,0.00000004,-0.00000054,-0.00000014,0.00000028,0.0
 0000021,-0.00000021,0.00000142,-0.00000022,0.00000136,0.00000055,0.000
 00002,0.00000231,-0.00000149,0.00000142,-0.00000106,0.00000054,-0.0000
 0104,0.00000026,-0.00000203,0.00000074,0.00000020,0.00000014,-0.000000
 83,0.00000053,-0.00000069,-0.00000099,-0.00000006,0.00000060,-0.000000
 44,-0.00000010,0.00000011,-0.00000065,-0.00000237,0.00000061,0.0000011
 4,0.00000008,0.00000495,-0.00000069,0.00000096,0.00000020,-0.00000081,
 -0.00000064,-0.00000031,0.00000129,-0.00000031,0.00000031,-0.00000010,
 0.00000041,0.00000024,0.00000101,0.00000029,-0.00000026,0.00000002,-0.
 00000026,0.00000013,0.00000019,-0.00000084,-0.00000011,-0.00000088,-0.
 00000052,0.00000029,-0.00000068,-0.00000003,-0.00000004,0.00000063,-0.
 00000061,0.00000045,-0.00000098,-0.00000007,-0.00000195,0.00000062,-0.
 00000069,0.00000136,-0.00000091,0.00000104,-0.00000216,0.00000063,0.00
 000050,-0.00000041,-0.00000035,-0.00000041,0.00000009,0.00000012,0.000
 00032,-0.00000018,0.00000048,-0.00000041\\\@


      THE ONE-EYED VIEW OF OUR UNIVERSE SAYS YOU MUST NOT LOOK
      FAR AFIELD FOR PROBLEMS.  SUCH PROBLEMS MAY NEVER ARRIVE. 
      INSTEAD, TEND TO THE WOLF WITHIN YOUR FENCES.
      THE PACKS RANGING OUTSIDE MAY NOT EVEN EXIST.

                              -- THE AZHAR BOOK SHAMRA I:4
                                 CHILDREN OF DUNE, BY FRANK HERBERT
 Job cpu time:       0 days  2 hours 47 minutes 34.7 seconds.
 File lengths (MBytes):  RWF=    460 Int=      0 D2E=      0 Chk=     13 Scr=      1
 Normal termination of Gaussian 09 at Sat Jul 24 02:41:42 2021.
