 Entering Gaussian System, Link 0=g09
 Input=opt_freq-conf-318.com
 Output=opt_freq-conf-318.log
 Initial command:
 /aerosol/software/g09/l1.exe "/scratch/nicole/10432/Gau-73737.inp" -scrdir="/scratch/nicole/10432/"
 Entering Link 1 = /aerosol/software/g09/l1.exe PID=     73742.
  
 Copyright (c) 1988,1990,1992,1993,1995,1998,2003,2009,2013,
            Gaussian, Inc.  All Rights Reserved.
  
 This is part of the Gaussian(R) 09 program.  It is based on
 the Gaussian(R) 03 system (copyright 2003, Gaussian, Inc.),
 the Gaussian(R) 98 system (copyright 1998, Gaussian, Inc.),
 the Gaussian(R) 94 system (copyright 1995, Gaussian, Inc.),
 the Gaussian 92(TM) system (copyright 1992, Gaussian, Inc.),
 the Gaussian 90(TM) system (copyright 1990, Gaussian, Inc.),
 the Gaussian 88(TM) system (copyright 1988, Gaussian, Inc.),
 the Gaussian 86(TM) system (copyright 1986, Carnegie Mellon
 University), and the Gaussian 82(TM) system (copyright 1983,
 Carnegie Mellon University). Gaussian is a federally registered
 trademark of Gaussian, Inc.
  
 This software contains proprietary and confidential information,
 including trade secrets, belonging to Gaussian, Inc.
  
 This software is provided under written license and may be
 used, copied, transmitted, or stored only in accord with that
 written license.
  
 The following legend is applicable only to US Government
 contracts under FAR:
  
                    RESTRICTED RIGHTS LEGEND
  
 Use, reproduction and disclosure by the US Government is
 subject to restrictions as set forth in subparagraphs (a)
 and (c) of the Commercial Computer Software - Restricted
 Rights clause in FAR 52.227-19.
  
 Gaussian, Inc.
 340 Quinnipiac St., Bldg. 40, Wallingford CT 06492
  
  
 ---------------------------------------------------------------
 Warning -- This program may not be used in any manner that
 competes with the business of Gaussian, Inc. or will provide
 assistance to any competitor of Gaussian, Inc.  The licensee
 of this program is prohibited from giving any competitor of
 Gaussian, Inc. access to this program.  By using this program,
 the user acknowledges that Gaussian, Inc. is engaged in the
 business of creating and licensing software in the field of
 computational chemistry and represents and warrants to the
 licensee that it is not a competitor of Gaussian, Inc. and that
 it will not use this program in any manner prohibited above.
 ---------------------------------------------------------------
  

 Cite this work as:
 Gaussian 09, Revision D.01,
 M. J. Frisch, G. W. Trucks, H. B. Schlegel, G. E. Scuseria, 
 M. A. Robb, J. R. Cheeseman, G. Scalmani, V. Barone, B. Mennucci, 
 G. A. Petersson, H. Nakatsuji, M. Caricato, X. Li, H. P. Hratchian, 
 A. F. Izmaylov, J. Bloino, G. Zheng, J. L. Sonnenberg, M. Hada, 
 M. Ehara, K. Toyota, R. Fukuda, J. Hasegawa, M. Ishida, T. Nakajima, 
 Y. Honda, O. Kitao, H. Nakai, T. Vreven, J. A. Montgomery, Jr., 
 J. E. Peralta, F. Ogliaro, M. Bearpark, J. J. Heyd, E. Brothers, 
 K. N. Kudin, V. N. Staroverov, T. Keith, R. Kobayashi, J. Normand, 
 K. Raghavachari, A. Rendell, J. C. Burant, S. S. Iyengar, J. Tomasi, 
 M. Cossi, N. Rega, J. M. Millam, M. Klene, J. E. Knox, J. B. Cross, 
 V. Bakken, C. Adamo, J. Jaramillo, R. Gomperts, R. E. Stratmann, 
 O. Yazyev, A. J. Austin, R. Cammi, C. Pomelli, J. W. Ochterski, 
 R. L. Martin, K. Morokuma, V. G. Zakrzewski, G. A. Voth, 
 P. Salvador, J. J. Dannenberg, S. Dapprich, A. D. Daniels, 
 O. Farkas, J. B. Foresman, J. V. Ortiz, J. Cioslowski, 
 and D. J. Fox, Gaussian, Inc., Wallingford CT, 2013.
 
 ******************************************
 Gaussian 09:  ES64L-G09RevD.01 24-Apr-2013
                24-Jul-2021 
 ******************************************
 %mem=2gb
 %nproc=4
 Will use up to    4 processors via shared memory.
 %chk=conf-318.chk
 ----------------------------------------------------------------------
 # B3LYP/6-31+G(d,p) EmpiricalDispersion=GD3BJ opt=calcfc freq=noraman 
 nosymm integral(ultrafinegrid)
 ----------------------------------------------------------------------
 1/10=4,14=-1,18=20,19=15,26=4,38=1/1,3;
 2/9=110,12=2,15=1,17=6,18=5,40=1/2;
 3/5=1,6=6,7=111,11=2,16=1,25=1,30=1,71=2,74=-5,75=-5,124=41,140=1/1,2,3;
 4//1;
 5/5=2,38=5/2;
 8/6=4,10=90,11=11/1;
 11/6=1,8=1,9=11,15=111,16=1,31=1/1,2,10;
 10/6=1,13=1,31=1/2;
 6/7=2,8=2,9=2,10=2,28=1/1;
 7/10=1,18=20,25=1,30=1/1,2,3,16;
 1/10=4,14=-1,18=20,19=15,26=4/3(2);
 2/9=110,15=1/2;
 99//99;
 2/9=110,15=1/2;
 3/5=1,6=6,7=111,11=2,16=1,25=1,30=1,71=1,74=-5,75=-5,124=41/1,2,3;
 4/5=5,16=3,69=1/1;
 5/5=2,38=5/2;
 7/30=1/1,2,3,16;
 1/14=-1,18=20,19=15,26=4/3(-5);
 2/9=110,15=1/2;
 6/7=2,8=2,9=2,10=2,19=2,28=1/1;
 99/9=1/99;
 ------------------------------------------------------------
 Candidate Structure: Conf:318 OPT and FREQ calc in gas phase
 ------------------------------------------------------------
 Symbolic Z-matrix:
 Charge =  1 Multiplicity = 1
 O                     1.13479   0.36017   1.71301 
 C                     1.16226  -0.2433    0.64574 
 N                     0.11396  -1.00733   0.23996 
 C                    -1.06936  -1.15699   1.0577 
 C                    -1.84054  -2.36383   0.54088 
 O                    -2.80523  -2.83052   1.35604 
 O                    -1.63337  -2.87104  -0.528 
 C                    -1.9416    0.10927   1.09446 
 C                    -2.42059   0.64013  -0.22615 
 C                    -2.81335   0.0844   -1.40888 
 N                    -3.21509   1.05471  -2.30737 
 C                    -3.07245   2.19143  -1.6678 
 N                    -2.59722   2.00042  -0.41027 
 C                     2.34258  -0.20625  -0.31324 
 C                     3.52376   0.56524   0.25722 
 N                     4.66863   0.61098  -0.69028 
 H                     0.14741  -1.55596  -0.606 
 H                    -0.76096  -1.33802   2.09037 
 H                    -2.82173  -2.33987   2.18352 
 H                    -2.80031  -0.07852   1.7472 
 H                    -1.35361   0.88582   1.58118 
 H                    -2.82341  -0.96002  -1.66902 
 H                    -3.29495   3.16978  -2.05629 
 H                    -2.40028   2.71256   0.27365 
 H                     2.02064   0.25342  -1.25462 
 H                     2.64528  -1.23191  -0.54929 
 H                     3.83569   0.10072   1.19197 
 H                     3.20224   1.57712   0.49941 
 H                     5.00063  -0.32667  -0.91571 
 H                     5.45977   1.12826  -0.30455 
 H                     4.40638   1.06602  -1.56461 
 

 GradGradGradGradGradGradGradGradGradGradGradGradGradGradGradGradGradGrad
 Berny optimization.
 Initialization pass.
                           ----------------------------
                           !    Initial Parameters    !
                           ! (Angstroms and Degrees)  !
 --------------------------                            --------------------------
 ! Name  Definition              Value          Derivative Info.                !
 --------------------------------------------------------------------------------
 ! R1    R(1,2)                  1.2264         calculate D2E/DX2 analytically  !
 ! R2    R(2,3)                  1.3592         calculate D2E/DX2 analytically  !
 ! R3    R(2,14)                 1.5212         calculate D2E/DX2 analytically  !
 ! R4    R(3,4)                  1.4461         calculate D2E/DX2 analytically  !
 ! R5    R(3,17)                 1.0088         calculate D2E/DX2 analytically  !
 ! R6    R(4,5)                  1.5226         calculate D2E/DX2 analytically  !
 ! R7    R(4,8)                  1.538          calculate D2E/DX2 analytically  !
 ! R8    R(4,18)                 1.0928         calculate D2E/DX2 analytically  !
 ! R9    R(5,6)                  1.3464         calculate D2E/DX2 analytically  !
 ! R10   R(5,7)                  1.2011         calculate D2E/DX2 analytically  !
 ! R11   R(6,19)                 0.9622         calculate D2E/DX2 analytically  !
 ! R12   R(8,9)                  1.5018         calculate D2E/DX2 analytically  !
 ! R13   R(8,20)                 1.0949         calculate D2E/DX2 analytically  !
 ! R14   R(8,21)                 1.0889         calculate D2E/DX2 analytically  !
 ! R15   R(9,10)                 1.3645         calculate D2E/DX2 analytically  !
 ! R16   R(9,13)                 1.384          calculate D2E/DX2 analytically  !
 ! R17   R(10,11)                1.3821         calculate D2E/DX2 analytically  !
 ! R18   R(10,22)                1.0764         calculate D2E/DX2 analytically  !
 ! R19   R(11,12)                1.3121         calculate D2E/DX2 analytically  !
 ! R20   R(12,13)                1.3578         calculate D2E/DX2 analytically  !
 ! R21   R(12,23)                1.0759         calculate D2E/DX2 analytically  !
 ! R22   R(13,24)                1.0068         calculate D2E/DX2 analytically  !
 ! R23   R(14,15)                1.5218         calculate D2E/DX2 analytically  !
 ! R24   R(14,25)                1.096          calculate D2E/DX2 analytically  !
 ! R25   R(14,26)                1.0951         calculate D2E/DX2 analytically  !
 ! R26   R(15,16)                1.4868         calculate D2E/DX2 analytically  !
 ! R27   R(15,27)                1.0894         calculate D2E/DX2 analytically  !
 ! R28   R(15,28)                1.089          calculate D2E/DX2 analytically  !
 ! R29   R(16,29)                1.0199         calculate D2E/DX2 analytically  !
 ! R30   R(16,30)                1.0209         calculate D2E/DX2 analytically  !
 ! R31   R(16,31)                1.0199         calculate D2E/DX2 analytically  !
 ! A1    A(1,2,3)              121.2758         calculate D2E/DX2 analytically  !
 ! A2    A(1,2,14)             123.6419         calculate D2E/DX2 analytically  !
 ! A3    A(3,2,14)             115.0822         calculate D2E/DX2 analytically  !
 ! A4    A(2,3,4)              121.3636         calculate D2E/DX2 analytically  !
 ! A5    A(2,3,17)             122.0375         calculate D2E/DX2 analytically  !
 ! A6    A(4,3,17)             116.424          calculate D2E/DX2 analytically  !
 ! A7    A(3,4,5)              107.7302         calculate D2E/DX2 analytically  !
 ! A8    A(3,4,8)              113.1007         calculate D2E/DX2 analytically  !
 ! A9    A(3,4,18)             108.6967         calculate D2E/DX2 analytically  !
 ! A10   A(5,4,8)              111.928          calculate D2E/DX2 analytically  !
 ! A11   A(5,4,18)             109.4136         calculate D2E/DX2 analytically  !
 ! A12   A(8,4,18)             105.8923         calculate D2E/DX2 analytically  !
 ! A13   A(4,5,6)              115.6021         calculate D2E/DX2 analytically  !
 ! A14   A(4,5,7)              123.327          calculate D2E/DX2 analytically  !
 ! A15   A(6,5,7)              121.0623         calculate D2E/DX2 analytically  !
 ! A16   A(5,6,19)             110.8675         calculate D2E/DX2 analytically  !
 ! A17   A(4,8,9)              116.8014         calculate D2E/DX2 analytically  !
 ! A18   A(4,8,20)             108.5318         calculate D2E/DX2 analytically  !
 ! A19   A(4,8,21)             106.9537         calculate D2E/DX2 analytically  !
 ! A20   A(9,8,20)             109.5565         calculate D2E/DX2 analytically  !
 ! A21   A(9,8,21)             108.2526         calculate D2E/DX2 analytically  !
 ! A22   A(20,8,21)            106.2217         calculate D2E/DX2 analytically  !
 ! A23   A(8,9,10)             135.2394         calculate D2E/DX2 analytically  !
 ! A24   A(8,9,13)             120.3403         calculate D2E/DX2 analytically  !
 ! A25   A(10,9,13)            104.3734         calculate D2E/DX2 analytically  !
 ! A26   A(9,10,11)            111.1751         calculate D2E/DX2 analytically  !
 ! A27   A(9,10,22)            127.3977         calculate D2E/DX2 analytically  !
 ! A28   A(11,10,22)           121.4253         calculate D2E/DX2 analytically  !
 ! A29   A(10,11,12)           105.055          calculate D2E/DX2 analytically  !
 ! A30   A(11,12,13)           111.5691         calculate D2E/DX2 analytically  !
 ! A31   A(11,12,23)           126.1078         calculate D2E/DX2 analytically  !
 ! A32   A(13,12,23)           122.323          calculate D2E/DX2 analytically  !
 ! A33   A(9,13,12)            107.8264         calculate D2E/DX2 analytically  !
 ! A34   A(9,13,24)            125.441          calculate D2E/DX2 analytically  !
 ! A35   A(12,13,24)           126.7321         calculate D2E/DX2 analytically  !
 ! A36   A(2,14,15)            112.2264         calculate D2E/DX2 analytically  !
 ! A37   A(2,14,25)            108.8913         calculate D2E/DX2 analytically  !
 ! A38   A(2,14,26)            109.1188         calculate D2E/DX2 analytically  !
 ! A39   A(15,14,25)           109.7159         calculate D2E/DX2 analytically  !
 ! A40   A(15,14,26)           109.9419         calculate D2E/DX2 analytically  !
 ! A41   A(25,14,26)           106.7903         calculate D2E/DX2 analytically  !
 ! A42   A(14,15,16)           111.9861         calculate D2E/DX2 analytically  !
 ! A43   A(14,15,27)           109.1305         calculate D2E/DX2 analytically  !
 ! A44   A(14,15,28)           108.9821         calculate D2E/DX2 analytically  !
 ! A45   A(16,15,27)           109.8421         calculate D2E/DX2 analytically  !
 ! A46   A(16,15,28)           109.9065         calculate D2E/DX2 analytically  !
 ! A47   A(27,15,28)           106.8527         calculate D2E/DX2 analytically  !
 ! A48   A(15,16,29)           111.299          calculate D2E/DX2 analytically  !
 ! A49   A(15,16,30)           111.8094         calculate D2E/DX2 analytically  !
 ! A50   A(15,16,31)           111.2249         calculate D2E/DX2 analytically  !
 ! A51   A(29,16,30)           107.2818         calculate D2E/DX2 analytically  !
 ! A52   A(29,16,31)           107.7209         calculate D2E/DX2 analytically  !
 ! A53   A(30,16,31)           107.2822         calculate D2E/DX2 analytically  !
 ! D1    D(1,2,3,4)             -0.927          calculate D2E/DX2 analytically  !
 ! D2    D(1,2,3,17)          -175.9471         calculate D2E/DX2 analytically  !
 ! D3    D(14,2,3,4)           178.9339         calculate D2E/DX2 analytically  !
 ! D4    D(14,2,3,17)            3.9138         calculate D2E/DX2 analytically  !
 ! D5    D(1,2,14,15)            4.8672         calculate D2E/DX2 analytically  !
 ! D6    D(1,2,14,25)         -116.8023         calculate D2E/DX2 analytically  !
 ! D7    D(1,2,14,26)          126.9811         calculate D2E/DX2 analytically  !
 ! D8    D(3,2,14,15)         -174.99           calculate D2E/DX2 analytically  !
 ! D9    D(3,2,14,25)           63.3405         calculate D2E/DX2 analytically  !
 ! D10   D(3,2,14,26)          -52.8761         calculate D2E/DX2 analytically  !
 ! D11   D(2,3,4,5)           -163.3057         calculate D2E/DX2 analytically  !
 ! D12   D(2,3,4,8)             72.4572         calculate D2E/DX2 analytically  !
 ! D13   D(2,3,4,18)           -44.8421         calculate D2E/DX2 analytically  !
 ! D14   D(17,3,4,5)            11.981          calculate D2E/DX2 analytically  !
 ! D15   D(17,3,4,8)          -112.2561         calculate D2E/DX2 analytically  !
 ! D16   D(17,3,4,18)          130.4447         calculate D2E/DX2 analytically  !
 ! D17   D(3,4,5,6)            165.8373         calculate D2E/DX2 analytically  !
 ! D18   D(3,4,5,7)            -15.219          calculate D2E/DX2 analytically  !
 ! D19   D(8,4,5,6)            -69.2207         calculate D2E/DX2 analytically  !
 ! D20   D(8,4,5,7)            109.7231         calculate D2E/DX2 analytically  !
 ! D21   D(18,4,5,6)            47.8348         calculate D2E/DX2 analytically  !
 ! D22   D(18,4,5,7)          -133.2214         calculate D2E/DX2 analytically  !
 ! D23   D(3,4,8,9)             56.7831         calculate D2E/DX2 analytically  !
 ! D24   D(3,4,8,20)          -178.8236         calculate D2E/DX2 analytically  !
 ! D25   D(3,4,8,21)           -64.6058         calculate D2E/DX2 analytically  !
 ! D26   D(5,4,8,9)            -65.1291         calculate D2E/DX2 analytically  !
 ! D27   D(5,4,8,20)            59.2642         calculate D2E/DX2 analytically  !
 ! D28   D(5,4,8,21)           173.4821         calculate D2E/DX2 analytically  !
 ! D29   D(18,4,8,9)           175.7167         calculate D2E/DX2 analytically  !
 ! D30   D(18,4,8,20)          -59.89           calculate D2E/DX2 analytically  !
 ! D31   D(18,4,8,21)           54.3278         calculate D2E/DX2 analytically  !
 ! D32   D(4,5,6,19)            -3.1825         calculate D2E/DX2 analytically  !
 ! D33   D(7,5,6,19)           177.8478         calculate D2E/DX2 analytically  !
 ! D34   D(4,8,9,10)            35.2995         calculate D2E/DX2 analytically  !
 ! D35   D(4,8,9,13)          -147.6284         calculate D2E/DX2 analytically  !
 ! D36   D(20,8,9,10)          -88.572          calculate D2E/DX2 analytically  !
 ! D37   D(20,8,9,13)           88.5001         calculate D2E/DX2 analytically  !
 ! D38   D(21,8,9,10)          156.0038         calculate D2E/DX2 analytically  !
 ! D39   D(21,8,9,13)          -26.9241         calculate D2E/DX2 analytically  !
 ! D40   D(8,9,10,11)          177.7149         calculate D2E/DX2 analytically  !
 ! D41   D(8,9,10,22)           -2.7787         calculate D2E/DX2 analytically  !
 ! D42   D(13,9,10,11)           0.3232         calculate D2E/DX2 analytically  !
 ! D43   D(13,9,10,22)         179.8295         calculate D2E/DX2 analytically  !
 ! D44   D(8,9,13,12)         -178.07           calculate D2E/DX2 analytically  !
 ! D45   D(8,9,13,24)            2.1942         calculate D2E/DX2 analytically  !
 ! D46   D(10,9,13,12)          -0.1978         calculate D2E/DX2 analytically  !
 ! D47   D(10,9,13,24)        -179.9336         calculate D2E/DX2 analytically  !
 ! D48   D(9,10,11,12)          -0.3247         calculate D2E/DX2 analytically  !
 ! D49   D(22,10,11,12)       -179.8651         calculate D2E/DX2 analytically  !
 ! D50   D(10,11,12,13)          0.191          calculate D2E/DX2 analytically  !
 ! D51   D(10,11,12,23)       -179.6929         calculate D2E/DX2 analytically  !
 ! D52   D(11,12,13,9)           0.0032         calculate D2E/DX2 analytically  !
 ! D53   D(11,12,13,24)        179.7346         calculate D2E/DX2 analytically  !
 ! D54   D(23,12,13,9)         179.8922         calculate D2E/DX2 analytically  !
 ! D55   D(23,12,13,24)         -0.3764         calculate D2E/DX2 analytically  !
 ! D56   D(2,14,15,16)        -179.3655         calculate D2E/DX2 analytically  !
 ! D57   D(2,14,15,27)          58.798          calculate D2E/DX2 analytically  !
 ! D58   D(2,14,15,28)         -57.5501         calculate D2E/DX2 analytically  !
 ! D59   D(25,14,15,16)        -58.1686         calculate D2E/DX2 analytically  !
 ! D60   D(25,14,15,27)        179.995          calculate D2E/DX2 analytically  !
 ! D61   D(25,14,15,28)         63.6469         calculate D2E/DX2 analytically  !
 ! D62   D(26,14,15,16)         58.99           calculate D2E/DX2 analytically  !
 ! D63   D(26,14,15,27)        -62.8465         calculate D2E/DX2 analytically  !
 ! D64   D(26,14,15,28)       -179.1945         calculate D2E/DX2 analytically  !
 ! D65   D(14,15,16,29)        -59.978          calculate D2E/DX2 analytically  !
 ! D66   D(14,15,16,30)       -179.9408         calculate D2E/DX2 analytically  !
 ! D67   D(14,15,16,31)         60.1466         calculate D2E/DX2 analytically  !
 ! D68   D(27,15,16,29)         61.4498         calculate D2E/DX2 analytically  !
 ! D69   D(27,15,16,30)        -58.5131         calculate D2E/DX2 analytically  !
 ! D70   D(27,15,16,31)       -178.4257         calculate D2E/DX2 analytically  !
 ! D71   D(28,15,16,29)        178.7381         calculate D2E/DX2 analytically  !
 ! D72   D(28,15,16,30)         58.7752         calculate D2E/DX2 analytically  !
 ! D73   D(28,15,16,31)        -61.1374         calculate D2E/DX2 analytically  !
 --------------------------------------------------------------------------------
 Trust Radius=3.00D-01 FncErr=1.00D-07 GrdErr=1.00D-06
 Number of steps in this run=    167 maximum allowed number of steps=    186.
 GradGradGradGradGradGradGradGradGradGradGradGradGradGradGradGradGradGrad

                          Input orientation:                          
 ---------------------------------------------------------------------
 Center     Atomic      Atomic             Coordinates (Angstroms)
 Number     Number       Type             X           Y           Z
 ---------------------------------------------------------------------
      1          8           0        1.134793    0.360172    1.713014
      2          6           0        1.162257   -0.243302    0.645742
      3          7           0        0.113957   -1.007325    0.239961
      4          6           0       -1.069364   -1.156993    1.057696
      5          6           0       -1.840539   -2.363826    0.540876
      6          8           0       -2.805228   -2.830522    1.356037
      7          8           0       -1.633368   -2.871040   -0.528005
      8          6           0       -1.941597    0.109268    1.094457
      9          6           0       -2.420593    0.640134   -0.226148
     10          6           0       -2.813354    0.084404   -1.408885
     11          7           0       -3.215093    1.054711   -2.307369
     12          6           0       -3.072450    2.191426   -1.667803
     13          7           0       -2.597217    2.000422   -0.410274
     14          6           0        2.342582   -0.206253   -0.313243
     15          6           0        3.523756    0.565241    0.257219
     16          7           0        4.668626    0.610979   -0.690278
     17          1           0        0.147411   -1.555964   -0.605997
     18          1           0       -0.760965   -1.338020    2.090369
     19          1           0       -2.821728   -2.339868    2.183521
     20          1           0       -2.800315   -0.078519    1.747195
     21          1           0       -1.353609    0.885824    1.581179
     22          1           0       -2.823414   -0.960017   -1.669022
     23          1           0       -3.294949    3.169775   -2.056286
     24          1           0       -2.400277    2.712564    0.273645
     25          1           0        2.020644    0.253423   -1.254621
     26          1           0        2.645282   -1.231912   -0.549292
     27          1           0        3.835693    0.100720    1.191966
     28          1           0        3.202235    1.577124    0.499409
     29          1           0        5.000631   -0.326669   -0.915711
     30          1           0        5.459766    1.128265   -0.304546
     31          1           0        4.406382    1.066022   -1.564605
 ---------------------------------------------------------------------
                    Distance matrix (angstroms):
                    1          2          3          4          5
     1  O    0.000000
     2  C    1.226379   0.000000
     3  N    2.254339   1.359162   0.000000
     4  C    2.754913   2.446359   1.446147   0.000000
     5  C    4.200795   3.677554   2.398061   1.522583   0.000000
     6  O    5.082493   4.789485   3.618192   2.429595   1.346447
     7  O    4.808910   4.012257   2.667649   2.402187   1.201121
     8  C    3.147974   3.155877   2.490431   1.538037   2.536308
     9  C    4.059495   3.791763   3.058647   2.589158   3.154134
    10  C    5.040850   4.487133   3.532664   3.265974   3.277463
    11  N    5.963838   5.437544   4.671558   4.562833   4.657068
    12  C    5.699501   5.404917   4.901506   4.759476   5.210200
    13  N    4.596376   4.503677   4.101196   3.802439   4.530331
    14  C    2.425966   1.521247   2.431979   3.797994   4.783633
    15  C    2.805091   2.526138   3.754996   4.970273   6.118461
    16  N    4.280969   3.848295   4.922323   6.253453   7.261848
    17  H    3.166120   2.078424   1.008845   2.099427   2.433085
    18  H    2.572966   2.642751   2.073368   1.092838   2.149113
    19  H    4.813071   4.757362   3.764485   2.395298   1.913528
    20  H    3.959633   4.116106   3.409900   2.152836   2.756628
    21  H    2.546731   2.911967   2.745293   2.127894   3.446673
    22  H    5.371077   4.664481   3.503513   3.248150   2.796492
    23  H    6.459421   6.230308   5.860167   5.776767   6.283414
    24  H    4.483554   4.644055   4.489998   4.166478   5.114142
    25  H    3.098868   2.143581   2.731065   4.109043   4.998253
    26  H    3.151878   2.145884   2.661008   4.048039   4.753135
    27  H    2.762909   2.750268   3.998175   5.065517   6.222341
    28  H    2.688517   2.738042   4.035363   5.102317   6.400186
    29  H    4.725109   4.144660   5.067392   6.436507   7.285140
    30  H    4.833829   4.610079   5.782292   7.050365   8.136577
    31  H    4.684475   4.138153   5.097071   6.465451   7.431078
                    6          7          8          9         10
     6  O    0.000000
     7  O    2.219124   0.000000
     8  C    3.075167   3.407290   0.000000
     9  C    3.833628   3.610981   1.501750   0.000000
    10  C    4.017668   3.301964   2.650905   1.364538   0.000000
    11  N    5.355705   4.591243   3.753408   2.265962   1.382087
    12  C    5.868133   5.385041   3.639271   2.215806   2.138624
    13  N    5.147926   4.967294   2.504100   1.384009   2.171420
    14  C    6.014419   4.791179   4.520549   4.838574   5.279071
    15  C    7.265993   6.246642   5.547879   5.964440   6.570089
    16  N    8.478788   7.201800   6.865278   7.104456   7.534833
    17  H    3.767247   2.215103   3.166779   3.400261   3.478730
    18  H    2.635492   3.157074   2.116689   3.468964   4.298880
    19  H    0.962156   3.007776   2.821163   3.853287   4.333883
    20  H    2.779667   3.786353   1.094864   2.134182   3.160309
    21  H    3.996138   4.317517   1.088884   2.113114   3.422515
    22  H    3.556699   2.523914   3.091567   2.191947   1.076377
    23  H    6.920069   6.448872   4.596243   3.242374   3.189135
    24  H    5.662276   5.692752   2.767900   2.131941   3.147819
    25  H    6.294068   4.862309   4.608502   4.575138   4.839411
    26  H    5.991152   4.581926   5.053724   5.410367   5.680519
    27  H    7.260919   6.457577   5.778119   6.437635   7.139645
    28  H    7.500052   6.650173   5.382164   5.746354   6.485146
    29  H    8.506560   7.115764   7.240535   7.515636   7.840317
    30  H    9.313413   8.145976   7.601035   7.895852   8.411523
    31  H    8.701754   7.283789   6.948584   6.969967   7.287826
                   11         12         13         14         15
    11  N    0.000000
    12  C    1.312064   0.000000
    13  N    2.207964   1.357832   0.000000
    14  C    6.037741   6.075053   5.411140   0.000000
    15  C    7.226948   7.061170   6.322310   1.521776   0.000000
    16  N    8.060081   7.961007   7.402798   2.494094   1.486798
    17  H    4.584400   5.053501   4.496573   2.593492   4.079750
    18  H    5.575661   5.650116   4.557437   4.085370   5.034052
    19  H    5.643225   5.952158   5.061254   6.120151   7.239853
    20  H    4.230336   4.109614   3.002985   5.541760   6.529037
    21  H    4.314446   3.900627   2.598995   4.294566   5.064024
    22  H    2.149425   3.161268   3.224873   5.393868   6.806128
    23  H    2.131411   1.075914   2.136252   6.798347   7.657065
    24  H    3.173961   2.119581   1.006816   5.599879   6.301225
    25  H    5.400303   5.464996   5.008948   1.095964   2.154585
    26  H    6.531728   6.757423   6.160446   1.095135   2.156834
    27  H    7.928999   7.763490   6.896258   2.142259   1.089421
    28  H    7.023746   6.666772   5.885605   2.140056   1.089008
    29  H    8.446481   8.490059   7.962293   2.728130   2.086247
    30  H    8.903363   8.705601   8.104740   3.390848   2.093014
    31  H    7.657591   7.563737   7.159328   2.728344   2.085390
                   16         17         18         19         20
    16  N    0.000000
    17  H    5.014393   0.000000
    18  H    6.403987   2.853600   0.000000
    19  H    8.548194   4.148699   2.293278   0.000000
    20  H    7.886809   4.050857   2.421375   2.303158   0.000000
    21  H    6.442234   3.605431   2.357113   3.594896   1.746561
    22  H    7.717294   3.211071   4.304603   4.092198   3.528188
    23  H    8.475373   6.023769   6.628427   6.968219   5.026187
    24  H    7.437419   5.048249   4.732342   5.417778   3.181435
    25  H    2.730960   2.683952   4.632385   6.480320   5.688825
    26  H    2.740446   2.519442   4.310636   6.211605   6.021519
    27  H    2.120610   4.425009   4.899629   7.159673   6.661607
    28  H    2.121107   4.513327   5.170703   7.380189   6.350491
    29  H    1.019918   5.016058   6.576879   8.651446   8.246660
    30  H    1.020919   5.959620   7.107437   9.316736   8.596214
    31  H    1.019943   5.092404   6.770504   8.825764   8.013393
                   21         22         23         24         25
    21  H    0.000000
    22  H    4.016374   0.000000
    23  H    4.713426   4.174626   0.000000
    24  H    2.478333   4.176224   2.537334   0.000000
    25  H    4.452783   5.010894   6.115824   5.284649   0.000000
    26  H    5.001484   5.588771   7.545345   6.457072   1.758943
    27  H    5.262769   7.324898   8.415243   6.822930   3.050166
    28  H    4.733270   6.888224   7.161112   5.720869   2.494988
    29  H    6.934045   7.885702   9.074288   8.088570   3.054782
    30  H    7.073671   8.650652   9.158679   8.038942   3.673629
    31  H    6.565510   7.509040   7.998627   7.240226   2.539321
                   26         27         28         29         30
    26  H    0.000000
    27  H    2.494989   0.000000
    28  H    3.049697   1.749478   0.000000
    29  H    2.549784   2.445822   2.976780   0.000000
    30  H    3.681257   2.435777   2.438086   1.643521   0.000000
    31  H    3.068034   2.975934   2.443635   1.647357   1.643545
                   31
    31  H    0.000000
 Symmetry turned off by external request.
 Stoichiometry    C9H15N4O3(1+)
 Framework group  C1[X(C9H15N4O3)]
 Deg. of freedom    87
 Full point group                 C1      NOp   1
 Rotational constants (GHZ):      0.6292239      0.3107285      0.2460042
 Standard basis: 6-31+G(d,p) (6D, 7F)
   379 basis functions,   617 primitive gaussians,   379 cartesian basis functions
    60 alpha electrons       60 beta electrons
       nuclear repulsion energy      1133.0540732988 Hartrees.
 NAtoms=   31 NActive=   31 NUniq=   31 SFac= 1.00D+00 NAtFMM=   60 NAOKFM=F Big=F
 Integral buffers will be    131072 words long.
 Raffenetti 2 integral format.
 Two-electron integral symmetry is turned off.
 Nuclear repulsion after empirical dispersion term =     1132.9986854905 Hartrees.
 One-electron integrals computed using PRISM.
 NBasis=   379 RedAO= T EigKep=  5.74D-06  NBF=   379
 NBsUse=   379 1.00D-06 EigRej= -1.00D+00 NBFU=   379
 ExpMin= 4.38D-02 ExpMax= 5.48D+03 ExpMxC= 8.25D+02 IAcc=3 IRadAn=         5 AccDes= 0.00D+00
 Harris functional with IExCor=  402 and IRadAn=       5 diagonalized for initial guess.
 HarFok:  IExCor=  402 AccDes= 0.00D+00 IRadAn=         5 IDoV= 1 UseB2=F ITyADJ=14
 ICtDFT=  3500011 ScaDFX=  1.000000  1.000000  1.000000  1.000000
 FoFCou: FMM=F IPFlag=           0 FMFlag=      100000 FMFlg1=           0
         NFxFlg=           0 DoJE=T BraDBF=F KetDBF=T FulRan=T
         wScrn=  0.000000 ICntrl=     500 IOpCl=  0 I1Cent=   200000004 NGrid=           0
         NMat0=    1 NMatS0=      1 NMatT0=    0 NMatD0=    1 NMtDS0=    0 NMtDT0=    0
 Symmetry not used in FoFCou.
 Requested convergence on RMS density matrix=1.00D-08 within 128 cycles.
 Requested convergence on MAX density matrix=1.00D-06.
 Requested convergence on             energy=1.00D-06.
 No special actions if energy rises.
 EnCoef did     1 forward-backward iterations
 SCF Done:  E(RB3LYP) =  -796.548494873     A.U. after   17 cycles
            NFock= 17  Conv=0.49D-08     -V/T= 2.0090
 DoSCS=F DFT=T ScalE2(SS,OS)=  1.000000  1.000000
 Range of M.O.s used for correlation:     1   379
 NBasis=   379 NAE=    60 NBE=    60 NFC=     0 NFV=     0
 NROrb=    379 NOA=    60 NOB=    60 NVA=   319 NVB=   319

 **** Warning!!: The largest alpha MO coefficient is  0.92498200D+02

 Symmetrizing basis deriv contribution to polar:
 IMax=3 JMax=2 DiffMx= 0.00D+00
 G2DrvN: will do    32 centers at a time, making    1 passes.
 Calling FoFCou, ICntrl=  3107 FMM=F I1Cent=   0 AccDes= 0.00D+00.
 End of G2Drv F.D. properties file   721 does not exist.
 End of G2Drv F.D. properties file   722 does not exist.
 End of G2Drv F.D. properties file   788 does not exist.
          IDoAtm=1111111111111111111111111111111
          Differentiating once with respect to nuclear coordinates.
          There are    96 degrees of freedom in the 1st order CPHF.  IDoFFX=6 NUNeed=     0.
     90 vectors produced by pass  0 Test12= 1.99D-14 1.04D-09 XBig12= 1.81D-01 8.68D-02.
 AX will form    90 AO Fock derivatives at one time.
     90 vectors produced by pass  1 Test12= 1.99D-14 1.04D-09 XBig12= 1.67D-02 1.78D-02.
     90 vectors produced by pass  2 Test12= 1.99D-14 1.04D-09 XBig12= 1.77D-04 2.02D-03.
     90 vectors produced by pass  3 Test12= 1.99D-14 1.04D-09 XBig12= 5.77D-07 8.65D-05.
     90 vectors produced by pass  4 Test12= 1.99D-14 1.04D-09 XBig12= 1.20D-09 4.01D-06.
     82 vectors produced by pass  5 Test12= 1.99D-14 1.04D-09 XBig12= 1.46D-12 1.30D-07.
     23 vectors produced by pass  6 Test12= 1.99D-14 1.04D-09 XBig12= 1.70D-15 3.21D-09.
      3 vectors produced by pass  7 Test12= 1.99D-14 1.04D-09 XBig12= 1.40D-16 1.13D-09.
      3 vectors produced by pass  8 Test12= 1.99D-14 1.04D-09 XBig12= 5.62D-16 2.11D-09.
      2 vectors produced by pass  9 Test12= 1.99D-14 1.04D-09 XBig12= 7.33D-16 2.43D-09.
 InvSVY:  IOpt=1 It=  1 EMax= 6.11D-16
 Solved reduced A of dimension   563 with    96 vectors.
 End of Minotr F.D. properties file   721 does not exist.
 End of Minotr F.D. properties file   722 does not exist.
 End of Minotr F.D. properties file   788 does not exist.

 **********************************************************************

            Population analysis using the SCF density.

 **********************************************************************

 Alpha  occ. eigenvalues --  -19.31548 -19.26777 -19.26022 -14.67864 -14.49931
 Alpha  occ. eigenvalues --  -14.48146 -14.39879 -10.44308 -10.44001 -10.43962
 Alpha  occ. eigenvalues --  -10.38274 -10.37088 -10.32363 -10.31966 -10.31280
 Alpha  occ. eigenvalues --  -10.28095  -1.22585  -1.22511  -1.18807  -1.14599
 Alpha  occ. eigenvalues --   -1.10571  -1.06658  -0.97898  -0.95876  -0.91903
 Alpha  occ. eigenvalues --   -0.86581  -0.83749  -0.80640  -0.80058  -0.78200
 Alpha  occ. eigenvalues --   -0.74149  -0.71908  -0.70746  -0.70287  -0.68671
 Alpha  occ. eigenvalues --   -0.67646  -0.65460  -0.63803  -0.61990  -0.60370
 Alpha  occ. eigenvalues --   -0.58887  -0.57629  -0.57066  -0.55699  -0.55166
 Alpha  occ. eigenvalues --   -0.54062  -0.53991  -0.52143  -0.51028  -0.49991
 Alpha  occ. eigenvalues --   -0.49709  -0.49103  -0.48749  -0.43533  -0.40978
 Alpha  occ. eigenvalues --   -0.39944  -0.39336  -0.36722  -0.35119  -0.31662
 Alpha virt. eigenvalues --   -0.20624  -0.14522  -0.14370  -0.13140  -0.12485
 Alpha virt. eigenvalues --   -0.11430  -0.10342  -0.10122  -0.08872  -0.08257
 Alpha virt. eigenvalues --   -0.07212  -0.06783  -0.06157  -0.05896  -0.05274
 Alpha virt. eigenvalues --   -0.04681  -0.04076  -0.03637  -0.03177  -0.02673
 Alpha virt. eigenvalues --   -0.02257  -0.01696  -0.01398  -0.01342  -0.00357
 Alpha virt. eigenvalues --    0.00306   0.00615   0.01026   0.01342   0.01964
 Alpha virt. eigenvalues --    0.02319   0.02597   0.03327   0.04095   0.04688
 Alpha virt. eigenvalues --    0.05029   0.05185   0.05703   0.06159   0.06671
 Alpha virt. eigenvalues --    0.07551   0.08371   0.08427   0.08778   0.09439
 Alpha virt. eigenvalues --    0.09739   0.10113   0.10142   0.10833   0.10997
 Alpha virt. eigenvalues --    0.11192   0.11433   0.12130   0.12476   0.12910
 Alpha virt. eigenvalues --    0.13183   0.14105   0.14355   0.14902   0.15396
 Alpha virt. eigenvalues --    0.16076   0.16697   0.17043   0.18136   0.18234
 Alpha virt. eigenvalues --    0.18662   0.19222   0.19741   0.19919   0.20255
 Alpha virt. eigenvalues --    0.20271   0.20994   0.21492   0.21652   0.22769
 Alpha virt. eigenvalues --    0.23160   0.24360   0.24699   0.25056   0.25328
 Alpha virt. eigenvalues --    0.25948   0.26326   0.27067   0.27724   0.27969
 Alpha virt. eigenvalues --    0.28300   0.29313   0.30088   0.30820   0.32161
 Alpha virt. eigenvalues --    0.33163   0.34794   0.36358   0.37666   0.39664
 Alpha virt. eigenvalues --    0.40474   0.41895   0.44176   0.45051   0.46283
 Alpha virt. eigenvalues --    0.46612   0.50277   0.51902   0.54806   0.56456
 Alpha virt. eigenvalues --    0.57296   0.58164   0.59826   0.61128   0.61943
 Alpha virt. eigenvalues --    0.62232   0.64000   0.64731   0.66470   0.67696
 Alpha virt. eigenvalues --    0.68833   0.69571   0.69923   0.71241   0.71887
 Alpha virt. eigenvalues --    0.72379   0.73390   0.75412   0.76834   0.77652
 Alpha virt. eigenvalues --    0.78673   0.79761   0.82407   0.82898   0.83796
 Alpha virt. eigenvalues --    0.85118   0.85927   0.86917   0.88026   0.88636
 Alpha virt. eigenvalues --    0.89515   0.90226   0.90852   0.91858   0.92712
 Alpha virt. eigenvalues --    0.93742   0.94423   0.95683   0.97267   0.98243
 Alpha virt. eigenvalues --    0.99211   0.99811   1.01546   1.03083   1.04624
 Alpha virt. eigenvalues --    1.05078   1.06028   1.07165   1.10548   1.12113
 Alpha virt. eigenvalues --    1.12889   1.14317   1.15038   1.17001   1.18011
 Alpha virt. eigenvalues --    1.19214   1.20169   1.21788   1.22454   1.24189
 Alpha virt. eigenvalues --    1.25509   1.26118   1.26564   1.27265   1.27695
 Alpha virt. eigenvalues --    1.30284   1.31366   1.32035   1.32511   1.33899
 Alpha virt. eigenvalues --    1.34789   1.37583   1.39076   1.39836   1.40151
 Alpha virt. eigenvalues --    1.42903   1.43706   1.45175   1.46931   1.48384
 Alpha virt. eigenvalues --    1.49129   1.53620   1.55801   1.57907   1.58527
 Alpha virt. eigenvalues --    1.60965   1.63658   1.65020   1.66254   1.68249
 Alpha virt. eigenvalues --    1.68989   1.70449   1.71120   1.71959   1.73369
 Alpha virt. eigenvalues --    1.74002   1.74785   1.76185   1.77190   1.77985
 Alpha virt. eigenvalues --    1.79281   1.81154   1.81747   1.84215   1.85887
 Alpha virt. eigenvalues --    1.86606   1.89971   1.90200   1.92019   1.92994
 Alpha virt. eigenvalues --    1.95170   1.96468   1.97958   1.99584   1.99940
 Alpha virt. eigenvalues --    2.01046   2.02354   2.03383   2.03518   2.04647
 Alpha virt. eigenvalues --    2.05552   2.07665   2.08631   2.09944   2.11167
 Alpha virt. eigenvalues --    2.11807   2.12941   2.16967   2.19709   2.20085
 Alpha virt. eigenvalues --    2.21349   2.23741   2.26152   2.26749   2.28682
 Alpha virt. eigenvalues --    2.31277   2.31858   2.35346   2.36025   2.37338
 Alpha virt. eigenvalues --    2.37903   2.39870   2.42307   2.42966   2.44411
 Alpha virt. eigenvalues --    2.46047   2.46103   2.47906   2.49376   2.50742
 Alpha virt. eigenvalues --    2.51680   2.52238   2.53237   2.55520   2.56521
 Alpha virt. eigenvalues --    2.57840   2.58750   2.60467   2.61404   2.62701
 Alpha virt. eigenvalues --    2.63734   2.65596   2.66999   2.68567   2.68962
 Alpha virt. eigenvalues --    2.71369   2.71742   2.73230   2.74731   2.75641
 Alpha virt. eigenvalues --    2.78090   2.81316   2.83954   2.87660   2.92641
 Alpha virt. eigenvalues --    2.94975   2.95699   2.97790   2.97892   3.02602
 Alpha virt. eigenvalues --    3.04174   3.08674   3.12113   3.13779   3.14228
 Alpha virt. eigenvalues --    3.17706   3.19046   3.24540   3.25882   3.26541
 Alpha virt. eigenvalues --    3.27738   3.34628   3.37913   3.40682   3.45444
 Alpha virt. eigenvalues --    3.50321   3.52407   3.64097   3.96967   4.14325
 Alpha virt. eigenvalues --    4.17371   4.21246   4.22805   4.25927   4.28824
 Alpha virt. eigenvalues --    4.32233   4.36697   4.45621   4.47398   4.52098
 Alpha virt. eigenvalues --    4.54877   4.61453   4.65822   4.72854
          Condensed to atoms (all electrons):
               1          2          3          4          5          6
     1  O    8.270192   0.299827  -0.146433   0.105374   0.018093   0.000530
     2  C    0.299827   8.162516  -0.104691  -0.309133  -0.080856  -0.002192
     3  N   -0.146433  -0.104691   7.469141  -0.235807  -0.074645   0.007249
     4  C    0.105374  -0.309133  -0.235807   8.575439  -0.894687  -0.158957
     5  C    0.018093  -0.080856  -0.074645  -0.894687   6.039323   0.208737
     6  O    0.000530  -0.002192   0.007249  -0.158957   0.208737   8.172447
     7  O    0.000567   0.076717   0.027818  -0.208362   0.640266  -0.121624
     8  C   -0.195255   0.104733   0.500243  -1.676469   0.494165   0.020592
     9  C    0.097898  -0.447670  -0.327890   1.015792  -0.348064  -0.021269
    10  C    0.009627  -0.126057   0.000953  -0.232906  -0.173792   0.026982
    11  N    0.000361  -0.003749  -0.008474   0.003393  -0.001304  -0.000381
    12  C    0.001521   0.026247  -0.031186   0.035128  -0.033698   0.002452
    13  N   -0.006592   0.089955   0.011948  -0.005908  -0.018828   0.000639
    14  C   -0.003536  -1.818042  -0.072691  -0.205890  -0.023144  -0.006573
    15  C    0.017697  -0.105973   0.000187  -0.029250  -0.002622   0.000149
    16  N    0.000129   0.100116  -0.002713   0.002475  -0.000318   0.000004
    17  H    0.008499  -0.061641   0.276432   0.075040  -0.055588   0.001757
    18  H    0.002482   0.045705  -0.071674   0.459419  -0.098898  -0.003637
    19  H   -0.000078   0.017595   0.001681   0.119096  -0.038525   0.191023
    20  H   -0.000920   0.026920   0.024216  -0.036614  -0.040852   0.005139
    21  H    0.000566  -0.000492  -0.026738  -0.001808   0.001137  -0.001147
    22  H   -0.000043   0.008350   0.000108   0.033146  -0.007320  -0.000113
    23  H   -0.000001   0.000682   0.000049  -0.000814  -0.000238   0.000001
    24  H    0.000236  -0.005740   0.000018  -0.004661  -0.000848  -0.000005
    25  H    0.006781  -0.135973   0.014103   0.001898   0.000840   0.000002
    26  H    0.002152  -0.021657  -0.013266   0.000943  -0.004352   0.000004
    27  H   -0.001672   0.014006   0.002510   0.001825   0.000188   0.000000
    28  H   -0.003289   0.044456  -0.000690  -0.000710  -0.000178   0.000000
    29  H   -0.000108   0.013053  -0.000378  -0.000057   0.000002   0.000000
    30  H    0.000319  -0.014643   0.000168  -0.000041  -0.000005   0.000000
    31  H    0.000047   0.007098   0.000087   0.000200   0.000029   0.000000
               7          8          9         10         11         12
     1  O    0.000567  -0.195255   0.097898   0.009627   0.000361   0.001521
     2  C    0.076717   0.104733  -0.447670  -0.126057  -0.003749   0.026247
     3  N    0.027818   0.500243  -0.327890   0.000953  -0.008474  -0.031186
     4  C   -0.208362  -1.676469   1.015792  -0.232906   0.003393   0.035128
     5  C    0.640266   0.494165  -0.348064  -0.173792  -0.001304  -0.033698
     6  O   -0.121624   0.020592  -0.021269   0.026982  -0.000381   0.002452
     7  O    8.058686  -0.092585   0.040189  -0.038435   0.001750   0.000014
     8  C   -0.092585  13.368402  -5.441813  -1.103791  -0.143409  -0.099279
     9  C    0.040189  -5.441813  11.743544  -0.592623  -0.099652   0.040131
    10  C   -0.038435  -1.103791  -0.592623   8.049977   0.535466  -0.598056
    11  N    0.001750  -0.143409  -0.099652   0.535466   6.772042   0.363824
    12  C    0.000014  -0.099279   0.040131  -0.598056   0.363824   5.530424
    13  N    0.000881  -0.057892   0.153100  -0.078469  -0.020489   0.104736
    14  C   -0.016381   0.111780  -0.077396   0.048856  -0.000405  -0.021083
    15  C    0.001340   0.008172  -0.018719  -0.009679   0.000297   0.003397
    16  N    0.000014  -0.000280   0.000341  -0.000514   0.000006   0.000103
    17  H    0.020566  -0.046311   0.029464   0.003114   0.000493   0.001676
    18  H    0.003185  -0.118108   0.073252  -0.010238   0.000193   0.000816
    19  H    0.007998   0.004384  -0.056544  -0.013627  -0.000039  -0.000909
    20  H   -0.000383   0.609964  -0.297551  -0.000078  -0.001675  -0.008112
    21  H   -0.000056   0.408859  -0.050164  -0.001246  -0.000501   0.006228
    22  H   -0.003058   0.024771  -0.052131   0.326562  -0.056006   0.027279
    23  H   -0.000002   0.026750   0.036790  -0.055022  -0.058955   0.456514
    24  H   -0.000004  -0.096288   0.117646   0.016478   0.010033  -0.018351
    25  H   -0.000008   0.004649   0.002862   0.002791  -0.000141  -0.000970
    26  H   -0.000028  -0.000791   0.000617   0.000357   0.000008   0.000069
    27  H    0.000001   0.000003   0.000014   0.000001   0.000000  -0.000006
    28  H    0.000000  -0.000013   0.000310   0.000061   0.000002   0.000032
    29  H    0.000000   0.000018  -0.000028  -0.000009   0.000000   0.000001
    30  H    0.000000   0.000018   0.000008   0.000009   0.000000  -0.000001
    31  H    0.000000  -0.000052   0.000079   0.000014   0.000000  -0.000005
              13         14         15         16         17         18
     1  O   -0.006592  -0.003536   0.017697   0.000129   0.008499   0.002482
     2  C    0.089955  -1.818042  -0.105973   0.100116  -0.061641   0.045705
     3  N    0.011948  -0.072691   0.000187  -0.002713   0.276432  -0.071674
     4  C   -0.005908  -0.205890  -0.029250   0.002475   0.075040   0.459419
     5  C   -0.018828  -0.023144  -0.002622  -0.000318  -0.055588  -0.098898
     6  O    0.000639  -0.006573   0.000149   0.000004   0.001757  -0.003637
     7  O    0.000881  -0.016381   0.001340   0.000014   0.020566   0.003185
     8  C   -0.057892   0.111780   0.008172  -0.000280  -0.046311  -0.118108
     9  C    0.153100  -0.077396  -0.018719   0.000341   0.029464   0.073252
    10  C   -0.078469   0.048856  -0.009679  -0.000514   0.003114  -0.010238
    11  N   -0.020489  -0.000405   0.000297   0.000006   0.000493   0.000193
    12  C    0.104736  -0.021083   0.003397   0.000103   0.001676   0.000816
    13  N    7.010056  -0.007908   0.002892  -0.000028   0.000197   0.000202
    14  C   -0.007908   7.538209   0.279282  -0.155733   0.043181  -0.004390
    15  C    0.002892   0.279282   5.321578   0.083997   0.003767   0.000017
    16  N   -0.000028  -0.155733   0.083997   6.680214   0.000024   0.000010
    17  H    0.000197   0.043181   0.003767   0.000024   0.357942   0.003266
    18  H    0.000202  -0.004390   0.000017   0.000010   0.003266   0.544833
    19  H    0.000249   0.001573   0.000052   0.000000  -0.000050  -0.000534
    20  H    0.013261  -0.000779  -0.000105   0.000000  -0.000150  -0.000902
    21  H   -0.001956  -0.004094  -0.000994  -0.000002  -0.000177  -0.006880
    22  H    0.005532  -0.001346   0.000010   0.000000  -0.000043  -0.000028
    23  H   -0.099264  -0.000159   0.000017   0.000000   0.000000   0.000000
    24  H    0.260491   0.000915  -0.000108   0.000000   0.000000   0.000002
    25  H   -0.000600   0.479242  -0.053335   0.001659  -0.000153  -0.000023
    26  H    0.000007   0.399032  -0.042110   0.003053   0.000303   0.000016
    27  H   -0.000004  -0.048253   0.397423  -0.031647  -0.000006  -0.000005
    28  H   -0.000017  -0.081729   0.405981  -0.029157  -0.000003   0.000002
    29  H    0.000000  -0.020719  -0.014324   0.323223   0.000000   0.000000
    30  H    0.000000   0.034663  -0.032823   0.311091   0.000000   0.000000
    31  H   -0.000002  -0.012065  -0.016852   0.321465  -0.000001   0.000000
              19         20         21         22         23         24
     1  O   -0.000078  -0.000920   0.000566  -0.000043  -0.000001   0.000236
     2  C    0.017595   0.026920  -0.000492   0.008350   0.000682  -0.005740
     3  N    0.001681   0.024216  -0.026738   0.000108   0.000049   0.000018
     4  C    0.119096  -0.036614  -0.001808   0.033146  -0.000814  -0.004661
     5  C   -0.038525  -0.040852   0.001137  -0.007320  -0.000238  -0.000848
     6  O    0.191023   0.005139  -0.001147  -0.000113   0.000001  -0.000005
     7  O    0.007998  -0.000383  -0.000056  -0.003058  -0.000002  -0.000004
     8  C    0.004384   0.609964   0.408859   0.024771   0.026750  -0.096288
     9  C   -0.056544  -0.297551  -0.050164  -0.052131   0.036790   0.117646
    10  C   -0.013627  -0.000078  -0.001246   0.326562  -0.055022   0.016478
    11  N   -0.000039  -0.001675  -0.000501  -0.056006  -0.058955   0.010033
    12  C   -0.000909  -0.008112   0.006228   0.027279   0.456514  -0.018351
    13  N    0.000249   0.013261  -0.001956   0.005532  -0.099264   0.260491
    14  C    0.001573  -0.000779  -0.004094  -0.001346  -0.000159   0.000915
    15  C    0.000052  -0.000105  -0.000994   0.000010   0.000017  -0.000108
    16  N    0.000000   0.000000  -0.000002   0.000000   0.000000   0.000000
    17  H   -0.000050  -0.000150  -0.000177  -0.000043   0.000000   0.000000
    18  H   -0.000534  -0.000902  -0.006880  -0.000028   0.000000   0.000002
    19  H    0.411181   0.003394  -0.000048   0.000008   0.000000   0.000000
    20  H    0.003394   0.570110  -0.030071   0.000122   0.000005  -0.000131
    21  H   -0.000048  -0.030071   0.528655  -0.000089  -0.000011   0.002277
    22  H    0.000008   0.000122  -0.000089   0.543354  -0.000034  -0.000077
    23  H    0.000000   0.000005  -0.000011  -0.000034   0.546591   0.000215
    24  H    0.000000  -0.000131   0.002277  -0.000077   0.000215   0.421066
    25  H    0.000000  -0.000001  -0.000004   0.000000   0.000000   0.000001
    26  H    0.000000   0.000000  -0.000004   0.000000   0.000000   0.000000
    27  H    0.000000   0.000000   0.000000   0.000000   0.000000   0.000000
    28  H    0.000000   0.000000  -0.000002   0.000000   0.000000   0.000000
    29  H    0.000000   0.000000   0.000000   0.000000   0.000000   0.000000
    30  H    0.000000   0.000000   0.000000   0.000000   0.000000   0.000000
    31  H    0.000000   0.000000   0.000000   0.000000   0.000000   0.000000
              25         26         27         28         29         30
     1  O    0.006781   0.002152  -0.001672  -0.003289  -0.000108   0.000319
     2  C   -0.135973  -0.021657   0.014006   0.044456   0.013053  -0.014643
     3  N    0.014103  -0.013266   0.002510  -0.000690  -0.000378   0.000168
     4  C    0.001898   0.000943   0.001825  -0.000710  -0.000057  -0.000041
     5  C    0.000840  -0.004352   0.000188  -0.000178   0.000002  -0.000005
     6  O    0.000002   0.000004   0.000000   0.000000   0.000000   0.000000
     7  O   -0.000008  -0.000028   0.000001   0.000000   0.000000   0.000000
     8  C    0.004649  -0.000791   0.000003  -0.000013   0.000018   0.000018
     9  C    0.002862   0.000617   0.000014   0.000310  -0.000028   0.000008
    10  C    0.002791   0.000357   0.000001   0.000061  -0.000009   0.000009
    11  N   -0.000141   0.000008   0.000000   0.000002   0.000000   0.000000
    12  C   -0.000970   0.000069  -0.000006   0.000032   0.000001  -0.000001
    13  N   -0.000600   0.000007  -0.000004  -0.000017   0.000000   0.000000
    14  C    0.479242   0.399032  -0.048253  -0.081729  -0.020719   0.034663
    15  C   -0.053335  -0.042110   0.397423   0.405981  -0.014324  -0.032823
    16  N    0.001659   0.003053  -0.031647  -0.029157   0.323223   0.311091
    17  H   -0.000153   0.000303  -0.000006  -0.000003   0.000000   0.000000
    18  H   -0.000023   0.000016  -0.000005   0.000002   0.000000   0.000000
    19  H    0.000000   0.000000   0.000000   0.000000   0.000000   0.000000
    20  H   -0.000001   0.000000   0.000000   0.000000   0.000000   0.000000
    21  H   -0.000004  -0.000004   0.000000  -0.000002   0.000000   0.000000
    22  H    0.000000   0.000000   0.000000   0.000000   0.000000   0.000000
    23  H    0.000000   0.000000   0.000000   0.000000   0.000000   0.000000
    24  H    0.000001   0.000000   0.000000   0.000000   0.000000   0.000000
    25  H    0.511475  -0.031685   0.003969  -0.005291  -0.000911  -0.000052
    26  H   -0.031685   0.520292  -0.005337   0.004083   0.003928  -0.000065
    27  H    0.003969  -0.005337   0.459807  -0.020715  -0.004552  -0.002497
    28  H   -0.005291   0.004083  -0.020715   0.456523   0.003774  -0.002512
    29  H   -0.000911   0.003928  -0.004552   0.003774   0.328482  -0.014922
    30  H   -0.000052  -0.000065  -0.002497  -0.002512  -0.014922   0.324560
    31  H    0.004053  -0.000888   0.003822  -0.004606  -0.021458  -0.014586
              31
     1  O    0.000047
     2  C    0.007098
     3  N    0.000087
     4  C    0.000200
     5  C    0.000029
     6  O    0.000000
     7  O    0.000000
     8  C   -0.000052
     9  C    0.000079
    10  C    0.000014
    11  N    0.000000
    12  C   -0.000005
    13  N   -0.000002
    14  C   -0.012065
    15  C   -0.016852
    16  N    0.321465
    17  H   -0.000001
    18  H    0.000000
    19  H    0.000000
    20  H    0.000000
    21  H    0.000000
    22  H    0.000000
    23  H    0.000000
    24  H    0.000000
    25  H    0.004053
    26  H   -0.000888
    27  H    0.003822
    28  H   -0.004606
    29  H   -0.021458
    30  H   -0.014586
    31  H    0.328444
 Mulliken charges:
               1
     1  O   -0.484972
     2  C    0.200535
     3  N   -0.219636
     4  C   -0.427097
     5  C    0.495980
     6  O   -0.321808
     7  O   -0.399065
     8  C   -0.615167
     9  C    0.479476
    10  C    0.013293
    11  N   -0.292687
    12  C    0.211063
    13  N   -0.356189
    14  C   -0.354417
    15  C   -0.199362
    16  N   -0.607531
    17  H    0.338402
    18  H    0.181915
    19  H    0.352119
    20  H    0.165192
    21  H    0.178762
    22  H    0.151046
    23  H    0.146883
    24  H    0.296834
    25  H    0.194823
    26  H    0.185318
    27  H    0.231127
    28  H    0.233688
    29  H    0.404987
    30  H    0.411311
    31  H    0.405177
 Sum of Mulliken charges =   1.00000
 Mulliken charges with hydrogens summed into heavy atoms:
               1
     1  O   -0.484972
     2  C    0.200535
     3  N    0.118766
     4  C   -0.245182
     5  C    0.495980
     6  O    0.030311
     7  O   -0.399065
     8  C   -0.271213
     9  C    0.479476
    10  C    0.164339
    11  N   -0.292687
    12  C    0.357947
    13  N   -0.059355
    14  C    0.025723
    15  C    0.265453
    16  N    0.613944
 APT charges:
               1
     1  O   -0.423423
     2  C    0.042915
     3  N   -0.338284
     4  C   -0.621565
     5  C   -0.365290
     6  O   -0.162580
     7  O   -0.188827
     8  C   -1.125157
     9  C    0.144744
    10  C   -0.050348
    11  N   -0.430738
    12  C   -0.306835
    13  N   -0.608626
    14  C   -0.716855
    15  C   -0.307950
    16  N   -1.889166
    17  H    0.542623
    18  H    0.489397
    19  H    0.602071
    20  H    0.630156
    21  H    0.269860
    22  H    0.410213
    23  H    0.930995
    24  H    0.570387
    25  H    0.269735
    26  H    0.464374
    27  H    0.490455
    28  H    0.256000
    29  H    0.735151
    30  H    1.221056
    31  H    0.465514
 Sum of APT charges =   1.00000
 APT charges with hydrogens summed into heavy atoms:
               1
     1  O   -0.423423
     2  C    0.042915
     3  N    0.204339
     4  C   -0.132168
     5  C   -0.365290
     6  O    0.439490
     7  O   -0.188827
     8  C   -0.225141
     9  C    0.144744
    10  C    0.359865
    11  N   -0.430738
    12  C    0.624160
    13  N   -0.038239
    14  C    0.017253
    15  C    0.438505
    16  N    0.532555
 Electronic spatial extent (au):  <R**2>=           4674.3533
 Charge=              1.0000 electrons
 Dipole moment (field-independent basis, Debye):
    X=             19.5207    Y=              4.4375    Z=              1.1591  Tot=             20.0522
 Quadrupole moment (field-independent basis, Debye-Ang):
   XX=              0.8363   YY=            -85.6757   ZZ=            -93.8462
   XY=              2.0459   XZ=            -33.9447   YZ=             -7.7196
 Traceless Quadrupole moment (field-independent basis, Debye-Ang):
   XX=             60.3981   YY=            -26.1138   ZZ=            -34.2843
   XY=              2.0459   XZ=            -33.9447   YZ=             -7.7196
 Octapole moment (field-independent basis, Debye-Ang**2):
  XXX=            670.5094  YYY=            124.7853  ZZZ=             41.0485  XYY=             68.0046
  XXY=             92.9247  XXZ=            -14.1568  XZZ=             78.3336  YZZ=             -1.4132
  YYZ=              7.1674  XYZ=             -0.5935
 Hexadecapole moment (field-independent basis, Debye-Ang**3):
 XXXX=          -1549.5823 YYYY=          -1375.7863 ZZZZ=           -887.9422 XXXY=            165.3380
 XXXZ=           -622.4118 YYYX=           -261.7820 YYYZ=            154.8356 ZZZX=           -345.6917
 ZZZY=            176.3896 XXYY=           -724.8530 XXZZ=           -723.1335 YYZZ=           -322.4505
 XXYZ=             15.3099 YYXZ=            -65.3587 ZZXY=             25.4933
 N-N= 1.132998685491D+03 E-N=-4.106997598757D+03  KE= 7.894174362259D+02
  Exact polarizability:   0.000   0.000   0.000   0.000   0.000   0.000
 Approx polarizability: 169.812   6.504 199.006   7.057  16.249 222.145
 Calling FoFJK, ICntrl=    100147 FMM=F ISym2X=0 I1Cent= 0 IOpClX= 0 NMat=1 NMatS=1 NMatT=0.
 -------------------------------------------------------------------
 Center     Atomic                   Forces (Hartrees/Bohr)
 Number     Number              X              Y              Z
 -------------------------------------------------------------------
      1        8           0.011822970    0.008371719    0.002605697
      2        6          -0.020729610   -0.010333763    0.002620664
      3        7           0.013078538    0.005264168    0.000128294
      4        6          -0.000665124    0.002595087   -0.000105784
      5        6          -0.005129944   -0.001264667    0.008449624
      6        8           0.001691282   -0.001448706   -0.006129803
      7        8           0.005091455   -0.004688871   -0.010201652
      8        6          -0.006452438    0.007248874   -0.004465116
      9        6           0.005384558    0.000443522    0.010420713
     10        6          -0.002479405   -0.007955923   -0.010282251
     11        7           0.000900272   -0.003917558   -0.000593918
     12        6          -0.002834989    0.004037548   -0.005820043
     13        7           0.004663446    0.001131452    0.008263718
     14        6           0.008444909   -0.001908498   -0.012929551
     15        6          -0.024533326   -0.001113876    0.020738911
     16        7           0.004382982    0.000940225   -0.002071492
     17        1          -0.002489132   -0.002429567   -0.005167149
     18        1           0.002230725   -0.002057371    0.002096624
     19        1          -0.002728043    0.002158703    0.007142533
     20        1          -0.001270190   -0.001140393    0.002932754
     21        1           0.002411697    0.000906670    0.003501247
     22        1          -0.000892962   -0.001984245   -0.002007688
     23        1          -0.001199198    0.003221625   -0.001657615
     24        1          -0.000646531    0.002868401    0.001356206
     25        1          -0.002636657   -0.000033540   -0.001248521
     26        1          -0.000956757   -0.002385152   -0.000454312
     27        1           0.006576305    0.000341570   -0.000176477
     28        1           0.004809300    0.003815270   -0.001591622
     29        1           0.001860182   -0.005035549   -0.002247647
     30        1           0.003387951    0.002562994    0.002399419
     31        1          -0.001092266    0.001789853   -0.005505763
 -------------------------------------------------------------------
 Cartesian Forces:  Max     0.024533326 RMS     0.006155460
 FormGI is forming the generalized inverse of G from B-inverse, IUseBI=4.

 GradGradGradGradGradGradGradGradGradGradGradGradGradGradGradGradGradGrad
 Berny optimization.
 Internal  Forces:  Max     0.017148243 RMS     0.003815550
 Search for a local minimum.
 Step number   1 out of a maximum of  167
 All quantities printed in internal units (Hartrees-Bohrs-Radians)
 Mixed Optimization -- RFO/linear search
 Second derivative matrix not updated -- analytic derivatives used.
 ITU=  0
     Eigenvalues ---   -0.00095  -0.00041   0.00024   0.00147   0.00206
     Eigenvalues ---    0.00297   0.00480   0.00502   0.00799   0.00857
     Eigenvalues ---    0.00981   0.01971   0.02090   0.02590   0.03230
     Eigenvalues ---    0.03713   0.03843   0.03885   0.04158   0.04241
     Eigenvalues ---    0.04309   0.04694   0.04961   0.05047   0.05139
     Eigenvalues ---    0.05280   0.05326   0.05918   0.06140   0.07512
     Eigenvalues ---    0.08305   0.08671   0.10475   0.10594   0.11226
     Eigenvalues ---    0.11727   0.11961   0.12108   0.13112   0.13272
     Eigenvalues ---    0.13735   0.15924   0.16064   0.16162   0.16378
     Eigenvalues ---    0.17173   0.19217   0.19352   0.20274   0.22368
     Eigenvalues ---    0.23160   0.23523   0.24180   0.24502   0.24755
     Eigenvalues ---    0.25506   0.29635   0.29972   0.31720   0.33188
     Eigenvalues ---    0.33292   0.33600   0.33752   0.34180   0.34527
     Eigenvalues ---    0.34876   0.35081   0.35227   0.35765   0.35891
     Eigenvalues ---    0.38383   0.38471   0.39185   0.42515   0.44139
     Eigenvalues ---    0.44307   0.44337   0.44859   0.45975   0.46984
     Eigenvalues ---    0.47614   0.48608   0.49476   0.54483   0.60180
     Eigenvalues ---    0.82565   0.93387
 RFO step:  Lambda=-1.05348184D-02 EMin=-9.53753232D-04
 Linear search not attempted -- first point.
 Iteration  1 RMS(Cart)=  0.26015248 RMS(Int)=  0.02656309
 Iteration  2 RMS(Cart)=  0.07697998 RMS(Int)=  0.00203080
 Iteration  3 RMS(Cart)=  0.00287990 RMS(Int)=  0.00057073
 Iteration  4 RMS(Cart)=  0.00000629 RMS(Int)=  0.00057072
 Iteration  5 RMS(Cart)=  0.00000000 RMS(Int)=  0.00057072
 Variable       Old X    -DE/DX   Delta X   Delta X   Delta X     New X
                                 (Linear)    (Quad)   (Total)
    R1        2.31752   0.00612   0.00000   0.00930   0.00930   2.32682
    R2        2.56844  -0.00772   0.00000  -0.03583  -0.03583   2.53261
    R3        2.87474   0.00211   0.00000   0.02707   0.02707   2.90181
    R4        2.73282   0.00320   0.00000   0.00974   0.00974   2.74256
    R5        1.90644   0.00557   0.00000   0.01307   0.01307   1.91951
    R6        2.87726   0.00495   0.00000   0.02459   0.02459   2.90185
    R7        2.90647   0.00541   0.00000   0.01905   0.01905   2.92552
    R8        2.06516   0.00295   0.00000   0.00871   0.00871   2.07388
    R9        2.54442   0.00111   0.00000  -0.01114  -0.01114   2.53328
   R10        2.26979   0.01194   0.00000   0.01488   0.01488   2.28467
   R11        1.81821   0.00729   0.00000   0.01313   0.01313   1.83134
   R12        2.83790  -0.00140   0.00000  -0.00905  -0.00905   2.82884
   R13        2.06899   0.00294   0.00000   0.00840   0.00840   2.07740
   R14        2.05769   0.00351   0.00000   0.01020   0.01020   2.06789
   R15        2.57860   0.01393   0.00000   0.02619   0.02622   2.60483
   R16        2.61540   0.00535   0.00000   0.00512   0.00515   2.62055
   R17        2.61177   0.00044   0.00000  -0.00230  -0.00231   2.60945
   R18        2.03406   0.00242   0.00000   0.00581   0.00581   2.03986
   R19        2.47944   0.00567   0.00000   0.00596   0.00592   2.48536
   R20        2.56593   0.00991   0.00000   0.02160   0.02159   2.58752
   R21        2.03318   0.00378   0.00000   0.00882   0.00882   2.04200
   R22        1.90261   0.00282   0.00000   0.00599   0.00599   1.90860
   R23        2.87574   0.00242   0.00000  -0.00085  -0.00085   2.87489
   R24        2.07107   0.00183   0.00000   0.00105   0.00105   2.07213
   R25        2.06951   0.00207   0.00000   0.00588   0.00588   2.07539
   R26        2.80964   0.01132   0.00000   0.05961   0.05961   2.86925
   R27        2.05871   0.00159   0.00000   0.00149   0.00149   2.06019
   R28        2.05793   0.00177   0.00000   0.00187   0.00187   2.05980
   R29        1.92737   0.00573   0.00000   0.01103   0.01103   1.93840
   R30        1.92926   0.00483   0.00000   0.00898   0.00898   1.93824
   R31        1.92741   0.00580   0.00000   0.01118   0.01118   1.93860
    A1        2.11666   0.01715   0.00000   0.06084   0.06084   2.17750
    A2        2.15796  -0.01383   0.00000  -0.05834  -0.05834   2.09962
    A3        2.00856  -0.00332   0.00000  -0.00250  -0.00250   2.00606
    A4        2.11819   0.00580   0.00000   0.04292   0.03996   2.15815
    A5        2.12996  -0.00086   0.00000   0.00088  -0.00214   2.12782
    A6        2.03198  -0.00487   0.00000  -0.03331  -0.03624   1.99575
    A7        1.88025  -0.00478   0.00000  -0.03433  -0.03431   1.84594
    A8        1.97398  -0.00028   0.00000  -0.00452  -0.00441   1.96957
    A9        1.89711   0.00179   0.00000   0.01601   0.01569   1.91281
   A10        1.95351   0.00411   0.00000   0.02174   0.02160   1.97511
   A11        1.90963  -0.00068   0.00000  -0.01577  -0.01596   1.89367
   A12        1.84817  -0.00006   0.00000   0.01755   0.01751   1.86568
   A13        2.01764   0.00394   0.00000   0.01935   0.01931   2.03694
   A14        2.15246  -0.00463   0.00000  -0.01962  -0.01967   2.13280
   A15        2.11294   0.00069   0.00000   0.00055   0.00051   2.11344
   A16        1.93500   0.00571   0.00000   0.02970   0.02970   1.96470
   A17        2.03857  -0.00653   0.00000  -0.04001  -0.03998   1.99859
   A18        1.89424   0.00071   0.00000  -0.00201  -0.00165   1.89258
   A19        1.86669   0.00055   0.00000  -0.00749  -0.00747   1.85923
   A20        1.91212   0.00388   0.00000   0.03335   0.03315   1.94527
   A21        1.88936   0.00284   0.00000   0.01665   0.01609   1.90545
   A22        1.85392  -0.00114   0.00000   0.00196   0.00158   1.85550
   A23        2.36037  -0.00108   0.00000  -0.00748  -0.00777   2.35261
   A24        2.10033   0.00025   0.00000   0.00602   0.00574   2.10607
   A25        1.82166   0.00084   0.00000   0.00295   0.00284   1.82450
   A26        1.94037  -0.00230   0.00000  -0.00706  -0.00700   1.93337
   A27        2.22351   0.00286   0.00000   0.01278   0.01274   2.23625
   A28        2.11927  -0.00056   0.00000  -0.00566  -0.00570   2.11357
   A29        1.83356   0.00359   0.00000   0.01082   0.01081   1.84437
   A30        1.94725  -0.00065   0.00000  -0.00425  -0.00426   1.94299
   A31        2.20100  -0.00015   0.00000   0.00066   0.00066   2.20166
   A32        2.13494   0.00079   0.00000   0.00358   0.00358   2.13852
   A33        1.88193  -0.00149   0.00000  -0.00247  -0.00243   1.87949
   A34        2.18936   0.00201   0.00000   0.01093   0.01085   2.20021
   A35        2.21189  -0.00052   0.00000  -0.00839  -0.00846   2.20343
   A36        1.95872  -0.01368   0.00000  -0.07404  -0.07412   1.88460
   A37        1.90051   0.00262   0.00000   0.01823   0.01874   1.91925
   A38        1.90448   0.00352   0.00000  -0.00228  -0.00251   1.90197
   A39        1.91490   0.00535   0.00000   0.02918   0.02902   1.94393
   A40        1.91885   0.00485   0.00000   0.02037   0.01925   1.93809
   A41        1.86384  -0.00212   0.00000   0.01270   0.01203   1.87587
   A42        1.95453  -0.00437   0.00000  -0.02266  -0.02216   1.93237
   A43        1.90469   0.00491   0.00000   0.04030   0.03915   1.94384
   A44        1.90210   0.00467   0.00000   0.04993   0.04871   1.95080
   A45        1.91711  -0.00253   0.00000  -0.03663  -0.03635   1.88075
   A46        1.91823  -0.00240   0.00000  -0.04782  -0.04743   1.87080
   A47        1.86493   0.00002   0.00000   0.02007   0.01712   1.88205
   A48        1.94253   0.00084   0.00000   0.00090   0.00090   1.94343
   A49        1.95144  -0.00108   0.00000  -0.00726  -0.00726   1.94418
   A50        1.94124   0.00084   0.00000   0.00378   0.00378   1.94503
   A51        1.87242   0.00021   0.00000   0.00438   0.00438   1.87680
   A52        1.88008  -0.00108   0.00000  -0.00649  -0.00649   1.87359
   A53        1.87243   0.00023   0.00000   0.00484   0.00485   1.87728
    D1       -0.01618   0.00019   0.00000   0.05984   0.06048   0.04430
    D2       -3.07086  -0.00070   0.00000  -0.08739  -0.08807   3.12426
    D3        3.12299   0.00073   0.00000   0.06063   0.06131  -3.09889
    D4        0.06831  -0.00016   0.00000  -0.08660  -0.08724  -0.01893
    D5        0.08495   0.00034   0.00000  -0.25250  -0.25283  -0.16788
    D6       -2.03859   0.00072   0.00000  -0.25352  -0.25357  -2.29215
    D7        2.21624  -0.00015   0.00000  -0.27754  -0.27720   1.93904
    D8       -3.05415  -0.00027   0.00000  -0.25350  -0.25380   2.97523
    D9        1.10550   0.00011   0.00000  -0.25452  -0.25454   0.85096
   D10       -0.92286  -0.00076   0.00000  -0.27854  -0.27817  -1.20103
   D11       -2.85022   0.00114   0.00000  -0.13716  -0.13644  -2.98666
   D12        1.26462  -0.00043   0.00000  -0.13677  -0.13631   1.12831
   D13       -0.78264  -0.00136   0.00000  -0.16632  -0.16594  -0.94858
   D14        0.20911   0.00214   0.00000   0.00355   0.00323   0.21234
   D15       -1.95924   0.00057   0.00000   0.00395   0.00337  -1.95587
   D16        2.27669  -0.00036   0.00000  -0.02560  -0.02626   2.25042
   D17        2.89441   0.00076   0.00000   0.05133   0.05161   2.94602
   D18       -0.26562   0.00130   0.00000   0.06843   0.06866  -0.19697
   D19       -1.20813  -0.00024   0.00000   0.03565   0.03570  -1.17243
   D20        1.91503   0.00029   0.00000   0.05276   0.05275   1.96778
   D21        0.83488   0.00172   0.00000   0.06042   0.06017   0.89505
   D22       -2.32515   0.00225   0.00000   0.07752   0.07722  -2.24793
   D23        0.99105  -0.00290   0.00000  -0.12751  -0.12747   0.86358
   D24       -3.12106  -0.00198   0.00000  -0.11429  -0.11422   3.04791
   D25       -1.12758  -0.00268   0.00000  -0.11676  -0.11692  -1.24451
   D26       -1.13672   0.00049   0.00000  -0.09539  -0.09520  -1.23192
   D27        1.03436   0.00141   0.00000  -0.08217  -0.08195   0.95241
   D28        3.02783   0.00071   0.00000  -0.08464  -0.08465   2.94318
   D29        3.06684  -0.00090   0.00000  -0.09915  -0.09921   2.96762
   D30       -1.04528   0.00002   0.00000  -0.08593  -0.08595  -1.13123
   D31        0.94820  -0.00068   0.00000  -0.08840  -0.08866   0.85954
   D32       -0.05555   0.00051   0.00000   0.02279   0.02287  -0.03267
   D33        3.10403   0.00005   0.00000   0.00634   0.00626   3.11029
   D34        0.61609  -0.00023   0.00000  -0.19823  -0.19828   0.41781
   D35       -2.57660   0.00006   0.00000  -0.15170  -0.15181  -2.72841
   D36       -1.54587   0.00053   0.00000  -0.19306  -0.19267  -1.73854
   D37        1.54462   0.00082   0.00000  -0.14653  -0.14619   1.39843
   D38        2.72278  -0.00175   0.00000  -0.22236  -0.22262   2.50016
   D39       -0.46991  -0.00146   0.00000  -0.17583  -0.17615  -0.64606
   D40        3.10171   0.00031   0.00000   0.04161   0.04140  -3.14008
   D41       -0.04850   0.00026   0.00000   0.04829   0.04820  -0.00030
   D42        0.00564   0.00006   0.00000   0.00004  -0.00001   0.00563
   D43        3.13862   0.00001   0.00000   0.00672   0.00678  -3.13778
   D44       -3.10791  -0.00001   0.00000  -0.02946  -0.02967  -3.13758
   D45        0.03830  -0.00053   0.00000  -0.04455  -0.04482  -0.00652
   D46       -0.00345   0.00016   0.00000   0.00403   0.00408   0.00062
   D47       -3.14043  -0.00037   0.00000  -0.01106  -0.01107   3.13168
   D48       -0.00567  -0.00025   0.00000  -0.00418  -0.00419  -0.00985
   D49       -3.13924  -0.00022   0.00000  -0.01051  -0.01054   3.13341
   D50        0.00333   0.00036   0.00000   0.00686   0.00689   0.01022
   D51       -3.13623   0.00038   0.00000   0.01066   0.01062  -3.12562
   D52        0.00006  -0.00033   0.00000  -0.00705  -0.00707  -0.00702
   D53        3.13696   0.00022   0.00000   0.00835   0.00818  -3.13805
   D54        3.13971  -0.00034   0.00000  -0.01070  -0.01064   3.12907
   D55       -0.00657   0.00021   0.00000   0.00471   0.00461  -0.00196
   D56       -3.13052   0.00029   0.00000  -0.08760  -0.08744   3.06522
   D57        1.02622   0.00298   0.00000  -0.05420  -0.05331   0.97291
   D58       -1.00444  -0.00238   0.00000  -0.12842  -0.12916  -1.13360
   D59       -1.01523  -0.00178   0.00000  -0.09352  -0.09379  -1.10902
   D60        3.14150   0.00091   0.00000  -0.06012  -0.05966   3.08185
   D61        1.11085  -0.00445   0.00000  -0.13434  -0.13551   0.97534
   D62        1.02957   0.00166   0.00000  -0.04882  -0.04854   0.98103
   D63       -1.09688   0.00435   0.00000  -0.01542  -0.01441  -1.11129
   D64       -3.12753  -0.00101   0.00000  -0.08964  -0.09026   3.06539
   D65       -1.04681   0.00004   0.00000  -0.00061  -0.00056  -1.04737
   D66       -3.14056  -0.00007   0.00000  -0.00186  -0.00181   3.14081
   D67        1.04976  -0.00020   0.00000  -0.00569  -0.00563   1.04412
   D68        1.07250   0.00159   0.00000   0.00995   0.00984   1.08234
   D69       -1.02125   0.00148   0.00000   0.00870   0.00858  -1.01266
   D70       -3.11412   0.00135   0.00000   0.00488   0.00477  -3.10935
   D71        3.11957  -0.00131   0.00000  -0.01570  -0.01564   3.10393
   D72        1.02582  -0.00142   0.00000  -0.01695  -0.01689   1.00893
   D73       -1.06705  -0.00155   0.00000  -0.02077  -0.02071  -1.08776
         Item               Value     Threshold  Converged?
 Maximum Force            0.017148     0.000450     NO 
 RMS     Force            0.003816     0.000300     NO 
 Maximum Displacement     1.359197     0.001800     NO 
 RMS     Displacement     0.324156     0.001200     NO 
 Predicted change in Energy=-6.932015D-03
 GradGradGradGradGradGradGradGradGradGradGradGradGradGradGradGradGradGrad

                          Input orientation:                          
 ---------------------------------------------------------------------
 Center     Atomic      Atomic             Coordinates (Angstroms)
 Number     Number       Type             X           Y           Z
 ---------------------------------------------------------------------
      1          8           0        1.156770    0.333704    1.696938
      2          6           0        1.094761   -0.367047    0.686390
      3          7           0        0.064503   -1.164186    0.371312
      4          6           0       -1.146754   -1.264372    1.164467
      5          6           0       -1.938604   -2.438248    0.570296
      6          8           0       -2.989529   -2.875827    1.278227
      7          8           0       -1.639286   -2.949478   -0.483613
      8          6           0       -1.952307    0.057146    1.201108
      9          6           0       -2.194001    0.674547   -0.141013
     10          6           0       -2.243451    0.199293   -1.433962
     11          7           0       -2.506864    1.223092   -2.322349
     12          6           0       -2.629930    2.307517   -1.588443
     13          7           0       -2.444524    2.033284   -0.259804
     14          6           0        2.250977   -0.373407   -0.324109
     15          6           0        3.211569    0.743940    0.054353
     16          7           0        4.436430    0.726071   -0.842729
     17          1           0        0.052352   -1.713661   -0.482913
     18          1           0       -0.887802   -1.508949    2.202503
     19          1           0       -3.100242   -2.397576    2.113797
     20          1           0       -2.895490   -0.125319    1.735521
     21          1           0       -1.378632    0.754337    1.819390
     22          1           0       -2.104158   -0.814636   -1.777117
     23          1           0       -2.853193    3.300630   -1.951116
     24          1           0       -2.491366    2.697819    0.499323
     25          1           0        1.861078   -0.238338   -1.340029
     26          1           0        2.750035   -1.351108   -0.289584
     27          1           0        3.552633    0.642651    1.084872
     28          1           0        2.750431    1.726098   -0.049639
     29          1           0        4.942316   -0.162987   -0.766366
     30          1           0        5.091227    1.476269   -0.596862
     31          1           0        4.181001    0.848981   -1.828649
 ---------------------------------------------------------------------
                    Distance matrix (angstroms):
                    1          2          3          4          5
     1  O    0.000000
     2  C    1.231301   0.000000
     3  N    2.279036   1.340201   0.000000
     4  C    2.853698   2.461328   1.451301   0.000000
     5  C    4.305158   3.674869   2.382282   1.535595   0.000000
     6  O    5.260057   4.829666   3.616534   2.450623   1.340554
     7  O    4.832392   3.938639   2.611716   2.407974   1.208996
     8  C    3.160489   3.119214   2.499547   1.548117   2.573927
     9  C    3.836914   3.547601   2.957069   2.561330   3.203229
    10  C    4.624079   3.995034   3.231832   3.177561   3.326650
    11  N    5.510707   4.955074   4.423441   4.493914   4.700609
    12  C    5.387835   5.118738   4.811790   4.747285   5.259312
    13  N    4.436973   4.379887   4.113069   3.819331   4.575983
    14  C    2.404563   1.535573   2.426852   3.815003   4.755641
    15  C    2.662439   2.472780   3.693973   4.925510   6.075920
    16  N    4.166537   3.834040   4.915354   6.258005   7.256074
    17  H    3.187976   2.065734   1.015761   2.086522   2.366048
    18  H    2.798436   2.744649   2.092608   1.097448   2.152180
    19  H    5.075019   4.874279   3.817475   2.449795   1.932214
    20  H    4.078357   4.132942   3.420800   2.163706   2.760982
    21  H    2.572973   2.942595   2.803623   2.134919   3.473673
    22  H    4.901163   4.062301   3.072625   3.125988   2.858999
    23  H    6.179867   5.999553   5.817319   5.784292   6.334722
    24  H    4.509126   4.721091   4.632919   4.236668   5.166214
    25  H    3.169614   2.170296   2.648314   4.046270   4.788166
    26  H    3.053417   2.158897   2.771968   4.160138   4.889234
    27  H    2.492034   2.686896   3.992603   5.072209   6.317469
    28  H    2.743911   2.768435   3.968016   5.060139   6.301837
    29  H    4.543669   4.117745   5.107815   6.482124   7.369569
    30  H    4.695415   4.584352   5.759975   7.037456   8.130450
    31  H    4.673462   4.162814   5.083131   6.466063   7.349176
                    6          7          8          9         10
     6  O    0.000000
     7  O    2.220959   0.000000
     8  C    3.111930   3.460643   0.000000
     9  C    3.905415   3.682205   1.496960   0.000000
    10  C    4.167609   3.344089   2.654913   1.378414   0.000000
    11  N    5.477066   4.641549   3.752561   2.270905   1.380863
    12  C    5.934153   5.462418   3.647593   2.225237   2.148916
    13  N    5.173195   5.052367   2.506325   1.386737   2.186916
    14  C    6.024325   4.668590   4.492132   4.570510   4.664723
    15  C    7.283832   6.120584   5.334074   5.409545   5.680578
    16  N    8.521560   7.110060   6.740970   6.667659   6.726653
    17  H    3.702064   2.094966   3.160749   3.296443   3.136016
    18  H    2.672058   3.139279   2.142105   3.459173   4.240253
    19  H    0.969102   3.030763   2.859443   3.917063   4.479331
    20  H    2.789850   3.805060   1.099311   2.157140   3.252099
    21  H    4.008234   4.369212   1.094282   2.124706   3.411786
    22  H    3.790451   2.539056   3.106910   2.214175   1.079449
    23  H    6.971074   6.533833   4.611757   3.256888   3.202737
    24  H    5.649813   5.795184   2.785003   2.142916   3.168862
    25  H    6.110647   4.509576   4.592014   4.326045   4.128862
    26  H    6.142100   4.675316   5.130045   5.344983   5.352406
[...]
 051691,0.00572323,0.00600024,-0.00003056,0.00012632,0.00196145,0.00094
 399,0.00059824,-0.00044432,-0.00022628,-0.00002962,0.00007198,-0.00001
 654,-0.00001070,0.00000254,0.00000937,0.00000387,0.00000346,0.00001545
 ,-0.00001967,0.00001775,0.00002279,0.00004733,0.00014658,-0.00001105,0
 .00001763,-0.00000884,-0.00005037,0.00003276,-0.00002994,0.02114813,0.
 12620760,0.25230769,-0.00000115,-0.00168488,0.00349403,-0.01705001,0.0
 1771818,-0.01960241,-0.00023215,-0.00106848,0.00192299,-0.00020111,-0.
 00068876,0.00093070,-0.00021967,0.00049422,0.00019972,-0.00012536,-0.0
 0019138,0.00005068,0.00009032,-0.00020659,-0.00000508,0.00026284,-0.00
 019250,0.00008251,0.00018640,-0.00002766,-0.00020131,-0.00024465,-0.00
 010494,0.00002850,0.00041633,-0.00014575,-0.00001800,-0.00009005,0.000
 09751,0.00018249,0.00014805,0.00008439,-0.00001257,-0.12555151,0.08313
 464,-0.09583444,0.00843151,-0.00824421,0.01106332,-0.00095967,-0.00546
 355,0.00162333,-0.00073447,0.00017128,-0.00064360,-0.00009232,-0.00007
 601,-0.00001873,0.00003449,-0.00000069,-0.00005126,-0.00001569,0.00001
 865,-0.00002638,-0.00000400,-0.00000457,0.00000819,0.00004451,-0.00001
 388,0.00009111,-0.00000515,-0.00000525,0.00000590,0.00000588,0.0000076
 4,-0.00000667,-0.00139054,0.00149024,-0.00160081,0.13687082,0.00029005
 ,0.00052278,-0.00160352,0.00490653,-0.00337265,0.00201140,-0.00114250,
 -0.00046044,0.00045252,0.00032600,0.00002946,-0.00029352,-0.00001242,0
 .00023790,0.00002505,-0.00002724,-0.00007150,0.00001045,0.00003847,-0.
 00015131,-0.00000159,-0.00015356,-0.00004561,0.00012064,0.00007184,-0.
 00000837,-0.00004676,-0.00012737,-0.00013151,-0.00006217,0.00032305,-0
 .00008996,0.00000468,-0.00009150,0.00009191,0.00016457,0.00004644,0.00
 008564,-0.00005981,0.07880113,-0.12639697,0.09343700,0.01453731,-0.014
 83199,0.01852016,-0.00289568,-0.00532757,0.00013181,-0.00027032,0.0001
 6809,-0.00007465,-0.00003834,-0.00000237,0.00003594,0.00001649,0.00000
 699,-0.00002082,0.00000695,0.00000630,-0.00000857,-0.00004479,0.000031
 49,-0.00003827,0.00005613,0.00000296,0.00009995,-0.00000119,-0.0000016
 2,0.00000900,0.00001256,0.00000369,0.00000162,-0.00995831,0.01064008,-
 0.01122188,-0.08464806,0.13785059,0.00052643,0.00018921,-0.00313356,0.
 00731945,-0.01007681,0.01170911,0.00018760,0.00086723,-0.00006616,-0.0
 0028012,0.00019116,-0.00024791,-0.00000225,-0.00007177,0.00004258,0.00
 011626,0.00006083,-0.00008873,0.00006036,0.00000296,-0.00004765,-0.000
 02892,0.00000703,-0.00000663,0.00002170,0.00005054,-0.00011779,-0.0000
 8737,0.00001751,-0.00008134,-0.00017369,-0.00004582,0.00002690,-0.0000
 3641,0.00001909,-0.00002541,-0.00004335,0.00007881,0.00012809,-0.08873
 640,0.09220535,-0.14875832,-0.00245653,0.00206029,-0.00438798,0.001160
 05,0.00151915,0.00079216,-0.00013884,0.00011238,-0.00014821,0.00002380
 ,-0.00001339,0.00001882,-0.00001395,0.00000406,0.00002202,-0.00000253,
 -0.00000036,0.00000397,0.00000511,-0.00000997,0.00001348,0.00008655,0.
 00001491,0.00009079,-0.00000582,0.00000773,-0.00000132,0.00000310,0.00
 001066,-0.00000485,-0.01473505,0.01545227,-0.01701308,0.09708404,-0.10
 241244,0.16053236,-0.00004289,-0.00027284,-0.00019614,0.00052885,-0.00
 228338,-0.00034821,-0.00090045,0.00012491,0.00036989,0.00008515,-0.000
 18847,-0.00011692,0.00001835,0.00017465,-0.00004186,-0.00006777,-0.000
 06559,0.00005936,-0.00002271,-0.00008432,0.00000401,-0.00001810,-0.000
 01868,0.00004606,-0.00001467,-0.00001815,-0.00000378,-0.00001446,0.000
 05395,0.00002153,-0.00017982,0.00003150,0.00002896,0.00000637,-0.00007
 027,-0.00001886,-0.00002056,0.00001774,0.00001201,-0.01252090,0.002127
 26,0.00346678,-0.31432988,0.04845026,0.02619916,-0.00664965,0.00327873
 ,-0.00204522,0.00000318,0.00012227,0.00004401,0.00000178,0.00001115,0.
 00000290,0.00002238,0.00000376,-0.00002480,0.00000150,0.00000222,-0.00
 000410,-0.00001277,0.00001341,-0.00001108,0.00000677,-0.00000133,0.000
 02153,-0.00000225,-0.00000594,0.00000197,0.00000973,-0.00001910,-0.000
 00374,-0.00006551,-0.00001679,-0.00032333,0.00095600,0.00022710,0.0001
 8078,0.33416162,0.00068647,0.00186251,-0.00006771,-0.00026865,-0.00702
 997,-0.00211195,-0.00220974,0.00063757,0.00103416,0.00008821,-0.000430
 72,-0.00015593,-0.00007474,0.00021283,-0.00003731,-0.00009655,-0.00010
 598,0.00008749,-0.00003568,-0.00007787,0.00000930,-0.00007014,-0.00006
 131,0.00006783,0.00006707,-0.00003068,-0.00005165,-0.00009970,-0.00023
 870,-0.00004835,0.00122220,-0.00040025,-0.00009946,-0.00013826,0.00025
 466,0.00035588,0.00024624,0.00010273,-0.00028049,-0.02900710,0.0039626
 3,0.00589482,0.04539771,-0.05795468,-0.00673503,0.01936021,-0.00655781
 ,0.00351915,0.00005236,0.00020695,0.00006506,-0.00002715,0.00001352,0.
 00001904,0.00003201,-0.00000378,-0.00002350,0.00000061,0.00001112,-0.0
 0000773,-0.00001623,0.00004036,-0.00004107,0.00000195,-0.00000239,0.00
 004544,0.00001305,0.00000055,0.00000817,-0.00000006,0.00002348,0.00000
 159,0.00017394,0.00020892,-0.00052388,-0.00017344,0.00138859,-0.000032
 32,-0.05189451,0.06547201,0.00111406,0.00141734,0.00007268,0.00070871,
 -0.00075066,-0.00014312,0.00079478,0.00025576,-0.00006641,-0.00030179,
 0.00019866,0.00004803,-0.00002774,-0.00010847,0.00011597,0.00011535,0.
 00006542,-0.00009070,0.00007119,0.00004952,-0.00004937,0.00004350,0.00
 004824,-0.00002477,-0.00014765,0.00003081,0.00010442,0.00013245,0.0004
 3427,0.00009187,-0.00215127,0.00055011,0.00009171,0.00013261,-0.000366
 62,-0.00056421,-0.00033443,-0.00022140,0.00046391,0.00253554,-0.001189
 58,-0.00054922,0.03465942,-0.00977239,-0.05327388,-0.03863428,0.013738
 10,-0.00712838,-0.00000999,-0.00009383,0.00001016,-0.00000292,-0.00002
 043,-0.00000360,-0.00003377,0.00000326,0.00001660,-0.00000525,-0.00001
 210,0.00000616,0.00002187,-0.00003784,0.00003603,-0.00000754,-0.000000
 60,-0.00006029,-0.00005232,0.00005389,-0.00003675,-0.00003045,-0.00003
 700,0.00000876,-0.00006629,0.00039459,0.00003353,0.00111730,0.00044269
 ,0.00033807,-0.02681523,-0.00248857,0.06107423,-0.00056374,0.00175137,
 0.00110850,-0.00101786,-0.00374035,-0.00216728,0.00118145,0.00183870,0
 .00066861,-0.00032083,0.00017011,0.00026691,-0.00015132,-0.00031640,0.
 00014305,0.00014517,0.00010619,-0.00010742,0.00008448,0.00021837,-0.00
 002531,0.00003507,0.00001838,-0.00010341,-0.00006568,0.00004593,-0.000
 01269,0.00013868,0.00000050,-0.00004618,-0.00033489,0.00005305,0.00017
 983,-0.00002321,0.00009132,-0.00007431,-0.00010174,-0.00007763,0.00022
 080,0.00325027,-0.01122152,-0.01369211,-0.05801682,0.03355872,0.039441
 67,0.00118426,-0.00732784,-0.01336515,0.00037141,0.00001810,-0.0001892
 6,-0.00007895,-0.00007308,0.00000304,-0.00005526,-0.00001246,0.0000442
 0,-0.00000358,0.00000024,0.00000680,0.00003681,-0.00003849,0.00002486,
 0.00003752,0.00002302,-0.00000178,-0.00003244,0.00007290,-0.00004505,-
 0.00007290,0.00003972,-0.00001345,-0.00187904,-0.00305570,0.00080092,0
 .00015292,0.00021847,0.00011829,-0.00243054,0.01914910,0.02374857,0.05
 765854,0.00185775,0.00245022,0.00101030,0.00126663,-0.00266858,-0.0027
 7357,0.00015938,0.00050563,0.00019091,0.00002996,0.00007744,0.00003064
 ,0.00003323,-0.00010229,-0.00001710,-0.00000877,0.00001921,0.00001262,
 -0.00002848,0.00007288,0.00003063,-0.00000691,-0.00000883,-0.00000988,
 0.00000091,-0.00005810,-0.00006162,-0.00007790,-0.00013343,0.00000765,
 0.00024069,-0.00012498,-0.00002023,-0.00004101,0.00013970,0.00007616,0
 .00010124,0.00005766,-0.00006208,0.00068687,-0.01869600,-0.02066123,0.
 03116135,-0.16334694,-0.13831867,-0.00196717,0.01155288,0.02130143,0.0
 0020560,0.00016448,-0.00012275,-0.00005812,0.00001219,0.00003097,-0.00
 000965,-0.00000168,0.00000083,0.00000538,-0.00000174,0.00000507,0.0000
 0266,0.00000037,-0.00000003,0.00000343,-0.00002589,0.00003384,0.000054
 12,-0.00002693,0.00003356,-0.00000444,0.00002800,-0.00000676,-0.002195
 51,-0.00388222,0.00196498,0.00029887,0.00010596,0.00009100,-0.00007786
 ,-0.00208989,-0.00270391,-0.03179464,0.17598280,0.00132968,0.00083054,
 -0.00172967,0.00131756,0.00063942,0.00021564,-0.00024460,-0.00092699,-
 0.00026667,0.00011214,0.00000194,-0.00002660,-0.00000798,0.00004180,0.
 00001697,0.00000206,-0.00001096,-0.00001412,-0.00000306,-0.00004202,-0
 .00001123,-0.00000950,-0.00000331,0.00000755,0.00002052,0.00005259,0.0
 0002437,0.00002439,-0.00001834,-0.00004492,-0.00010003,0.00009627,0.00
 000461,-0.00011561,-0.00002907,0.00005011,-0.00001075,-0.00001032,-0.0
 0001225,-0.00226157,0.00104922,0.00711337,0.03100195,-0.12732422,-0.20
 525686,0.00278744,-0.01405948,-0.02857737,-0.00024499,-0.00002861,0.00
 016922,0.00003431,0.00001990,0.00000028,0.00000929,0.00000228,0.000004
 36,0.00000017,0.00000243,-0.00000332,-0.00000153,0.00000699,-0.0000039
 5,0.00000620,0.00002203,-0.00001461,-0.00003360,0.00002237,0.00000390,
 0.00001433,-0.00000668,0.00002612,0.00173247,0.00128710,0.00014807,-0.
 00050716,-0.00048226,0.00013569,0.00078673,-0.00011923,0.00133982,-0.0
 3482874,0.13659855,0.22931352,0.00005968,-0.00016980,-0.00004502,-0.00
 007493,0.00015702,0.00031652,-0.00009104,-0.00001602,-0.00014005,0.000
 00415,0.00002493,0.00001156,-0.00011260,-0.00014424,0.00005436,0.00007
 180,0.00004486,-0.00005967,0.00002485,0.00008423,-0.00002223,-0.000000
 82,-0.00004005,0.00006680,-0.00026841,-0.00016796,0.00050622,-0.000327
 38,0.00045385,0.00038036,-0.00223979,-0.00085667,-0.00216582,0.0006612
 9,0.00020627,-0.00046337,0.00014400,-0.00061519,-0.00038308,-0.0001669
 6,0.00030565,0.00120116,0.00192333,-0.00674272,-0.00979055,-0.06701129
 ,0.03825723,0.05584772,-0.00000142,-0.00009342,0.00007932,0.00001260,0
 .00000056,-0.00000682,-0.00001738,-0.00000966,0.00003542,-0.00001512,-
 0.00000653,0.00000044,0.00001592,0.00001456,-0.00002531,-0.00046103,-0
 .00026574,-0.00020230,0.00001011,-0.00000529,-0.00004571,-0.00000224,-
 0.00001113,0.00002142,0.00033259,-0.00030311,0.00001558,-0.00011481,-0
 .00016877,-0.00022262,-0.00024774,-0.00055076,-0.00074445,-0.00054186,
 0.00152355,-0.00165172,0.06139505,0.00013429,-0.00074691,-0.00033919,-
 0.00086567,0.00057985,0.00026654,0.00008673,-0.00013118,-0.00009046,-0
 .00010411,-0.00000378,0.00002067,-0.00007316,0.00006496,0.00009093,0.0
 0006922,-0.00000155,-0.00005391,0.00005793,-0.00005340,-0.00005956,0.0
 0000363,0.00004710,-0.00002271,-0.00008383,0.00000827,0.00007879,0.000
 22985,0.00034665,0.00015901,-0.00020391,0.00053226,0.00054248,0.000054
 96,-0.00029637,-0.00028853,-0.00023461,-0.00013861,0.00017338,0.000809
 01,0.00249848,0.00137373,-0.00441200,0.01388533,0.01552423,0.03007656,
 -0.17508608,-0.15864674,-0.00007977,-0.00005823,0.00009007,0.00002147,
 -0.00000949,-0.00001391,-0.00001187,0.00000605,0.00000527,-0.00001146,
 -0.00001117,0.00000307,0.00000584,-0.00001778,0.00000834,-0.00014038,0
 .00002865,-0.00008033,-0.00001001,0.00000815,-0.00001203,-0.00002776,-
 0.00002393,-0.00000853,-0.00034562,-0.00091597,-0.00080330,0.00001695,
 -0.00011228,-0.00028672,-0.00006075,0.00043543,-0.00029776,0.00143273,
 -0.00195573,0.00375131,-0.03581103,0.18293012,-0.00020453,0.00030908,0
 .00033789,0.00096137,-0.00034007,-0.00044270,-0.00039832,-0.00007315,0
 .00009236,0.00010526,-0.00010790,-0.00005835,0.00011062,0.00018751,-0.
 00005059,-0.00009738,-0.00006474,0.00006606,-0.00005797,-0.00010728,-0
 .00000521,0.00000698,0.00003354,0.00005286,-0.00007724,-0.00005978,0.0
 0001557,-0.00007483,0.00026082,0.00005558,-0.00105310,0.00014220,-0.00
 051914,0.00016462,-0.00010932,-0.00026668,-0.00010092,-0.00006986,0.00
 013341,0.00046874,-0.00076765,0.00161244,0.00463414,-0.01561474,-0.023
 68900,0.04691831,-0.16470486,-0.28428157,0.00004654,0.00010461,0.00002
 706,-0.00001215,0.00001802,0.00000246,0.00003318,0.00000719,-0.0000274
 0,0.00000357,-0.00001214,0.00000378,-0.00002129,0.00000610,-0.00000194
 ,-0.00003100,-0.00001592,0.00017303,0.00001246,-0.00001476,-0.00000860
 ,0.00005375,-0.00004977,0.00001439,0.00050293,0.00117077,0.00006031,-0
 .00040615,-0.00026007,0.00047156,-0.00028504,-0.00045493,0.00137618,-0
 .00260801,0.00407171,-0.00288572,-0.05081031,0.17207714,0.30095801,0.0
 0008235,0.00006453,-0.00009404,-0.00035070,0.00012729,-0.00014632,0.00
 018414,0.00008827,-0.00000908,-0.00001343,0.00007920,0.00003192,-0.000
 10902,-0.00015926,0.00003939,0.00007542,0.00005099,-0.00005738,0.00003
 305,0.00009379,-0.00000428,-0.00002485,-0.00006145,-0.00004645,0.00029
 717,0.00029973,-0.00010671,0.00049453,-0.00001309,-0.00032888,-0.00126
 730,0.00246939,0.00012582,-0.00050914,0.00001359,-0.00004478,-0.000052
 74,0.00008135,0.00020477,-0.00057891,0.00095894,-0.00219519,0.00746695
 ,0.01126600,-0.00029963,-0.16345239,-0.16987128,0.01897354,-0.00001530
 ,-0.00005246,-0.00001159,0.00000068,-0.00000873,-0.00000084,-0.0000212
 6,-0.00000928,0.00003165,-0.00000671,0.00000505,-0.00000271,0.00002026
 ,0.00000939,-0.00001281,0.00008310,-0.00001103,0.00007307,-0.00013366,
 0.00006263,0.00001564,0.00004515,-0.00002389,0.00007384,-0.00013580,-0
 .00018221,0.00006579,0.00037690,0.00056698,-0.00031390,0.00012666,0.00
 102620,-0.00009367,0.00028474,-0.00034122,0.00041557,0.00418563,0.0088
 2648,-0.00051795,0.16522789,0.00019693,0.00015051,-0.00008816,-0.00008
 714,-0.00030802,0.00017164,0.00015191,0.00006591,-0.00004296,-0.000033
 71,0.00006489,0.00000511,-0.00008840,-0.00008814,0.00005848,0.00007640
 ,0.00003552,-0.00005690,0.00003933,0.00004489,-0.00001954,-0.00001287,
 -0.00001768,-0.00001886,-0.00006069,-0.00015360,0.00000137,-0.00019205
 ,-0.00030097,0.00010807,0.00174408,-0.00137360,0.00017155,-0.00000694,
 0.00038063,0.00041772,0.00032178,0.00006231,-0.00042406,0.00187780,-0.
 00046734,0.00238406,-0.00724586,-0.01138253,0.00210420,-0.15858978,-0.
 30002173,0.02462944,-0.00001160,-0.00004346,0.00002069,0.00000363,-0.0
 0000737,-0.00000028,-0.00002126,-0.00000243,0.00002328,-0.00000643,0.0
 0000222,0.00000185,0.00001210,-0.00000016,-0.00000514,-0.00006045,-0.0
 0003803,-0.00004021,0.00014600,-0.00001287,-0.00001480,-0.00004351,0.0
 0008302,-0.00002542,0.00023521,0.00045255,0.00001989,-0.00065617,-0.00
 037143,0.00023487,0.00033501,0.00009887,-0.00079740,-0.00031291,0.0011
 5358,-0.00054672,-0.01314298,-0.01693968,0.00409708,0.17463612,0.31738
 612,0.00001533,-0.00052110,-0.00024001,-0.00076617,0.00051957,0.000520
 71,0.00017513,-0.00014717,-0.00005081,-0.00004641,-0.00001823,0.000056
 88,0.00001769,0.00006049,0.00001530,-0.00000507,-0.00001116,-0.0000040
 1,0.00000850,-0.00004644,-0.00001135,0.00005430,0.00000865,0.00000010,
 0.00002448,-0.00000928,-0.00010781,-0.00011954,-0.00010800,-0.00005871
 ,-0.00013832,0.00009149,-0.00016882,0.00001129,0.00008266,0.00005003,0
 .00005036,0.00006600,-0.00000893,-0.00333452,0.00135121,-0.00531092,0.
 01801291,0.02490065,-0.00169274,0.02225843,0.03116214,-0.06247156,-0.0
 0005261,-0.00000204,-0.00005950,0.00000983,0.00000336,-0.00000237,0.00
 000501,0.00000550,-0.00000339,0.00000161,-0.00000434,0.00000179,-0.000
 00025,-0.00000662,0.00001170,0.00006596,0.00003243,0.00007087,0.000082
 06,-0.00005088,0.00004076,0.00004366,0.00000714,0.00002005,-0.00020064
 ,-0.00023018,0.00026679,0.00100430,0.00138418,-0.00019969,-0.00020619,
 -0.00021122,0.00124432,0.00093813,-0.00026495,-0.00009121,-0.02003788,
 -0.02738998,0.00519905,-0.01876971,-0.03079110,0.06327113,-0.00493843,
 0.00117158,0.00001423,0.00826110,-0.00081977,-0.00119957,-0.00432488,-
 0.00039187,-0.00043381,0.00233384,0.00059489,-0.00056125,-0.00080104,-
 0.00184471,-0.00052392,0.00006238,0.00033549,-0.00008224,-0.00036394,0
 .00118926,0.00043581,-0.00093396,-0.00121481,0.00008427,0.00321515,-0.
 00142481,-0.00452203,-0.00863688,-0.01213616,-0.00130689,0.01896433,-0
 .01696746,0.00618061,-0.00649844,0.00924634,0.01501950,0.00813779,0.00
 622347,-0.00880065,0.00086724,0.00101159,0.00173668,0.00320619,0.00744
 079,-0.01458404,-0.18588564,0.02905055,0.00774111,0.00055584,0.0000719
 0,0.00023305,-0.00003910,-0.00000555,0.00015451,-0.00000478,-0.0001653
 3,0.00034748,0.00000333,0.00029263,-0.00009274,-0.00000657,0.00041897,
 -0.00050170,0.00149918,0.00067275,0.00138569,0.00170642,-0.00073560,0.
 00070156,-0.00034285,0.00153428,-0.00005019,-0.00023208,0.00014179,-0.
 00003075,-0.00094466,-0.00086545,0.00038426,0.00161233,-0.00285461,0.0
 0426369,0.00112930,-0.00101993,0.00042602,0.00285381,0.00065028,0.0027
 3373,-0.01231342,0.00079645,0.00089835,0.17185843,0.00120292,-0.000307
 20,-0.00032549,-0.00277278,-0.00036969,0.00121497,0.00127689,0.0001635
 0,-0.00003667,-0.00079193,-0.00018559,0.00024688,0.00010012,0.00033752
 ,0.00026165,0.00009111,-0.00002599,-0.00006971,0.00015674,-0.00023004,
 -0.00015587,0.00028240,0.00035653,0.00035519,-0.00223588,-0.00170009,0
 .00194736,-0.00619533,0.00327649,0.00277500,-0.00833817,-0.01148762,-0
 .00677125,0.00482392,-0.00179051,-0.00290496,-0.00115488,-0.00230067,0
 .00055835,0.00045897,-0.00027253,-0.00080699,0.01129934,-0.00470524,0.
 00165926,0.03606800,-0.07551745,-0.00300069,-0.00015413,-0.00013348,-0
 .00002486,0.00001990,-0.00001641,-0.00003874,-0.00002971,0.00003520,-0
 .00005494,-0.00000022,-0.00004428,0.00002706,0.00000085,-0.00017396,0.
 00017177,-0.00074123,-0.00045178,-0.00082215,-0.00018440,0.00009840,-0
 .00018409,-0.00030998,-0.00012163,-0.00013368,0.00013572,-0.00042675,-
 0.00007563,0.00006419,0.00020314,-0.00024743,0.00010405,0.00005127,0.0
 0121589,-0.00083588,0.00080023,-0.00081654,0.01804837,-0.00486916,0.00
 034119,-0.02999203,0.01154802,0.00013724,-0.02039693,0.08825978,-0.000
 28102,-0.00166085,0.00021792,0.00071272,0.00290954,0.00068064,-0.00051
 796,-0.00069727,-0.00042385,0.00014262,-0.00013717,-0.00006490,0.00013
 631,0.00017068,-0.00007345,-0.00011990,-0.00006582,0.00006645,-0.00008
 056,-0.00011601,-0.00000118,0.00031924,-0.00010000,0.00011604,-0.00006
 592,0.00042681,0.00074028,-0.00027603,0.00077141,-0.00043059,-0.001070
 38,-0.00609048,-0.00999795,0.00610259,0.00266433,-0.00200451,0.0010829
 9,-0.00196609,-0.00157455,0.00041251,-0.00014197,0.00098216,-0.0253220
 4,0.00454718,0.00328294,-0.00145536,-0.00049263,-0.06549290,-0.0000350
 3,0.00003774,0.00008157,0.00002154,0.00004150,-0.00000375,0.00004446,0
 .00000122,-0.00001238,-0.00002691,-0.00002289,0.00000513,-0.00000451,0
 .00010609,-0.00006107,-0.00031389,-0.00011414,0.00000854,-0.00002255,-
 0.00019300,-0.00021464,0.00041624,0.00021097,-0.00013840,0.00015638,0.
 00005296,-0.00005299,0.00004546,-0.00026532,0.00000306,-0.00080118,0.0
 0238238,-0.00448175,-0.00043402,-0.00046805,0.00036491,0.02828002,-0.0
 0577130,0.00158490,0.00300494,-0.00157774,-0.00028766,-0.01005077,0.00
 555789,0.07718198\\-0.00000112,0.00000048,-0.00000225,-0.00000544,0.00
 000070,-0.00000225,0.00001110,0.00000751,-0.00000365,-0.00001131,0.000
 01059,-0.00000945,-0.00000076,-0.00000105,0.00000158,0.00000208,-0.000
 00061,-0.00000013,-0.00000032,-0.00000244,0.00000347,0.00000892,-0.000
 01756,-0.00000035,0.00001191,0.00000053,0.00000423,-0.00000509,-0.0000
 0394,0.00000418,-0.00000491,0.00000041,0.00000260,0.00000420,0.0000042
 1,-0.00000086,0.00000044,-0.00000234,-0.00000181,0.00000543,-0.0000021
 8,-0.00001438,-0.00001133,0.00001774,0.00000715,0.00001564,-0.00001702
 ,-0.00000458,-0.00000926,0.00000047,0.00000161,-0.00000100,-0.00000649
 ,0.00000387,0.00000156,-0.00000088,0.00000032,-0.00000270,-0.00000391,
 0.00000883,-0.00000495,0.00000928,-0.00000359,-0.00000086,0.00000132,0
 .00000047,0.00000091,-0.00000126,0.00000106,0.00000147,0.00000083,0.00
 000107,0.00000543,-0.00000259,-0.00000012,-0.00000295,-0.00000186,0.00
 000177,-0.00000032,-0.00000109,-0.00000381,-0.00000008,-0.00000303,-0.
 00000348,0.00000129,0.00000017,0.00000070,-0.00000100,-0.00000072,-0.0
 0000021,-0.00000698,0.00001475,0.00000801\\\@


 ... A MOLECULAR SYSTEM ... (PASSES) ... FROM ONE STATE OF EQUILIBRIUM 
 TO ANOTHER ... BY MEANS OF ALL POSSIBLE INTERMEDIATE PATHS, 
 BUT THE PATH MOST ECONOMICAL OF ENERGY WILL BE THE MORE OFTEN TRAVELED.

                      -- HENRY EYRING, 1945
 Job cpu time:       0 days  3 hours  6 minutes 14.8 seconds.
 File lengths (MBytes):  RWF=    460 Int=      0 D2E=      0 Chk=     13 Scr=      1
 Normal termination of Gaussian 09 at Sat Jul 24 07:11:26 2021.
