 Entering Gaussian System, Link 0=g09
 Input=opt_freq-conf-490.com
 Output=opt_freq-conf-490.log
 Initial command:
 /aerosol/software/g09/l1.exe "/scratch/nicole/10407/Gau-73629.inp" -scrdir="/scratch/nicole/10407/"
 Entering Link 1 = /aerosol/software/g09/l1.exe PID=     73631.
  
 Copyright (c) 1988,1990,1992,1993,1995,1998,2003,2009,2013,
            Gaussian, Inc.  All Rights Reserved.
  
 This is part of the Gaussian(R) 09 program.  It is based on
 the Gaussian(R) 03 system (copyright 2003, Gaussian, Inc.),
 the Gaussian(R) 98 system (copyright 1998, Gaussian, Inc.),
 the Gaussian(R) 94 system (copyright 1995, Gaussian, Inc.),
 the Gaussian 92(TM) system (copyright 1992, Gaussian, Inc.),
 the Gaussian 90(TM) system (copyright 1990, Gaussian, Inc.),
 the Gaussian 88(TM) system (copyright 1988, Gaussian, Inc.),
 the Gaussian 86(TM) system (copyright 1986, Carnegie Mellon
 University), and the Gaussian 82(TM) system (copyright 1983,
 Carnegie Mellon University). Gaussian is a federally registered
 trademark of Gaussian, Inc.
  
 This software contains proprietary and confidential information,
 including trade secrets, belonging to Gaussian, Inc.
  
 This software is provided under written license and may be
 used, copied, transmitted, or stored only in accord with that
 written license.
  
 The following legend is applicable only to US Government
 contracts under FAR:
  
                    RESTRICTED RIGHTS LEGEND
  
 Use, reproduction and disclosure by the US Government is
 subject to restrictions as set forth in subparagraphs (a)
 and (c) of the Commercial Computer Software - Restricted
 Rights clause in FAR 52.227-19.
  
 Gaussian, Inc.
 340 Quinnipiac St., Bldg. 40, Wallingford CT 06492
  
  
 ---------------------------------------------------------------
 Warning -- This program may not be used in any manner that
 competes with the business of Gaussian, Inc. or will provide
 assistance to any competitor of Gaussian, Inc.  The licensee
 of this program is prohibited from giving any competitor of
 Gaussian, Inc. access to this program.  By using this program,
 the user acknowledges that Gaussian, Inc. is engaged in the
 business of creating and licensing software in the field of
 computational chemistry and represents and warrants to the
 licensee that it is not a competitor of Gaussian, Inc. and that
 it will not use this program in any manner prohibited above.
 ---------------------------------------------------------------
  

 Cite this work as:
 Gaussian 09, Revision D.01,
 M. J. Frisch, G. W. Trucks, H. B. Schlegel, G. E. Scuseria, 
 M. A. Robb, J. R. Cheeseman, G. Scalmani, V. Barone, B. Mennucci, 
 G. A. Petersson, H. Nakatsuji, M. Caricato, X. Li, H. P. Hratchian, 
 A. F. Izmaylov, J. Bloino, G. Zheng, J. L. Sonnenberg, M. Hada, 
 M. Ehara, K. Toyota, R. Fukuda, J. Hasegawa, M. Ishida, T. Nakajima, 
 Y. Honda, O. Kitao, H. Nakai, T. Vreven, J. A. Montgomery, Jr., 
 J. E. Peralta, F. Ogliaro, M. Bearpark, J. J. Heyd, E. Brothers, 
 K. N. Kudin, V. N. Staroverov, T. Keith, R. Kobayashi, J. Normand, 
 K. Raghavachari, A. Rendell, J. C. Burant, S. S. Iyengar, J. Tomasi, 
 M. Cossi, N. Rega, J. M. Millam, M. Klene, J. E. Knox, J. B. Cross, 
 V. Bakken, C. Adamo, J. Jaramillo, R. Gomperts, R. E. Stratmann, 
 O. Yazyev, A. J. Austin, R. Cammi, C. Pomelli, J. W. Ochterski, 
 R. L. Martin, K. Morokuma, V. G. Zakrzewski, G. A. Voth, 
 P. Salvador, J. J. Dannenberg, S. Dapprich, A. D. Daniels, 
 O. Farkas, J. B. Foresman, J. V. Ortiz, J. Cioslowski, 
 and D. J. Fox, Gaussian, Inc., Wallingford CT, 2013.
 
 ******************************************
 Gaussian 09:  ES64L-G09RevD.01 24-Apr-2013
                24-Jul-2021 
 ******************************************
 %mem=2gb
 %nproc=4
 Will use up to    4 processors via shared memory.
 %chk=conf-490.chk
 ----------------------------------------------------------------------
 # B3LYP/6-311G(d,p) EmpiricalDispersion=GD3BJ opt=calcfc freq=noraman 
 nosymm integral(ultrafinegrid)
 ----------------------------------------------------------------------
 1/10=4,14=-1,18=20,19=15,26=4,38=1/1,3;
 2/9=110,12=2,15=1,17=6,18=5,40=1/2;
 3/5=4,6=6,7=101,11=2,16=1,25=1,30=1,71=2,74=-5,75=-5,124=41,140=1/1,2,3;
 4//1;
 5/5=2,38=5/2;
 8/6=4,10=90,11=11/1;
 11/6=1,8=1,9=11,15=111,16=1,31=1/1,2,10;
 10/6=1,13=1,31=1/2;
 6/7=2,8=2,9=2,10=2,28=1/1;
 7/10=1,18=20,25=1,30=1/1,2,3,16;
 1/10=4,14=-1,18=20,19=15,26=4/3(2);
 2/9=110,15=1/2;
 99//99;
 2/9=110,15=1/2;
 3/5=4,6=6,7=101,11=2,16=1,25=1,30=1,71=1,74=-5,75=-5,124=41/1,2,3;
 4/5=5,16=3,69=1/1;
 5/5=2,38=5/2;
 7/30=1/1,2,3,16;
 1/14=-1,18=20,19=15,26=4/3(-5);
 2/9=110,15=1/2;
 6/7=2,8=2,9=2,10=2,19=2,28=1/1;
 99/9=1/99;
 ------------------------------------------------------------
 Candidate Structure: Conf:490 OPT and FREQ calc in gas phase
 ------------------------------------------------------------
 Symbolic Z-matrix:
 Charge =  0 Multiplicity = 1
 O                     0.913     0.9289   -2.24247 
 C                     1.56627   0.4006   -1.35321 
 N                     1.05027   0.12252  -0.13577 
 C                    -0.32435   0.42458   0.18659 
 C                    -0.43043   0.50298   1.702 
 O                    -1.3911    1.30232   2.19774 
 O                     0.28298  -0.12782   2.43433 
 C                    -1.257    -0.67083  -0.37914 
 C                    -2.70556  -0.35734  -0.2054 
 C                    -3.62833   0.20778  -1.04377 
 N                    -4.84486   0.36254  -0.40561 
 C                    -4.65235  -0.10291   0.80672 
 N                    -3.384    -0.55819   0.97765 
 C                     3.01793  -0.01984  -1.55981 
 C                     3.91774   0.14247  -0.34199 
 N                     3.5602   -0.81054   0.72089 
 H                     1.63306  -0.33931   0.55327 
 H                    -0.58842   1.37988  -0.27792 
 H                    -1.92064   1.69836   1.49395 
 H                    -1.03512  -0.75151  -1.44155 
 H                    -1.00271  -1.62409   0.08654 
 H                    -3.48786   0.51616  -2.06882 
 H                    -5.37716  -0.13527   1.60067 
 H                    -2.98236  -0.89499   1.84194 
 H                     3.0311   -1.06763  -1.88145 
 H                     3.38508   0.57857  -2.39458 
 H                     4.96258   0.03916  -0.65667 
 H                     3.80551   1.15342   0.05491 
 H                     4.0109   -0.55718   1.58976 
 H                     3.87546  -1.74291   0.48584 
 

 GradGradGradGradGradGradGradGradGradGradGradGradGradGradGradGradGradGrad
 Berny optimization.
 Initialization pass.
                           ----------------------------
                           !    Initial Parameters    !
                           ! (Angstroms and Degrees)  !
 --------------------------                            --------------------------
 ! Name  Definition              Value          Derivative Info.                !
 --------------------------------------------------------------------------------
 ! R1    R(1,2)                  1.2234         calculate D2E/DX2 analytically  !
 ! R2    R(2,3)                  1.3512         calculate D2E/DX2 analytically  !
 ! R3    R(2,14)                 1.5254         calculate D2E/DX2 analytically  !
 ! R4    R(3,4)                  1.4439         calculate D2E/DX2 analytically  !
 ! R5    R(3,17)                 1.0138         calculate D2E/DX2 analytically  !
 ! R6    R(4,5)                  1.5211         calculate D2E/DX2 analytically  !
 ! R7    R(4,8)                  1.5459         calculate D2E/DX2 analytically  !
 ! R8    R(4,18)                 1.0946         calculate D2E/DX2 analytically  !
 ! R9    R(5,6)                  1.3445         calculate D2E/DX2 analytically  !
 ! R10   R(5,7)                  1.2013         calculate D2E/DX2 analytically  !
 ! R11   R(6,19)                 0.9657         calculate D2E/DX2 analytically  !
 ! R12   R(8,9)                  1.4922         calculate D2E/DX2 analytically  !
 ! R13   R(8,20)                 1.0883         calculate D2E/DX2 analytically  !
 ! R14   R(8,21)                 1.091          calculate D2E/DX2 analytically  !
 ! R15   R(9,10)                 1.3688         calculate D2E/DX2 analytically  !
 ! R16   R(9,13)                 1.3785         calculate D2E/DX2 analytically  !
 ! R17   R(10,11)                1.3824         calculate D2E/DX2 analytically  !
 ! R18   R(10,22)                1.0796         calculate D2E/DX2 analytically  !
 ! R19   R(11,12)                1.3128         calculate D2E/DX2 analytically  !
 ! R20   R(12,13)                1.3584         calculate D2E/DX2 analytically  !
 ! R21   R(12,23)                1.0755         calculate D2E/DX2 analytically  !
 ! R22   R(13,24)                1.0108         calculate D2E/DX2 analytically  !
 ! R23   R(14,15)                1.5229         calculate D2E/DX2 analytically  !
 ! R24   R(14,25)                1.0961         calculate D2E/DX2 analytically  !
 ! R25   R(14,26)                1.0907         calculate D2E/DX2 analytically  !
 ! R26   R(15,16)                1.4717         calculate D2E/DX2 analytically  !
 ! R27   R(15,27)                1.0961         calculate D2E/DX2 analytically  !
 ! R28   R(15,28)                1.0919         calculate D2E/DX2 analytically  !
 ! R29   R(16,29)                1.0111         calculate D2E/DX2 analytically  !
 ! R30   R(16,30)                1.0119         calculate D2E/DX2 analytically  !
 ! A1    A(1,2,3)              122.6757         calculate D2E/DX2 analytically  !
 ! A2    A(1,2,14)             121.9219         calculate D2E/DX2 analytically  !
 ! A3    A(3,2,14)             115.3873         calculate D2E/DX2 analytically  !
 ! A4    A(2,3,4)              121.4445         calculate D2E/DX2 analytically  !
 ! A5    A(2,3,17)             119.1189         calculate D2E/DX2 analytically  !
 ! A6    A(4,3,17)             119.3977         calculate D2E/DX2 analytically  !
 ! A7    A(3,4,5)              107.4332         calculate D2E/DX2 analytically  !
 ! A8    A(3,4,8)              110.1472         calculate D2E/DX2 analytically  !
 ! A9    A(3,4,18)             108.5134         calculate D2E/DX2 analytically  !
 ! A10   A(5,4,8)              111.0402         calculate D2E/DX2 analytically  !
 ! A11   A(5,4,18)             111.1595         calculate D2E/DX2 analytically  !
 ! A12   A(8,4,18)             108.5163         calculate D2E/DX2 analytically  !
 ! A13   A(4,5,6)              116.6033         calculate D2E/DX2 analytically  !
 ! A14   A(4,5,7)              122.6042         calculate D2E/DX2 analytically  !
 ! A15   A(6,5,7)              120.7797         calculate D2E/DX2 analytically  !
 ! A16   A(5,6,19)             111.5252         calculate D2E/DX2 analytically  !
 ! A17   A(4,8,9)              113.215          calculate D2E/DX2 analytically  !
 ! A18   A(4,8,20)             106.6644         calculate D2E/DX2 analytically  !
 ! A19   A(4,8,21)             108.803          calculate D2E/DX2 analytically  !
 ! A20   A(9,8,20)             109.095          calculate D2E/DX2 analytically  !
 ! A21   A(9,8,21)             111.1082         calculate D2E/DX2 analytically  !
 ! A22   A(20,8,21)            107.7212         calculate D2E/DX2 analytically  !
 ! A23   A(8,9,10)             132.0529         calculate D2E/DX2 analytically  !
 ! A24   A(8,9,13)             123.166          calculate D2E/DX2 analytically  !
 ! A25   A(10,9,13)            104.7145         calculate D2E/DX2 analytically  !
 ! A26   A(9,10,11)            110.8988         calculate D2E/DX2 analytically  !
 ! A27   A(9,10,22)            127.7144         calculate D2E/DX2 analytically  !
 ! A28   A(11,10,22)           121.3863         calculate D2E/DX2 analytically  !
 ! A29   A(10,11,12)           104.9249         calculate D2E/DX2 analytically  !
 ! A30   A(11,12,13)           111.8363         calculate D2E/DX2 analytically  !
 ! A31   A(11,12,23)           126.409          calculate D2E/DX2 analytically  !
 ! A32   A(13,12,23)           121.7538         calculate D2E/DX2 analytically  !
 ! A33   A(9,13,12)            107.6208         calculate D2E/DX2 analytically  !
 ! A34   A(9,13,24)            125.9311         calculate D2E/DX2 analytically  !
 ! A35   A(12,13,24)           126.1763         calculate D2E/DX2 analytically  !
 ! A36   A(2,14,15)            115.1268         calculate D2E/DX2 analytically  !
 ! A37   A(2,14,25)            108.34           calculate D2E/DX2 analytically  !
 ! A38   A(2,14,26)            105.8295         calculate D2E/DX2 analytically  !
 ! A39   A(15,14,25)           109.235          calculate D2E/DX2 analytically  !
 ! A40   A(15,14,26)           110.7724         calculate D2E/DX2 analytically  !
 ! A41   A(25,14,26)           107.2067         calculate D2E/DX2 analytically  !
 ! A42   A(14,15,16)           111.4072         calculate D2E/DX2 analytically  !
 ! A43   A(14,15,27)           108.8818         calculate D2E/DX2 analytically  !
 ! A44   A(14,15,28)           109.1871         calculate D2E/DX2 analytically  !
 ! A45   A(16,15,27)           112.204          calculate D2E/DX2 analytically  !
 ! A46   A(16,15,28)           108.1845         calculate D2E/DX2 analytically  !
 ! A47   A(27,15,28)           106.8347         calculate D2E/DX2 analytically  !
 ! A48   A(15,16,29)           110.4925         calculate D2E/DX2 analytically  !
 ! A49   A(15,16,30)           110.6847         calculate D2E/DX2 analytically  !
 ! A50   A(29,16,30)           106.9547         calculate D2E/DX2 analytically  !
 ! D1    D(1,2,3,4)              0.6325         calculate D2E/DX2 analytically  !
 ! D2    D(1,2,3,17)           178.3495         calculate D2E/DX2 analytically  !
 ! D3    D(14,2,3,4)          -177.9788         calculate D2E/DX2 analytically  !
 ! D4    D(14,2,3,17)           -0.2618         calculate D2E/DX2 analytically  !
 ! D5    D(1,2,14,15)          144.5836         calculate D2E/DX2 analytically  !
 ! D6    D(1,2,14,25)          -92.813          calculate D2E/DX2 analytically  !
 ! D7    D(1,2,14,26)           21.8904         calculate D2E/DX2 analytically  !
 ! D8    D(3,2,14,15)          -36.7936         calculate D2E/DX2 analytically  !
 ! D9    D(3,2,14,25)           85.8098         calculate D2E/DX2 analytically  !
 ! D10   D(3,2,14,26)         -159.4868         calculate D2E/DX2 analytically  !
 ! D11   D(2,3,4,5)           -158.5048         calculate D2E/DX2 analytically  !
 ! D12   D(2,3,4,8)             80.4281         calculate D2E/DX2 analytically  !
 ! D13   D(2,3,4,18)           -38.2303         calculate D2E/DX2 analytically  !
 ! D14   D(17,3,4,5)            23.7844         calculate D2E/DX2 analytically  !
 ! D15   D(17,3,4,8)           -97.2827         calculate D2E/DX2 analytically  !
 ! D16   D(17,3,4,18)          144.0588         calculate D2E/DX2 analytically  !
 ! D17   D(3,4,5,6)            151.9438         calculate D2E/DX2 analytically  !
 ! D18   D(3,4,5,7)            -29.3497         calculate D2E/DX2 analytically  !
 ! D19   D(8,4,5,6)            -87.5523         calculate D2E/DX2 analytically  !
 ! D20   D(8,4,5,7)             91.1542         calculate D2E/DX2 analytically  !
 ! D21   D(18,4,5,6)            33.3616         calculate D2E/DX2 analytically  !
 ! D22   D(18,4,5,7)          -147.9319         calculate D2E/DX2 analytically  !
 ! D23   D(3,4,8,9)           -174.1792         calculate D2E/DX2 analytically  !
 ! D24   D(3,4,8,20)           -54.1825         calculate D2E/DX2 analytically  !
 ! D25   D(3,4,8,21)            61.7659         calculate D2E/DX2 analytically  !
 ! D26   D(5,4,8,9)             66.9364         calculate D2E/DX2 analytically  !
 ! D27   D(5,4,8,20)          -173.0669         calculate D2E/DX2 analytically  !
 ! D28   D(5,4,8,21)           -57.1185         calculate D2E/DX2 analytically  !
 ! D29   D(18,4,8,9)           -55.5225         calculate D2E/DX2 analytically  !
 ! D30   D(18,4,8,20)           64.4741         calculate D2E/DX2 analytically  !
 ! D31   D(18,4,8,21)         -179.5774         calculate D2E/DX2 analytically  !
 ! D32   D(4,5,6,19)             2.5046         calculate D2E/DX2 analytically  !
 ! D33   D(7,5,6,19)          -176.2271         calculate D2E/DX2 analytically  !
 ! D34   D(4,8,9,10)            96.2482         calculate D2E/DX2 analytically  !
 ! D35   D(4,8,9,13)           -80.3055         calculate D2E/DX2 analytically  !
 ! D36   D(20,8,9,10)          -22.3509         calculate D2E/DX2 analytically  !
 ! D37   D(20,8,9,13)          161.0954         calculate D2E/DX2 analytically  !
 ! D38   D(21,8,9,10)         -140.9653         calculate D2E/DX2 analytically  !
 ! D39   D(21,8,9,13)           42.4809         calculate D2E/DX2 analytically  !
 ! D40   D(8,9,10,11)         -176.74           calculate D2E/DX2 analytically  !
 ! D41   D(8,9,10,22)            3.0061         calculate D2E/DX2 analytically  !
 ! D42   D(13,9,10,11)           0.2778         calculate D2E/DX2 analytically  !
 ! D43   D(13,9,10,22)        -179.9761         calculate D2E/DX2 analytically  !
 ! D44   D(8,9,13,12)          176.7648         calculate D2E/DX2 analytically  !
 ! D45   D(8,9,13,24)            2.4705         calculate D2E/DX2 analytically  !
 ! D46   D(10,9,13,12)          -0.5902         calculate D2E/DX2 analytically  !
 ! D47   D(10,9,13,24)        -174.8844         calculate D2E/DX2 analytically  !
 ! D48   D(9,10,11,12)           0.1513         calculate D2E/DX2 analytically  !
 ! D49   D(22,10,11,12)       -179.6135         calculate D2E/DX2 analytically  !
 ! D50   D(10,11,12,13)         -0.5434         calculate D2E/DX2 analytically  !
 ! D51   D(10,11,12,23)        179.1346         calculate D2E/DX2 analytically  !
 ! D52   D(11,12,13,9)           0.7367         calculate D2E/DX2 analytically  !
 ! D53   D(11,12,13,24)        175.0131         calculate D2E/DX2 analytically  !
 ! D54   D(23,12,13,9)        -178.9585         calculate D2E/DX2 analytically  !
 ! D55   D(23,12,13,24)         -4.6821         calculate D2E/DX2 analytically  !
 ! D56   D(2,14,15,16)          68.7485         calculate D2E/DX2 analytically  !
 ! D57   D(2,14,15,27)        -166.9823         calculate D2E/DX2 analytically  !
 ! D58   D(2,14,15,28)         -50.6803         calculate D2E/DX2 analytically  !
 ! D59   D(25,14,15,16)        -53.3744         calculate D2E/DX2 analytically  !
 ! D60   D(25,14,15,27)         70.8948         calculate D2E/DX2 analytically  !
 ! D61   D(25,14,15,28)       -172.8032         calculate D2E/DX2 analytically  !
 ! D62   D(26,14,15,16)       -171.2428         calculate D2E/DX2 analytically  !
 ! D63   D(26,14,15,27)        -46.9737         calculate D2E/DX2 analytically  !
 ! D64   D(26,14,15,28)         69.3284         calculate D2E/DX2 analytically  !
 ! D65   D(14,15,16,29)       -166.9431         calculate D2E/DX2 analytically  !
 ! D66   D(14,15,16,30)         74.7706         calculate D2E/DX2 analytically  !
 ! D67   D(27,15,16,29)         70.6818         calculate D2E/DX2 analytically  !
 ! D68   D(27,15,16,30)        -47.6044         calculate D2E/DX2 analytically  !
 ! D69   D(28,15,16,29)        -46.9204         calculate D2E/DX2 analytically  !
 ! D70   D(28,15,16,30)       -165.2066         calculate D2E/DX2 analytically  !
 --------------------------------------------------------------------------------
 Trust Radius=3.00D-01 FncErr=1.00D-07 GrdErr=1.00D-06
 Number of steps in this run=    160 maximum allowed number of steps=    180.
 GradGradGradGradGradGradGradGradGradGradGradGradGradGradGradGradGradGrad

                          Input orientation:                          
 ---------------------------------------------------------------------
 Center     Atomic      Atomic             Coordinates (Angstroms)
 Number     Number       Type             X           Y           Z
 ---------------------------------------------------------------------
      1          8           0        0.912995    0.928898   -2.242469
      2          6           0        1.566268    0.400600   -1.353211
      3          7           0        1.050270    0.122519   -0.135770
      4          6           0       -0.324350    0.424580    0.186588
      5          6           0       -0.430428    0.502982    1.702000
      6          8           0       -1.391102    1.302319    2.197742
      7          8           0        0.282982   -0.127818    2.434331
      8          6           0       -1.257004   -0.670830   -0.379137
      9          6           0       -2.705561   -0.357344   -0.205402
     10          6           0       -3.628335    0.207776   -1.043768
     11          7           0       -4.844860    0.362539   -0.405613
     12          6           0       -4.652348   -0.102914    0.806716
     13          7           0       -3.383998   -0.558186    0.977647
     14          6           0        3.017931   -0.019844   -1.559812
     15          6           0        3.917736    0.142471   -0.341993
     16          7           0        3.560197   -0.810536    0.720886
     17          1           0        1.633057   -0.339307    0.553266
     18          1           0       -0.588425    1.379876   -0.277918
     19          1           0       -1.920635    1.698362    1.493947
     20          1           0       -1.035118   -0.751509   -1.441555
     21          1           0       -1.002711   -1.624088    0.086538
     22          1           0       -3.487863    0.516163   -2.068825
     23          1           0       -5.377159   -0.135273    1.600669
     24          1           0       -2.982363   -0.894988    1.841938
     25          1           0        3.031100   -1.067628   -1.881448
     26          1           0        3.385082    0.578567   -2.394580
     27          1           0        4.962581    0.039163   -0.656669
     28          1           0        3.805507    1.153424    0.054911
     29          1           0        4.010903   -0.557177    1.589758
     30          1           0        3.875463   -1.742913    0.485843
 ---------------------------------------------------------------------
                    Distance matrix (angstroms):
                    1          2          3          4          5
     1  O    0.000000
     2  C    1.223374   0.000000
     3  N    2.259928   1.351202   0.000000
     4  C    2.772306   2.438441   1.443861   0.000000
     5  C    4.188678   3.651245   2.390526   1.521142   0.000000
     6  O    5.016351   4.708333   3.577359   2.439903   1.344468
     7  O    4.835910   4.033798   2.693848   2.392979   1.201321
     8  C    3.277199   3.172956   2.451968   1.545902   2.528279
     9  C    4.347184   4.487813   3.787002   2.536775   3.091047
    10  C    4.751903   5.207383   4.766662   3.532293   4.225280
    11  N    6.070230   6.480891   5.906181   4.559557   4.893768
    12  C    6.429246   6.602272   5.784371   4.403904   4.358124
    13  N    5.571779   5.554935   4.622314   3.309539   3.220921
    14  C    2.407672   1.525379   2.433075   3.797139   4.775347
    15  C    3.641256   2.572663   2.874942   4.284190   4.818133
    16  N    4.337601   3.121615   2.811438   4.111045   4.314279
    17  H    3.153247   2.046113   1.013753   2.132937   2.507391
    18  H    2.513385   2.599603   2.070380   1.094574   2.171170
    19  H    4.752089   4.684975   3.737049   2.424837   1.921701
    20  H    2.694509   2.846467   2.611100   2.130546   3.438216
    21  H    3.951195   3.573779   2.704587   2.160376   2.731602
    22  H    4.423580   5.105850   4.948364   3.886269   4.854606
    23  H    7.447699   7.564638   6.662846   5.276736   4.988766
    24  H    5.931505   5.707676   4.605299   3.398011   2.913121
    25  H    2.933056   2.140201   2.896123   4.214558   5.223991
    26  H    2.501416   2.103380   3.280480   4.521728   5.598732
    27  H    4.439091   3.485792   3.947716   5.367613   5.904489
    28  H    3.700675   2.750226   2.947958   4.195745   4.591201
    29  H    5.146981   3.943938   3.493534   4.661239   4.567489
    30  H    4.833060   3.648170   3.442086   4.735611   5.006374
                    6          7          8          9         10
     6  O    0.000000
     7  O    2.214458   0.000000
     8  C    3.248324   3.253003   0.000000
     9  C    3.202715   3.994029   1.492238   0.000000
    10  C    4.087862   5.244826   2.614745   1.368842   0.000000
    11  N    4.425956   5.882219   3.733800   2.266035   1.382435
    12  C    3.813838   5.196849   3.641035   2.208868   2.137620
    13  N    2.986929   3.969117   2.525402   1.378485   2.175435
    14  C    5.941960   4.841981   4.482505   5.891239   6.670154
    15  C    5.998272   4.581754   5.238395   6.643534   7.578914
    16  N    5.582170   3.760603   4.943177   6.350048   7.471676
    17  H    3.813761   2.325045   3.054789   4.404487   5.525582
    18  H    2.603689   3.223165   2.159315   2.739610   3.346849
    19  H    0.965703   3.012505   3.092236   2.780256   3.402658
    20  H    4.193974   4.141120   1.088335   2.115140   2.793427
    21  H    3.629310   3.066589   1.090972   2.142328   3.395175
    22  H    4.818510   5.908672   3.039857   2.201671   1.079619
    23  H    4.279231   5.721210   4.602405   3.232436   3.188905
    24  H    2.736214   3.406165   2.821397   2.134779   3.156052
    25  H    6.466243   5.202052   4.560945   6.018547   6.832015
    26  H    6.665221   5.782767   5.212674   6.539447   7.151936
    27  H    7.079018   5.610776   6.266127   7.691636   8.601285
    28  H    5.623045   4.439753   5.398641   6.689110   7.573860
    29  H    5.745348   3.846433   5.624972   6.955100   8.116561
    30  H    6.319869   4.394435   5.314111   6.760732   7.902650
                   11         12         13         14         15
    11  N    0.000000
    12  C    1.312802   0.000000
    13  N    2.212524   1.358382   0.000000
    14  C    7.956247   8.027486   6.907474   0.000000
    15  C    8.765590   8.650208   7.453032   1.522852   0.000000
    16  N    8.560963   8.243421   6.953520   2.474031   1.471655
    17  H    6.586004   6.294953   5.039727   2.546573   2.500672
    18  H    4.378187   4.459885   3.625984   4.075324   4.673410
    19  H    3.734145   3.343521   2.738613   6.055337   6.314907
    20  H    4.102244   4.308102   3.377447   4.120258   5.151602
    21  H    4.353276   4.019015   2.756946   4.631374   5.245490
    22  H    2.152048   3.163545   3.232028   6.547653   7.613442
    23  H    2.134556   1.075528   2.130658   8.971037   9.499798
    24  H    3.178326   2.118470   1.010814   6.952791   7.311446
    25  H    8.139668   8.197089   7.041834   1.096118   2.149507
    26  H    8.469628   8.678306   7.647520   1.090749   2.164951
    27  H    9.815981   9.726692   8.526030   2.144950   1.096081
    28  H    8.698646   8.583642   7.447821   2.145731   1.091858
    29  H    9.124249   8.710420   7.420191   3.345820   2.056660
    30  H    9.015079   8.690001   7.371921   2.808742   2.059556
                   16         17         18         19         20
    16  N    0.000000
    17  H    1.990985   0.000000
    18  H    4.796517   2.929410   0.000000
    19  H    6.077147   4.203059   2.239581   0.000000
    20  H    5.079031   3.356841   2.469087   3.924688   0.000000
    21  H    4.678075   2.969136   3.054221   3.723179   1.759975
    22  H    7.695308   5.816443   3.515692   4.067818   2.831328
    23  H    9.005905   7.090967   5.362532   3.914226   5.337433
    24  H    6.638447   4.824060   3.924250   2.823796   3.820166
    25  H    2.667992   2.900484   4.654303   6.600278   4.102142
    26  H    3.415612   3.549913   4.572867   6.672722   4.713335
    27  H    2.141571   3.562711   5.723166   7.399780   6.100295
    28  H    2.088263   2.682563   4.412334   5.929291   5.412933
    29  H    1.011071   2.603062   5.328621   6.346635   5.889733
    30  H    1.011911   2.646326   5.501040   6.815673   5.367639
                   21         22         23         24         25
    21  H    0.000000
    22  H    3.924570   0.000000
    23  H    4.862608   4.178396   0.000000
    24  H    2.744456   4.188191   2.523970   0.000000
    25  H    4.522637   6.711213   9.148401   7.074966   0.000000
    26  H    5.500942   6.880944   9.656524   7.788697   1.760274
    27  H    6.237264   8.580893  10.584716   8.380800   2.540805
    28  H    5.552886   7.622966   9.400610   7.311952   3.046680
    29  H    5.341750   8.412418   9.397544   7.005960   3.642779
    30  H    4.895931   8.114698   9.457186   7.041857   2.602503
                   26         27         28         29         30
    26  H    0.000000
    27  H    2.408276   0.000000
    28  H    2.550926   1.756912   0.000000
    29  H    4.190050   2.511523   2.307401   0.000000
    30  H    3.731833   2.379696   2.929055   1.625712   0.000000
 Symmetry turned off by external request.
 Stoichiometry    C9H14N4O3
 Framework group  C1[X(C9H14N4O3)]
 Deg. of freedom    84
 Full point group                 C1      NOp   1
 Rotational constants (GHZ):      1.0604546      0.2826876      0.2409768
 Standard basis: 6-311G(d,p) (5D, 7F)
   372 basis functions,   624 primitive gaussians,   388 cartesian basis functions
    60 alpha electrons       60 beta electrons
       nuclear repulsion energy      1133.1818804999 Hartrees.
 NAtoms=   30 NActive=   30 NUniq=   30 SFac= 1.00D+00 NAtFMM=   60 NAOKFM=F Big=F
 Integral buffers will be    131072 words long.
 Raffenetti 2 integral format.
 Two-electron integral symmetry is turned off.
 Nuclear repulsion after empirical dispersion term =     1133.1259873105 Hartrees.
 One-electron integrals computed using PRISM.
 NBasis=   372 RedAO= T EigKep=  5.44D-04  NBF=   372
 NBsUse=   372 1.00D-06 EigRej= -1.00D+00 NBFU=   372
 ExpMin= 1.03D-01 ExpMax= 8.59D+03 ExpMxC= 1.30D+03 IAcc=3 IRadAn=         5 AccDes= 0.00D+00
 Harris functional with IExCor=  402 and IRadAn=       5 diagonalized for initial guess.
 HarFok:  IExCor=  402 AccDes= 0.00D+00 IRadAn=         5 IDoV= 1 UseB2=F ITyADJ=14
 ICtDFT=  3500011 ScaDFX=  1.000000  1.000000  1.000000  1.000000
 FoFCou: FMM=F IPFlag=           0 FMFlag=      100000 FMFlg1=           0
         NFxFlg=           0 DoJE=T BraDBF=F KetDBF=T FulRan=T
         wScrn=  0.000000 ICntrl=     500 IOpCl=  0 I1Cent=   200000004 NGrid=           0
         NMat0=    1 NMatS0=      1 NMatT0=    0 NMatD0=    1 NMtDS0=    0 NMtDT0=    0
 Symmetry not used in FoFCou.
 Requested convergence on RMS density matrix=1.00D-08 within 128 cycles.
 Requested convergence on MAX density matrix=1.00D-06.
 Requested convergence on             energy=1.00D-06.
 No special actions if energy rises.
 Integral accuracy reduced to 1.0D-05 until final iterations.
 Initial convergence to 1.0D-05 achieved.  Increase integral accuracy.
 SCF Done:  E(RB3LYP) =  -796.364387412     A.U. after   14 cycles
            NFock= 14  Conv=0.49D-08     -V/T= 2.0033
 DoSCS=F DFT=T ScalE2(SS,OS)=  1.000000  1.000000
 Range of M.O.s used for correlation:     1   372
 NBasis=   372 NAE=    60 NBE=    60 NFC=     0 NFV=     0
 NROrb=    372 NOA=    60 NOB=    60 NVA=   312 NVB=   312

 **** Warning!!: The largest alpha MO coefficient is  0.10275959D+02

 Symmetrizing basis deriv contribution to polar:
 IMax=3 JMax=2 DiffMx= 0.00D+00
 G2DrvN: will do    31 centers at a time, making    1 passes.
 Calling FoFCou, ICntrl=  3107 FMM=F I1Cent=   0 AccDes= 0.00D+00.
 End of G2Drv F.D. properties file   721 does not exist.
 End of G2Drv F.D. properties file   722 does not exist.
 End of G2Drv F.D. properties file   788 does not exist.
          IDoAtm=111111111111111111111111111111
          Differentiating once with respect to nuclear coordinates.
          There are    93 degrees of freedom in the 1st order CPHF.  IDoFFX=6 NUNeed=     0.
     87 vectors produced by pass  0 Test12= 2.01D-14 1.08D-09 XBig12= 1.61D-01 9.87D-02.
 AX will form    87 AO Fock derivatives at one time.
     87 vectors produced by pass  1 Test12= 2.01D-14 1.08D-09 XBig12= 1.82D-02 4.18D-02.
     87 vectors produced by pass  2 Test12= 2.01D-14 1.08D-09 XBig12= 2.55D-04 2.49D-03.
     87 vectors produced by pass  3 Test12= 2.01D-14 1.08D-09 XBig12= 1.05D-06 1.16D-04.
     87 vectors produced by pass  4 Test12= 2.01D-14 1.08D-09 XBig12= 2.61D-09 4.79D-06.
     79 vectors produced by pass  5 Test12= 2.01D-14 1.08D-09 XBig12= 3.66D-12 1.55D-07.
     26 vectors produced by pass  6 Test12= 2.01D-14 1.08D-09 XBig12= 4.46D-15 8.99D-09.
 InvSVY:  IOpt=1 It=  1 EMax= 5.55D-16
 Solved reduced A of dimension   540 with    93 vectors.
 End of Minotr F.D. properties file   721 does not exist.
 End of Minotr F.D. properties file   722 does not exist.
 End of Minotr F.D. properties file   788 does not exist.

 **********************************************************************

            Population analysis using the SCF density.

 **********************************************************************

 Alpha  occ. eigenvalues --  -19.18445 -19.12203 -19.07740 -14.37437 -14.32672
 Alpha  occ. eigenvalues --  -14.31505 -14.29252 -10.31875 -10.26667 -10.23778
 Alpha  occ. eigenvalues --  -10.22654 -10.21430 -10.21065 -10.19880 -10.18426
 Alpha  occ. eigenvalues --  -10.18368  -1.12742  -1.04585  -1.03645  -1.02654
 Alpha  occ. eigenvalues --   -0.93320  -0.90751  -0.87940  -0.81400  -0.77360
 Alpha  occ. eigenvalues --   -0.74139  -0.68383  -0.64937  -0.63528  -0.62354
 Alpha  occ. eigenvalues --   -0.60231  -0.58600  -0.56754  -0.54346  -0.52282
 Alpha  occ. eigenvalues --   -0.50378  -0.48817  -0.47989  -0.46731  -0.46607
 Alpha  occ. eigenvalues --   -0.45526  -0.44754  -0.43609  -0.43231  -0.42057
 Alpha  occ. eigenvalues --   -0.41391  -0.40569  -0.39947  -0.39477  -0.38767
 Alpha  occ. eigenvalues --   -0.37791  -0.35544  -0.34179  -0.29835  -0.29015
 Alpha  occ. eigenvalues --   -0.27549  -0.27151  -0.26288  -0.25135  -0.23505
 Alpha virt. eigenvalues --   -0.01642   0.00825   0.01288   0.02671   0.03215
 Alpha virt. eigenvalues --    0.04019   0.05134   0.06303   0.06519   0.07510
 Alpha virt. eigenvalues --    0.08400   0.09438   0.09574   0.10701   0.11390
 Alpha virt. eigenvalues --    0.12523   0.13332   0.14821   0.18089   0.18384
 Alpha virt. eigenvalues --    0.19082   0.20223   0.20718   0.21111   0.22205
 Alpha virt. eigenvalues --    0.23966   0.24790   0.25537   0.28098   0.30012
 Alpha virt. eigenvalues --    0.30915   0.31278   0.31803   0.33317   0.33977
 Alpha virt. eigenvalues --    0.35385   0.35721   0.36823   0.36970   0.38352
 Alpha virt. eigenvalues --    0.39936   0.40282   0.41292   0.42912   0.43206
 Alpha virt. eigenvalues --    0.43831   0.45418   0.45786   0.45925   0.46228
 Alpha virt. eigenvalues --    0.48120   0.49260   0.50227   0.51442   0.52024
 Alpha virt. eigenvalues --    0.53904   0.54206   0.54271   0.55122   0.56274
 Alpha virt. eigenvalues --    0.56950   0.57591   0.58302   0.58605   0.59479
 Alpha virt. eigenvalues --    0.59886   0.60218   0.61330   0.62122   0.62501
 Alpha virt. eigenvalues --    0.63548   0.64054   0.66123   0.66918   0.68169
 Alpha virt. eigenvalues --    0.68967   0.69821   0.70806   0.71323   0.71892
 Alpha virt. eigenvalues --    0.72850   0.73846   0.75309   0.75861   0.78483
 Alpha virt. eigenvalues --    0.79447   0.81141   0.82023   0.83091   0.85201
 Alpha virt. eigenvalues --    0.88957   0.90696   0.91834   0.93710   0.95136
 Alpha virt. eigenvalues --    0.96167   0.96426   0.98061   0.98461   0.99867
 Alpha virt. eigenvalues --    1.01159   1.01835   1.04665   1.05055   1.08456
 Alpha virt. eigenvalues --    1.10265   1.11072   1.12256   1.13484   1.16006
 Alpha virt. eigenvalues --    1.16295   1.18283   1.19985   1.22953   1.24751
 Alpha virt. eigenvalues --    1.26289   1.27905   1.28410   1.30321   1.31453
 Alpha virt. eigenvalues --    1.33842   1.35194   1.37466   1.39101   1.40220
 Alpha virt. eigenvalues --    1.41479   1.43958   1.45594   1.47214   1.48212
 Alpha virt. eigenvalues --    1.49007   1.49434   1.50749   1.52104   1.52252
 Alpha virt. eigenvalues --    1.54490   1.56011   1.57072   1.57109   1.59065
 Alpha virt. eigenvalues --    1.60346   1.61345   1.61512   1.62616   1.63522
 Alpha virt. eigenvalues --    1.64972   1.66471   1.67195   1.68362   1.69359
 Alpha virt. eigenvalues --    1.70105   1.71109   1.72310   1.72633   1.73398
 Alpha virt. eigenvalues --    1.74426   1.75665   1.76764   1.77328   1.78867
 Alpha virt. eigenvalues --    1.80001   1.83313   1.83651   1.84080   1.86721
 Alpha virt. eigenvalues --    1.87256   1.91369   1.91918   1.94359   1.96184
 Alpha virt. eigenvalues --    1.97043   1.99252   1.99692   2.01114   2.03125
 Alpha virt. eigenvalues --    2.05620   2.07631   2.09497   2.10482   2.13779
 Alpha virt. eigenvalues --    2.16384   2.16666   2.18608   2.19341   2.21909
 Alpha virt. eigenvalues --    2.23545   2.24187   2.25709   2.28372   2.29005
 Alpha virt. eigenvalues --    2.31560   2.34972   2.38062   2.40228   2.42110
 Alpha virt. eigenvalues --    2.42861   2.43765   2.44860   2.46178   2.47799
 Alpha virt. eigenvalues --    2.48994   2.50260   2.51536   2.52782   2.55183
 Alpha virt. eigenvalues --    2.55683   2.56427   2.57237   2.58051   2.59862
 Alpha virt. eigenvalues --    2.62387   2.63675   2.64969   2.65816   2.66481
 Alpha virt. eigenvalues --    2.67660   2.68060   2.68578   2.70830   2.72803
 Alpha virt. eigenvalues --    2.73273   2.76530   2.77743   2.79880   2.80694
 Alpha virt. eigenvalues --    2.81984   2.82965   2.84195   2.85732   2.86790
 Alpha virt. eigenvalues --    2.88492   2.89198   2.89567   2.92678   2.94424
 Alpha virt. eigenvalues --    2.94825   2.96906   2.98254   3.01830   3.02803
 Alpha virt. eigenvalues --    3.04254   3.06128   3.07432   3.12103   3.13759
 Alpha virt. eigenvalues --    3.16182   3.18759   3.24488   3.25684   3.31973
 Alpha virt. eigenvalues --    3.34209   3.35576   3.36158   3.39384   3.45308
 Alpha virt. eigenvalues --    3.47719   3.48867   3.56900   3.57603   3.58639
 Alpha virt. eigenvalues --    3.63713   3.65604   3.68803   3.74984   3.77516
 Alpha virt. eigenvalues --    3.79949   3.81312   3.82576   3.84265   3.84635
 Alpha virt. eigenvalues --    3.86011   3.89429   3.92178   3.99711   4.07286
 Alpha virt. eigenvalues --    4.10912   4.19667   4.29044   4.30349   4.41505
 Alpha virt. eigenvalues --    4.71130   4.75356   4.82419   4.83303   4.87416
 Alpha virt. eigenvalues --    4.92052   4.92712   4.94439   4.95055   5.04929
 Alpha virt. eigenvalues --    5.09026   5.24371   5.26237   5.53020   5.66792
 Alpha virt. eigenvalues --    5.79033  23.70785  23.74813  23.78518  23.79306
 Alpha virt. eigenvalues --   23.85318  23.87862  23.89697  23.92822  24.13744
 Alpha virt. eigenvalues --   35.51856  35.55906  35.62031  35.68160  49.83990
 Alpha virt. eigenvalues --   50.00301  50.01541
          Condensed to atoms (all electrons):
               1          2          3          4          5          6
     1  O    7.875806   0.654419  -0.118444   0.008534   0.000605   0.000000
     2  C    0.654419   4.527846   0.327131  -0.053988   0.007097  -0.000205
     3  N   -0.118444   0.327131   6.852906   0.222579  -0.022245   0.002565
     4  C    0.008534  -0.053988   0.222579   5.387026   0.237747  -0.094161
     5  C    0.000605   0.007097  -0.022245   0.237747   4.527245   0.342984
     6  O    0.000000  -0.000205   0.002565  -0.094161   0.342984   7.794001
     7  O   -0.000005  -0.000339  -0.005666  -0.111593   0.659808  -0.068736
     8  C   -0.008246  -0.008527  -0.043682   0.301920  -0.053929  -0.002895
     9  C   -0.000813   0.000043   0.008440  -0.072437  -0.006871   0.007386
    10  C    0.000046   0.000033  -0.000048  -0.000619  -0.000298  -0.000269
    11  N    0.000000   0.000000   0.000001  -0.000083  -0.000019  -0.000044
    12  C    0.000000   0.000000   0.000003   0.000360  -0.000008   0.001142
    13  N   -0.000001  -0.000004  -0.000014  -0.002616   0.002854  -0.004745
    14  C   -0.071613   0.339967  -0.103868   0.010882  -0.000200  -0.000001
    15  C    0.002782  -0.046239   0.016648  -0.000933   0.000079   0.000001
    16  N   -0.000057  -0.010957  -0.032132   0.001294  -0.000083  -0.000001
    17  H    0.001662  -0.016926   0.334808  -0.048006  -0.008620   0.001489
    18  H    0.022512  -0.006654  -0.035515   0.384692  -0.030348   0.002437
    19  H   -0.000083  -0.000052  -0.000282   0.009089  -0.033279   0.310974
    20  H    0.014175   0.003746  -0.015002  -0.024523   0.005162  -0.000288
    21  H   -0.000132  -0.000229   0.006846  -0.055089  -0.002873   0.000005
    22  H    0.000083   0.000002  -0.000015   0.000054   0.000021  -0.000008
    23  H    0.000000   0.000000   0.000000   0.000016   0.000001   0.000158
    24  H    0.000000   0.000004  -0.000059   0.000498   0.002281   0.003254
    25  H    0.000837  -0.029377   0.002029  -0.000718  -0.000008   0.000000
    26  H    0.010850  -0.035608   0.008117  -0.000488  -0.000004   0.000000
    27  H   -0.000322   0.006541  -0.000350   0.000096  -0.000003   0.000000
    28  H    0.000285  -0.004466   0.005273  -0.000532   0.000105  -0.000001
    29  H    0.000008   0.000188   0.000887  -0.000040   0.000052   0.000001
    30  H    0.000008  -0.000163   0.001223  -0.000049  -0.000017   0.000000
               7          8          9         10         11         12
     1  O   -0.000005  -0.008246  -0.000813   0.000046   0.000000   0.000000
     2  C   -0.000339  -0.008527   0.000043   0.000033   0.000000   0.000000
     3  N   -0.005666  -0.043682   0.008440  -0.000048   0.000001   0.000003
     4  C   -0.111593   0.301920  -0.072437  -0.000619  -0.000083   0.000360
     5  C    0.659808  -0.053929  -0.006871  -0.000298  -0.000019  -0.000008
     6  O   -0.068736  -0.002895   0.007386  -0.000269  -0.000044   0.001142
     7  O    7.801076   0.003573  -0.001294  -0.000023   0.000000  -0.000007
     8  C    0.003573   5.014807   0.260787  -0.031759   0.007468   0.004657
     9  C   -0.001294   0.260787   5.236195   0.562906  -0.095488  -0.124566
    10  C   -0.000023  -0.031759   0.562906   4.842678   0.501445  -0.178192
    11  N    0.000000   0.007468  -0.095488   0.501445   6.432084   0.577636
    12  C   -0.000007   0.004657  -0.124566  -0.178192   0.577636   4.760817
    13  N   -0.000119  -0.048069   0.354291  -0.078069  -0.085636   0.412855
    14  C   -0.000011  -0.001991   0.000018   0.000000   0.000000   0.000000
    15  C   -0.000112   0.000273  -0.000002   0.000000   0.000000   0.000000
    16  N   -0.000641  -0.000145  -0.000002   0.000000   0.000000   0.000000
    17  H    0.030923   0.001240  -0.000185  -0.000012   0.000000   0.000001
    18  H    0.003152  -0.048793   0.007724   0.003223  -0.000180  -0.000397
    19  H    0.004093  -0.003486   0.003717   0.000620  -0.000150   0.000469
    20  H   -0.000291   0.412365  -0.035371  -0.002141   0.000210  -0.000351
    21  H    0.005407   0.393079  -0.032188   0.001415  -0.000330   0.000029
    22  H    0.000000  -0.000340  -0.049122   0.424496  -0.024986   0.007780
    23  H   -0.000002  -0.000420   0.004957   0.006063  -0.023417   0.415639
    24  H    0.000063   0.003493  -0.037661   0.007124   0.006348  -0.022136
    25  H   -0.000005   0.000326  -0.000005   0.000000   0.000000   0.000000
    26  H    0.000001   0.000020   0.000003   0.000000   0.000000   0.000000
    27  H   -0.000005  -0.000004   0.000000   0.000000   0.000000   0.000000
    28  H    0.000031   0.000066  -0.000002   0.000000   0.000000   0.000000
    29  H    0.000503   0.000005   0.000000   0.000000   0.000000   0.000000
    30  H   -0.000073   0.000005   0.000001   0.000000   0.000000   0.000000
              13         14         15         16         17         18
     1  O   -0.000001  -0.071613   0.002782  -0.000057   0.001662   0.022512
     2  C   -0.000004   0.339967  -0.046239  -0.010957  -0.016926  -0.006654
     3  N   -0.000014  -0.103868   0.016648  -0.032132   0.334808  -0.035515
     4  C   -0.002616   0.010882  -0.000933   0.001294  -0.048006   0.384692
     5  C    0.002854  -0.000200   0.000079  -0.000083  -0.008620  -0.030348
     6  O   -0.004745  -0.000001   0.000001  -0.000001   0.001489   0.002437
     7  O   -0.000119  -0.000011  -0.000112  -0.000641   0.030923   0.003152
     8  C   -0.048069  -0.001991   0.000273  -0.000145   0.001240  -0.048793
     9  C    0.354291   0.000018  -0.000002  -0.000002  -0.000185   0.007724
    10  C   -0.078069   0.000000   0.000000   0.000000  -0.000012   0.003223
    11  N   -0.085636   0.000000   0.000000   0.000000   0.000000  -0.000180
    12  C    0.412855   0.000000   0.000000   0.000000   0.000001  -0.000397
    13  N    6.482105   0.000000   0.000000   0.000000   0.000009  -0.000450
    14  C    0.000000   5.138702   0.285679  -0.048088  -0.010255   0.003164
    15  C    0.000000   0.285679   4.947510   0.270089  -0.018410  -0.000695
    16  N    0.000000  -0.048088   0.270089   6.571973   0.071143  -0.000128
    17  H    0.000009  -0.010255  -0.018410   0.071143   0.403687   0.005511
    18  H   -0.000450   0.003164  -0.000695  -0.000128   0.005511   0.531777
    19  H    0.003110  -0.000007   0.000002   0.000000  -0.000366   0.002546
    20  H    0.003669   0.000360   0.000034   0.000005  -0.001206  -0.006700
    21  H   -0.002578   0.000148  -0.000067  -0.000095   0.002391   0.009811
    22  H    0.004185   0.000001   0.000000   0.000000  -0.000001   0.000394
    23  H   -0.038484   0.000000   0.000000   0.000000   0.000000  -0.000005
    24  H    0.352258   0.000000   0.000000   0.000000  -0.000022  -0.000027
    25  H    0.000000   0.383839  -0.035461  -0.004897  -0.000542  -0.000102
    26  H    0.000000   0.384077  -0.027288   0.004984   0.000918  -0.000066
    27  H    0.000000  -0.040169   0.405040  -0.033274   0.002682   0.000004
    28  H    0.000000  -0.045478   0.411021  -0.036576  -0.003285  -0.000216
    29  H    0.000000   0.008651  -0.032654   0.364395  -0.003245  -0.000002
    30  H    0.000000  -0.004352  -0.039176   0.360624  -0.003203   0.000013
              19         20         21         22         23         24
     1  O   -0.000083   0.014175  -0.000132   0.000083   0.000000   0.000000
     2  C   -0.000052   0.003746  -0.000229   0.000002   0.000000   0.000004
     3  N   -0.000282  -0.015002   0.006846  -0.000015   0.000000  -0.000059
     4  C    0.009089  -0.024523  -0.055089   0.000054   0.000016   0.000498
     5  C   -0.033279   0.005162  -0.002873   0.000021   0.000001   0.002281
     6  O    0.310974  -0.000288   0.000005  -0.000008   0.000158   0.003254
     7  O    0.004093  -0.000291   0.005407   0.000000  -0.000002   0.000063
     8  C   -0.003486   0.412365   0.393079  -0.000340  -0.000420   0.003493
     9  C    0.003717  -0.035371  -0.032188  -0.049122   0.004957  -0.037661
    10  C    0.000620  -0.002141   0.001415   0.424496   0.006063   0.007124
    11  N   -0.000150   0.000210  -0.000330  -0.024986  -0.023417   0.006348
    12  C    0.000469  -0.000351   0.000029   0.007780   0.415639  -0.022136
    13  N    0.003110   0.003669  -0.002578   0.004185  -0.038484   0.352258
    14  C   -0.000007   0.000360   0.000148   0.000001   0.000000   0.000000
    15  C    0.000002   0.000034  -0.000067   0.000000   0.000000   0.000000
    16  N    0.000000   0.000005  -0.000095   0.000000   0.000000   0.000000
    17  H   -0.000366  -0.001206   0.002391  -0.000001   0.000000  -0.000022
    18  H    0.002546  -0.006700   0.009811   0.000394  -0.000005  -0.000027
    19  H    0.438743   0.000025   0.000134   0.000048  -0.000012  -0.000526
    20  H    0.000025   0.503969  -0.020884   0.001622   0.000013   0.000079
    21  H    0.000134  -0.020884   0.559900   0.000002  -0.000027   0.001568
    22  H    0.000048   0.001622   0.000002   0.528921  -0.000358  -0.000305
    23  H   -0.000012   0.000013  -0.000027  -0.000358   0.526864  -0.002231
    24  H   -0.000526   0.000079   0.001568  -0.000305  -0.002231   0.447339
    25  H    0.000000  -0.000259  -0.000028   0.000000   0.000000   0.000000
    26  H    0.000001  -0.000042   0.000005   0.000000   0.000000   0.000000
    27  H    0.000000   0.000007  -0.000004   0.000000   0.000000   0.000000
    28  H    0.000000  -0.000003  -0.000011   0.000000   0.000000   0.000000
    29  H    0.000000  -0.000002   0.000000   0.000000   0.000000   0.000000
    30  H    0.000000  -0.000004   0.000029   0.000000   0.000000   0.000000
              25         26         27         28         29         30
     1  O    0.000837   0.010850  -0.000322   0.000285   0.000008   0.000008
     2  C   -0.029377  -0.035608   0.006541  -0.004466   0.000188  -0.000163
     3  N    0.002029   0.008117  -0.000350   0.005273   0.000887   0.001223
     4  C   -0.000718  -0.000488   0.000096  -0.000532  -0.000040  -0.000049
     5  C   -0.000008  -0.000004  -0.000003   0.000105   0.000052  -0.000017
     6  O    0.000000   0.000000   0.000000  -0.000001   0.000001   0.000000
     7  O   -0.000005   0.000001  -0.000005   0.000031   0.000503  -0.000073
     8  C    0.000326   0.000020  -0.000004   0.000066   0.000005   0.000005
     9  C   -0.000005   0.000003   0.000000  -0.000002   0.000000   0.000001
    10  C    0.000000   0.000000   0.000000   0.000000   0.000000   0.000000
    11  N    0.000000   0.000000   0.000000   0.000000   0.000000   0.000000
    12  C    0.000000   0.000000   0.000000   0.000000   0.000000   0.000000
    13  N    0.000000   0.000000   0.000000   0.000000   0.000000   0.000000
    14  C    0.383839   0.384077  -0.040169  -0.045478   0.008651  -0.004352
    15  C   -0.035461  -0.027288   0.405040   0.411021  -0.032654  -0.039176
    16  N   -0.004897   0.004984  -0.033274  -0.036576   0.364395   0.360624
    17  H   -0.000542   0.000918   0.002682  -0.003285  -0.003245  -0.003203
    18  H   -0.000102  -0.000066   0.000004  -0.000216  -0.000002   0.000013
    19  H    0.000000   0.000001   0.000000   0.000000   0.000000   0.000000
    20  H   -0.000259  -0.000042   0.000007  -0.000003  -0.000002  -0.000004
    21  H   -0.000028   0.000005  -0.000004  -0.000011   0.000000   0.000029
    22  H    0.000000   0.000000   0.000000   0.000000   0.000000   0.000000
    23  H    0.000000   0.000000   0.000000   0.000000   0.000000   0.000000
    24  H    0.000000   0.000000   0.000000   0.000000   0.000000   0.000000
    25  H    0.567117  -0.017019  -0.006933   0.009116  -0.000334   0.005649
    26  H   -0.017019   0.541357  -0.005043  -0.002176  -0.000556  -0.000342
    27  H   -0.006933  -0.005043   0.609558  -0.038994  -0.001685  -0.010292
    28  H    0.009116  -0.002176  -0.038994   0.576771  -0.009728   0.009975
    29  H   -0.000334  -0.000556  -0.001685  -0.009728   0.495317  -0.034451
    30  H    0.005649  -0.000342  -0.010292   0.009975  -0.034451   0.512721
 Mulliken charges:
               1
     1  O   -0.392895
     2  C    0.346717
     3  N   -0.412134
     4  C   -0.098914
     5  C    0.372767
     6  O   -0.295041
     7  O   -0.319709
     8  C   -0.151799
     9  C    0.009541
    10  C   -0.058620
    11  N   -0.294859
    12  C    0.144267
    13  N   -0.354550
    14  C   -0.229458
    15  C   -0.138122
    16  N   -0.477430
    17  H    0.257818
    18  H    0.153317
    19  H    0.264672
    20  H    0.161628
    21  H    0.133766
    22  H    0.107526
    23  H    0.111245
    24  H    0.238658
    25  H    0.126777
    26  H    0.138297
    27  H    0.113151
    28  H    0.128824
    29  H    0.212688
    30  H    0.201874
 Sum of Mulliken charges =   0.00000
 Mulliken charges with hydrogens summed into heavy atoms:
               1
     1  O   -0.392895
     2  C    0.346717
     3  N   -0.154317
     4  C    0.054403
     5  C    0.372767
     6  O   -0.030369
     7  O   -0.319709
     8  C    0.143595
     9  C    0.009541
    10  C    0.048905
    11  N   -0.294859
    12  C    0.255511
    13  N   -0.115892
    14  C    0.035616
    15  C    0.103853
    16  N   -0.062869
 APT charges:
               1
     1  O   -0.060089
     2  C   -0.068801
     3  N   -0.485036
     4  C   -0.318089
     5  C   -0.431147
     6  O   -0.092350
     7  O    0.114155
     8  C   -0.600284
     9  C   -0.420323
    10  C   -0.478603
    11  N    0.589522
    12  C   -0.852076
    13  N   -0.593509
    14  C   -0.782048
    15  C   -1.014000
    16  N   -1.525328
    17  H    0.454684
    18  H    0.334470
    19  H    0.443131
    20  H    0.327691
    21  H    0.297434
    22  H    0.396071
    23  H    0.980625
    24  H    0.346307
    25  H    0.346604
    26  H    0.613002
    27  H    0.799380
    28  H    0.226066
    29  H    0.754989
    30  H    0.697550
 Sum of APT charges =   0.00000
 APT charges with hydrogens summed into heavy atoms:
               1
     1  O   -0.060089
     2  C   -0.068801
     3  N   -0.030351
     4  C    0.016381
     5  C   -0.431147
     6  O    0.350781
     7  O    0.114155
     8  C    0.024840
     9  C   -0.420323
    10  C   -0.082532
    11  N    0.589522
    12  C    0.128549
    13  N   -0.247201
    14  C    0.177558
    15  C    0.011446
    16  N   -0.072789
 Electronic spatial extent (au):  <R**2>=           4536.4975
 Charge=              0.0000 electrons
 Dipole moment (field-independent basis, Debye):
    X=              4.0834    Y=             -1.9985    Z=              2.1687  Tot=              5.0370
 Quadrupole moment (field-independent basis, Debye-Ang):
   XX=            -89.7327   YY=            -91.1940   ZZ=           -105.4191
   XY=             -0.3735   XZ=             -9.1974   YZ=              2.4675
 Traceless Quadrupole moment (field-independent basis, Debye-Ang):
   XX=              5.7159   YY=              4.2546   ZZ=             -9.9705
   XY=             -0.3735   XZ=             -9.1974   YZ=              2.4675
 Octapole moment (field-independent basis, Debye-Ang**2):
  XXX=            296.5475  YYY=            -26.1138  ZZZ=            -24.2750  XYY=             47.2823
  XXY=            -39.7466  XXZ=             55.4637  XZZ=             24.0814  YZZ=            -24.6993
  YYZ=              0.8939  XYZ=              7.3233
 Hexadecapole moment (field-independent basis, Debye-Ang**3):
 XXXX=          -4896.1243 YYYY=           -291.3852 ZZZZ=          -1171.1692 XXXY=             85.9397
 XXXZ=            -48.3394 YYYX=              7.3147 YYYZ=             15.4153 ZZZX=            220.3070
 ZZZY=              9.1752 XXYY=           -799.9811 XXZZ=           -827.3288 YYZZ=           -238.8474
 XXYZ=            -15.2253 YYXZ=             63.0257 ZZXY=             18.2338
 N-N= 1.133125987310D+03 E-N=-4.128043995007D+03  KE= 7.937246275090D+02
  Exact polarizability:   0.000   0.000   0.000   0.000   0.000   0.000
 Approx polarizability: 210.634 -26.343 155.255   3.591 -25.492 206.104
 Calling FoFJK, ICntrl=    100147 FMM=F ISym2X=0 I1Cent= 0 IOpClX= 0 NMat=1 NMatS=1 NMatT=0.
 -------------------------------------------------------------------
 Center     Atomic                   Forces (Hartrees/Bohr)
 Number     Number              X              Y              Z
 -------------------------------------------------------------------
      1        8          -0.000622874    0.001240533   -0.001967189
      2        6          -0.001118802   -0.001480746   -0.004886729
      3        7          -0.003242742    0.002096121    0.002205794
      4        6           0.007271095    0.001092276   -0.002979049
      5        6           0.005443797   -0.000950899   -0.001945362
      6        8          -0.005098349    0.001813044    0.004518439
      7        8          -0.001835786    0.000498993    0.002078109
      8        6          -0.008286853    0.001189777   -0.000615972
      9        6           0.008152227   -0.002540950   -0.003431107
     10        6          -0.005879411    0.003460632   -0.002474658
     11        7           0.002846068   -0.000326162   -0.000335654
     12        6          -0.007195372    0.001707076   -0.000177306
     13        7           0.003986090   -0.002360468    0.007602516
     14        6          -0.002467374    0.000992638   -0.001363925
     15        6           0.005371245   -0.000762177    0.001373672
     16        7          -0.001597777    0.003078500    0.000048677
     17        1           0.004347080   -0.003675214    0.004533119
     18        1          -0.000813201   -0.001082252   -0.000271356
     19        1           0.001152665   -0.000311525   -0.001956173
     20        1           0.000263988    0.000788798   -0.001072241
     21        1           0.001574945   -0.001478972    0.001200694
     22        1           0.000304748   -0.000697886    0.000368839
     23        1          -0.002869709   -0.000112850    0.001082019
     24        1          -0.001441197   -0.000589263   -0.002176303
     25        1          -0.000745764   -0.000120496   -0.001122362
     26        1           0.000623639   -0.000479574   -0.000027210
     27        1           0.001567829    0.000836479   -0.000977121
     28        1          -0.000263016    0.000504408    0.001412034
     29        1           0.000398238    0.000362013    0.002790417
     30        1           0.000174572   -0.002691854   -0.001434615
 -------------------------------------------------------------------
 Cartesian Forces:  Max     0.008286853 RMS     0.002832044
 FormGI is forming the generalized inverse of G from B-inverse, IUseBI=4.

 GradGradGradGradGradGradGradGradGradGradGradGradGradGradGradGradGradGrad
 Berny optimization.
 Internal  Forces:  Max     0.008064629 RMS     0.002106629
 Search for a local minimum.
 Step number   1 out of a maximum of  160
 All quantities printed in internal units (Hartrees-Bohrs-Radians)
 Mixed Optimization -- RFO/linear search
 Second derivative matrix not updated -- analytic derivatives used.
 ITU=  0
     Eigenvalues ---   -0.00100   0.00021   0.00131   0.00267   0.00301
     Eigenvalues ---    0.00328   0.00456   0.00548   0.01021   0.01197
     Eigenvalues ---    0.01574   0.02009   0.02518   0.02823   0.03213
     Eigenvalues ---    0.03663   0.04053   0.04225   0.04296   0.04356
     Eigenvalues ---    0.04550   0.04969   0.05162   0.05192   0.05547
     Eigenvalues ---    0.05589   0.05758   0.06227   0.07701   0.07814
     Eigenvalues ---    0.08390   0.10263   0.10658   0.10834   0.11243
     Eigenvalues ---    0.11634   0.12809   0.13389   0.14818   0.15337
     Eigenvalues ---    0.16194   0.16662   0.16843   0.18339   0.19931
     Eigenvalues ---    0.21643   0.22072   0.22785   0.23060   0.23203
     Eigenvalues ---    0.24048   0.24791   0.25254   0.27381   0.29992
     Eigenvalues ---    0.30474   0.31493   0.32765   0.32867   0.33069
     Eigenvalues ---    0.33457   0.33750   0.34187   0.34223   0.34685
     Eigenvalues ---    0.35550   0.36746   0.37433   0.37534   0.39854
     Eigenvalues ---    0.41361   0.42313   0.43336   0.45565   0.45571
     Eigenvalues ---    0.45944   0.46758   0.47844   0.48249   0.51942
     Eigenvalues ---    0.58620   0.58938   0.81091   0.89516
 RFO step:  Lambda=-4.02983635D-03 EMin=-1.00292176D-03
 Linear search not attempted -- first point.
 Iteration  1 RMS(Cart)=  0.22809310 RMS(Int)=  0.03348857
 Iteration  2 RMS(Cart)=  0.10011378 RMS(Int)=  0.00378756
 Iteration  3 RMS(Cart)=  0.00576269 RMS(Int)=  0.00013763
 Iteration  4 RMS(Cart)=  0.00001838 RMS(Int)=  0.00013728
 Iteration  5 RMS(Cart)=  0.00000000 RMS(Int)=  0.00013728
 Variable       Old X    -DE/DX   Delta X   Delta X   Delta X     New X
                                 (Linear)    (Quad)   (Total)
    R1        2.31184   0.00230   0.00000   0.00123   0.00123   2.31307
    R2        2.55340   0.00635   0.00000   0.01302   0.01302   2.56643
    R3        2.88255   0.00234   0.00000   0.00370   0.00370   2.88625
    R4        2.72850   0.00220   0.00000  -0.00673  -0.00673   2.72178
    R5        1.91572   0.00725   0.00000   0.01651   0.01651   1.93222
    R6        2.87454   0.00276   0.00000   0.00386   0.00386   2.87840
    R7        2.92133   0.00585   0.00000   0.02078   0.02078   2.94211
    R8        2.06844  -0.00063   0.00000  -0.00164  -0.00164   2.06680
    R9        2.54068   0.00466   0.00000   0.00308   0.00308   2.54376
   R10        2.27017  -0.00009   0.00000   0.00292   0.00292   2.27309
   R11        1.82491   0.00067   0.00000   0.00372   0.00372   1.82863
   R12        2.81992   0.00178   0.00000  -0.00348  -0.00348   2.81644
   R13        2.05666   0.00104   0.00000   0.00458   0.00458   2.06123
   R14        2.06164   0.00217   0.00000   0.00420   0.00420   2.06583
   R15        2.58674   0.00527   0.00000   0.01446   0.01447   2.60121
   R16        2.60496   0.00781   0.00000   0.00933   0.00933   2.61429
   R17        2.61242  -0.00067   0.00000  -0.00601  -0.00601   2.60642
   R18        2.04018  -0.00051   0.00000  -0.00068  -0.00068   2.03951
   R19        2.48084   0.00031   0.00000   0.00191   0.00190   2.48273
   R20        2.56697   0.00806   0.00000   0.01084   0.01083   2.57780
   R21        2.03245   0.00274   0.00000   0.00592   0.00592   2.03837
   R22        1.91016  -0.00224   0.00000  -0.00435  -0.00435   1.90581
   R23        2.87777   0.00605   0.00000   0.01824   0.01824   2.89601
   R24        2.07136   0.00044   0.00000   0.00198   0.00198   2.07334
   R25        2.06122  -0.00003   0.00000   0.00011   0.00011   2.06133
   R26        2.78103   0.00078   0.00000   0.00046   0.00046   2.78149
   R27        2.07129   0.00170   0.00000   0.00428   0.00428   2.07557
   R28        2.06331   0.00101   0.00000   0.00289   0.00289   2.06620
   R29        1.91065   0.00267   0.00000   0.00513   0.00513   1.91578
   R30        1.91224   0.00287   0.00000   0.00609   0.00609   1.91832
    A1        2.14110  -0.00037   0.00000   0.00227   0.00224   2.14334
    A2        2.12794  -0.00185   0.00000  -0.00329  -0.00331   2.12463
    A3        2.01389   0.00223   0.00000   0.00131   0.00128   2.01517
    A4        2.11961  -0.00393   0.00000  -0.01220  -0.01223   2.10738
    A5        2.07902   0.00158   0.00000  -0.00186  -0.00190   2.07712
    A6        2.08388   0.00236   0.00000   0.01457   0.01454   2.09843
    A7        1.87506   0.00142   0.00000   0.03156   0.03149   1.90655
    A8        1.92243   0.00211   0.00000   0.02523   0.02516   1.94759
    A9        1.89392  -0.00067   0.00000   0.00415   0.00457   1.89849
   A10        1.93802  -0.00129   0.00000  -0.01075  -0.01169   1.92633
   A11        1.94010  -0.00022   0.00000  -0.02133  -0.02190   1.91819
   A12        1.89397  -0.00127   0.00000  -0.02742  -0.02783   1.86614
   A13        2.03511  -0.00309   0.00000  -0.01715  -0.01717   2.01794
   A14        2.13985   0.00459   0.00000   0.01385   0.01383   2.15367
   A15        2.10800  -0.00153   0.00000   0.00306   0.00303   2.11104
   A16        1.94648  -0.00387   0.00000  -0.02267  -0.02267   1.92381
   A17        1.97597   0.00573   0.00000  -0.00496  -0.00505   1.97093
   A18        1.86164  -0.00283   0.00000  -0.01501  -0.01506   1.84659
   A19        1.89897  -0.00168   0.00000  -0.00774  -0.00792   1.89105
   A20        1.90407  -0.00107   0.00000   0.03868   0.03874   1.94280
   A21        1.93920  -0.00142   0.00000  -0.01349  -0.01362   1.92559
   A22        1.88009   0.00106   0.00000   0.00297   0.00290   1.88299
   A23        2.30476  -0.00035   0.00000   0.02620   0.02610   2.33086
   A24        2.14965   0.00283   0.00000  -0.02150  -0.02154   2.12811
   A25        1.82761  -0.00246   0.00000  -0.00548  -0.00548   1.82213
   A26        1.93555   0.00130   0.00000  -0.00009  -0.00012   1.93543
   A27        2.22904  -0.00118   0.00000  -0.00295  -0.00303   2.22601
   A28        2.11859  -0.00012   0.00000   0.00311   0.00303   2.12163
   A29        1.83128   0.00334   0.00000   0.00911   0.00913   1.84042
   A30        1.95191  -0.00196   0.00000  -0.00680  -0.00681   1.94511
   A31        2.20625  -0.00029   0.00000  -0.00648  -0.00649   2.19976
   A32        2.12501   0.00225   0.00000   0.01332   0.01331   2.13832
   A33        1.87834  -0.00022   0.00000   0.00332   0.00332   1.88166
   A34        2.19791   0.00037   0.00000  -0.01122  -0.01126   2.18665
   A35        2.20219  -0.00005   0.00000   0.00886   0.00885   2.21105
   A36        2.00934   0.00436   0.00000   0.01665   0.01662   2.02596
   A37        1.89089  -0.00231   0.00000  -0.01057  -0.01061   1.88028
   A38        1.84707  -0.00072   0.00000   0.00427   0.00425   1.85132
   A39        1.90651   0.00011   0.00000   0.00372   0.00374   1.91025
   A40        1.93334  -0.00187   0.00000  -0.00635  -0.00641   1.92693
   A41        1.87111   0.00014   0.00000  -0.00969  -0.00970   1.86141
   A42        1.94442  -0.00116   0.00000  -0.00717  -0.00719   1.93723
   A43        1.90035  -0.00020   0.00000  -0.00157  -0.00156   1.89878
   A44        1.90567   0.00110   0.00000   0.00197   0.00190   1.90757
   A45        1.95833   0.00145   0.00000   0.01537   0.01539   1.97372
   A46        1.88818  -0.00087   0.00000  -0.01033  -0.01035   1.87782
   A47        1.86462  -0.00026   0.00000   0.00186   0.00189   1.86651
   A48        1.92846   0.00162   0.00000   0.01327   0.01322   1.94168
   A49        1.93181  -0.00062   0.00000   0.00068   0.00063   1.93244
   A50        1.86671   0.00017   0.00000   0.00766   0.00757   1.87428
    D1        0.01104  -0.00034   0.00000  -0.02108  -0.02102  -0.00999
    D2        3.11279  -0.00027   0.00000  -0.00567  -0.00570   3.10709
    D3       -3.10632  -0.00084   0.00000  -0.03437  -0.03435  -3.14066
    D4       -0.00457  -0.00077   0.00000  -0.01897  -0.01902  -0.02359
    D5        2.52346  -0.00092   0.00000   0.01358   0.01365   2.53711
    D6       -1.61989   0.00047   0.00000   0.02186   0.02184  -1.59805
    D7        0.38206  -0.00079   0.00000   0.00790   0.00788   0.38994
    D8       -0.64217  -0.00040   0.00000   0.02685   0.02690  -0.61527
    D9        1.49766   0.00099   0.00000   0.03512   0.03509   1.53275
   D10       -2.78357  -0.00027   0.00000   0.02117   0.02113  -2.76244
   D11       -2.76643   0.00009   0.00000   0.01800   0.01830  -2.74813
   D12        1.40374  -0.00046   0.00000  -0.00323  -0.00348   1.40025
   D13       -0.66724   0.00026   0.00000   0.01288   0.01291  -0.65433
   D14        0.41512   0.00003   0.00000   0.00292   0.00317   0.41828
   D15       -1.69790  -0.00051   0.00000  -0.01831  -0.01862  -1.71652
   D16        2.51430   0.00021   0.00000  -0.00220  -0.00222   2.51208
   D17        2.65192  -0.00014   0.00000   0.02013   0.02010   2.67202
   D18       -0.51225  -0.00141   0.00000   0.00775   0.00770  -0.50454
   D19       -1.52808   0.00258   0.00000   0.06457   0.06443  -1.46365
   D20        1.59094   0.00131   0.00000   0.05219   0.05203   1.64297
   D21        0.58227  -0.00007   0.00000   0.00791   0.00812   0.59039
   D22       -2.58190  -0.00133   0.00000  -0.00446  -0.00428  -2.58618
   D23       -3.04000   0.00064   0.00000  -0.24256  -0.24250   3.00069
   D24       -0.94566   0.00082   0.00000  -0.20758  -0.20761  -1.15327
   D25        1.07802  -0.00027   0.00000  -0.21583  -0.21580   0.86222
   D26        1.16826  -0.00166   0.00000  -0.29120  -0.29097   0.87729
   D27       -3.02059  -0.00149   0.00000  -0.25622  -0.25608   3.00652
   D28       -0.99691  -0.00258   0.00000  -0.26447  -0.26428  -1.26118
   D29       -0.96905   0.00029   0.00000  -0.23932  -0.23949  -1.20854
   D30        1.12529   0.00046   0.00000  -0.20434  -0.20460   0.92069
   D31       -3.13422  -0.00063   0.00000  -0.21259  -0.21280   2.93617
   D32        0.04371  -0.00105   0.00000   0.06509   0.06513   0.10884
   D33       -3.07574   0.00011   0.00000   0.07707   0.07704  -2.99870
   D34        1.67985  -0.00118   0.00000  -0.32258  -0.32264   1.35721
   D35       -1.40160  -0.00175   0.00000  -0.30190  -0.30189  -1.70349
   D36       -0.39010  -0.00049   0.00000  -0.32681  -0.32687  -0.71697
   D37        2.81164  -0.00107   0.00000  -0.30613  -0.30613   2.50552
   D38       -2.46031  -0.00026   0.00000  -0.34663  -0.34661  -2.80692
   D39        0.74143  -0.00083   0.00000  -0.32595  -0.32587   0.41556
   D40       -3.08470  -0.00063   0.00000   0.01922   0.01952  -3.06517
   D41        0.05247  -0.00024   0.00000   0.04031   0.04046   0.09292
   D42        0.00485  -0.00001   0.00000   0.00068   0.00071   0.00556
   D43       -3.14118   0.00039   0.00000   0.02176   0.02165  -3.11953
   D44        3.08513   0.00072   0.00000  -0.01217  -0.01185   3.07328
   D45        0.04312  -0.00036   0.00000  -0.02283  -0.02250   0.02062
   D46       -0.01030   0.00026   0.00000   0.00254   0.00249  -0.00781
   D47       -3.05231  -0.00081   0.00000  -0.00812  -0.00816  -3.06047
   D48        0.00264  -0.00024   0.00000  -0.00368  -0.00370  -0.00106
   D49       -3.13485  -0.00060   0.00000  -0.02320  -0.02317   3.12517
   D50       -0.00948   0.00041   0.00000   0.00539   0.00536  -0.00412
   D51        3.12649   0.00070   0.00000   0.01372   0.01372   3.14021
   D52        0.01286  -0.00044   0.00000  -0.00518  -0.00511   0.00775
   D53        3.05455   0.00066   0.00000   0.00405   0.00426   3.05882
   D54       -3.12342  -0.00071   0.00000  -0.01299  -0.01305  -3.13647
   D55       -0.08172   0.00040   0.00000  -0.00375  -0.00368  -0.08540
   D56        1.19989  -0.00091   0.00000  -0.02435  -0.02432   1.17556
   D57       -2.91439   0.00000   0.00000  -0.01080  -0.01077  -2.92516
   D58       -0.88454   0.00018   0.00000  -0.00836  -0.00833  -0.89287
   D59       -0.93156  -0.00105   0.00000  -0.02513  -0.02515  -0.95671
   D60        1.23735  -0.00014   0.00000  -0.01158  -0.01160   1.22575
   D61       -3.01599   0.00004   0.00000  -0.00914  -0.00915  -3.02514
   D62       -2.98875  -0.00018   0.00000  -0.01177  -0.01178  -3.00053
   D63       -0.81985   0.00073   0.00000   0.00178   0.00177  -0.81807
   D64        1.21001   0.00091   0.00000   0.00422   0.00421   1.21422
   D65       -2.91371   0.00024   0.00000  -0.00410  -0.00411  -2.91782
   D66        1.30499  -0.00059   0.00000  -0.02238  -0.02243   1.28256
   D67        1.23363   0.00031   0.00000  -0.00792  -0.00790   1.22573
   D68       -0.83085  -0.00053   0.00000  -0.02620  -0.02623  -0.85708
   D69       -0.81892   0.00033   0.00000  -0.01265  -0.01259  -0.83150
   D70       -2.88340  -0.00050   0.00000  -0.03093  -0.03091  -2.91431
         Item               Value     Threshold  Converged?
 Maximum Force            0.008065     0.000450     NO 
 RMS     Force            0.002107     0.000300     NO 
 Maximum Displacement     1.275703     0.001800     NO 
 RMS     Displacement     0.313115     0.001200     NO 
 Predicted change in Energy=-3.942601D-03
 GradGradGradGradGradGradGradGradGradGradGradGradGradGradGradGradGradGrad

                          Input orientation:                          
 ---------------------------------------------------------------------
 Center     Atomic      Atomic             Coordinates (Angstroms)
 Number     Number       Type             X           Y           Z
 ---------------------------------------------------------------------
      1          8           0        1.055883    0.758405   -2.389179
      2          6           0        1.647612    0.298184   -1.421559
      3          7           0        1.058050    0.131626   -0.209497
      4          6           0       -0.316359    0.508581   -0.001233
      5          6           0       -0.551040    0.749707    1.484323
      6          8           0       -1.541303    1.610514    1.784947
      7          8           0        0.068717    0.192320    2.351564
      8          6           0       -1.295524   -0.577687   -0.535267
      9          6           0       -2.714859   -0.311720   -0.166443
     10          6           0       -3.676763    0.544251   -0.653075
     11          7           0       -4.825712    0.476148    0.106940
     12          6           0       -4.573154   -0.408862    1.044523
     13          7           0       -3.314362   -0.919950    0.921910
     14          6           0        3.107297   -0.142990   -1.507869
     15          6           0        3.955139    0.084079   -0.251618
     16          7           0        3.504680   -0.779605    0.851841
     17          1           0        1.598081   -0.286737    0.551306
     18          1           0       -0.519329    1.424331   -0.563722
     19          1           0       -2.015961    1.868061    0.981981
     20          1           0       -1.162951   -0.590671   -1.617860
     21          1           0       -0.977638   -1.548661   -0.146388
     22          1           0       -3.606529    1.191236   -1.514051
     23          1           0       -5.250915   -0.717766    1.824732
     24          1           0       -2.860548   -1.561829    1.553685
     25          1           0        3.119446   -1.208528   -1.769127
     26          1           0        3.534760    0.391919   -2.356991
     27          1           0        5.013251   -0.061199   -0.507854
     28          1           0        3.846008    1.121745    0.075234
     29          1           0        3.913403   -0.492041    1.733893
     30          1           0        3.780430   -1.742978    0.689464
 ---------------------------------------------------------------------
                    Distance matrix (angstroms):
                    1          2          3          4          5
     1  O    0.000000
     2  C    1.224024   0.000000
     3  N    2.268010   1.358094   0.000000
     4  C    2.765456   2.432853   1.440302   0.000000
     5  C    4.193601   3.671797   2.416654   1.523185   0.000000
     6  O    4.989468   4.708829   3.594656   2.430058   1.346100
     7  O    4.875407   4.091524   2.746178   2.404986   1.202866
     8  C    3.278909   3.196047   2.479630   1.556900   2.528829
     9  C    4.506020   4.580223   3.799111   2.540273   2.921261
    10  C    5.045578   5.385173   4.773413   3.423227   3.792206
    11  N    6.395580   6.653714   5.902329   4.510767   4.499427
    12  C    6.696183   6.728997   5.794407   4.478349   4.208694
    13  N    5.734040   5.621110   4.637227   3.446870   3.277195
    14  C    2.407804   1.527339   2.441434   3.796830   4.809735
    15  C    3.664638   2.596013   2.897785   4.299836   4.874649
    16  N    4.343535   3.127088   2.818294   4.121589   4.380376
    17  H    3.167452   2.058344   1.022488   2.145440   2.561925
    18  H    2.501408   2.588383   2.069948   1.093704   2.156528
    19  H    4.693856   4.654383   3.726173   2.388209   1.910250
    20  H    2.708904   2.954295   2.727278   2.130389   3.434324
    21  H    3.806293   3.453814   2.640336   2.165781   2.850210
    22  H    4.763536   5.330300   4.958118   3.685085   4.303627
    23  H    7.727342   7.691568   6.683007   5.402584   4.935400
    24  H    6.022299   5.712725   4.618659   3.630050   3.268308
    25  H    2.917462   2.134779   2.911669   4.228318   5.281296
    26  H    2.506029   2.108352   3.288401   4.516008   5.619383
    27  H    4.457791   3.505930   3.971123   5.383871   5.965541
    28  H    3.740341   2.784167   2.972224   4.207983   4.632276
    29  H    5.169987   3.964233   3.509810   4.680042   4.640633
    30  H    4.812288   3.629280   3.425438   4.725491   5.060327
                    6          7          8          9         10
     6  O    0.000000
     7  O    2.219120   0.000000
     8  C    3.198754   3.284488   0.000000
     9  C    2.979956   3.787177   1.490396   0.000000
    10  C    3.411900   4.814596   2.634942   1.376502   0.000000
    11  N    3.858735   5.392062   3.739682   2.269620   1.379256
    12  C    3.717288   4.859706   3.642402   2.220166   2.143310
    13  N    3.208086   3.837483   2.513207   1.383423   2.180779
    14  C    5.960444   4.923477   4.529874   5.977072   6.872150
    15  C    6.057101   4.678947   5.299798   6.682274   7.656295
    16  N    5.660857   3.872938   5.000680   6.319690   7.455903
    17  H    3.870034   2.410266   3.104553   4.372326   5.474035
    18  H    2.568140   3.219090   2.147409   2.827022   3.279011
    19  H    0.967670   3.004954   2.966944   2.561011   2.680326
    20  H    4.070314   4.229232   1.090757   2.143092   2.922004
    21  H    3.745419   3.219571   1.093192   2.132689   3.452867
    22  H    3.914632   5.426624   3.070481   2.206808   1.079260
    23  H    4.379919   5.422572   4.608072   3.249805   3.195335
    24  H    3.443494   3.506315   2.789544   2.131393   3.157779
    25  H    6.503924   5.315018   4.627346   6.116533   7.106776
    26  H    6.663861   5.850110   5.252663   6.659681   7.411653
    27  H    7.142391   5.717426   6.329942   7.739703   8.712291
    28  H    5.673195   4.507043   5.449416   6.719985   7.579975
    29  H    5.846124   3.953666   5.682372   6.897655   8.023848
    30  H    6.384891   4.503861   5.350064   6.705956   7.914768
                   11         12         13         14         15
    11  N    0.000000
    12  C    1.313807   0.000000
    13  N    2.213017   1.364113   0.000000
    14  C    8.119334   8.097822   6.909789   0.000000
    15  C    8.796910   8.640298   7.431748   1.532502   0.000000
    16  N    8.457377   8.088633   6.820846   2.476171   1.471898
    17  H    6.484179   6.192118   4.966931   2.557068   2.517521
    18  H    4.460244   4.730808   3.938903   4.062060   4.681298
    19  H    3.255430   3.424548   3.076111   6.040815   6.352825
    20  H    4.186748   4.330222   3.344760   4.295059   5.340108
    21  H    4.355652   3.955395   2.645150   4.529485   5.197038
    22  H    2.150668   3.168750   3.236723   6.845119   7.745861
    23  H    2.134721   1.078660   2.146207   9.016446   9.471304
    24  H    3.179354   2.126405   1.008512   6.855756   7.240285
    25  H    8.335664   8.229957   6.979888   1.097167   2.161493
    26  H    8.716396   8.828919   7.706014   1.090808   2.168889
    27  H    9.872787   9.717505   8.492986   2.153922   1.098346
    28  H    8.695777   8.611885   7.493749   2.156725   1.093385
    29  H    8.941840   8.514916   7.285808   3.358670   2.067827
    30  H    8.906713   8.466894   7.146151   2.800239   2.062595
                   16         17         18         19         20
    16  N    0.000000
    17  H    1.992074   0.000000
    18  H    4.801438   2.941848   0.000000
    19  H    6.124095   4.229650   2.196816   0.000000
    20  H    5.284118   3.524337   2.363406   3.678608   0.000000
    21  H    4.656080   2.951874   3.036922   3.745040   1.765592
    22  H    7.749255   5.791206   3.238558   3.036145   3.026061
    23  H    8.809698   6.979695   5.716746   4.226305   5.345936
    24  H    6.451402   4.744470   4.345327   3.578312   3.726081
    25  H    2.683628   2.923809   4.650337   6.588353   4.329383
    26  H    3.416135   3.559423   4.551629   6.643661   4.855954
    27  H    2.154220   3.582747   5.728819   7.439857   6.297454
    28  H    2.082007   2.695114   4.422216   5.978449   5.557752
    29  H    1.013786   2.607945   5.347956   6.425948   6.083859
    30  H    1.015132   2.627236   5.485458   6.835445   5.575713
                   21         22         23         24         25
    21  H    0.000000
    22  H    4.035915   0.000000
    23  H    4.778765   4.182794   0.000000
    24  H    2.536882   4.188897   2.549463   0.000000
    25  H    4.419849   7.145815   9.122478   6.850272   0.000000
    26  H    5.386497   7.235155   9.793176   7.746643   1.754851
    27  H    6.183361   8.768218  10.546333   8.276385   2.548269
    28  H    5.517947   7.620431   9.444498   7.373282   3.059368
    29  H    5.345482   8.362532   9.167547   6.860272   3.662632
    30  H    4.834834   8.248167   9.159972   6.699424   2.601386
                   26         27         28         29         30
    26  H    0.000000
    27  H    2.410511   0.000000
    28  H    2.558367   1.761194   0.000000
[...]
 58,0.00021610,-0.00003825,0.00031559,-0.00069519,0.00006759,0.00111394
 ,0.00056261,0.00013383,-0.00053117,0.00012940,0.00010731,-0.00047082,-
 0.00091373,-0.00078181,-0.00055966,-0.01243254,0.00797381,-0.00906838,
 0.00262518,0.00289581,-0.00171631,0.00344777,0.00067713,0.00420426,-0.
 00328749,-0.00754716,0.00065154,-0.04724697,0.20482993,-0.18056321,-0.
 00000971,0.00003462,-0.00000529,0.00002374,-0.00000480,0.00004504,-0.0
 0002776,0.00001579,-0.00005935,0.00002807,-0.00001376,0.00013460,-0.00
 010149,-0.00014226,-0.00008702,0.00010724,-0.00003034,0.00039149,0.000
 00738,-0.00007872,0.00002256,0.00092018,-0.00040873,0.00031551,-0.0000
 4145,0.00123409,0.00100858,-0.00020718,-0.00043933,-0.00069191,0.05720
 471,-0.20834128,0.18570042,-0.00324978,-0.00364773,-0.00092470,-0.0001
 6552,0.03480840,0.00393869,-0.00135313,-0.00178467,0.00079644,-0.00025
 002,-0.00137930,-0.00026483,0.00005154,-0.00013278,-0.00030072,-0.0000
 4822,0.00005650,0.00007146,0.00003203,0.00000989,0.00017833,-0.0003735
 3,0.00021537,0.00020121,-0.00005052,-0.00015138,-0.00005380,0.00001975
 ,-0.00000179,-0.00000768,-0.00004153,-0.00000968,0.00003249,-0.0000431
 5,0.00002043,0.00001476,-0.00002952,0.00000415,-0.00001855,-0.04658943
 ,0.01912218,0.00352326,0.00108918,-0.02213091,-0.00445577,0.00063701,0
 .00039369,0.00189156,-0.00031323,0.00067126,0.00009276,0.00005185,0.00
 001339,-0.00011056,0.00002603,-0.00000976,-0.00001674,0.00006905,0.000
 17569,-0.00000017,-0.00001154,-0.00002956,0.00008566,0.00000871,-0.000
 00954,0.00000534,-0.00000241,0.00000508,0.00000493,0.00000346,0.000017
 71,-0.00000496,0.05151062,0.00171977,0.00128148,-0.00015990,0.00046423
 ,-0.00823573,-0.00002203,0.00045617,0.00077593,0.00033066,0.00015791,0
 .00019425,-0.00014931,-0.00001646,0.00003018,0.00009575,0.00005637,-0.
 00002474,-0.00004334,0.00001573,0.00001983,-0.00005543,0.00008321,-0.0
 0007181,-0.00001812,-0.00000215,0.00003895,0.00000587,-0.00000431,0.00
 000548,0.00001273,0.00001340,0.00000947,-0.00000758,0.00001535,-0.0000
 0552,-0.00000761,0.00001526,0.00000590,0.00000633,0.01452747,-0.290577
 96,-0.03896214,-0.00009767,-0.00931106,-0.00173257,0.00016502,0.002054
 49,0.00088001,0.00000198,-0.00036993,-0.00007674,-0.00009239,0.0000172
 9,0.00006878,-0.00003015,-0.00000728,-0.00000506,-0.00002840,-0.000074
 11,-0.00001985,0.00000306,0.00002102,-0.00003770,-0.00000809,0.0000002
 4,-0.00000709,0.00000087,-0.00000198,-0.00000258,-0.00000283,-0.000014
 19,-0.00000178,-0.01597260,0.31696521,-0.00115393,-0.00036125,0.000010
 89,0.00046715,-0.00540567,-0.00239482,0.00110165,0.00070724,-0.0002944
 1,0.00012294,0.00041153,0.00001080,0.00003560,-0.00003357,0.00004660,-
 0.00003428,0.00001001,0.00000186,-0.00002116,0.00006408,-0.00001341,0.
 00010707,-0.00008798,-0.00003688,0.00003106,0.00003756,0.00001886,-0.0
 0000437,0.00000084,-0.00000158,-0.00000658,0.00000414,-0.00000708,0.00
 000772,-0.00000814,0.00000131,-0.00000311,0.00000175,-0.00000054,0.003
 16488,-0.03825182,-0.04927429,0.00018554,-0.02744659,-0.00729928,0.000
 95568,-0.00038961,0.00259595,0.00026293,-0.00059996,-0.00001024,0.0000
 0690,-0.00000967,-0.00003764,0.00000200,-0.00000230,0.00000355,0.00001
 610,0.00002252,-0.00000462,0.00000798,0.00000616,-0.00001502,0.0000038
 9,0.00000074,0.00000208,0.00000006,-0.00000088,0.00000003,0.00000725,-
 0.00000097,0.00000184,-0.00005262,0.04422152,0.05425826,0.00332604,0.0
 0111169,-0.00205744,-0.01162488,-0.01744364,0.03166022,-0.00632463,0.0
 0275559,-0.00097723,0.00047370,0.00024494,0.00155512,-0.00052704,0.000
 09091,-0.00051900,-0.00019265,0.00014489,0.00034618,0.00012003,-0.0000
 1246,0.00020368,0.00009411,0.00008381,0.00003877,-0.00000117,-0.000048
 93,-0.00003966,0.00000599,-0.00003713,0.00001964,-0.00004328,0.0000042
 2,0.00000534,-0.00001967,0.00001524,0.00000912,0.00000005,0.00001691,-
 0.00003915,-0.07205812,-0.03809470,0.06544899,0.00669879,0.01112803,-0
 .01539041,-0.00205659,-0.00212964,-0.00427229,-0.00048990,-0.00011851,
 -0.00075218,-0.00010524,0.00006836,0.00006425,0.00009465,-0.00003266,0
 .00002164,-0.00002470,-0.00006756,0.00000292,0.00000439,-0.00001049,-0
 .00001906,-0.00000055,0.00000311,0.00000670,-0.00000069,0.00000413,0.0
 0000278,0.00001124,0.00001235,-0.00000487,0.00018770,0.00073244,-0.002
 03778,0.08154977,-0.00119479,-0.00006114,-0.00104440,0.00586009,0.0029
 0789,-0.00815543,0.00148330,0.00003416,0.00036123,0.00041626,0.0002723
 8,-0.00046215,0.00015547,-0.00000826,0.00000739,-0.00002830,-0.0000268
 5,-0.00002047,-0.00004411,0.00002456,0.00000885,-0.00002165,-0.0000560
 2,0.00000068,0.00002373,-0.00000036,0.00000062,-0.00000066,-0.00000336
 ,0.00000042,-0.00002069,0.00000202,0.00000018,-0.00000160,-0.00000146,
 0.00000391,-0.00001079,0.00000541,-0.00000379,-0.04030194,-0.10225631,
 0.10307626,0.00372153,0.00394494,-0.00797530,-0.00077529,0.00034820,-0
 .00148235,-0.00011375,-0.00028010,-0.00011028,-0.00007700,0.00002268,0
 .00001361,0.00000984,0.00000642,-0.00000222,0.00001488,0.00001441,0.00
 002191,0.00001069,0.00000366,-0.00001479,0.00000438,0.00000042,0.00000
 445,-0.00000077,0.00000080,0.00000134,0.00000777,0.00000314,-0.0000029
 9,-0.01018876,-0.01455942,0.02673584,0.04053141,0.10848000,-0.00244226
 ,-0.00082092,0.00169595,0.00229221,0.00275490,-0.00749833,0.00143715,-
 0.00021081,0.00126449,-0.00021577,0.00021553,-0.00019942,-0.00006517,0
 .00004470,0.00000962,0.00011991,-0.00007255,-0.00004959,0.00011173,-0.
 00003499,0.00003701,0.00001661,-0.00002421,0.00001035,0.00001631,0.000
 02222,0.00001546,-0.00000154,0.00001313,-0.00000974,0.00001260,-0.0000
 0590,0.00000252,-0.00000097,-0.00000192,-0.00000326,-0.00000047,-0.000
 00592,0.00001918,0.06867225,0.10151971,-0.23342404,0.00916848,0.011750
 43,-0.01699934,-0.00288579,-0.00276278,-0.00398995,-0.00076534,-0.0000
 1964,0.00006583,0.00005547,-0.00001303,-0.00003535,-0.00002493,0.00000
 711,-0.00001629,0.00004288,0.00004547,-0.00000012,-0.00001082,-0.00001
 176,0.00000991,0.00000196,-0.00000075,-0.00000039,-0.00000091,-0.00000
 170,-0.00000148,-0.00000598,-0.00000338,-0.00000260,-0.00207710,-0.002
 47399,0.00548567,-0.07306675,-0.11083535,0.25325819,-0.00199199,0.0011
 4824,-0.00041613,0.00201688,-0.00240719,-0.00404159,-0.00005252,-0.000
 09957,0.00026169,0.00041299,0.00009296,-0.00003422,0.00032095,-0.00022
 327,-0.00021410,-0.00029192,0.00015351,0.00014056,-0.00020873,0.000102
 27,0.00013573,-0.00003599,0.00001986,0.00003288,0.00004910,-0.00005517
 ,-0.00004249,0.00002028,-0.00002203,0.00000454,-0.00008739,0.00000474,
 0.00002559,-0.00003206,0.00001118,0.00001508,-0.00002162,0.00001981,-0
 .00003648,-0.02101584,0.00364593,0.00365382,-0.26781415,0.03133634,0.0
 5978908,-0.00129890,-0.00464916,0.00822925,0.00073416,-0.00014308,0.00
 028310,-0.00008999,0.00000839,0.00000504,0.00007675,-0.00001358,0.0000
 0798,0.00004373,0.00005127,0.00000169,0.00000931,0.00000299,0.00001401
 ,0.00001641,-0.00001026,0.00001169,-0.00000282,0.00000285,0.00000480,0
 .00002663,0.00002375,-0.00001152,0.00062951,-0.00057212,0.00055532,0.0
 0044651,0.00047089,-0.00047684,0.29121579,-0.00082171,0.00050160,-0.00
 008922,0.00014610,-0.00025034,-0.00232335,0.00006903,0.00056499,0.0002
 4819,-0.00023193,0.00004153,-0.00004893,0.00011814,-0.00010423,0.00014
 940,-0.00006655,0.00004460,-0.00003721,-0.00012929,0.00011509,-0.00007
 125,0.00001992,-0.00001120,-0.00002061,0.00000202,0.00000726,0.0000143
 0,-0.00000245,0.00000141,0.00000004,0.00000479,0.00000371,-0.00000575,
 0.00000769,-0.00000545,0.00000051,-0.00000222,0.00000084,-0.00000164,-
 0.01046399,0.00170750,0.00105904,0.03175778,-0.05762691,-0.01099894,-0
 .02105193,0.00022246,0.01412363,0.00076006,-0.00075802,0.00075436,-0.0
 0003518,-0.00002303,-0.00002503,-0.00001268,-0.00000268,0.00000801,0.0
 0000016,0.00000071,-0.00000059,0.00000359,0.00000630,0.00000199,-0.000
 00075,-0.00000033,-0.00000168,0.00000039,-0.00000016,-0.00000014,0.000
 00305,-0.00000029,0.00000369,0.00008863,0.00034759,0.00086102,0.000613
 98,0.00040995,0.00028499,-0.02989879,0.05632443,-0.00218473,0.00142918
 ,-0.00004705,0.00105511,-0.00337514,-0.00538270,-0.00003863,-0.0002689
 8,0.00202367,0.00016966,-0.00002150,0.00035984,-0.00059279,0.00023642,
 -0.00052990,0.00022624,-0.00011055,0.00013484,0.00045211,-0.00017023,0
 .00032177,-0.00004227,0.00001606,0.00000463,0.00002025,-0.00001216,-0.
 00000819,0.00001267,0.00001806,-0.00000459,-0.00000681,-0.00001356,0.0
 0002419,-0.00003135,0.00001204,-0.00000257,0.00000048,-0.00000304,0.00
 001839,-0.02717621,0.00344971,0.00597123,0.06070409,-0.01068992,-0.064
 59717,0.02985876,0.00569098,-0.01831921,-0.00233596,0.00104548,-0.0013
 9773,0.00005320,-0.00004768,-0.00001675,0.00000678,-0.00001759,-0.0000
 4534,0.00005466,0.00004987,0.00000671,-0.00000980,-0.00002087,0.000005
 93,0.00000492,-0.00000708,-0.00000171,-0.00000279,-0.00000086,-0.00000
 098,-0.00001146,-0.00000097,-0.00001232,0.00083705,-0.00006110,0.00079
 796,0.00043760,0.00047540,0.00085052,-0.06953907,0.00556088,0.07978740
 ,0.00025562,0.00007177,0.00012211,0.00102182,-0.00140157,-0.00032371,0
 .00007187,0.00049420,0.00025885,-0.00026030,0.00014512,0.00011523,-0.0
 0018290,0.00007287,0.00010905,0.00011281,-0.00005130,-0.00005975,0.000
 11268,0.00002058,-0.00008216,0.00009717,-0.00005004,-0.00003296,-0.000
 00181,0.00004812,0.00002938,-0.00000964,0.00001074,0.00000071,0.000033
 92,0.00000234,-0.00001297,0.00001809,-0.00000947,-0.00000825,0.0000113
 1,-0.00000539,0.00001493,0.00149300,-0.02053384,-0.00604531,-0.0568377
 0,0.04001573,0.01188380,0.00120180,-0.00848704,-0.00215158,0.00007904,
 -0.00065695,0.00013347,0.00000305,-0.00002009,0.00000325,-0.00003920,-
 0.00000197,-0.00000450,-0.00000481,-0.00002013,-0.00000617,-0.00000091
 ,0.00000666,-0.00001447,-0.00000654,0.00000277,-0.00000643,0.00000135,
 -0.00000189,-0.00000258,-0.00000828,-0.00001234,0.00000531,-0.00206825
 ,-0.00151399,-0.00337474,0.00045921,0.00053133,0.00047048,-0.00444309,
 0.02989020,0.00817663,0.05787070,-0.00054692,0.00010588,0.00001395,0.0
 0134456,0.00011255,-0.00062646,-0.00043660,0.00089808,0.00062378,-0.00
 021524,-0.00003729,0.00003844,-0.00011574,-0.00003585,-0.00003998,0.00
 003008,0.00001091,0.00000785,0.00007833,0.00010981,0.00002511,0.000011
 87,-0.00002120,-0.00001043,0.00001060,0.00001025,0.00001967,-0.0000007
 9,0.00000793,0.00000689,-0.00000148,0.00000957,-0.00000087,0.00000592,
 -0.00000792,-0.00000136,-0.00000060,0.00001037,0.00000145,-0.00044506,
 -0.00649804,-0.00355059,0.03563395,-0.28270525,-0.05687440,0.00143294,
 -0.02114855,-0.00008796,0.00044606,-0.00080946,0.00020219,-0.00003524,
 -0.00001218,-0.00002893,-0.00002367,-0.00002003,-0.00001488,0.00000875
 ,0.00000179,0.00000637,0.00000484,0.00000791,-0.00000662,-0.00000162,-
 0.00000358,-0.00000490,-0.00000032,-0.00000143,-0.00000161,0.00000177,
 -0.00000978,-0.00000180,-0.00050364,0.00117101,-0.00112854,-0.00019894
 ,0.00012149,-0.00049635,0.00193009,-0.00308897,-0.00194616,-0.03775574
 ,0.31159293,-0.00030698,0.00032667,-0.00022141,0.00182582,-0.00028728,
 0.00067444,-0.00012048,0.00022026,0.00046799,-0.00002529,-0.00011705,0
 .00011385,0.00004338,-0.00001485,0.00001136,-0.00003144,0.00002969,0.0
 0001608,-0.00006417,-0.00005727,-0.00000454,-0.00001780,0.00001638,-0.
 00001710,0.00000649,-0.00000857,0.00000590,0.00000450,-0.00000215,0.00
 000538,-0.00001027,0.00000236,0.00000535,-0.00000612,0.00000204,0.0000
 0106,-0.00000289,0.00000821,-0.00000535,0.00183365,-0.02516552,-0.0068
 6142,0.01119483,-0.06516201,-0.06443187,-0.00322988,0.03432301,0.00306
 161,-0.00043541,0.00018057,-0.00013992,-0.00000263,-0.00000386,-0.0000
 3050,0.00000514,-0.00000698,0.00000265,0.00001809,-0.00000295,0.000005
 74,0.00000161,-0.00000177,-0.00000607,-0.00000023,-0.00000422,-0.00000
 158,-0.00000083,0.00000009,-0.00000042,0.00000124,0.00000185,-0.000004
 64,-0.00352340,-0.00072191,-0.00371300,0.00052651,0.00034008,0.0003286
 8,0.00103271,-0.00825202,-0.00136350,-0.00977396,0.06012470,0.07535096
 ,-0.00029418,0.00013049,0.00012991,0.00097998,-0.00058729,0.00002062,-
 0.00201269,0.00123736,0.00039840,0.00036503,0.00018081,-0.00032002,-0.
 00137607,0.00050495,-0.00131546,0.00070446,-0.00034140,0.00024869,0.00
 130031,-0.00016478,0.00095352,-0.00012276,-0.00002096,0.00008327,0.000
 02266,0.00000241,-0.00000609,0.00000708,0.00004050,0.00001228,0.000001
 71,-0.00001247,0.00002921,-0.00004423,0.00001019,-0.00000687,0.0000057
 4,0.00000165,0.00004389,-0.00000546,0.00013616,-0.00046697,-0.00093530
 ,0.00234040,0.01327554,-0.09909911,-0.07942334,-0.17286747,0.00061402,
 -0.00213524,-0.00252760,-0.00020997,0.00006923,0.00005893,-0.00003029,
 -0.00005988,-0.00012741,0.00006791,0.00004109,0.00003528,0.00001368,-0
 .00000698,-0.00003005,-0.00000018,-0.00000767,-0.00000693,-0.00000497,
 -0.00000234,-0.00000351,-0.00002270,-0.00002654,-0.00002733,0.00001999
 ,0.00013246,0.00023438,0.00007536,0.00000782,-0.00030797,0.00028448,0.
 00019829,0.00108996,0.00074043,0.00040860,-0.00054614,0.09716882,0.000
 26367,-0.00012782,-0.00024671,-0.00078717,0.00015773,0.00052293,0.0005
 2915,-0.00014825,-0.00032562,0.00001598,0.00000427,-0.00001010,0.00025
 454,-0.00004103,0.00018546,-0.00009284,0.00003061,-0.00003828,-0.00022
 505,-0.00017290,-0.00010627,0.00001835,0.00000356,-0.00001014,0.000000
 22,0.00000365,-0.00000838,-0.00000060,-0.00001322,-0.00000274,-0.00000
 274,-0.00000644,-0.00000163,-0.00000141,0.00000584,0.00000070,0.000000
 17,-0.00000526,-0.00000494,-0.00141737,-0.00258038,0.00357530,0.011173
 54,0.00920468,0.01956529,-0.05985739,-0.11546410,-0.11251614,-0.000160
 53,0.00022265,0.00021214,0.00002868,-0.00000209,0.00000719,0.00002238,
 0.00002534,0.00002583,-0.00001362,-0.00001666,-0.00000126,-0.00000226,
 -0.00000402,-0.00000456,0.00000086,0.00000302,0.00000450,-0.00000003,0
 .00000136,0.00000104,0.00000104,0.00000994,-0.00000135,-0.00012571,0.0
 0028982,0.00008371,0.00072451,0.00053722,0.00115275,-0.00030596,-0.000
 19033,0.00001765,0.00049126,0.00032372,0.00004494,0.06918920,0.1214681
 5,-0.00013410,-0.00006646,0.00030489,0.00041159,0.00016496,-0.00055671
 ,0.00066102,-0.00041493,0.00044875,-0.00015123,-0.00007537,0.00017681,
 0.00019666,-0.00008113,0.00032153,-0.00013807,0.00006726,-0.00007473,-
 0.00019918,0.00004275,-0.00032189,0.00003198,0.00000767,-0.00002543,-0
 .00001026,0.00000302,0.00001130,-0.00000213,-0.00000602,-0.00000470,0.
 00000733,0.00000462,-0.00001043,0.00001580,-0.00000622,0.00000080,-0.0
 0000123,-0.00000099,-0.00000990,0.00325730,0.00455931,-0.00385312,-0.0
 1592604,-0.01215791,-0.02256247,-0.13110641,-0.11153802,-0.29200942,-0
 .00122307,0.00071177,0.00003619,0.00007324,-0.00004002,-0.00001692,-0.
 00000007,0.00001040,0.00003369,-0.00001134,-0.00000617,-0.00000935,-0.
 00000682,0.00000094,0.00001100,-0.00000091,0.00000168,-0.00000049,0.00
 000219,0.00000043,0.00000081,0.00000401,0.00000530,0.00001187,0.000343
 92,0.00008923,0.00044245,-0.00135271,-0.00044226,-0.00085772,0.0003859
 8,-0.00086681,0.00034271,-0.00044777,0.00013989,0.00157164,0.14853115,
 0.12011341,0.31911891,0.00000793,0.00008118,-0.00015075,-0.00028293,0.
 00027569,0.00011327,-0.00214117,-0.00088152,-0.00103006,-0.00008315,-0
 .00007537,-0.00029118,0.00004451,0.00006826,-0.00002644,-0.00000199,0.
 00000200,-0.00000508,-0.00018414,-0.00027832,0.00006886,-0.00008456,0.
 00018443,-0.00003222,-0.00005276,-0.00005618,-0.00001578,0.00000872,0.
 00000015,-0.00001965,0.00003681,-0.00003501,0.00001124,-0.00003271,0.0
 0002282,0.00000078,0.00000952,-0.00002947,0.00001129,-0.00026982,0.001
 44443,-0.00011444,-0.00084858,-0.01432497,0.00325060,-0.06013990,0.148
 60534,0.01107563,0.00250722,0.00298660,0.00124502,0.00000952,-0.000009
 39,0.00001104,0.00001515,0.00003184,0.00001257,0.00000172,0.00000947,-
 0.00001486,-0.00003930,-0.00004951,0.00004678,0.00000053,0.00000304,0.
 00000417,0.00000056,0.00000256,0.00000152,-0.00002776,0.00001659,0.000
 00298,0.00025332,-0.00021954,-0.00058752,-0.00007843,-0.00046930,-0.00
 006944,0.00108354,-0.00096636,-0.00118828,0.00027954,-0.00106676,0.001
 60397,0.00178624,-0.01972087,-0.00321082,0.05822237,-0.00018100,0.0001
 0233,-0.00014374,0.00011484,-0.00019584,-0.00004013,-0.00046126,-0.000
 01989,-0.00036041,0.00005453,0.00005214,-0.00004130,0.00004349,-0.0000
 3704,-0.00000351,-0.00004156,0.00002153,0.00001343,-0.00005542,0.00000
 982,0.00002273,-0.00000406,0.00002058,-0.00000802,0.00000188,-0.000010
 54,-0.00000730,0.00000266,-0.00000205,-0.00000285,-0.00000235,-0.00000
 669,0.00000477,-0.00001090,0.00000594,0.00000169,-0.00000025,-0.000005
 17,-0.00000109,-0.00002084,0.00117017,0.00022020,0.00817427,-0.0202774
 7,-0.00311801,0.10023982,-0.37494467,-0.04228269,0.00108184,-0.0001853
 1,0.00049137,-0.00003459,0.00000663,-0.00000694,0.00000969,0.00000233,
 0.00000247,0.00000770,0.00000974,-0.00000280,-0.00000055,-0.00000394,0
 .00001158,0.00000193,-0.00000089,0.00000208,-0.00000042,0.00000094,0.0
 0000088,-0.00000168,0.00000800,-0.00000008,0.00047544,0.00002559,0.000
 55831,-0.00009184,0.00011351,-0.00001497,-0.00062489,0.00176199,-0.001
 23433,-0.00128193,-0.00009469,0.00418755,0.00815727,-0.01351907,-0.000
 22033,-0.11555182,0.40599198,0.00029950,-0.00007809,0.00010693,-0.0004
 6216,0.00008063,0.00005378,0.00024060,-0.00001055,-0.00007437,-0.00014
 320,0.00004925,0.00001135,-0.00010692,0.00005367,0.00007478,0.00009205
 ,-0.00005769,-0.00005163,0.00016659,0.00010641,-0.00008272,0.00004366,
 -0.00003827,0.00000455,-0.00001765,0.00001983,0.00001561,-0.00001046,0
 .00000713,-0.00000184,0.00002479,0.00000830,-0.00001866,0.00002536,-0.
 00001348,-0.00000301,0.00000343,-0.00000291,0.00000423,0.00035245,0.00
 112837,0.00163571,-0.01013502,0.03332201,0.00373963,0.00600720,-0.0457
 4044,-0.06782848,-0.00029327,-0.00019676,-0.00029450,0.00002869,-0.000
 00687,0.00001035,-0.00002303,-0.00000324,0.00000235,-0.00002215,-0.000
 00441,-0.00000970,0.00000013,0.00000833,0.00000474,-0.00000433,0.00000
 502,-0.00000305,0.00000273,-0.00000084,-0.00000047,0.00000060,-0.00001
 137,0.00001404,-0.00020626,-0.00114504,-0.00057528,0.00017907,-0.00050
 039,0.00003425,0.00022189,-0.00032689,0.00107992,0.00102415,0.00361155
 ,-0.00482137,0.01341481,-0.03223470,-0.00252007,-0.01070324,0.04197144
 ,0.06949293\\-0.00000006,0.00000044,0.00000004,-0.00000382,-0.00000105
 ,0.00000547,0.00000300,0.00000204,-0.00000035,0.00000299,0.00000249,-0
 .00000104,0.00000479,-0.00000115,-0.00000296,-0.00000216,0.00000397,-0
 .00000549,-0.00000126,-0.00000262,0.00000335,-0.00000579,-0.00000298,0
 .00000390,-0.00000224,0.00000537,-0.00000750,-0.00000059,-0.00000337,0
 .00000150,0.00000265,0.00000019,-0.00000101,0.00000133,-0.00000011,-0.
 00000040,0.00000076,0.00000361,0.00000355,-0.00000031,0.00000202,0.000
 00243,0.00000100,-0.00000146,-0.00000089,0.00000047,0.00000047,0.00000
 151,-0.00000217,-0.00000039,-0.00000416,-0.00000150,-0.00000024,-0.000
 00024,0.00000316,-0.00000294,0.00000647,-0.00000016,-0.00000014,0.0000
 0112,0.00000103,-0.00000128,-0.00000158,0.00000089,0.00000077,0.000000
 70,-0.00000016,-0.00000043,-0.00000120,-0.00000057,-0.00000194,-0.0000
 0255,0.00000033,0.00000031,-0.00000087,0.00000019,-0.00000019,0.000000
 11,-0.00000015,-0.00000002,0.00000024,-0.00000055,-0.00000041,0.000000
 53,-0.00000010,-0.00000078,-0.00000020,-0.00000100,-0.00000021,-0.0000
 0045\\\@


 THE VALUE OF PHILOSOPHY IS, IN FACT, TO BE SOUGHT LARGELY IN ITS
 VERY UNCERTAINTY.  THE MAN WHO HAS NO TINCTURE OF PHILOSOPHY GOES
 THROUGH LIFE IMPRISONED IN THE PREJUDICES DERIVED FROM COMMON SENSE,
 FROM THE HABITUAL BELIEFS OF HIS AGE OR HIS NATION, AND FROM
 CONVICTIONS WHICH HAVE GROWN UP IN HIS MIND WITHOUT THE CO-OPERATION
 OR CONSENT OF HIS DELIBERATE REASON.  TO SUCH A MAN THE WORLD TENDS
 TO BE DEFINITE, FINITE, OBVIOUS; COMMON OBJECTS ROUSE NO QUESTIONS,
 AND UNFAMILIAR POSSIBILITIES ARE CONTEMPTUOUSLY REJECTED.

                             -- BERTRAND RUSSELL
 Job cpu time:       0 days  2 hours  8 minutes 31.4 seconds.
 File lengths (MBytes):  RWF=    415 Int=      0 D2E=      0 Chk=     13 Scr=      1
 Normal termination of Gaussian 09 at Sat Jul 24 02:12:39 2021.
