 Entering Gaussian System, Link 0=g09
 Input=opt_freq-conf-340.com
 Output=opt_freq-conf-340.log
 Initial command:
 /aerosol/software/g09/l1.exe "/scratch/nicole/10410/Gau-72745.inp" -scrdir="/scratch/nicole/10410/"
 Entering Link 1 = /aerosol/software/g09/l1.exe PID=     72751.
  
 Copyright (c) 1988,1990,1992,1993,1995,1998,2003,2009,2013,
            Gaussian, Inc.  All Rights Reserved.
  
 This is part of the Gaussian(R) 09 program.  It is based on
 the Gaussian(R) 03 system (copyright 2003, Gaussian, Inc.),
 the Gaussian(R) 98 system (copyright 1998, Gaussian, Inc.),
 the Gaussian(R) 94 system (copyright 1995, Gaussian, Inc.),
 the Gaussian 92(TM) system (copyright 1992, Gaussian, Inc.),
 the Gaussian 90(TM) system (copyright 1990, Gaussian, Inc.),
 the Gaussian 88(TM) system (copyright 1988, Gaussian, Inc.),
 the Gaussian 86(TM) system (copyright 1986, Carnegie Mellon
 University), and the Gaussian 82(TM) system (copyright 1983,
 Carnegie Mellon University). Gaussian is a federally registered
 trademark of Gaussian, Inc.
  
 This software contains proprietary and confidential information,
 including trade secrets, belonging to Gaussian, Inc.
  
 This software is provided under written license and may be
 used, copied, transmitted, or stored only in accord with that
 written license.
  
 The following legend is applicable only to US Government
 contracts under FAR:
  
                    RESTRICTED RIGHTS LEGEND
  
 Use, reproduction and disclosure by the US Government is
 subject to restrictions as set forth in subparagraphs (a)
 and (c) of the Commercial Computer Software - Restricted
 Rights clause in FAR 52.227-19.
  
 Gaussian, Inc.
 340 Quinnipiac St., Bldg. 40, Wallingford CT 06492
  
  
 ---------------------------------------------------------------
 Warning -- This program may not be used in any manner that
 competes with the business of Gaussian, Inc. or will provide
 assistance to any competitor of Gaussian, Inc.  The licensee
 of this program is prohibited from giving any competitor of
 Gaussian, Inc. access to this program.  By using this program,
 the user acknowledges that Gaussian, Inc. is engaged in the
 business of creating and licensing software in the field of
 computational chemistry and represents and warrants to the
 licensee that it is not a competitor of Gaussian, Inc. and that
 it will not use this program in any manner prohibited above.
 ---------------------------------------------------------------
  

 Cite this work as:
 Gaussian 09, Revision D.01,
 M. J. Frisch, G. W. Trucks, H. B. Schlegel, G. E. Scuseria, 
 M. A. Robb, J. R. Cheeseman, G. Scalmani, V. Barone, B. Mennucci, 
 G. A. Petersson, H. Nakatsuji, M. Caricato, X. Li, H. P. Hratchian, 
 A. F. Izmaylov, J. Bloino, G. Zheng, J. L. Sonnenberg, M. Hada, 
 M. Ehara, K. Toyota, R. Fukuda, J. Hasegawa, M. Ishida, T. Nakajima, 
 Y. Honda, O. Kitao, H. Nakai, T. Vreven, J. A. Montgomery, Jr., 
 J. E. Peralta, F. Ogliaro, M. Bearpark, J. J. Heyd, E. Brothers, 
 K. N. Kudin, V. N. Staroverov, T. Keith, R. Kobayashi, J. Normand, 
 K. Raghavachari, A. Rendell, J. C. Burant, S. S. Iyengar, J. Tomasi, 
 M. Cossi, N. Rega, J. M. Millam, M. Klene, J. E. Knox, J. B. Cross, 
 V. Bakken, C. Adamo, J. Jaramillo, R. Gomperts, R. E. Stratmann, 
 O. Yazyev, A. J. Austin, R. Cammi, C. Pomelli, J. W. Ochterski, 
 R. L. Martin, K. Morokuma, V. G. Zakrzewski, G. A. Voth, 
 P. Salvador, J. J. Dannenberg, S. Dapprich, A. D. Daniels, 
 O. Farkas, J. B. Foresman, J. V. Ortiz, J. Cioslowski, 
 and D. J. Fox, Gaussian, Inc., Wallingford CT, 2013.
 
 ******************************************
 Gaussian 09:  ES64L-G09RevD.01 24-Apr-2013
                24-Jul-2021 
 ******************************************
 %mem=2gb
 %nproc=4
 Will use up to    4 processors via shared memory.
 %chk=conf-340.chk
 ----------------------------------------------------------------------
 # B3LYP/6-311G(d,p) EmpiricalDispersion=GD3BJ opt=calcfc freq=noraman 
 nosymm integral(ultrafinegrid)
 ----------------------------------------------------------------------
 1/10=4,14=-1,18=20,19=15,26=4,38=1/1,3;
 2/9=110,12=2,15=1,17=6,18=5,40=1/2;
 3/5=4,6=6,7=101,11=2,16=1,25=1,30=1,71=2,74=-5,75=-5,124=41,140=1/1,2,3;
 4//1;
 5/5=2,38=5/2;
 8/6=4,10=90,11=11/1;
 11/6=1,8=1,9=11,15=111,16=1,31=1/1,2,10;
 10/6=1,13=1,31=1/2;
 6/7=2,8=2,9=2,10=2,28=1/1;
 7/10=1,18=20,25=1,30=1/1,2,3,16;
 1/10=4,14=-1,18=20,19=15,26=4/3(2);
 2/9=110,15=1/2;
 99//99;
 2/9=110,15=1/2;
 3/5=4,6=6,7=101,11=2,16=1,25=1,30=1,71=1,74=-5,75=-5,124=41/1,2,3;
 4/5=5,16=3,69=1/1;
 5/5=2,38=5/2;
 7/30=1/1,2,3,16;
 1/14=-1,18=20,19=15,26=4/3(-5);
 2/9=110,15=1/2;
 6/7=2,8=2,9=2,10=2,19=2,28=1/1;
 99/9=1/99;
 ------------------------------------------------------------
 Candidate Structure: Conf:340 OPT and FREQ calc in gas phase
 ------------------------------------------------------------
 Symbolic Z-matrix:
 Charge =  0 Multiplicity = 1
 O                     0.53975  -0.91334  -0.72521 
 C                     1.32329  -0.14277  -0.16646 
 N                     0.90022   1.0439    0.32044 
 C                    -0.47302   1.46462   0.14573 
 C                    -0.52293   2.96145   0.41751 
 O                    -1.72483   3.53748   0.21191 
 O                     0.41862   3.60154   0.79264 
 C                    -1.45177   0.66823   1.06386 
 C                    -2.56332   0.02503   0.29898 
 C                    -3.9155    0.18992   0.32055 
 N                    -4.52123  -0.63339  -0.61352 
 C                    -3.53362  -1.2782   -1.18624 
 N                    -2.33141  -0.91703  -0.67339 
 C                     2.79836  -0.44774  -0.00578 
 C                     3.07488  -1.94092  -0.00476 
 N                     4.52098  -2.16624   0.07919 
 H                     1.54257   1.7551    0.63533 
 H                    -0.74614   1.31578  -0.90546 
 H                    -2.34852   2.88034  -0.11888 
 H                    -0.87898  -0.09287   1.5902 
 H                    -1.88211   1.31584   1.82798 
 H                    -4.49613   0.84975   0.94934 
 H                    -3.61864  -2.01285  -1.96748 
 H                    -1.41483  -1.25013  -0.93327 
 H                     3.33808   0.01406  -0.83728 
 H                     3.1737    0.01382   0.91119 
 H                     2.7014   -2.35938  -0.94072 
 H                     2.51041  -2.41337   0.80872 
 H                     4.72481  -3.15255  -0.02997 
 H                     4.85582  -1.91595   1.00272 
 

 GradGradGradGradGradGradGradGradGradGradGradGradGradGradGradGradGradGrad
 Berny optimization.
 Initialization pass.
                           ----------------------------
                           !    Initial Parameters    !
                           ! (Angstroms and Degrees)  !
 --------------------------                            --------------------------
 ! Name  Definition              Value          Derivative Info.                !
 --------------------------------------------------------------------------------
 ! R1    R(1,2)                  1.2329         calculate D2E/DX2 analytically  !
 ! R2    R(2,3)                  1.3506         calculate D2E/DX2 analytically  !
 ! R3    R(2,14)                 1.5148         calculate D2E/DX2 analytically  !
 ! R4    R(3,4)                  1.4468         calculate D2E/DX2 analytically  !
 ! R5    R(3,17)                 1.0088         calculate D2E/DX2 analytically  !
 ! R6    R(4,5)                  1.5221         calculate D2E/DX2 analytically  !
 ! R7    R(4,8)                  1.5605         calculate D2E/DX2 analytically  !
 ! R8    R(4,18)                 1.0962         calculate D2E/DX2 analytically  !
 ! R9    R(5,6)                  1.3486         calculate D2E/DX2 analytically  !
 ! R10   R(5,7)                  1.1987         calculate D2E/DX2 analytically  !
 ! R11   R(6,19)                 0.9645         calculate D2E/DX2 analytically  !
 ! R12   R(8,9)                  1.4948         calculate D2E/DX2 analytically  !
 ! R13   R(8,20)                 1.0883         calculate D2E/DX2 analytically  !
 ! R14   R(8,21)                 1.0902         calculate D2E/DX2 analytically  !
 ! R15   R(9,10)                 1.3624         calculate D2E/DX2 analytically  !
 ! R16   R(9,13)                 1.3736         calculate D2E/DX2 analytically  !
 ! R17   R(10,11)                1.3847         calculate D2E/DX2 analytically  !
 ! R18   R(10,22)                1.0807         calculate D2E/DX2 analytically  !
 ! R19   R(11,12)                1.3112         calculate D2E/DX2 analytically  !
 ! R20   R(12,13)                1.356          calculate D2E/DX2 analytically  !
 ! R21   R(12,23)                1.0758         calculate D2E/DX2 analytically  !
 ! R22   R(13,24)                1.0093         calculate D2E/DX2 analytically  !
 ! R23   R(14,15)                1.5186         calculate D2E/DX2 analytically  !
 ! R24   R(14,25)                1.0936         calculate D2E/DX2 analytically  !
 ! R25   R(14,26)                1.093          calculate D2E/DX2 analytically  !
 ! R26   R(15,16)                1.466          calculate D2E/DX2 analytically  !
 ! R27   R(15,27)                1.0912         calculate D2E/DX2 analytically  !
 ! R28   R(15,28)                1.0971         calculate D2E/DX2 analytically  !
 ! R29   R(16,29)                1.0131         calculate D2E/DX2 analytically  !
 ! R30   R(16,30)                1.0137         calculate D2E/DX2 analytically  !
 ! A1    A(1,2,3)              120.8944         calculate D2E/DX2 analytically  !
 ! A2    A(1,2,14)             122.7596         calculate D2E/DX2 analytically  !
 ! A3    A(3,2,14)             116.3378         calculate D2E/DX2 analytically  !
 ! A4    A(2,3,4)              120.6145         calculate D2E/DX2 analytically  !
 ! A5    A(2,3,17)             122.1749         calculate D2E/DX2 analytically  !
 ! A6    A(4,3,17)             115.9169         calculate D2E/DX2 analytically  !
 ! A7    A(3,4,5)              107.1887         calculate D2E/DX2 analytically  !
 ! A8    A(3,4,8)              112.0772         calculate D2E/DX2 analytically  !
 ! A9    A(3,4,18)             108.2266         calculate D2E/DX2 analytically  !
 ! A10   A(5,4,8)              112.1015         calculate D2E/DX2 analytically  !
 ! A11   A(5,4,18)             107.251          calculate D2E/DX2 analytically  !
 ! A12   A(8,4,18)             109.7931         calculate D2E/DX2 analytically  !
 ! A13   A(4,5,6)              114.9635         calculate D2E/DX2 analytically  !
 ! A14   A(4,5,7)              123.7259         calculate D2E/DX2 analytically  !
 ! A15   A(6,5,7)              121.3096         calculate D2E/DX2 analytically  !
 ! A16   A(5,6,19)             109.73           calculate D2E/DX2 analytically  !
 ! A17   A(4,8,9)              112.6404         calculate D2E/DX2 analytically  !
 ! A18   A(4,8,20)             108.1405         calculate D2E/DX2 analytically  !
 ! A19   A(4,8,21)             110.9046         calculate D2E/DX2 analytically  !
 ! A20   A(9,8,20)             109.7506         calculate D2E/DX2 analytically  !
 ! A21   A(9,8,21)             108.7075         calculate D2E/DX2 analytically  !
 ! A22   A(20,8,21)            106.5126         calculate D2E/DX2 analytically  !
 ! A23   A(8,9,10)             132.6785         calculate D2E/DX2 analytically  !
 ! A24   A(8,9,13)             122.128          calculate D2E/DX2 analytically  !
 ! A25   A(10,9,13)            105.1765         calculate D2E/DX2 analytically  !
 ! A26   A(9,10,11)            110.5815         calculate D2E/DX2 analytically  !
 ! A27   A(9,10,22)            128.0522         calculate D2E/DX2 analytically  !
 ! A28   A(11,10,22)           121.3662         calculate D2E/DX2 analytically  !
 ! A29   A(10,11,12)           104.9255         calculate D2E/DX2 analytically  !
 ! A30   A(11,12,13)           111.8153         calculate D2E/DX2 analytically  !
 ! A31   A(11,12,23)           126.4071         calculate D2E/DX2 analytically  !
 ! A32   A(13,12,23)           121.7774         calculate D2E/DX2 analytically  !
 ! A33   A(9,13,12)            107.5007         calculate D2E/DX2 analytically  !
 ! A34   A(9,13,24)            124.192          calculate D2E/DX2 analytically  !
 ! A35   A(12,13,24)           128.3064         calculate D2E/DX2 analytically  !
 ! A36   A(2,14,15)            112.0458         calculate D2E/DX2 analytically  !
 ! A37   A(2,14,25)            108.3555         calculate D2E/DX2 analytically  !
 ! A38   A(2,14,26)            109.7767         calculate D2E/DX2 analytically  !
 ! A39   A(15,14,25)           109.0179         calculate D2E/DX2 analytically  !
 ! A40   A(15,14,26)           110.6169         calculate D2E/DX2 analytically  !
 ! A41   A(25,14,26)           106.8616         calculate D2E/DX2 analytically  !
 ! A42   A(14,15,16)           109.3172         calculate D2E/DX2 analytically  !
 ! A43   A(14,15,27)           108.3115         calculate D2E/DX2 analytically  !
 ! A44   A(14,15,28)           109.2843         calculate D2E/DX2 analytically  !
 ! A45   A(16,15,27)           109.1365         calculate D2E/DX2 analytically  !
 ! A46   A(16,15,28)           113.5091         calculate D2E/DX2 analytically  !
 ! A47   A(27,15,28)           107.144          calculate D2E/DX2 analytically  !
 ! A48   A(15,16,29)           109.9962         calculate D2E/DX2 analytically  !
 ! A49   A(15,16,30)           109.8801         calculate D2E/DX2 analytically  !
 ! A50   A(29,16,30)           105.7886         calculate D2E/DX2 analytically  !
 ! D1    D(1,2,3,4)             -2.7082         calculate D2E/DX2 analytically  !
 ! D2    D(1,2,3,17)          -169.1854         calculate D2E/DX2 analytically  !
 ! D3    D(14,2,3,4)           176.2764         calculate D2E/DX2 analytically  !
 ! D4    D(14,2,3,17)            9.7993         calculate D2E/DX2 analytically  !
 ! D5    D(1,2,14,15)          -25.8181         calculate D2E/DX2 analytically  !
 ! D6    D(1,2,14,25)           94.4984         calculate D2E/DX2 analytically  !
 ! D7    D(1,2,14,26)         -149.1379         calculate D2E/DX2 analytically  !
 ! D8    D(3,2,14,15)          155.218          calculate D2E/DX2 analytically  !
 ! D9    D(3,2,14,25)          -84.4654         calculate D2E/DX2 analytically  !
 ! D10   D(3,2,14,26)           31.8982         calculate D2E/DX2 analytically  !
 ! D11   D(2,3,4,5)           -163.4554         calculate D2E/DX2 analytically  !
 ! D12   D(2,3,4,8)             73.1457         calculate D2E/DX2 analytically  !
 ! D13   D(2,3,4,18)           -48.0713         calculate D2E/DX2 analytically  !
 ! D14   D(17,3,4,5)             3.8324         calculate D2E/DX2 analytically  !
 ! D15   D(17,3,4,8)          -119.5665         calculate D2E/DX2 analytically  !
 ! D16   D(17,3,4,18)          119.2165         calculate D2E/DX2 analytically  !
 ! D17   D(3,4,5,6)            175.8405         calculate D2E/DX2 analytically  !
 ! D18   D(3,4,5,7)             -4.5076         calculate D2E/DX2 analytically  !
 ! D19   D(8,4,5,6)            -60.7756         calculate D2E/DX2 analytically  !
 ! D20   D(8,4,5,7)            118.8764         calculate D2E/DX2 analytically  !
 ! D21   D(18,4,5,6)            59.8082         calculate D2E/DX2 analytically  !
 ! D22   D(18,4,5,7)          -120.5399         calculate D2E/DX2 analytically  !
 ! D23   D(3,4,8,9)           -125.5927         calculate D2E/DX2 analytically  !
 ! D24   D(3,4,8,20)            -4.1299         calculate D2E/DX2 analytically  !
 ! D25   D(3,4,8,21)           112.3131         calculate D2E/DX2 analytically  !
 ! D26   D(5,4,8,9)            113.8167         calculate D2E/DX2 analytically  !
 ! D27   D(5,4,8,20)          -124.7205         calculate D2E/DX2 analytically  !
 ! D28   D(5,4,8,21)            -8.2775         calculate D2E/DX2 analytically  !
 ! D29   D(18,4,8,9)            -5.2823         calculate D2E/DX2 analytically  !
 ! D30   D(18,4,8,20)          116.1805         calculate D2E/DX2 analytically  !
 ! D31   D(18,4,8,21)         -127.3765         calculate D2E/DX2 analytically  !
 ! D32   D(4,5,6,19)            -2.5315         calculate D2E/DX2 analytically  !
 ! D33   D(7,5,6,19)           177.8073         calculate D2E/DX2 analytically  !
 ! D34   D(4,8,9,10)          -117.1018         calculate D2E/DX2 analytically  !
 ! D35   D(4,8,9,13)            61.1534         calculate D2E/DX2 analytically  !
 ! D36   D(20,8,9,10)          122.3553         calculate D2E/DX2 analytically  !
 ! D37   D(20,8,9,13)          -59.3895         calculate D2E/DX2 analytically  !
 ! D38   D(21,8,9,10)            6.2246         calculate D2E/DX2 analytically  !
 ! D39   D(21,8,9,13)         -175.5202         calculate D2E/DX2 analytically  !
 ! D40   D(8,9,10,11)          178.6908         calculate D2E/DX2 analytically  !
 ! D41   D(8,9,10,22)           -1.3063         calculate D2E/DX2 analytically  !
 ! D42   D(13,9,10,11)           0.2218         calculate D2E/DX2 analytically  !
 ! D43   D(13,9,10,22)        -179.7754         calculate D2E/DX2 analytically  !
 ! D44   D(8,9,13,12)         -178.8602         calculate D2E/DX2 analytically  !
 ! D45   D(8,9,13,24)            0.8295         calculate D2E/DX2 analytically  !
 ! D46   D(10,9,13,12)          -0.1892         calculate D2E/DX2 analytically  !
 ! D47   D(10,9,13,24)         179.5005         calculate D2E/DX2 analytically  !
 ! D48   D(9,10,11,12)          -0.167          calculate D2E/DX2 analytically  !
 ! D49   D(22,10,11,12)        179.8303         calculate D2E/DX2 analytically  !
 ! D50   D(10,11,12,13)          0.0422         calculate D2E/DX2 analytically  !
 ! D51   D(10,11,12,23)        179.8749         calculate D2E/DX2 analytically  !
 ! D52   D(11,12,13,9)           0.094          calculate D2E/DX2 analytically  !
 ! D53   D(11,12,13,24)       -179.5789         calculate D2E/DX2 analytically  !
 ! D54   D(23,12,13,9)        -179.7476         calculate D2E/DX2 analytically  !
 ! D55   D(23,12,13,24)          0.5795         calculate D2E/DX2 analytically  !
 ! D56   D(2,14,15,16)         176.9097         calculate D2E/DX2 analytically  !
 ! D57   D(2,14,15,27)          58.0994         calculate D2E/DX2 analytically  !
 ! D58   D(2,14,15,28)         -58.3077         calculate D2E/DX2 analytically  !
 ! D59   D(25,14,15,16)         56.9793         calculate D2E/DX2 analytically  !
 ! D60   D(25,14,15,27)        -61.831          calculate D2E/DX2 analytically  !
 ! D61   D(25,14,15,28)       -178.2382         calculate D2E/DX2 analytically  !
 ! D62   D(26,14,15,16)        -60.2449         calculate D2E/DX2 analytically  !
 ! D63   D(26,14,15,27)       -179.0552         calculate D2E/DX2 analytically  !
 ! D64   D(26,14,15,28)         64.5376         calculate D2E/DX2 analytically  !
 ! D65   D(14,15,16,29)       -173.3102         calculate D2E/DX2 analytically  !
 ! D66   D(14,15,16,30)         70.6192         calculate D2E/DX2 analytically  !
 ! D67   D(27,15,16,29)        -55.0138         calculate D2E/DX2 analytically  !
 ! D68   D(27,15,16,30)       -171.0844         calculate D2E/DX2 analytically  !
 ! D69   D(28,15,16,29)         64.4059         calculate D2E/DX2 analytically  !
 ! D70   D(28,15,16,30)        -51.6647         calculate D2E/DX2 analytically  !
 --------------------------------------------------------------------------------
 Trust Radius=3.00D-01 FncErr=1.00D-07 GrdErr=1.00D-06
 Number of steps in this run=    160 maximum allowed number of steps=    180.
 GradGradGradGradGradGradGradGradGradGradGradGradGradGradGradGradGradGrad

                          Input orientation:                          
 ---------------------------------------------------------------------
 Center     Atomic      Atomic             Coordinates (Angstroms)
 Number     Number       Type             X           Y           Z
 ---------------------------------------------------------------------
      1          8           0        0.539746   -0.913344   -0.725215
      2          6           0        1.323288   -0.142770   -0.166465
      3          7           0        0.900219    1.043898    0.320439
      4          6           0       -0.473021    1.464623    0.145735
      5          6           0       -0.522928    2.961453    0.417511
      6          8           0       -1.724833    3.537480    0.211911
      7          8           0        0.418621    3.601539    0.792635
      8          6           0       -1.451768    0.668235    1.063860
      9          6           0       -2.563316    0.025027    0.298978
     10          6           0       -3.915500    0.189923    0.320554
     11          7           0       -4.521234   -0.633394   -0.613522
     12          6           0       -3.533620   -1.278201   -1.186237
     13          7           0       -2.331408   -0.917032   -0.673387
     14          6           0        2.798357   -0.447744   -0.005781
     15          6           0        3.074876   -1.940922   -0.004758
     16          7           0        4.520976   -2.166242    0.079192
     17          1           0        1.542571    1.755100    0.635326
     18          1           0       -0.746143    1.315785   -0.905462
     19          1           0       -2.348524    2.880339   -0.118880
     20          1           0       -0.878975   -0.092871    1.590195
     21          1           0       -1.882115    1.315841    1.827977
     22          1           0       -4.496132    0.849747    0.949339
     23          1           0       -3.618644   -2.012851   -1.967478
     24          1           0       -1.414834   -1.250131   -0.933270
     25          1           0        3.338079    0.014060   -0.837281
     26          1           0        3.173701    0.013820    0.911188
     27          1           0        2.701397   -2.359378   -0.940718
     28          1           0        2.510410   -2.413374    0.808723
     29          1           0        4.724810   -3.152553   -0.029971
     30          1           0        4.855820   -1.915950    1.002723
 ---------------------------------------------------------------------
                    Distance matrix (angstroms):
                    1          2          3          4          5
     1  O    0.000000
     2  C    1.232852   0.000000
     3  N    2.248139   1.350645   0.000000
     4  C    2.727449   2.430618   1.446831   0.000000
     5  C    4.177218   3.658653   2.389935   1.522121   0.000000
     6  O    5.080980   4.793584   3.622240   2.422426   1.348574
     7  O    4.764736   3.969652   2.645077   2.404146   1.198726
     8  C    3.109391   3.142032   2.495123   1.560491   2.557217
     9  C    3.399780   3.917969   3.610350   2.542685   3.577684
    10  C    4.707446   5.271885   4.890851   3.675062   4.381817
    11  N    5.069947   5.882092   5.751325   4.622355   5.474705
    12  C    4.115577   5.091040   5.226963   4.320242   5.441593
    13  N    2.871624   3.770047   3.908496   3.129990   4.416254
    14  C    2.415717   1.514812   2.436050   3.792363   4.778361
    15  C    2.828756   2.515465   3.707295   4.920158   6.095555
    16  N    4.250531   3.792096   4.844903   6.174756   7.200603
    17  H    3.158690   2.071922   1.008751   2.094442   2.401878
    18  H    2.579732   2.637432   2.070571   1.096250   2.123277
    19  H    4.806431   4.756433   3.757638   2.364695   1.904493
    20  H    2.836736   2.817500   2.463748   2.162649   3.291026
    21  H    4.165749   4.047215   3.176162   2.199459   2.558289
    22  H    5.592199   6.007974   5.436341   4.148406   4.530837
    23  H    4.477091   5.582432   5.915944   5.143290   6.325767
    24  H    1.994266   3.051484   3.491966   3.069389   4.511933
    25  H    2.950136   2.129313   2.888606   4.194632   5.016872
    26  H    3.236535   2.147063   2.564910   3.998666   4.753664
    27  H    2.609634   2.722500   4.051796   5.087268   6.368069
    28  H    2.913172   2.741513   3.844980   4.937537   6.184089
    29  H    4.797101   4.543983   5.688628   6.954613   8.069701
    30  H    4.755994   4.121886   4.987283   6.368614   7.284399
                    6          7          8          9         10
     6  O    0.000000
     7  O    2.221652   0.000000
     8  C    3.005487   3.489440   0.000000
     9  C    3.612195   4.682636   1.494757   0.000000
    10  C    4.002120   5.535936   2.617492   1.362373   0.000000
    11  N    5.088947   6.656883   3.732220   2.258233   1.384652
    12  C    5.330789   6.583920   3.631206   2.201308   2.138139
    13  N    4.581960   5.489021   2.510949   1.373590   2.173158
    14  C    6.032299   4.764168   4.522510   5.391096   6.751961
    15  C    7.286772   6.197613   5.332931   5.978831   7.315168
    16  N    8.459325   7.113762   6.684123   7.418703   8.762642
    17  H    3.745943   2.167336   3.214185   4.468175   5.686774
    18  H    2.672505   3.076505   2.189853   2.533544   3.579874
    19  H    0.964493   3.001347   2.663917   2.893708   3.144337
    20  H    3.974241   3.996063   1.088302   2.125593   3.303399
    21  H    2.751743   3.404370   1.090168   2.113782   2.770320
    22  H    3.930369   5.634865   3.051919   2.199752   1.080681
    23  H    6.256391   7.445744   4.590488   3.225444   3.189895
    24  H    4.932418   5.466169   2.769480   2.112693   3.146293
    25  H    6.256866   4.904067   5.194701   6.009797   7.347511
    26  H    6.074603   4.525069   4.674027   5.769600   7.115942
    27  H    7.462774   6.614236   5.516662   5.910959   7.202296
    28  H    7.328447   6.368282   5.025959   5.652286   6.950381
    29  H    9.295856   8.052186   7.344726   7.957512   9.270921
    30  H    8.583139   7.083470   6.816701   7.701053   9.046331
                   11         12         13         14         15
    11  N    0.000000
    12  C    1.311168   0.000000
    13  N    2.208930   1.356013   0.000000
    14  C    7.347123   6.494387   5.194267   0.000000
    15  C    7.731824   6.745910   5.542862   1.518567   0.000000
    16  N    9.197338   8.201612   7.005859   2.434723   1.465954
    17  H    6.635831   6.187626   4.884744   2.615441   4.051943
    18  H    4.258619   3.818065   2.748161   4.059918   5.100745
    19  H    4.160728   4.453892   3.837681   6.130196   7.257469
    20  H    4.291221   4.020040   2.812935   4.024406   4.646731
    21  H    4.089668   4.306043   3.382958   5.327261   6.207832
    22  H    2.154732   3.164692   3.231219   7.470294   8.125164
    23  H    2.133253   1.075768   2.128960   6.890262   6.975719
    24  H    3.183131   2.134018   1.009258   4.388056   4.636467
    25  H    7.889110   7.000853   5.747771   1.093597   2.141104
    26  H    7.871190   7.145394   5.803756   1.093049   2.160958
    27  H    7.433201   6.332824   5.242228   2.130224   1.091152
    28  H    7.391558   6.465198   5.280047   2.147099   1.097079
    29  H    9.600834   8.547035   7.429788   3.320814   2.047185
    30  H    9.601371   8.693731   7.447377   2.721372   2.046314
                   16         17         18         19         20
    16  N    0.000000
    17  H    4.955512   0.000000
    18  H    6.390352   2.793786   0.000000
    19  H    8.526268   4.120147   2.373639   0.000000
    20  H    5.978417   3.192281   2.868843   3.731018   0.000000
    21  H    7.495513   3.652922   2.960088   2.540757   1.745651
    22  H    9.547857   6.114262   4.209500   3.142708   3.792499
    23  H    8.394390   6.900013   4.523157   5.382734   4.883559
    24  H    6.090827   4.498683   2.651762   4.312283   2.827414
    25  H    2.644406   2.902351   4.287191   6.408518   4.866993
    26  H    2.694446   2.401820   4.512262   6.306579   4.110549
    27  H    2.094847   4.555845   5.039207   7.323371   4.935751
    28  H    2.153059   4.282867   5.239294   7.245211   4.181312
    29  H    1.013052   5.886792   7.117855   9.297083   6.587033
    30  H    1.013744   4.958750   6.742942   8.727253   6.046206
                   21         22         23         24         25
    21  H    0.000000
    22  H    2.796843   0.000000
    23  H    5.338652   4.179985   0.000000
    24  H    3.798295   4.177092   2.551099   0.000000
    25  H    6.004053   8.078690   7.333601   4.919103   0.000000
    26  H    5.300663   7.715345   7.650494   5.104336   1.756179
    27  H    6.494728   8.104025   6.412272   4.263080   2.459526
    28  H    5.851512   7.730418   6.740402   4.449182   3.047425
    29  H    8.189626  10.099664   8.640953   6.490793   3.549959
    30  H    7.518329   9.752483   8.980424   6.596399   3.068239
                   26         27         28         29         30
    26  H    0.000000
    27  H    3.047079   0.000000
    28  H    2.518278   1.760663   0.000000
    29  H    3.649334   2.356435   2.480597   0.000000
    30  H    2.561623   2.935153   2.405413   1.616418   0.000000
 Symmetry turned off by external request.
 Stoichiometry    C9H14N4O3
 Framework group  C1[X(C9H14N4O3)]
 Deg. of freedom    84
 Full point group                 C1      NOp   1
 Rotational constants (GHZ):      0.6612253      0.3164135      0.2232211
 Standard basis: 6-311G(d,p) (5D, 7F)
   372 basis functions,   624 primitive gaussians,   388 cartesian basis functions
    60 alpha electrons       60 beta electrons
       nuclear repulsion energy      1115.7720187121 Hartrees.
 NAtoms=   30 NActive=   30 NUniq=   30 SFac= 1.00D+00 NAtFMM=   60 NAOKFM=F Big=F
 Integral buffers will be    131072 words long.
 Raffenetti 2 integral format.
 Two-electron integral symmetry is turned off.
 Nuclear repulsion after empirical dispersion term =     1115.7177906263 Hartrees.
 One-electron integrals computed using PRISM.
 NBasis=   372 RedAO= T EigKep=  5.47D-04  NBF=   372
 NBsUse=   372 1.00D-06 EigRej= -1.00D+00 NBFU=   372
 ExpMin= 1.03D-01 ExpMax= 8.59D+03 ExpMxC= 1.30D+03 IAcc=3 IRadAn=         5 AccDes= 0.00D+00
 Harris functional with IExCor=  402 and IRadAn=       5 diagonalized for initial guess.
 HarFok:  IExCor=  402 AccDes= 0.00D+00 IRadAn=         5 IDoV= 1 UseB2=F ITyADJ=14
 ICtDFT=  3500011 ScaDFX=  1.000000  1.000000  1.000000  1.000000
 FoFCou: FMM=F IPFlag=           0 FMFlag=      100000 FMFlg1=           0
         NFxFlg=           0 DoJE=T BraDBF=F KetDBF=T FulRan=T
         wScrn=  0.000000 ICntrl=     500 IOpCl=  0 I1Cent=   200000004 NGrid=           0
         NMat0=    1 NMatS0=      1 NMatT0=    0 NMatD0=    1 NMtDS0=    0 NMtDT0=    0
 Symmetry not used in FoFCou.
 Requested convergence on RMS density matrix=1.00D-08 within 128 cycles.
 Requested convergence on MAX density matrix=1.00D-06.
 Requested convergence on             energy=1.00D-06.
 No special actions if energy rises.
 Integral accuracy reduced to 1.0D-05 until final iterations.
 Initial convergence to 1.0D-05 achieved.  Increase integral accuracy.
 SCF Done:  E(RB3LYP) =  -796.364879619     A.U. after   14 cycles
            NFock= 14  Conv=0.52D-08     -V/T= 2.0033
 DoSCS=F DFT=T ScalE2(SS,OS)=  1.000000  1.000000
 Range of M.O.s used for correlation:     1   372
 NBasis=   372 NAE=    60 NBE=    60 NFC=     0 NFV=     0
 NROrb=    372 NOA=    60 NOB=    60 NVA=   312 NVB=   312
 Symmetrizing basis deriv contribution to polar:
 IMax=3 JMax=2 DiffMx= 0.00D+00
 G2DrvN: will do    31 centers at a time, making    1 passes.
 Calling FoFCou, ICntrl=  3107 FMM=F I1Cent=   0 AccDes= 0.00D+00.
 End of G2Drv F.D. properties file   721 does not exist.
 End of G2Drv F.D. properties file   722 does not exist.
 End of G2Drv F.D. properties file   788 does not exist.
          IDoAtm=111111111111111111111111111111
          Differentiating once with respect to nuclear coordinates.
          There are    93 degrees of freedom in the 1st order CPHF.  IDoFFX=6 NUNeed=     0.
     87 vectors produced by pass  0 Test12= 2.01D-14 1.08D-09 XBig12= 1.90D-01 7.72D-02.
 AX will form    87 AO Fock derivatives at one time.
     87 vectors produced by pass  1 Test12= 2.01D-14 1.08D-09 XBig12= 3.24D-02 3.77D-02.
     87 vectors produced by pass  2 Test12= 2.01D-14 1.08D-09 XBig12= 2.73D-04 2.22D-03.
     87 vectors produced by pass  3 Test12= 2.01D-14 1.08D-09 XBig12= 1.39D-06 1.34D-04.
     87 vectors produced by pass  4 Test12= 2.01D-14 1.08D-09 XBig12= 5.66D-09 9.84D-06.
     77 vectors produced by pass  5 Test12= 2.01D-14 1.08D-09 XBig12= 9.27D-12 2.93D-07.
     24 vectors produced by pass  6 Test12= 2.01D-14 1.08D-09 XBig12= 9.36D-15 8.63D-09.
 InvSVY:  IOpt=1 It=  1 EMax= 5.55D-16
 Solved reduced A of dimension   536 with    93 vectors.
 End of Minotr F.D. properties file   721 does not exist.
 End of Minotr F.D. properties file   722 does not exist.
 End of Minotr F.D. properties file   788 does not exist.

 **********************************************************************

            Population analysis using the SCF density.

 **********************************************************************

 Alpha  occ. eigenvalues --  -19.18902 -19.13368 -19.11045 -14.35851 -14.35754
 Alpha  occ. eigenvalues --  -14.29737 -14.28615 -10.32919 -10.29603 -10.25448
 Alpha  occ. eigenvalues --  -10.22010 -10.21055 -10.20787 -10.20443 -10.19336
 Alpha  occ. eigenvalues --  -10.18314  -1.13399  -1.06664  -1.05513  -1.01911
 Alpha  occ. eigenvalues --   -0.95547  -0.89621  -0.87170  -0.82196  -0.78002
 Alpha  occ. eigenvalues --   -0.74794  -0.69264  -0.65404  -0.63210  -0.61582
 Alpha  occ. eigenvalues --   -0.61078  -0.59568  -0.56866  -0.55441  -0.51840
 Alpha  occ. eigenvalues --   -0.50940  -0.50377  -0.49140  -0.47926  -0.46912
 Alpha  occ. eigenvalues --   -0.46289  -0.44557  -0.44352  -0.43196  -0.42530
 Alpha  occ. eigenvalues --   -0.41336  -0.41100  -0.40843  -0.40288  -0.40104
 Alpha  occ. eigenvalues --   -0.37420  -0.36409  -0.34926  -0.31083  -0.29195
 Alpha  occ. eigenvalues --   -0.28628  -0.28095  -0.26813  -0.25270  -0.23631
 Alpha virt. eigenvalues --   -0.02215  -0.00402   0.00847   0.02566   0.03093
 Alpha virt. eigenvalues --    0.04079   0.05416   0.05568   0.06701   0.06980
 Alpha virt. eigenvalues --    0.07669   0.08654   0.09294   0.10244   0.11007
 Alpha virt. eigenvalues --    0.12451   0.13764   0.14281   0.16710   0.17097
 Alpha virt. eigenvalues --    0.18583   0.19459   0.20140   0.20924   0.21772
 Alpha virt. eigenvalues --    0.23820   0.24985   0.25756   0.27620   0.29194
 Alpha virt. eigenvalues --    0.30842   0.32026   0.32802   0.33149   0.34652
 Alpha virt. eigenvalues --    0.35152   0.35966   0.36281   0.38025   0.38696
 Alpha virt. eigenvalues --    0.39131   0.40265   0.40611   0.40980   0.41404
 Alpha virt. eigenvalues --    0.42040   0.42989   0.45551   0.46573   0.47442
 Alpha virt. eigenvalues --    0.48337   0.48486   0.49781   0.50783   0.50996
 Alpha virt. eigenvalues --    0.52405   0.53327   0.54790   0.55562   0.55920
 Alpha virt. eigenvalues --    0.56138   0.57098   0.58146   0.58350   0.59202
 Alpha virt. eigenvalues --    0.59678   0.60441   0.60818   0.60904   0.61974
 Alpha virt. eigenvalues --    0.62079   0.62511   0.64232   0.65271   0.66159
 Alpha virt. eigenvalues --    0.68910   0.69530   0.69802   0.70398   0.71568
 Alpha virt. eigenvalues --    0.72213   0.73878   0.75694   0.76306   0.77129
 Alpha virt. eigenvalues --    0.78111   0.79105   0.80371   0.82742   0.84106
 Alpha virt. eigenvalues --    0.86277   0.88563   0.89157   0.90045   0.92759
 Alpha virt. eigenvalues --    0.94881   0.96308   0.98289   0.99737   0.99989
 Alpha virt. eigenvalues --    1.00738   1.02903   1.04677   1.06859   1.09061
 Alpha virt. eigenvalues --    1.09645   1.11888   1.12928   1.14144   1.17012
 Alpha virt. eigenvalues --    1.18066   1.19229   1.19756   1.22730   1.23825
 Alpha virt. eigenvalues --    1.24140   1.26658   1.28197   1.29907   1.32169
 Alpha virt. eigenvalues --    1.33153   1.34880   1.36732   1.37859   1.38335
 Alpha virt. eigenvalues --    1.40102   1.41045   1.42872   1.44452   1.46951
 Alpha virt. eigenvalues --    1.48480   1.48816   1.49256   1.51497   1.52705
 Alpha virt. eigenvalues --    1.53980   1.54268   1.54847   1.56183   1.57366
 Alpha virt. eigenvalues --    1.58493   1.59994   1.62263   1.63403   1.63906
 Alpha virt. eigenvalues --    1.64449   1.64726   1.65772   1.67892   1.68283
 Alpha virt. eigenvalues --    1.69048   1.69655   1.71532   1.71955   1.72806
 Alpha virt. eigenvalues --    1.74002   1.74722   1.76672   1.78057   1.79933
 Alpha virt. eigenvalues --    1.81318   1.82835   1.83916   1.85860   1.86492
 Alpha virt. eigenvalues --    1.89219   1.91401   1.92153   1.93830   1.96391
 Alpha virt. eigenvalues --    1.96535   1.98236   1.99819   2.01650   2.02298
 Alpha virt. eigenvalues --    2.04141   2.05850   2.08182   2.09212   2.10760
 Alpha virt. eigenvalues --    2.14995   2.16026   2.17762   2.18614   2.19069
 Alpha virt. eigenvalues --    2.23616   2.24239   2.26048   2.28327   2.29696
 Alpha virt. eigenvalues --    2.30573   2.34174   2.36943   2.38324   2.39859
 Alpha virt. eigenvalues --    2.43801   2.44642   2.45177   2.47243   2.47456
 Alpha virt. eigenvalues --    2.48245   2.49767   2.51775   2.52572   2.53426
 Alpha virt. eigenvalues --    2.53602   2.55307   2.56270   2.58478   2.60015
 Alpha virt. eigenvalues --    2.61555   2.61897   2.62548   2.64085   2.64944
 Alpha virt. eigenvalues --    2.66566   2.69623   2.70246   2.72235   2.72752
 Alpha virt. eigenvalues --    2.73957   2.75733   2.77048   2.77552   2.79566
 Alpha virt. eigenvalues --    2.81507   2.82649   2.82915   2.84967   2.85674
 Alpha virt. eigenvalues --    2.89141   2.89649   2.90319   2.92612   2.93742
 Alpha virt. eigenvalues --    2.94060   2.94790   2.97187   3.00203   3.01560
 Alpha virt. eigenvalues --    3.03600   3.03807   3.08229   3.10847   3.12598
 Alpha virt. eigenvalues --    3.15723   3.17383   3.23839   3.25743   3.27694
 Alpha virt. eigenvalues --    3.31246   3.32865   3.33812   3.38215   3.47286
 Alpha virt. eigenvalues --    3.47346   3.51289   3.52879   3.55927   3.57802
 Alpha virt. eigenvalues --    3.63923   3.65536   3.69313   3.73588   3.77159
 Alpha virt. eigenvalues --    3.78772   3.79537   3.81798   3.82795   3.83771
 Alpha virt. eigenvalues --    3.86238   3.88651   3.89304   3.97965   3.99363
 Alpha virt. eigenvalues --    4.08734   4.19962   4.28391   4.32041   4.42061
 Alpha virt. eigenvalues --    4.71381   4.76710   4.79854   4.81766   4.84080
 Alpha virt. eigenvalues --    4.89716   4.93567   4.93752   4.95442   5.04055
 Alpha virt. eigenvalues --    5.18340   5.25416   5.27956   5.52019   5.67199
 Alpha virt. eigenvalues --    5.77858  23.70631  23.73716  23.75696  23.79104
 Alpha virt. eigenvalues --   23.83278  23.86604  23.90179  23.92588  24.15933
 Alpha virt. eigenvalues --   35.52361  35.56995  35.59434  35.69434  49.82593
 Alpha virt. eigenvalues --   49.97903  49.99104
          Condensed to atoms (all electrons):
               1          2          3          4          5          6
     1  O    7.971280   0.575510  -0.101767   0.010586   0.000943  -0.000001
     2  C    0.575510   4.574737   0.370790  -0.057059   0.006207  -0.000144
     3  N   -0.101767   0.370790   6.740006   0.203758  -0.017052   0.002852
     4  C    0.010586  -0.057059   0.203758   5.538101   0.234279  -0.108306
     5  C    0.000943   0.006207  -0.017052   0.234279   4.446482   0.362287
     6  O   -0.000001  -0.000144   0.002852  -0.108306   0.362287   7.769681
     7  O   -0.000008  -0.000094  -0.008199  -0.111718   0.674552  -0.067821
     8  C    0.006723  -0.008156  -0.051061   0.248697  -0.039239   0.013177
     9  C   -0.006486   0.000675   0.006834  -0.064759  -0.002314  -0.004159
    10  C    0.000090  -0.000011  -0.000051  -0.001391  -0.000202  -0.000201
    11  N   -0.000011   0.000001   0.000001  -0.000204   0.000001   0.000001
    12  C    0.000112   0.000055  -0.000011   0.000272   0.000018   0.000009
    13  N   -0.011112   0.000574  -0.000026  -0.001342   0.000145   0.000006
    14  C   -0.082532   0.252424  -0.074179   0.009409  -0.000110   0.000000
    15  C    0.008067  -0.036632   0.003652  -0.000424  -0.000004   0.000000
    16  N    0.000217   0.005382  -0.000017   0.000001   0.000000   0.000000
    17  H    0.002708  -0.023407   0.363861  -0.063529  -0.006643   0.001924
    18  H    0.009730  -0.005932  -0.035825   0.405641  -0.023099   0.003161
    19  H   -0.000020   0.000098   0.000059   0.002845  -0.035106   0.310065
    20  H    0.000739   0.001992  -0.002210  -0.050817   0.002018   0.000287
    21  H    0.000248   0.000287   0.003383  -0.045181  -0.004367   0.004714
    22  H    0.000002   0.000000   0.000002  -0.000057  -0.000025   0.000058
    23  H   -0.000083   0.000008   0.000000   0.000017   0.000000   0.000000
    24  H    0.035868  -0.005322   0.000342   0.000734   0.000004  -0.000004
    25  H   -0.000102  -0.007979  -0.002559  -0.000595   0.000019   0.000000
    26  H    0.002980  -0.048782   0.006425   0.000606  -0.000123  -0.000001
    27  H    0.014519  -0.010951   0.001074  -0.000009  -0.000002   0.000000
    28  H    0.001810   0.010981  -0.000062  -0.000047   0.000001   0.000000
    29  H    0.000024  -0.000793   0.000009  -0.000001   0.000000   0.000000
    30  H    0.000013  -0.000706  -0.000002   0.000000   0.000000   0.000000
               7          8          9         10         11         12
     1  O   -0.000008   0.006723  -0.006486   0.000090  -0.000011   0.000112
     2  C   -0.000094  -0.008156   0.000675  -0.000011   0.000001   0.000055
     3  N   -0.008199  -0.051061   0.006834  -0.000051   0.000001  -0.000011
     4  C   -0.111718   0.248697  -0.064759  -0.001391  -0.000204   0.000272
     5  C    0.674552  -0.039239  -0.002314  -0.000202   0.000001   0.000018
     6  O   -0.067821   0.013177  -0.004159  -0.000201   0.000001   0.000009
     7  O    7.784344   0.001357   0.000172  -0.000001   0.000000   0.000000
     8  C    0.001357   5.138072   0.206959  -0.027245   0.008061   0.005315
     9  C    0.000172   0.206959   5.217069   0.555003  -0.093477  -0.127667
    10  C   -0.000001  -0.027245   0.555003   4.863733   0.504648  -0.178603
    11  N    0.000000   0.008061  -0.093477   0.504648   6.435897   0.580208
    12  C    0.000000   0.005315  -0.127667  -0.178603   0.580208   4.732682
    13  N   -0.000001  -0.060182   0.392270  -0.072008  -0.090580   0.431338
    14  C   -0.000197  -0.001335   0.000042   0.000001   0.000000   0.000002
    15  C    0.000000   0.000159  -0.000016   0.000000   0.000000   0.000000
    16  N    0.000000   0.000000   0.000000   0.000000   0.000000   0.000000
    17  H    0.040421   0.005775  -0.000600   0.000002   0.000000   0.000001
    18  H    0.001433  -0.067968   0.000376  -0.000344  -0.000355   0.000415
    19  H    0.003532  -0.003208   0.011966   0.007390  -0.000102  -0.000480
    20  H   -0.000304   0.414177  -0.032490  -0.001382  -0.000275   0.000493
    21  H    0.000068   0.410248  -0.040246  -0.000774   0.000181  -0.000211
    22  H    0.000001  -0.000101  -0.054300   0.423896  -0.024234   0.008323
    23  H    0.000000  -0.000467   0.004781   0.006413  -0.023740   0.415157
    24  H    0.000001   0.001851  -0.032307   0.006594   0.005026  -0.021608
    25  H   -0.000007  -0.000005  -0.000003   0.000000   0.000000   0.000000
    26  H   -0.000178  -0.000183   0.000030   0.000000   0.000000   0.000000
    27  H    0.000000  -0.000006   0.000006   0.000000   0.000000  -0.000001
    28  H    0.000000   0.000038  -0.000012   0.000000   0.000000   0.000000
    29  H    0.000000   0.000000   0.000000   0.000000   0.000000   0.000000
    30  H    0.000000   0.000000   0.000000   0.000000   0.000000   0.000000
              13         14         15         16         17         18
     1  O   -0.011112  -0.082532   0.008067   0.000217   0.002708   0.009730
     2  C    0.000574   0.252424  -0.036632   0.005382  -0.023407  -0.005932
     3  N   -0.000026  -0.074179   0.003652  -0.000017   0.363861  -0.035825
     4  C   -0.001342   0.009409  -0.000424   0.000001  -0.063529   0.405641
     5  C    0.000145  -0.000110  -0.000004   0.000000  -0.006643  -0.023099
     6  O    0.000006   0.000000   0.000000   0.000000   0.001924   0.003161
     7  O   -0.000001  -0.000197   0.000000   0.000000   0.040421   0.001433
     8  C   -0.060182  -0.001335   0.000159   0.000000   0.005775  -0.067968
     9  C    0.392270   0.000042  -0.000016   0.000000  -0.000600   0.000376
    10  C   -0.072008   0.000001   0.000000   0.000000   0.000002  -0.000344
    11  N   -0.090580   0.000000   0.000000   0.000000   0.000000  -0.000355
    12  C    0.431338   0.000002   0.000000   0.000000   0.000001   0.000415
    13  N    6.441899  -0.000017  -0.000003   0.000000  -0.000001   0.008150
    14  C   -0.000017   5.221558   0.312327  -0.059973  -0.001522   0.001005
    15  C   -0.000003   0.312327   4.813722   0.334493   0.000018  -0.000143
    16  N    0.000000  -0.059973   0.334493   6.507876  -0.000032   0.000000
    17  H   -0.000001  -0.001522   0.000018  -0.000032   0.428344   0.005486
    18  H    0.008150   0.001005  -0.000143   0.000000   0.005486   0.508102
    19  H   -0.000633   0.000002   0.000000   0.000000  -0.000486   0.000677
    20  H   -0.001735  -0.000622   0.000087  -0.000001  -0.000026   0.001944
    21  H    0.003758   0.000055  -0.000006   0.000000   0.000366   0.005711
    22  H    0.004449   0.000000   0.000000   0.000000  -0.000001   0.000099
    23  H   -0.037221   0.000000   0.000000   0.000000   0.000000   0.000073
    24  H    0.345710   0.000362   0.000061   0.000001  -0.000105   0.000004
    25  H    0.000002   0.360655  -0.023488   0.012775   0.000497   0.000049
    26  H    0.000002   0.403640  -0.040234  -0.002619  -0.000512   0.000028
    27  H   -0.000008  -0.022950   0.394722  -0.029172  -0.000063  -0.000026
    28  H    0.000004  -0.071349   0.419433  -0.043650   0.000005   0.000003
    29  H    0.000000   0.010272  -0.042548   0.369226   0.000002   0.000000
    30  H    0.000000  -0.005609  -0.045182   0.363660   0.000008   0.000000
              19         20         21         22         23         24
     1  O   -0.000020   0.000739   0.000248   0.000002  -0.000083   0.035868
     2  C    0.000098   0.001992   0.000287   0.000000   0.000008  -0.005322
     3  N    0.000059  -0.002210   0.003383   0.000002   0.000000   0.000342
     4  C    0.002845  -0.050817  -0.045181  -0.000057   0.000017   0.000734
     5  C   -0.035106   0.002018  -0.004367  -0.000025   0.000000   0.000004
     6  O    0.310065   0.000287   0.004714   0.000058   0.000000  -0.000004
     7  O    0.003532  -0.000304   0.000068   0.000001   0.000000   0.000001
     8  C   -0.003208   0.414177   0.410248  -0.000101  -0.000467   0.001851
     9  C    0.011966  -0.032490  -0.040246  -0.054300   0.004781  -0.032307
    10  C    0.007390  -0.001382  -0.000774   0.423896   0.006413   0.006594
    11  N   -0.000102  -0.000275   0.000181  -0.024234  -0.023740   0.005026
    12  C   -0.000480   0.000493  -0.000211   0.008323   0.415157  -0.021608
    13  N   -0.000633  -0.001735   0.003758   0.004449  -0.037221   0.345710
    14  C    0.000002  -0.000622   0.000055   0.000000   0.000000   0.000362
    15  C    0.000000   0.000087  -0.000006   0.000000   0.000000   0.000061
    16  N    0.000000  -0.000001   0.000000   0.000000   0.000000   0.000001
    17  H   -0.000486  -0.000026   0.000366  -0.000001   0.000000  -0.000105
    18  H    0.000677   0.001944   0.005711   0.000099   0.000073   0.000004
    19  H    0.447917   0.000964  -0.000750   0.000457   0.000001  -0.000011
    20  H    0.000964   0.521465  -0.016413  -0.000076  -0.000005   0.000699
    21  H   -0.000750  -0.016413   0.530598   0.001998   0.000018  -0.000034
    22  H    0.000457  -0.000076   0.001998   0.543852  -0.000369  -0.000278
    23  H    0.000001  -0.000005   0.000018  -0.000369   0.530129  -0.002831
    24  H   -0.000011   0.000699  -0.000034  -0.000278  -0.002831   0.405082
    25  H    0.000000   0.000053   0.000002   0.000000   0.000000  -0.000016
    26  H    0.000002  -0.000032  -0.000013   0.000000   0.000000  -0.000053
    27  H    0.000000  -0.000014  -0.000001   0.000000   0.000000   0.000093
    28  H    0.000000   0.000208   0.000000   0.000000   0.000000   0.000026
    29  H    0.000000   0.000000   0.000000   0.000000   0.000000  -0.000001
    30  H    0.000000  -0.000001   0.000000   0.000000   0.000000   0.000000
              25         26         27         28         29         30
     1  O   -0.000102   0.002980   0.014519   0.001810   0.000024   0.000013
     2  C   -0.007979  -0.048782  -0.010951   0.010981  -0.000793  -0.000706
     3  N   -0.002559   0.006425   0.001074  -0.000062   0.000009  -0.000002
     4  C   -0.000595   0.000606  -0.000009  -0.000047  -0.000001   0.000000
     5  C    0.000019  -0.000123  -0.000002   0.000001   0.000000   0.000000
     6  O    0.000000  -0.000001   0.000000   0.000000   0.000000   0.000000
     7  O   -0.000007  -0.000178   0.000000   0.000000   0.000000   0.000000
     8  C   -0.000005  -0.000183  -0.000006   0.000038   0.000000   0.000000
     9  C   -0.000003   0.000030   0.000006  -0.000012   0.000000   0.000000
    10  C    0.000000   0.000000   0.000000   0.000000   0.000000   0.000000
    11  N    0.000000   0.000000   0.000000   0.000000   0.000000   0.000000
    12  C    0.000000   0.000000  -0.000001   0.000000   0.000000   0.000000
    13  N    0.000002   0.000002  -0.000008   0.000004   0.000000   0.000000
    14  C    0.360655   0.403640  -0.022950  -0.071349   0.010272  -0.005609
    15  C   -0.023488  -0.040234   0.394722   0.419433  -0.042548  -0.045182
    16  N    0.012775  -0.002619  -0.029172  -0.043650   0.369226   0.363660
    17  H    0.000497  -0.000512  -0.000063   0.000005   0.000002   0.000008
    18  H    0.000049   0.000028  -0.000026   0.000003   0.000000   0.000000
    19  H    0.000000   0.000002   0.000000   0.000000   0.000000   0.000000
    20  H    0.000053  -0.000032  -0.000014   0.000208   0.000000  -0.000001
    21  H    0.000002  -0.000013  -0.000001   0.000000   0.000000   0.000000
    22  H    0.000000   0.000000   0.000000   0.000000   0.000000   0.000000
    23  H    0.000000   0.000000   0.000000   0.000000   0.000000   0.000000
    24  H   -0.000016  -0.000053   0.000093   0.000026  -0.000001   0.000000
    25  H    0.539276  -0.029165  -0.010421   0.011685  -0.000135  -0.002370
    26  H   -0.029165   0.584948   0.009247  -0.009526  -0.000395   0.005834
    27  H   -0.010421   0.009247   0.565952  -0.041655  -0.009003   0.009643
    28  H    0.011685  -0.009526  -0.041655   0.635920  -0.001986  -0.009479
    29  H   -0.000135  -0.000395  -0.009003  -0.001986   0.522196  -0.039832
    30  H   -0.002370   0.005834   0.009643  -0.009479  -0.039832   0.540497
 Mulliken charges:
               1
     1  O   -0.440045
     2  C    0.406247
     3  N   -0.410029
     4  C   -0.149506
     5  C    0.401330
     6  O   -0.287587
     7  O   -0.317351
     8  C   -0.201453
     9  C    0.062653
    10  C   -0.085559
    11  N   -0.301045
    12  C    0.154182
    13  N   -0.353437
    14  C   -0.251359
    15  C   -0.098060
    16  N   -0.458166
    17  H    0.247509
    18  H    0.181606
    19  H    0.254819
    20  H    0.161279
    21  H    0.146362
    22  H    0.096303
    23  H    0.108119
    24  H    0.260108
    25  H    0.151832
    26  H    0.118074
    27  H    0.129026
    28  H    0.097655
    29  H    0.192967
    30  H    0.183526
 Sum of Mulliken charges =   0.00000
 Mulliken charges with hydrogens summed into heavy atoms:
               1
     1  O   -0.440045
     2  C    0.406247
     3  N   -0.162520
     4  C    0.032101
     5  C    0.401330
     6  O   -0.032768
     7  O   -0.317351
     8  C    0.106188
     9  C    0.062653
    10  C    0.010745
    11  N   -0.301045
    12  C    0.262301
    13  N   -0.093328
    14  C    0.018547
    15  C    0.128621
    16  N   -0.081674
 APT charges:
               1
     1  O   -0.452375
     2  C    0.282787
     3  N   -0.637756
     4  C   -0.312668
     5  C   -0.740491
     6  O    0.220808
     7  O    0.395360
     8  C   -0.765612
     9  C   -0.363338
    10  C   -0.634002
    11  N    0.747720
    12  C   -0.766526
    13  N   -0.481152
    14  C   -0.752285
    15  C   -0.363664
    16  N   -1.462047
    17  H    0.647582
    18  H    0.294158
    19  H    0.235126
    20  H    0.201714
    21  H    0.552738
    22  H    0.716136
    23  H    0.657295
    24  H    0.103652
    25  H    0.463010
    26  H    0.372355
    27  H    0.243474
    28  H    0.191819
    29  H    0.878873
    30  H    0.527307
 Sum of APT charges =   0.00000
 APT charges with hydrogens summed into heavy atoms:
               1
     1  O   -0.452375
     2  C    0.282787
     3  N    0.009826
     4  C   -0.018509
     5  C   -0.740491
     6  O    0.455935
     7  O    0.395360
     8  C   -0.011160
     9  C   -0.363338
    10  C    0.082134
    11  N    0.747720
    12  C   -0.109231
    13  N   -0.377500
    14  C    0.083080
    15  C    0.071629
    16  N   -0.055867
 Electronic spatial extent (au):  <R**2>=           4802.1738
 Charge=              0.0000 electrons
 Dipole moment (field-independent basis, Debye):
    X=              3.4019    Y=             -1.8928    Z=              1.0941  Tot=              4.0439
 Quadrupole moment (field-independent basis, Debye-Ang):
   XX=           -111.4979   YY=           -103.0338   ZZ=            -90.9589
   XY=             -8.9284   XZ=              3.4791   YZ=             -3.4335
 Traceless Quadrupole moment (field-independent basis, Debye-Ang):
   XX=             -9.6677   YY=             -1.2036   ZZ=             10.8713
   XY=             -8.9284   XZ=              3.4791   YZ=             -3.4335
 Octapole moment (field-independent basis, Debye-Ang**2):
  XXX=            227.3661  YYY=           -172.2394  ZZZ=             -9.0936  XYY=             48.2074
  XXY=            -14.2302  XXZ=             42.5398  XZZ=             33.4581  YZZ=            -28.4478
  YYZ=            -22.9028  XYZ=            -18.6366
 Hexadecapole moment (field-independent basis, Debye-Ang**3):
 XXXX=          -4841.5087 YYYY=          -2160.0336 ZZZZ=           -312.4976 XXXY=            125.1983
 XXXZ=            -56.5986 YYYX=            251.4950 YYYZ=           -218.1364 ZZZX=            -72.8028
 ZZZY=           -149.7035 XXYY=           -861.3706 XXZZ=           -694.6246 YYZZ=           -357.8180
 XXYZ=            -71.1024 YYXZ=              2.2588 ZZXY=            114.5753
 N-N= 1.115717790626D+03 E-N=-4.092522795319D+03  KE= 7.937063893765D+02
  Exact polarizability:   0.000   0.000   0.000   0.000   0.000   0.000
 Approx polarizability: 221.563   6.162 187.996  15.107  36.108 160.185
 Calling FoFJK, ICntrl=    100147 FMM=F ISym2X=0 I1Cent= 0 IOpClX= 0 NMat=1 NMatS=1 NMatT=0.
 -------------------------------------------------------------------
 Center     Atomic                   Forces (Hartrees/Bohr)
 Number     Number              X              Y              Z
 -------------------------------------------------------------------
      1        8           0.003438363   -0.001907576    0.001761315
      2        6          -0.003248040   -0.001050922   -0.004766952
      3        7          -0.000555853    0.000970961    0.000303773
      4        6           0.007864376    0.000928763   -0.000521779
      5        6          -0.003895233    0.001559271   -0.000460531
      6        8           0.003121024   -0.000667183    0.000745600
      7        8           0.002157449    0.001943968    0.001280490
      8        6          -0.007468942   -0.003037948   -0.003794681
      9        6           0.011305897    0.005715143    0.004967045
     10        6          -0.014201488    0.001011726   -0.002941090
     11        7          -0.003315911    0.003807013    0.003065165
     12        6          -0.002301399   -0.001241259   -0.000827782
     13        7           0.003435710   -0.002713261   -0.001255909
     14        6          -0.003011860    0.002002601   -0.000224488
     15        6           0.003381915   -0.002250848   -0.000138629
     16        7          -0.000078453   -0.000090517   -0.002062024
     17        1           0.002243220    0.001090047    0.002435545
     18        1          -0.002387818   -0.002077148    0.001402918
     19        1          -0.004506561   -0.001880022   -0.000809772
     20        1           0.003152900   -0.000223893    0.000441177
     21        1          -0.000441449    0.000910675    0.000698922
     22        1           0.000269050   -0.000926384    0.000195361
     23        1          -0.001581564   -0.001609620   -0.001857290
     24        1           0.006443452    0.000462725    0.000063247
     25        1           0.001010226    0.000291112   -0.000707481
     26        1           0.000383347    0.001090701    0.000926894
     27        1           0.000217196   -0.000824880    0.000587718
     28        1          -0.002386823   -0.000920689    0.000779346
     29        1           0.000173330   -0.001583362   -0.001064616
     30        1           0.000783935    0.001220803    0.001778508
 -------------------------------------------------------------------
 Cartesian Forces:  Max     0.014201488 RMS     0.003093800
 FormGI is forming the generalized inverse of G from B-inverse, IUseBI=4.

 GradGradGradGradGradGradGradGradGradGradGradGradGradGradGradGradGradGrad
 Berny optimization.
 Internal  Forces:  Max     0.012722554 RMS     0.002150305
 Search for a local minimum.
 Step number   1 out of a maximum of  160
 All quantities printed in internal units (Hartrees-Bohrs-Radians)
 Mixed Optimization -- RFO/linear search
 Second derivative matrix not updated -- analytic derivatives used.
 ITU=  0
     Eigenvalues ---   -0.00015   0.00159   0.00226   0.00256   0.00348
     Eigenvalues ---    0.00475   0.00590   0.00847   0.00880   0.01505
     Eigenvalues ---    0.01685   0.02054   0.02318   0.02763   0.03200
     Eigenvalues ---    0.03526   0.04073   0.04177   0.04214   0.04381
     Eigenvalues ---    0.04447   0.04553   0.05101   0.05357   0.05463
     Eigenvalues ---    0.06019   0.06252   0.06390   0.07534   0.07861
     Eigenvalues ---    0.08275   0.10477   0.10701   0.10972   0.11488
     Eigenvalues ---    0.11632   0.12645   0.13439   0.15014   0.15598
     Eigenvalues ---    0.16788   0.17334   0.17950   0.19089   0.19261
     Eigenvalues ---    0.20136   0.21142   0.22024   0.23056   0.23173
     Eigenvalues ---    0.24171   0.24940   0.25166   0.27203   0.29236
     Eigenvalues ---    0.30574   0.31407   0.31950   0.32688   0.33133
     Eigenvalues ---    0.33747   0.33843   0.33894   0.34350   0.34759
     Eigenvalues ---    0.35560   0.36651   0.36928   0.37509   0.37818
     Eigenvalues ---    0.42058   0.43555   0.44761   0.44872   0.45262
     Eigenvalues ---    0.46114   0.46808   0.47166   0.48668   0.52027
     Eigenvalues ---    0.59626   0.65753   0.77693   0.90609
 RFO step:  Lambda=-3.67686195D-03 EMin=-1.50770377D-04
 Linear search not attempted -- first point.
 Iteration  1 RMS(Cart)=  0.15817873 RMS(Int)=  0.04553389
 Iteration  2 RMS(Cart)=  0.10810268 RMS(Int)=  0.00717046
 Iteration  3 RMS(Cart)=  0.01237066 RMS(Int)=  0.00019317
 Iteration  4 RMS(Cart)=  0.00011396 RMS(Int)=  0.00018222
 Iteration  5 RMS(Cart)=  0.00000001 RMS(Int)=  0.00018222
 Variable       Old X    -DE/DX   Delta X   Delta X   Delta X     New X
                                 (Linear)    (Quad)   (Total)
    R1        2.32975  -0.00179   0.00000  -0.00252  -0.00252   2.32723
    R2        2.55235   0.00488   0.00000   0.00813   0.00813   2.56048
    R3        2.86258   0.00066   0.00000  -0.00201  -0.00201   2.86057
    R4        2.73411   0.00275   0.00000  -0.00792  -0.00792   2.72619
    R5        1.90626   0.00296   0.00000   0.00451   0.00451   1.91077
    R6        2.87639   0.00118   0.00000  -0.00486  -0.00486   2.87154
    R7        2.94890   0.00112   0.00000   0.01420   0.01420   2.96311
    R8        2.07161  -0.00047   0.00000  -0.00252  -0.00252   2.06909
    R9        2.54844   0.00016   0.00000  -0.00270  -0.00270   2.54573
   R10        2.26526   0.00313   0.00000   0.00356   0.00356   2.26882
   R11        1.82263   0.00447   0.00000   0.01062   0.01062   1.83325
   R12        2.82468  -0.00270   0.00000  -0.01527  -0.01527   2.80941
   R13        2.05659   0.00203   0.00000   0.00508   0.00508   2.06167
   R14        2.06012   0.00121   0.00000   0.00262   0.00262   2.06274
   R15        2.57451   0.01272   0.00000   0.02512   0.02515   2.59966
   R16        2.59571   0.00388   0.00000   0.01058   0.01061   2.60632
   R17        2.61661  -0.00255   0.00000  -0.01108  -0.01109   2.60553
   R18        2.04219  -0.00060   0.00000  -0.00129  -0.00129   2.04090
   R19        2.47775   0.00523   0.00000   0.00708   0.00705   2.48479
   R20        2.56249   0.00814   0.00000   0.01557   0.01556   2.57806
   R21        2.03291   0.00257   0.00000   0.00607   0.00607   2.03898
   R22        1.90722   0.00568   0.00000   0.01396   0.01396   1.92118
   R23        2.86968   0.00476   0.00000   0.01966   0.01966   2.88933
   R24        2.06660   0.00116   0.00000   0.00288   0.00288   2.06948
   R25        2.06556   0.00137   0.00000   0.00241   0.00241   2.06797
   R26        2.77025   0.00086   0.00000  -0.00431  -0.00431   2.76594
   R27        2.06198  -0.00026   0.00000  -0.00117  -0.00117   2.06080
   R28        2.07318   0.00220   0.00000   0.01069   0.01069   2.08387
   R29        1.91439   0.00169   0.00000   0.00291   0.00291   1.91731
   R30        1.91570   0.00218   0.00000   0.00393   0.00393   1.91963
    A1        2.11000   0.00522   0.00000   0.01191   0.01189   2.12190
    A2        2.14256  -0.00302   0.00000  -0.01448  -0.01450   2.12806
    A3        2.03048  -0.00219   0.00000   0.00275   0.00273   2.03321
    A4        2.10512   0.00235   0.00000  -0.00944  -0.00956   2.09556
    A5        2.13235  -0.00170   0.00000   0.00033   0.00019   2.13254
    A6        2.02313  -0.00059   0.00000   0.01509   0.01497   2.03811
    A7        1.87080   0.00209   0.00000   0.03454   0.03457   1.90536
    A8        1.95612   0.00395   0.00000   0.02206   0.02231   1.97843
    A9        1.88891  -0.00057   0.00000   0.00536   0.00544   1.89435
   A10        1.95654  -0.00480   0.00000  -0.02399  -0.02474   1.93180
   A11        1.87188   0.00147   0.00000   0.00385   0.00277   1.87466
   A12        1.91625  -0.00204   0.00000  -0.04013  -0.04037   1.87588
   A13        2.00649  -0.00271   0.00000  -0.00960  -0.00961   1.99688
   A14        2.15942   0.00181   0.00000   0.00310   0.00308   2.16251
   A15        2.11725   0.00090   0.00000   0.00646   0.00645   2.12370
   A16        1.91515   0.00354   0.00000   0.02101   0.02101   1.93616
   A17        1.96595  -0.00151   0.00000  -0.03207  -0.03209   1.93386
   A18        1.88741  -0.00158   0.00000  -0.00835  -0.00818   1.87923
   A19        1.93565   0.00058   0.00000  -0.00140  -0.00135   1.93431
   A20        1.91551   0.00300   0.00000   0.02277   0.02248   1.93799
   A21        1.89730  -0.00051   0.00000   0.01307   0.01281   1.91011
   A22        1.85899   0.00016   0.00000   0.00849   0.00824   1.86724
   A23        2.31568   0.00173   0.00000   0.02526   0.02504   2.34071
   A24        2.13153  -0.00152   0.00000  -0.02464  -0.02479   2.10674
   A25        1.83568  -0.00021   0.00000  -0.00133  -0.00136   1.83431
   A26        1.93001   0.00028   0.00000  -0.00063  -0.00064   1.92937
   A27        2.23493  -0.00015   0.00000  -0.00298  -0.00310   2.23183
   A28        2.11824  -0.00013   0.00000   0.00361   0.00350   2.12174
   A29        1.83130   0.00089   0.00000   0.00645   0.00645   1.83775
   A30        1.95155   0.00140   0.00000   0.00042   0.00042   1.95196
   A31        2.20622  -0.00211   0.00000  -0.01201  -0.01201   2.19421
   A32        2.12542   0.00071   0.00000   0.01160   0.01159   2.13701
   A33        1.87624  -0.00235   0.00000  -0.00491  -0.00487   1.87137
   A34        2.16756  -0.00167   0.00000  -0.02403  -0.02409   2.14347
   A35        2.23937   0.00402   0.00000   0.02888   0.02882   2.26818
   A36        1.95557   0.00158   0.00000  -0.00596  -0.00607   1.94950
   A37        1.89116  -0.00031   0.00000  -0.00882  -0.00902   1.88214
   A38        1.91596  -0.00062   0.00000   0.02063   0.02064   1.93661
   A39        1.90272  -0.00069   0.00000  -0.01529  -0.01543   1.88729
   A40        1.93063  -0.00008   0.00000   0.00110   0.00109   1.93172
   A41        1.86509   0.00003   0.00000   0.00846   0.00849   1.87357
   A42        1.90794   0.00052   0.00000   0.00806   0.00804   1.91598
   A43        1.89039   0.00057   0.00000  -0.00732  -0.00733   1.88306
   A44        1.90737  -0.00067   0.00000  -0.00455  -0.00464   1.90273
   A45        1.90479  -0.00108   0.00000  -0.00353  -0.00350   1.90129
   A46        1.98111   0.00111   0.00000   0.01120   0.01119   1.99230
   A47        1.87002  -0.00048   0.00000  -0.00498  -0.00502   1.86500
   A48        1.91980  -0.00020   0.00000   0.00223   0.00220   1.92199
   A49        1.91777   0.00016   0.00000   0.00770   0.00766   1.92543
   A50        1.84636   0.00055   0.00000   0.01095   0.01088   1.85724
    D1       -0.04727  -0.00133   0.00000  -0.04324  -0.04335  -0.09062
    D2       -2.95284  -0.00154   0.00000  -0.07600  -0.07599  -3.02884
    D3        3.07660  -0.00076   0.00000  -0.03213  -0.03213   3.04447
    D4        0.17103  -0.00097   0.00000  -0.06489  -0.06478   0.10625
    D5       -0.45061   0.00039   0.00000  -0.38473  -0.38478  -0.83539
    D6        1.64931   0.00031   0.00000  -0.41331  -0.41332   1.23599
    D7       -2.60295  -0.00017   0.00000  -0.39687  -0.39692  -2.99987
    D8        2.70907  -0.00029   0.00000  -0.39635  -0.39633   2.31273
    D9       -1.47420  -0.00037   0.00000  -0.42494  -0.42487  -1.89907
   D10        0.55673  -0.00084   0.00000  -0.40849  -0.40847   0.14826
   D11       -2.85284  -0.00136   0.00000  -0.01781  -0.01757  -2.87040
   D12        1.27663   0.00069   0.00000  -0.02564  -0.02594   1.25069
   D13       -0.83900   0.00113   0.00000   0.00701   0.00693  -0.83207
   D14        0.06689  -0.00135   0.00000   0.01131   0.01165   0.07854
   D15       -2.08683   0.00070   0.00000   0.00348   0.00327  -2.08356
   D16        2.08072   0.00115   0.00000   0.03613   0.03614   2.11686
   D17        3.06900  -0.00008   0.00000   0.02376   0.02398   3.09297
   D18       -0.07867  -0.00062   0.00000   0.01505   0.01527  -0.06341
   D19       -1.06073   0.00326   0.00000   0.05996   0.05989  -1.00084
   D20        2.07478   0.00271   0.00000   0.05124   0.05118   2.12597
   D21        1.04385  -0.00118   0.00000  -0.00151  -0.00167   1.04218
   D22       -2.10382  -0.00172   0.00000  -0.01022  -0.01038  -2.11420
   D23       -2.19201  -0.00114   0.00000  -0.08283  -0.08287  -2.27487
   D24       -0.07208   0.00059   0.00000  -0.08044  -0.08035  -0.15243
   D25        1.96023   0.00017   0.00000  -0.07590  -0.07597   1.88426
   D26        1.98648  -0.00324   0.00000  -0.12611  -0.12576   1.86072
   D27       -2.17678  -0.00152   0.00000  -0.12373  -0.12324  -2.30003
   D28       -0.14447  -0.00193   0.00000  -0.11919  -0.11886  -0.26334
   D29       -0.09219  -0.00066   0.00000  -0.08894  -0.08936  -0.18155
   D30        2.02773   0.00106   0.00000  -0.08656  -0.08684   1.94089
   D31       -2.22314   0.00064   0.00000  -0.08202  -0.08246  -2.30560
   D32       -0.04418   0.00047   0.00000   0.03052   0.03051  -0.01367
   D33        3.10332   0.00099   0.00000   0.03901   0.03902  -3.14084
   D34       -2.04381   0.00002   0.00000   0.06919   0.06912  -1.97469
   D35        1.06733  -0.00015   0.00000   0.03302   0.03296   1.10028
   D36        2.13550   0.00094   0.00000   0.08521   0.08545   2.22095
   D37       -1.03654   0.00078   0.00000   0.04904   0.04929  -0.98726
   D38        0.10864  -0.00063   0.00000   0.05504   0.05487   0.16351
   D39       -3.06341  -0.00080   0.00000   0.01887   0.01870  -3.04471
   D40        3.11874  -0.00007   0.00000  -0.03048  -0.03092   3.08783
   D41       -0.02280  -0.00052   0.00000  -0.05438  -0.05466  -0.07746
   D42        0.00387   0.00010   0.00000   0.00166   0.00168   0.00555
   D43       -3.13767  -0.00035   0.00000  -0.02224  -0.02206   3.12345
   D44       -3.12170  -0.00006   0.00000   0.02465   0.02403  -3.09767
   D45        0.01448  -0.00025   0.00000   0.01203   0.01177   0.02625
   D46       -0.00330  -0.00015   0.00000  -0.00234  -0.00230  -0.00560
   D47        3.13287  -0.00033   0.00000  -0.01497  -0.01456   3.11832
   D48       -0.00292   0.00001   0.00000  -0.00028  -0.00035  -0.00327
   D49        3.13863   0.00042   0.00000   0.02176   0.02164  -3.12291
   D50        0.00074  -0.00011   0.00000  -0.00127  -0.00118  -0.00044
   D51        3.13941   0.00013   0.00000   0.00020   0.00023   3.13964
   D52        0.00164   0.00017   0.00000   0.00236   0.00227   0.00391
   D53       -3.13424   0.00039   0.00000   0.01589   0.01594  -3.11830
   D54       -3.13719  -0.00004   0.00000   0.00101   0.00096  -3.13623
   D55        0.01011   0.00018   0.00000   0.01454   0.01463   0.02475
   D56        3.08766  -0.00087   0.00000  -0.05714  -0.05708   3.03057
   D57        1.01403  -0.00020   0.00000  -0.05322  -0.05315   0.96087
   D58       -1.01766   0.00041   0.00000  -0.04075  -0.04072  -1.05838
   D59        0.99448  -0.00102   0.00000  -0.03217  -0.03222   0.96225
   D60       -1.07915  -0.00036   0.00000  -0.02826  -0.02829  -1.10745
   D61       -3.11084   0.00026   0.00000  -0.01579  -0.01586  -3.12670
   D62       -1.05147  -0.00060   0.00000  -0.03392  -0.03392  -1.08539
   D63       -3.12510   0.00006   0.00000  -0.03001  -0.02999   3.12809
   D64        1.12639   0.00068   0.00000  -0.01754  -0.01756   1.10884
   D65       -3.02483   0.00034   0.00000   0.02498   0.02504  -2.99980
   D66        1.23254  -0.00031   0.00000   0.00593   0.00594   1.23848
   D67       -0.96017   0.00071   0.00000   0.01876   0.01878  -0.94139
   D68       -2.98599   0.00006   0.00000  -0.00029  -0.00031  -2.98629
   D69        1.12409   0.00006   0.00000   0.01720   0.01718   1.14127
   D70       -0.90172  -0.00058   0.00000  -0.00185  -0.00191  -0.90363
         Item               Value     Threshold  Converged?
 Maximum Force            0.012723     0.000450     NO 
 RMS     Force            0.002150     0.000300     NO 
 Maximum Displacement     1.050687     0.001800     NO 
 RMS     Displacement     0.258136     0.001200     NO 
 Predicted change in Energy=-2.555514D-03
 GradGradGradGradGradGradGradGradGradGradGradGradGradGradGradGradGradGrad

                          Input orientation:                          
 ---------------------------------------------------------------------
 Center     Atomic      Atomic             Coordinates (Angstroms)
 Number     Number       Type             X           Y           Z
 ---------------------------------------------------------------------
      1          8           0        0.543975   -0.975589   -0.791477
      2          6           0        1.339820   -0.188900   -0.277292
      3          7           0        0.927537    0.977162    0.276061
      4          6           0       -0.455028    1.376401    0.174445
      5          6           0       -0.575068    2.851443    0.519234
      6          8           0       -1.820283    3.351512    0.400216
      7          8           0        0.344973    3.530820    0.884516
      8          6           0       -1.416957    0.518782    1.067660
      9          6           0       -2.579103    0.033903    0.277397
     10          6           0       -3.930081    0.292032    0.304308
     11          7           0       -4.572448   -0.385434   -0.710311
     12          6           0       -3.624791   -1.040325   -1.344361
     13          7           0       -2.397718   -0.820077   -0.790325
     14          6           0        2.827295   -0.466793   -0.236964
     15          6           0        3.124391   -1.884859    0.251473
     16          7           0        4.556886   -2.160191    0.131119
     17          1           0        1.578797    1.672669    0.614483
     18          1           0       -0.776706    1.255740   -0.865172
     19          1           0       -2.439867    2.669964    0.095697
     20          1           0       -0.840243   -0.316039    1.468581
     21          1           0       -1.774186    1.098437    1.920816
     22          1           0       -4.473632    0.907796    1.005579
     23          1           0       -3.766807   -1.682313   -2.199861
     24          1           0       -1.483966   -1.168894   -1.067720
     25          1           0        3.214545   -0.369395   -1.256689
     26          1           0        3.346855    0.271683    0.381302
     27          1           0        2.575704   -2.580172   -0.384718
     28          1           0        2.726355   -2.003863    1.272960
     29          1           0        4.741831   -3.138600    0.325831
     30          1           0        5.077796   -1.626791    0.821072
 ---------------------------------------------------------------------
                    Distance matrix (angstroms):
                    1          2          3          4          5
     1  O    0.000000
     2  C    1.231518   0.000000
     3  N    2.258316   1.354945   0.000000
     4  C    2.731825   2.423987   1.442637   0.000000
     5  C    4.197189   3.680344   2.414515   1.519552   0.000000
     6  O    5.072835   4.793724   3.633657   2.411630   1.347144
     7  O    4.812097   4.021919   2.689008   2.405353   1.200608
     8  C    3.087845   3.147940   2.516623   1.568008   2.539853
     9  C    3.451838   3.964250   3.631289   2.514875   3.466002
    10  C    4.777529   5.323666   4.905777   3.642625   4.225268
    11  N    5.150986   5.931361   5.751472   4.565085   5.288497
    12  C    4.205768   5.148876   5.236383   4.265528   5.283905
    13  N    2.945801   3.825020   3.927412   3.086963   4.303145
    14  C    2.404143   1.513747   2.440754   3.786854   4.812338
    15  C    2.927980   2.518048   3.608038   4.842932   6.015833
    16  N    4.284614   3.795036   4.799601   6.134219   7.183596
    17  H    3.171884   2.077934   1.011137   2.101868   2.457176
    18  H    2.593928   2.629120   2.069894   1.094916   2.122146
    19  H    4.793793   4.753763   3.773264   2.370463   1.920884
    20  H    2.731104   2.795875   2.493897   2.165071   3.317306
    21  H    4.126983   4.023176   3.165317   2.206185   2.544670
    22  H    5.652692   6.053489   5.450654   4.130321   4.383275
    23  H    4.589754   5.657225   5.936317   5.095188   6.175405
    24  H    2.055778   3.091753   3.496662   3.013340   4.416744
    25  H    2.777739   2.122826   3.064791   4.308331   5.280991
    26  H    3.284392   2.161960   2.522276   3.964530   4.696345
    27  H    2.620699   2.693907   3.975892   5.015224   6.344047
    28  H    3.175221   2.760408   3.621611   4.770127   5.919585
    29  H    4.852730   4.542925   5.611668   6.885891   8.011706
    30  H    4.855915   4.152878   4.929733   6.328462   7.218071
                    6          7          8          9         10
     6  O    0.000000
     7  O    2.225990   0.000000
     8  C    2.938114   3.494325   0.000000
     9  C    3.405499   4.598613   1.486676   0.000000
    10  C    3.717642   5.394671   2.636269   1.375680   0.000000
    11  N    4.772049   6.485488   3.733083   2.263810   1.378785
    12  C    5.058461   6.451533   3.622594   2.208512   2.141608
    13  N    4.376411   5.409043   2.491293   1.379207   2.187040
    14  C    6.048589   4.837411   4.548304   5.453843   6.821357
    15  C    7.203577   6.120089   5.202643   6.017655   7.382901
    16  N    8.433242   7.120071   6.613683   7.467113   8.835836
    17  H    3.797127   2.246767   3.242123   4.481887   5.687715
    18  H    2.661300   3.081487   2.165379   2.459062   3.498598
    19  H    0.970116   3.019710   2.572672   2.645982   2.814039
    20  H    3.943705   4.067455   1.090991   2.136589   3.357436
    21  H    2.718584   3.388398   1.091553   2.117062   2.812699
    22  H    3.657660   5.487610   3.081956   2.209791   1.079997
    23  H    5.990723   7.320989   4.587299   3.239267   3.193049
    24  H    4.764664   5.407731   2.722607   2.110779   3.162317
    25  H    6.476108   5.294420   5.257591   6.006865   7.343016
    26  H    6.015398   4.459427   4.819341   5.931636   7.277372
    27  H    7.424669   6.628072   5.258732   5.817545   7.144897
    28  H    7.079099   6.037762   4.855195   5.769880   7.107571
    29  H    9.229758   8.007849   7.201209   7.978922   9.325865
    30  H    8.517284   7.000327   6.844421   7.853763   9.224467
                   11         12         13         14         15
    11  N    0.000000
    12  C    1.314897   0.000000
    13  N    2.219181   1.364248   0.000000
    14  C    7.415313   6.571505   5.266097   0.000000
    15  C    7.900294   6.986515   5.719510   1.528970   0.000000
    16  N    9.338228   8.388741   7.142232   2.448380   1.463671
    17  H    6.620323   6.186657   4.898973   2.619352   3.895721
    18  H    4.138247   3.689597   2.634824   4.043586   5.131162
    19  H    3.812218   4.152596   3.600999   6.139455   7.192472
    20  H    4.322237   4.023796   2.789702   4.047523   4.434059
    21  H    4.117642   4.319771   3.379315   5.317855   5.973510
    22  H    2.150927   3.168268   3.243491   7.532393   8.130040
    23  H    2.133006   1.078981   2.145844   6.986603   7.317013
    24  H    3.206286   2.162451   1.016644   4.446355   4.846631
    25  H    7.806154   6.872725   5.649611   1.095121   2.139933
    26  H    8.021146   7.300899   5.963620   1.094323   2.171871
    27  H    7.484582   6.460510   5.291255   2.133425   1.090531
    28  H    7.734675   6.936558   5.649303   2.156998   1.102738
    29  H    9.767768   8.785935   7.589105   3.334777   2.047805
    30  H    9.849534   8.987106   7.689649   2.744047   2.051057
                   16         17         18         19         20
    16  N    0.000000
    17  H    4.877855   0.000000
    18  H    6.411582   2.812757   0.000000
    19  H    8.502130   4.172936   2.385247   0.000000
    20  H    5.858217   3.245951   2.814415   3.655109   0.000000
    21  H    7.341944   3.644001   2.963350   2.498778   1.754282
    22  H    9.577446   6.113091   4.157888   2.840655   3.861820
    23  H    8.657118   6.910276   4.399347   5.096339   4.887632
    24  H    6.237930   4.503865   2.533791   4.123605   2.752193
    25  H    2.633408   3.216672   4.327174   6.560414   4.885822
    26  H    2.727779   2.267854   4.418803   6.270524   4.365705
    27  H    2.089869   4.480947   5.117003   7.276722   4.497746
    28  H    2.163119   3.907348   5.240998   7.065441   3.950651
    29  H    1.014594   5.765103   7.154227   9.239544   6.358638
    30  H    1.015825   4.813742   6.740001   8.689277   6.095944
                   21         22         23         24         25
    21  H    0.000000
    22  H    2.856749   0.000000
    23  H    5.355660   4.181282   0.000000
    24  H    3.762495   4.189190   2.599366   0.000000
    25  H    6.094137   8.115241   7.166073   4.769791   0.000000
    26  H    5.410978   7.871110   7.815669   5.245165   1.763945
    27  H    6.145665   7.986989   6.657953   4.351910   2.460891
    28  H    5.504439   7.771040   7.370552   4.889045   3.051055
    29  H    7.934414  10.087623   8.994265   6.676995   3.536307
    30  H    7.455599   9.883722   9.346450   6.843532   3.061020
                   26         27         28         29         30
    26  H    0.000000
    27  H    3.051973   0.000000
    28  H    2.521544   1.761456   0.000000
    29  H    3.684979   2.347089   2.499365   0.000000
[...]
 ,-0.08882788,-0.06715065,0.00023190,0.00016344,-0.00005890,0.00006604,
 0.00028576,-0.00001618,0.00000324,-0.00015620,0.00000288,0.00003302,-0
 .00004641,0.00002347,-0.00043782,-0.00149716,0.00038996,0.00026225,0.0
 0010505,-0.00012589,0.00013161,0.00010676,-0.00001437,0.00006818,0.000
 03414,0.00026076,0.00098103,0.00111831,-0.00054301,-0.00007501,-0.0009
 3888,0.00038490,-0.13717296,0.09556098,0.00218111,0.00109680,-0.002533
 16,-0.00075537,-0.00094278,-0.00079513,-0.00003224,0.00036109,-0.00010
 727,-0.00016772,-0.00041333,0.00055701,0.00018175,-0.00028892,-0.00016
 242,-0.00017783,0.00016484,-0.00010805,-0.00002152,0.00015209,0.000058
 60,0.00021674,0.00047175,0.00033632,0.02370000,-0.00160964,-0.00161913
 ,0.00077963,-0.00505134,-0.00365600,-0.00703904,-0.00271121,0.00141245
 ,-0.00658653,0.01480446,0.00817424,0.07660288,-0.06687603,-0.07732014,
 0.00007841,-0.00004859,0.00047430,-0.00002168,0.00008355,0.00010275,0.
 00009910,-0.00003128,-0.00008430,-0.00003322,-0.00002925,-0.00001216,0
 .00002165,0.00022307,0.00011912,0.00006775,-0.00004504,0.00013012,-0.0
 0069624,-0.00008875,-0.00098156,0.00000493,0.00052209,0.00000288,0.000
 68166,-0.00090205,0.00104406,0.00029412,0.00025277,-0.00084976,-0.0894
 1137,0.06094103,0.07580681,0.00013966,0.00149230,-0.00409515,-0.013985
 49,-0.00779854,0.03201147,-0.00165472,0.00090209,-0.00166885,-0.000018
 09,0.00102175,-0.00085126,-0.00029234,-0.00034057,-0.00020968,-0.00012
 733,0.00020676,0.00005612,0.00008863,0.00016470,0.00001788,0.00022829,
 0.00002689,-0.00005029,0.00001725,0.00000374,-0.00000477,0.00001774,-0
 .00001082,-0.00000468,-0.00003778,-0.00000760,-0.00003082,-0.00000018,
 0.00000390,0.00000903,-0.00004977,0.00001602,0.00004180,-0.08875851,-0
 .02460892,0.09474488,0.00255678,0.00075121,-0.00517185,0.00077779,-0.0
 0001886,-0.00076843,-0.00033217,-0.00004425,0.00038528,-0.00020080,0.0
 0013701,0.00009835,0.00006254,-0.00000224,0.00001749,0.00005574,-0.000
 01665,-0.00002102,-0.00001484,0.00000075,-0.00000376,0.00000208,-0.000
 00026,-0.00000029,-0.00000564,-0.00000497,-0.00000028,0.00011848,0.000
 05835,-0.00002625,0.09514502,-0.00084927,-0.00001512,-0.00040862,0.002
 67308,0.00032614,-0.00665095,0.00138473,-0.00094421,0.00066799,-0.0002
 0632,-0.00045337,0.00076746,0.00014787,0.00023206,0.00009698,0.0000687
 0,-0.00012230,-0.00003980,-0.00006611,-0.00012869,0.00002070,-0.000086
 28,-0.00003189,0.00003347,-0.00000076,-0.00000951,-0.00002463,-0.00001
 487,0.00000496,0.00000066,0.00000995,0.00001147,0.00001753,0.00001483,
 0.00000722,0.00001399,-0.00000478,-0.00000126,-0.00001620,-0.02241034,
 -0.05231182,0.04533391,-0.01322420,-0.01207243,0.03255667,-0.00113842,
 0.00299585,-0.00141737,0.00019133,0.00031122,-0.00065350,0.00023125,-0
 .00010029,0.00001323,-0.00003739,0.00000439,-0.00000645,-0.00002823,-0
 .00001421,-0.00000251,0.00000362,0.00000620,-0.00000677,-0.00000200,-0
 .00000052,-0.00000023,-0.00000084,0.00000027,0.00000092,0.00001844,-0.
 00001619,0.00001296,0.02383466,0.06278493,-0.00086273,-0.00016828,-0.0
 0050342,0.00051045,-0.00248493,0.00275239,0.00044551,0.00047509,0.0006
 7468,0.00018361,0.00001545,0.00000854,0.00004788,0.00000728,-0.0000194
 4,-0.00003998,0.00001215,0.00000642,-0.00003904,-0.00001022,0.00003700
 ,-0.00002975,0.00001961,-0.00001208,0.00000296,-0.00002486,-0.00000967
 ,-0.00000870,-0.00000611,-0.00000173,-0.00002605,0.00000996,0.00000661
 ,0.00003319,0.00000846,0.00002043,-0.00003766,-0.00000407,0.00001330,0
 .09022834,0.04768730,-0.25020288,0.00348376,0.00357396,-0.00775583,-0.
 00025946,-0.00159468,0.00067693,-0.00005408,0.00034843,-0.00045669,0.0
 0006901,-0.00003143,-0.00001987,0.00000914,0.00000335,-0.00000477,0.00
 000134,-0.00000562,-0.00004525,-0.00002260,0.00001749,0.00000087,-0.00
 000154,0.00000265,-0.00000154,-0.00000003,0.00000167,-0.00000177,0.000
 10638,0.00002629,-0.00001715,-0.10189958,-0.05384192,0.27154298,-0.009
 41582,0.00079903,0.00001637,-0.00905458,-0.02399415,-0.02488185,0.0011
 8541,0.00063516,0.00181912,0.00018624,-0.00014301,0.00029328,-0.000233
 68,-0.00015522,-0.00005061,0.00021796,-0.00003581,0.00001436,0.0001964
 4,0.00013641,0.00011007,0.00003818,-0.00001015,0.00005232,0.00008545,-
 0.00011764,-0.00017833,-0.00008684,0.00002959,-0.00001678,-0.00013570,
 0.00009205,0.00006514,0.00020268,0.00005378,0.00014899,-0.00036358,-0.
 00002879,-0.00005743,-0.09355301,-0.05926666,-0.07182926,0.00268040,0.
 00469528,0.00543423,0.00117920,-0.00022441,0.00057370,-0.00108402,0.00
 150311,-0.00041361,0.00019682,-0.00018157,0.00000663,-0.00004409,-0.00
 005016,-0.00000736,0.,0.00001985,-0.00011870,-0.00003604,0.00005304,0.
 00001430,-0.00001482,0.00000257,0.00000558,0.00000099,-0.00000020,-0.0
 0000096,0.00058428,0.00008771,0.00009245,0.00621992,0.00836627,0.00863
 259,0.10146752,0.00190100,0.00204328,-0.00055485,0.00106489,0.00118465
 ,0.00512136,0.00129498,-0.00058506,0.00022010,-0.00047014,0.00032880,0
 .00042720,-0.00004432,0.00008952,0.00000522,-0.00001315,-0.00001058,-0
 .00000860,-0.00000106,-0.00006632,0.00000711,-0.00003331,-0.00000514,-
 0.00000849,-0.00001630,0.00001602,0.00000072,-0.00001179,-0.00000072,0
 .00000411,0.00001981,0.00001205,0.00001673,0.00000569,-0.00000652,-0.0
 0001226,0.00005248,0.00000772,0.00000180,-0.06255142,-0.13756294,-0.10
 368408,-0.01431132,-0.02064631,-0.02344296,-0.00081840,0.00218439,0.00
 041404,0.00088618,0.00038593,-0.00024369,0.00013716,-0.00000611,0.0000
 5603,-0.00001013,0.00000538,-0.00000312,-0.00001345,-0.00001447,0.0000
 0729,-0.00000624,0.00000474,-0.00000342,-0.00000138,0.00000083,0.00000
 009,0.00000509,-0.00000049,0.00000389,-0.00004620,-0.00003978,-0.00003
 860,0.00326671,0.00394641,0.00434041,0.06679217,0.15290639,-0.00066471
 ,0.00040009,0.00187263,0.00324208,-0.00197624,-0.00332912,0.00058607,0
 .00050345,0.00056597,-0.00008116,0.00035513,0.00024612,-0.00030464,-0.
 00027696,-0.00010398,0.00010252,0.00006828,0.00003212,0.00021586,0.000
 18173,0.00004347,0.00003154,-0.00001417,0.00004795,0.00005364,-0.00003
 761,-0.00006347,-0.00002699,0.00001735,-0.00001398,-0.00006775,0.00002
 827,0.00001958,0.00008942,0.00001811,0.00004605,-0.00009511,0.00001004
 ,-0.00002201,-0.07585771,-0.10287926,-0.16721414,0.00333781,0.00502451
 ,0.00550473,0.00098546,-0.00022100,0.00027967,-0.00049281,0.00057219,0
 .00044044,0.00009019,-0.00002139,0.00002735,-0.00000113,-0.00003854,0.
 00000354,0.00000541,0.00003136,-0.00005707,-0.00002453,0.00002120,0.00
 000465,-0.00000495,0.,0.00000461,0.00000317,0.00000077,-0.00000019,0.0
 0018444,-0.00000308,0.00004235,-0.01289313,-0.01679886,-0.01916571,0.0
 8112858,0.11426824,0.17857957,-0.00144279,0.00014266,-0.00025037,0.000
 54976,0.00143577,0.00123732,-0.00004154,-0.00086517,-0.00065944,-0.000
 20825,0.00000457,-0.00003948,-0.00000487,0.00011919,0.00000942,0.00002
 975,-0.00004777,0.00000066,-0.00000772,-0.00008398,-0.00001668,-0.0000
 0517,0.00000281,-0.00000776,-0.00002218,0.00004638,0.00003604,0.000011
 76,-0.00000476,0.00000485,0.00005649,-0.00001754,-0.00000223,-0.000064
 85,-0.00001367,-0.00003862,0.00007955,-0.00001242,-0.00000040,0.003879
 50,0.00291274,0.00496584,-0.10055391,-0.06558040,-0.07752704,-0.023521
 25,-0.02026114,-0.02342746,0.00025692,-0.00010117,0.00000330,-0.000006
 34,0.00004032,0.00001585,-0.00001210,0.00001266,-0.00000310,0.00000228
 ,-0.00000302,0.00004187,0.00001640,-0.00001698,-0.00000257,0.00000204,
 -0.00000118,-0.00000141,-0.00000053,0.00000097,-0.00000055,-0.00014564
 ,0.00002469,-0.00002340,0.00022442,-0.00051625,-0.00020878,-0.00037199
 ,0.00206536,-0.00041557,0.12028525,0.00028908,0.00269662,0.00149726,-0
 .00305180,-0.00231565,-0.00259395,0.00029608,0.00079878,0.00055147,0.0
 0011891,0.00008031,-0.00001901,-0.00008276,-0.00013825,-0.00001293,0.0
 0003112,0.00003024,0.00000791,0.00007958,0.00010815,0.00003590,0.00004
 348,-0.00002561,0.00001637,0.00003408,-0.00003638,-0.00005255,-0.00001
 797,0.00000935,-0.00000538,-0.00005201,0.00002221,0.00001589,0.0000684
 9,0.00000899,0.00003603,-0.00008269,-0.00000253,0.00001044,-0.01298123
 ,-0.02288989,-0.02234102,-0.06913156,-0.13263499,-0.10155390,0.0048597
 8,0.00498836,0.00588470,-0.00029550,0.00031872,0.00003803,0.00004689,-
 0.00003119,0.00001481,0.00000203,-0.00001776,-0.00000238,0.00000617,0.
 00000272,-0.00003779,-0.00001243,0.00001878,0.00000195,-0.00000349,0.0
 0000180,0.00000169,0.00000370,0.00000283,-0.00000165,0.00015179,0.0000
 1832,-0.00000444,-0.00048436,0.00140325,-0.00002713,0.00182440,-0.0057
 1239,0.00198130,0.07263262,0.14607568,-0.00010826,0.00187911,-0.000321
 80,-0.00171366,-0.00138667,-0.00027454,0.00016654,0.00003214,0.0002015
 8,-0.00001211,-0.00002042,-0.00004683,-0.00001200,-0.00002771,-0.00000
 201,0.00002325,-0.00000056,0.00000236,0.00002332,0.00002698,0.00001214
 ,-0.00000841,0.00000419,-0.00000714,0.00001047,-0.00003218,-0.00002676
 ,-0.00001352,0.00000682,-0.00000174,-0.00001486,0.00002168,0.00001166,
 0.00004048,0.00000360,0.00001629,-0.00001566,0.00002981,-0.00001109,0.
 00463128,0.00408163,0.00497123,-0.08207584,-0.10434734,-0.17737169,0.0
 0096401,0.00356451,0.00397741,0.00011898,0.00000673,0.00003967,-0.0000
 0046,-0.00001772,0.00000268,-0.00000876,-0.00001224,-0.00000059,-0.000
 01090,-0.00001781,-0.00001998,-0.00000912,0.00001224,-0.00000051,-0.00
 000312,-0.00000085,0.00000249,0.00000161,-0.00000436,0.00000583,0.0000
 2719,-0.00005719,0.00002820,0.00057140,-0.00019859,0.00109116,-0.00045
 590,0.00210886,0.00104466,0.08898339,0.11021438,0.18578994,-0.00009109
 ,-0.00004717,0.00017055,0.00080527,-0.00020840,-0.00044004,0.00004599,
 -0.00002666,0.00009971,0.00007091,-0.00001615,-0.00002583,0.00003045,-
 0.00002246,0.00000232,-0.00001970,0.00001297,-0.00000595,-0.00001067,0
 .00001630,-0.00001026,0.00000425,-0.00002665,0.00000219,0.00000886,0.0
 0001245,-0.00000351,0.00000556,0.00000069,-0.00000177,-0.00001297,-0.0
 0000318,-0.00000948,0.00000521,-0.00000050,0.00000001,-0.00001042,0.00
 000130,0.00000376,0.00328690,0.00100092,-0.00575756,-0.07502408,-0.019
 94691,0.06925039,-0.02906747,-0.00376995,0.03076968,0.00001414,-0.0000
 4729,0.00004988,-0.00000928,-0.00000560,-0.00001630,0.00000476,-0.0000
 0541,0.00000598,-0.00000547,0.00002172,0.00000874,0.00000350,-0.000002
 98,-0.00000062,0.00000154,-0.00000143,0.00000127,0.00000047,-0.0000013
 2,0.00000084,0.00000503,-0.00000208,0.00000531,-0.00005018,0.00200026,
 -0.00032271,-0.00012539,-0.00019337,0.00049654,0.00638600,0.00359691,-
 0.01171466,0.09117289,0.00070784,0.00069893,0.00016920,-0.00287453,0.0
 0005212,0.00071330,0.00060240,-0.00014325,-0.00073916,-0.00017043,-0.0
 0005996,0.00002409,-0.00004295,0.00003982,0.00001808,0.00006043,-0.000
 03259,-0.00000972,0.00004174,-0.00001253,-0.00002643,0.00004869,-0.000
 03064,0.00003097,0.00000856,0.00003226,-0.00001488,0.00000479,0.000009
 52,-0.00000192,0.00001213,-0.00001040,-0.00000432,-0.00002025,-0.00000
 463,-0.00001178,0.00002873,0.00000517,-0.00000618,-0.00840788,-0.01094
 780,0.03097499,-0.01902495,-0.06469630,0.04602900,0.00464733,0.0046189
 9,-0.00651823,-0.00003532,0.00000346,0.00020419,0.00000444,-0.00001058
 ,0.00000671,-0.00001881,-0.00000922,0.00001015,0.00003008,0.00001045,0
 .00002163,0.00001532,-0.00000576,-0.00000736,0.00000040,-0.00000260,0.
 00000162,-0.00000061,-0.00000117,0.00000007,-0.00004397,-0.00002065,0.
 00000702,0.00157637,-0.00604380,0.00174029,-0.00066127,0.00155469,-0.0
 0056340,0.00646859,0.00551267,-0.01671013,0.01788281,0.06921945,-0.001
 36169,-0.00066148,0.00049800,0.00207440,0.00101053,-0.00023901,-0.0008
 0429,0.00027115,0.00023464,0.00010627,0.00004975,-0.00004689,0.0000534
 2,0.00002184,0.00001270,-0.00007648,0.00001416,0.00001442,-0.00007130,
 -0.00003161,0.00000455,-0.00006119,0.00011793,-0.00007320,-0.00002769,
 -0.00003575,0.00003638,-0.00000933,-0.00001722,0.00001648,0.00001751,0
 .00000905,0.00001812,-0.00000842,-0.00000389,-0.00000606,-0.00001122,-
 0.00005163,0.00002723,0.00088404,0.00162007,-0.00658723,0.06716817,0.0
 4792535,-0.24248887,0.00655694,-0.00135618,0.00480244,0.00008496,-0.00
 003604,-0.00015931,-0.00002152,0.00001670,0.00001191,0.00002347,0.0000
 3162,-0.00002175,-0.00004055,0.00000218,0.00001034,-0.00000953,-0.0000
 1117,0.00001470,-0.00000050,0.00000738,-0.00000605,0.00000406,0.000007
 43,-0.00000556,0.00004626,0.00006972,-0.00008365,-0.00022008,0.0010863
 9,0.00125550,0.00000496,0.00039645,0.00103705,0.00753086,0.00565081,-0
 .02099206,-0.08286067,-0.05512360,0.26034132,-0.00018398,-0.00056975,-
 0.00003486,0.00112154,0.00238791,-0.00023405,-0.00077393,0.00004856,0.
 00002522,0.00004736,0.00007008,0.00017581,-0.00002662,-0.00007789,-0.0
 0001044,-0.00004340,0.00004557,0.00000017,-0.00000063,0.00003400,0.000
 01053,-0.00002857,0.00003833,-0.00001746,-0.00000653,-0.00000301,0.000
 02576,0.00000638,-0.00000891,0.00000090,-0.00000378,-0.00001021,-0.000
 01064,-0.00001417,0.00000467,-0.00000003,-0.00000830,-0.00001962,0.000
 00614,-0.00750393,-0.00034111,0.00044010,-0.00929162,0.04065137,-0.002
 13941,-0.06239536,0.05257436,-0.01793630,-0.00002183,-0.00004491,-0.00
 009078,0.00000069,-0.00000172,-0.00000497,0.00001874,0.00000781,0.0000
 0005,0.00000296,0.00000698,-0.00000841,-0.00001236,-0.00000264,0.00000
 664,0.00000103,0.00000166,-0.00000232,-0.00000319,0.00000238,-0.000004
 36,0.00002770,0.00004032,0.00000142,-0.00001715,-0.00043067,-0.0001209
 1,0.00005139,-0.00004412,0.00031700,0.00124891,-0.00030784,-0.00082263
 ,0.00045401,0.00004832,0.00066107,0.07337824,0.00031744,0.00033238,0.0
 0010170,-0.00080938,-0.00067441,-0.00017495,0.00038446,-0.00008740,0.0
 0004343,-0.00009931,-0.00006326,-0.00003470,-0.00000791,0.00007587,0.0
 0000951,0.00004879,-0.00004402,-0.00000001,0.00001336,-0.00003839,-0.0
 0000616,0.00000444,-0.00000870,0.00000528,-0.00000451,0.00001328,-0.00
 000181,-0.00000235,0.00000261,0.00000095,0.00002118,-0.00000091,0.0000
 0632,-0.00001363,-0.00000336,-0.00000836,0.00003078,0.00000031,-0.0000
 0382,0.00276662,0.00112629,-0.00006474,-0.00407798,-0.00434222,0.00432
 805,0.07299200,-0.41287199,-0.00207998,-0.00000153,0.00003308,0.000014
 77,0.00000968,0.00000475,0.00000515,-0.00001583,0.00000090,-0.00000156
 ,-0.00000076,-0.00000580,0.00001121,0.00000803,-0.00000213,-0.00000365
 ,-0.00000057,-0.00000093,0.00000001,0.00000017,0.00000022,0.00000060,-
 0.00004472,-0.00001384,-0.00000670,-0.00007408,0.00025378,-0.00024410,
 -0.00018031,0.00036329,0.00005095,-0.00004774,0.00089448,0.00021122,-0
 .00086698,0.00050984,-0.00051514,-0.07361857,0.43257201,-0.00033870,-0
 .00021565,-0.00030037,0.00054547,0.00081028,0.00081293,-0.00069689,0.0
 0018273,-0.00000264,0.00013603,0.00009859,0.00007084,0.00006275,-0.000
 15571,-0.00000695,-0.00012008,0.00009457,-0.00001259,-0.00004151,0.000
 08018,-0.00000227,0.00000442,-0.00000555,0.00000081,0.00001500,-0.0000
 1275,0.00000788,0.00001574,-0.00000452,-0.00000566,-0.00004970,-0.0000
 1350,-0.00003379,0.00001699,0.00001208,0.00001947,-0.00005591,0.000005
 04,0.00000442,-0.00202184,0.00109268,-0.00025704,0.00700216,-0.0028724
 1,-0.00406623,-0.02762821,0.04330472,-0.02232609,0.00000496,-0.0001027
 9,-0.00003546,-0.00002344,-0.00000080,-0.00001506,0.00003654,-0.000002
 62,0.00001294,0.00000288,0.00001509,-0.00001870,-0.00000979,-0.0000001
 9,0.00000487,0.00000377,-0.00000123,0.00000040,-0.00000490,-0.00000153
 ,-0.00000212,0.00007768,0.00003183,0.00003670,0.00002437,-0.00042126,0
 .00044200,0.00004243,0.00021411,0.00003259,-0.00072934,0.00028488,0.00
 031018,-0.00000142,-0.00093316,0.00009176,0.01726557,-0.00789042,0.027
 48991,0.00033114,0.00076642,0.00022579,-0.00100379,-0.00038130,-0.0000
 7044,0.00014583,0.00003114,0.00012754,-0.00005555,0.00000970,-0.000020
 85,-0.00004544,0.00005858,-0.00000289,0.00004780,-0.00003406,0.0000070
 1,0.00002133,-0.00003141,0.00001018,0.00000062,0.00000335,-0.00000606,
 -0.00000677,-0.00000285,-0.00000519,-0.00000975,0.00000084,0.00000332,
 0.00001955,0.00000767,0.00001595,-0.00000142,-0.00000201,-0.00000279,0
 .00002192,-0.00000313,-0.00000078,0.00102066,-0.00103942,-0.00028802,-
 0.02223333,-0.01856503,-0.03256378,-0.12442324,-0.05856756,-0.12672253
 ,-0.00001113,0.00009124,-0.00003539,0.00001909,-0.00000338,0.00000902,
 -0.00001332,0.00000426,-0.00000676,-0.00000573,-0.00001190,-0.00000185
 ,0.00000063,0.00000430,-0.00000227,-0.00000218,0.00000098,-0.00000097,
 0.00000137,0.00000092,0.00000083,-0.00002013,-0.00001472,-0.00001652,-
 0.00010934,0.00007173,0.00017944,0.00002669,0.00109460,0.00006045,-0.0
 0661989,0.00241853,0.00143794,0.00212095,-0.00088799,0.00036809,0.0039
 7640,0.00326922,0.00646498,0.14680701,-0.00034798,-0.00052624,-0.00014
 067,0.00055047,0.00017379,-0.00014022,-0.00012460,-0.00005335,0.000004
 27,0.00006739,-0.00002019,-0.00001976,0.00010547,0.00002143,0.00002548
 ,-0.00007669,0.00001186,-0.00000500,-0.00007649,-0.00002719,-0.0000155
 9,-0.00001037,0.00002049,-0.00001213,-0.00000321,-0.00000988,0.0000132
 8,0.00000516,-0.00000800,0.00000311,-0.00001017,-0.00000633,-0.0000051
 1,-0.00000079,0.00000187,0.00000086,-0.00001773,-0.00001308,0.00000840
 ,0.00055493,0.00200454,0.00137293,0.00113666,0.00323127,0.00621428,-0.
 05530677,-0.11533293,-0.11694956,0.00007852,-0.00004512,-0.00001197,-0
 .00001613,0.00000369,-0.00000273,0.00001760,0.00001293,-0.00000305,-0.
 00000113,0.00000444,-0.00000632,-0.00000310,0.00000066,0.00000220,0.00
 000174,0.00000294,-0.00000256,-0.00000047,0.00000223,-0.00000312,0.000
 02789,0.00002669,-0.00000555,-0.00005108,-0.00002257,0.00015349,-0.000
 04102,-0.00037726,-0.00070247,0.00166386,0.00081237,0.00062989,0.00064
 815,-0.00023548,-0.00046479,-0.02048137,-0.01802573,-0.03359269,0.0717
 1125,0.12837215,0.00040647,0.00022553,0.00015187,-0.00045503,0.0000436
 3,0.00013118,0.00001225,0.00004367,-0.00007399,-0.00000612,0.00002284,
 0.00002621,-0.00004562,-0.00005997,-0.00001478,0.00001841,0.00001831,-
 0.00000089,0.00004077,0.00004504,0.00000263,0.00000899,-0.00001588,0.0
 0000962,0.00000710,0.00000120,-0.00001102,0.00000059,0.00000667,-0.000
 00352,-0.00001063,0.00000379,-0.00000264,0.00001182,-0.00000268,0.0000
 0074,-0.00000402,0.00001909,0.00000036,-0.00045274,0.00001499,-0.00014
 165,0.00946083,0.00356971,-0.00032825,-0.16261661,-0.15515476,-0.25671
 869,-0.00004126,-0.00001778,0.00003085,0.00000098,0.00000002,-0.000003
 02,-0.00000363,-0.00001376,0.00000592,0.00000405,0.00000198,0.00000289
 ,0.00000180,-0.00000175,0.00000001,-0.00000016,-0.00000216,0.00000292,
 0.00000193,-0.00000211,0.00000254,-0.00000409,-0.00002607,0.00000399,-
 0.00005791,-0.00013521,-0.00031099,-0.00044432,0.00038633,0.00009459,0
 .00052479,0.00040831,0.00156923,0.00030362,0.00071896,0.00228213,0.002
 50121,0.00624694,-0.00225274,0.15083654,0.14365511,0.25554449\\0.00000
 617,-0.00000036,0.00000102,-0.00000028,-0.00000019,-0.00000316,-0.0000
 0035,0.00000038,0.00000050,0.00000169,-0.00000195,0.00000093,0.0000001
 4,-0.00000039,0.00000024,0.00000105,-0.00000040,-0.00000045,0.00000125
 ,0.00000028,0.00000106,-0.00000412,-0.00000238,-0.00000144,0.00000509,
 0.00000291,0.00000033,-0.00000578,-0.00000059,-0.00000050,-0.00000198,
 0.00000203,0.00000213,0.00000095,-0.00000028,0.00000061,-0.00000189,-0
 .00000134,-0.00000173,-0.00000029,0.00000176,-0.00000240,-0.00000022,-
 0.00000114,0.00000103,-0.00000045,0.00000019,-0.00000109,0.00000065,0.
 00000158,-0.00000054,-0.00000119,-0.00000016,0.00000046,-0.00000112,-0
 .00000012,0.00000132,0.00000135,0.00000024,0.00000134,-0.00000131,0.00
 000041,-0.00000030,0.00000042,0.00000030,-0.00000059,-0.00000055,-0.00
 000007,-0.00000104,0.00000084,0.00000025,0.00000031,-0.00000017,-0.000
 00019,0.00000076,0.00000047,0.00000028,0.00000125,0.00000052,-0.000000
 45,-0.00000049,-0.00000117,-0.00000042,0.00000028,-0.00000004,-0.00000
 075,-0.00000031,0.00000029,0.00000057,0.00000046\\\@


 UNDER MOST GREENE GRASSE LY MOST GREATE SNAKES.
 -- PROVERBS AND REASONS OF THE YEAR 1585
           AS REPRINTED IN PAISLEY MAGAZINE 1828.
 Job cpu time:       0 days  2 hours  6 minutes 10.3 seconds.
 File lengths (MBytes):  RWF=    415 Int=      0 D2E=      0 Chk=     13 Scr=      1
 Normal termination of Gaussian 09 at Sat Jul 24 02:06:30 2021.
