 Entering Gaussian System, Link 0=g09
 Input=opt_freq-conf-609.com
 Output=opt_freq-conf-609.log
 Initial command:
 /aerosol/software/g09/l1.exe "/scratch/nicole/10404/Gau-72740.inp" -scrdir="/scratch/nicole/10404/"
 Entering Link 1 = /aerosol/software/g09/l1.exe PID=     72744.
  
 Copyright (c) 1988,1990,1992,1993,1995,1998,2003,2009,2013,
            Gaussian, Inc.  All Rights Reserved.
  
 This is part of the Gaussian(R) 09 program.  It is based on
 the Gaussian(R) 03 system (copyright 2003, Gaussian, Inc.),
 the Gaussian(R) 98 system (copyright 1998, Gaussian, Inc.),
 the Gaussian(R) 94 system (copyright 1995, Gaussian, Inc.),
 the Gaussian 92(TM) system (copyright 1992, Gaussian, Inc.),
 the Gaussian 90(TM) system (copyright 1990, Gaussian, Inc.),
 the Gaussian 88(TM) system (copyright 1988, Gaussian, Inc.),
 the Gaussian 86(TM) system (copyright 1986, Carnegie Mellon
 University), and the Gaussian 82(TM) system (copyright 1983,
 Carnegie Mellon University). Gaussian is a federally registered
 trademark of Gaussian, Inc.
  
 This software contains proprietary and confidential information,
 including trade secrets, belonging to Gaussian, Inc.
  
 This software is provided under written license and may be
 used, copied, transmitted, or stored only in accord with that
 written license.
  
 The following legend is applicable only to US Government
 contracts under FAR:
  
                    RESTRICTED RIGHTS LEGEND
  
 Use, reproduction and disclosure by the US Government is
 subject to restrictions as set forth in subparagraphs (a)
 and (c) of the Commercial Computer Software - Restricted
 Rights clause in FAR 52.227-19.
  
 Gaussian, Inc.
 340 Quinnipiac St., Bldg. 40, Wallingford CT 06492
  
  
 ---------------------------------------------------------------
 Warning -- This program may not be used in any manner that
 competes with the business of Gaussian, Inc. or will provide
 assistance to any competitor of Gaussian, Inc.  The licensee
 of this program is prohibited from giving any competitor of
 Gaussian, Inc. access to this program.  By using this program,
 the user acknowledges that Gaussian, Inc. is engaged in the
 business of creating and licensing software in the field of
 computational chemistry and represents and warrants to the
 licensee that it is not a competitor of Gaussian, Inc. and that
 it will not use this program in any manner prohibited above.
 ---------------------------------------------------------------
  

 Cite this work as:
 Gaussian 09, Revision D.01,
 M. J. Frisch, G. W. Trucks, H. B. Schlegel, G. E. Scuseria, 
 M. A. Robb, J. R. Cheeseman, G. Scalmani, V. Barone, B. Mennucci, 
 G. A. Petersson, H. Nakatsuji, M. Caricato, X. Li, H. P. Hratchian, 
 A. F. Izmaylov, J. Bloino, G. Zheng, J. L. Sonnenberg, M. Hada, 
 M. Ehara, K. Toyota, R. Fukuda, J. Hasegawa, M. Ishida, T. Nakajima, 
 Y. Honda, O. Kitao, H. Nakai, T. Vreven, J. A. Montgomery, Jr., 
 J. E. Peralta, F. Ogliaro, M. Bearpark, J. J. Heyd, E. Brothers, 
 K. N. Kudin, V. N. Staroverov, T. Keith, R. Kobayashi, J. Normand, 
 K. Raghavachari, A. Rendell, J. C. Burant, S. S. Iyengar, J. Tomasi, 
 M. Cossi, N. Rega, J. M. Millam, M. Klene, J. E. Knox, J. B. Cross, 
 V. Bakken, C. Adamo, J. Jaramillo, R. Gomperts, R. E. Stratmann, 
 O. Yazyev, A. J. Austin, R. Cammi, C. Pomelli, J. W. Ochterski, 
 R. L. Martin, K. Morokuma, V. G. Zakrzewski, G. A. Voth, 
 P. Salvador, J. J. Dannenberg, S. Dapprich, A. D. Daniels, 
 O. Farkas, J. B. Foresman, J. V. Ortiz, J. Cioslowski, 
 and D. J. Fox, Gaussian, Inc., Wallingford CT, 2013.
 
 ******************************************
 Gaussian 09:  ES64L-G09RevD.01 24-Apr-2013
                24-Jul-2021 
 ******************************************
 %mem=2gb
 %nproc=4
 Will use up to    4 processors via shared memory.
 %chk=conf-609.chk
 ----------------------------------------------------------------------
 # B3LYP/6-311G(d,p) EmpiricalDispersion=GD3BJ opt=calcfc freq=noraman 
 nosymm integral(ultrafinegrid)
 ----------------------------------------------------------------------
 1/10=4,14=-1,18=20,19=15,26=4,38=1/1,3;
 2/9=110,12=2,15=1,17=6,18=5,40=1/2;
 3/5=4,6=6,7=101,11=2,16=1,25=1,30=1,71=2,74=-5,75=-5,124=41,140=1/1,2,3;
 4//1;
 5/5=2,38=5/2;
 8/6=4,10=90,11=11/1;
 11/6=1,8=1,9=11,15=111,16=1,31=1/1,2,10;
 10/6=1,13=1,31=1/2;
 6/7=2,8=2,9=2,10=2,28=1/1;
 7/10=1,18=20,25=1,30=1/1,2,3,16;
 1/10=4,14=-1,18=20,19=15,26=4/3(2);
 2/9=110,15=1/2;
 99//99;
 2/9=110,15=1/2;
 3/5=4,6=6,7=101,11=2,16=1,25=1,30=1,71=1,74=-5,75=-5,124=41/1,2,3;
 4/5=5,16=3,69=1/1;
 5/5=2,38=5/2;
 7/30=1/1,2,3,16;
 1/14=-1,18=20,19=15,26=4/3(-5);
 2/9=110,15=1/2;
 6/7=2,8=2,9=2,10=2,19=2,28=1/1;
 99/9=1/99;
 ------------------------------------------------------------
 Candidate Structure: Conf:609 OPT and FREQ calc in gas phase
 ------------------------------------------------------------
 Symbolic Z-matrix:
 Charge =  0 Multiplicity = 1
 O                     1.4177    0.85748  -0.67657 
 C                     1.59436  -0.0041    0.17026 
 N                     0.53894  -0.70679   0.68996 
 C                    -0.76947  -0.61446   0.04509 
 C                    -0.64827  -1.10746  -1.38772 
 O                    -1.61879  -0.61874  -2.20018 
 O                     0.17932  -1.88567  -1.77113 
 C                    -1.37787   0.79834   0.19937 
 C                    -2.85873   0.80124   0.37903 
 C                    -3.64977   1.26082   1.39423 
 N                    -4.98461   1.02988   1.11578 
 C                    -4.99278   0.43648  -0.05264 
 N                    -3.73342   0.27218  -0.53474 
 C                     2.94924  -0.35503   0.76111 
 C                     4.10813   0.28615  -0.00412 
 N                     5.43796  -0.03063   0.50635 
 H                     0.73699  -1.56765   1.16964 
 H                    -1.39207  -1.34935   0.56809 
 H                    -1.43624  -0.99233  -3.07559 
 H                    -0.94483   1.25313   1.08786 
 H                    -1.07567   1.42915  -0.63282 
 H                    -3.34519   1.74821   2.30793 
 H                    -5.85793   0.10731  -0.60024 
 H                    -3.44962  -0.1468   -1.40521 
 H                     2.9628   -0.0272    1.80781 
 H                     3.05558  -1.44622   0.77465 
 H                     4.05694  -0.02324  -1.04839 
 H                     3.98105   1.36867   0.00486 
 H                     5.59424  -1.03199   0.48736 
 H                     5.52208   0.25863   1.47443 
 

 GradGradGradGradGradGradGradGradGradGradGradGradGradGradGradGradGradGrad
 Berny optimization.
 Initialization pass.
                           ----------------------------
                           !    Initial Parameters    !
                           ! (Angstroms and Degrees)  !
 --------------------------                            --------------------------
 ! Name  Definition              Value          Derivative Info.                !
 --------------------------------------------------------------------------------
 ! R1    R(1,2)                  1.2209         calculate D2E/DX2 analytically  !
 ! R2    R(2,3)                  1.3703         calculate D2E/DX2 analytically  !
 ! R3    R(2,14)                 1.5192         calculate D2E/DX2 analytically  !
 ! R4    R(3,4)                  1.4616         calculate D2E/DX2 analytically  !
 ! R5    R(3,17)                 1.0052         calculate D2E/DX2 analytically  !
 ! R6    R(4,5)                  1.5201         calculate D2E/DX2 analytically  !
 ! R7    R(4,8)                  1.5459         calculate D2E/DX2 analytically  !
 ! R8    R(4,18)                 1.096          calculate D2E/DX2 analytically  !
 ! R9    R(5,6)                  1.3568         calculate D2E/DX2 analytically  !
 ! R10   R(5,7)                  1.199          calculate D2E/DX2 analytically  !
 ! R11   R(6,19)                 0.9691         calculate D2E/DX2 analytically  !
 ! R12   R(8,9)                  1.4917         calculate D2E/DX2 analytically  !
 ! R13   R(8,20)                 1.088          calculate D2E/DX2 analytically  !
 ! R14   R(8,21)                 1.0871         calculate D2E/DX2 analytically  !
 ! R15   R(9,10)                 1.3666         calculate D2E/DX2 analytically  !
 ! R16   R(9,13)                 1.3711         calculate D2E/DX2 analytically  !
 ! R17   R(10,11)                1.383          calculate D2E/DX2 analytically  !
 ! R18   R(10,22)                1.0794         calculate D2E/DX2 analytically  !
 ! R19   R(11,12)                1.3105         calculate D2E/DX2 analytically  !
 ! R20   R(12,13)                1.3584         calculate D2E/DX2 analytically  !
 ! R21   R(12,23)                1.0755         calculate D2E/DX2 analytically  !
 ! R22   R(13,24)                1.0069         calculate D2E/DX2 analytically  !
 ! R23   R(14,15)                1.5296         calculate D2E/DX2 analytically  !
 ! R24   R(14,25)                1.0969         calculate D2E/DX2 analytically  !
 ! R25   R(14,26)                1.0964         calculate D2E/DX2 analytically  !
 ! R26   R(15,16)                1.4592         calculate D2E/DX2 analytically  !
 ! R27   R(15,27)                1.0903         calculate D2E/DX2 analytically  !
 ! R28   R(15,28)                1.09           calculate D2E/DX2 analytically  !
 ! R29   R(16,29)                1.0137         calculate D2E/DX2 analytically  !
 ! R30   R(16,30)                1.0139         calculate D2E/DX2 analytically  !
 ! A1    A(1,2,3)              120.8952         calculate D2E/DX2 analytically  !
 ! A2    A(1,2,14)             124.1813         calculate D2E/DX2 analytically  !
 ! A3    A(3,2,14)             114.8943         calculate D2E/DX2 analytically  !
 ! A4    A(2,3,4)              119.3244         calculate D2E/DX2 analytically  !
 ! A5    A(2,3,17)             117.9301         calculate D2E/DX2 analytically  !
 ! A6    A(4,3,17)             116.1694         calculate D2E/DX2 analytically  !
 ! A7    A(3,4,5)              108.9051         calculate D2E/DX2 analytically  !
 ! A8    A(3,4,8)              111.4689         calculate D2E/DX2 analytically  !
 ! A9    A(3,4,18)             104.8106         calculate D2E/DX2 analytically  !
 ! A10   A(5,4,8)              114.9501         calculate D2E/DX2 analytically  !
 ! A11   A(5,4,18)             106.1182         calculate D2E/DX2 analytically  !
 ! A12   A(8,4,18)             109.9739         calculate D2E/DX2 analytically  !
 ! A13   A(4,5,6)              112.9903         calculate D2E/DX2 analytically  !
 ! A14   A(4,5,7)              124.5388         calculate D2E/DX2 analytically  !
 ! A15   A(6,5,7)              122.4154         calculate D2E/DX2 analytically  !
 ! A16   A(5,6,19)             105.5045         calculate D2E/DX2 analytically  !
 ! A17   A(4,8,9)              113.8582         calculate D2E/DX2 analytically  !
 ! A18   A(4,8,20)             107.8698         calculate D2E/DX2 analytically  !
 ! A19   A(4,8,21)             110.151          calculate D2E/DX2 analytically  !
 ! A20   A(9,8,20)             107.2145         calculate D2E/DX2 analytically  !
 ! A21   A(9,8,21)             111.5329         calculate D2E/DX2 analytically  !
 ! A22   A(20,8,21)            105.7795         calculate D2E/DX2 analytically  !
 ! A23   A(8,9,10)             131.6629         calculate D2E/DX2 analytically  !
 ! A24   A(8,9,13)             123.5236         calculate D2E/DX2 analytically  !
 ! A25   A(10,9,13)            104.8078         calculate D2E/DX2 analytically  !
 ! A26   A(9,10,11)            110.668          calculate D2E/DX2 analytically  !
 ! A27   A(9,10,22)            128.1211         calculate D2E/DX2 analytically  !
 ! A28   A(11,10,22)           121.2102         calculate D2E/DX2 analytically  !
 ! A29   A(10,11,12)           105.1382         calculate D2E/DX2 analytically  !
 ! A30   A(11,12,13)           111.4322         calculate D2E/DX2 analytically  !
 ! A31   A(11,12,23)           126.6952         calculate D2E/DX2 analytically  !
 ! A32   A(13,12,23)           121.8722         calculate D2E/DX2 analytically  !
 ! A33   A(9,13,12)            107.9521         calculate D2E/DX2 analytically  !
 ! A34   A(9,13,24)            123.8417         calculate D2E/DX2 analytically  !
 ! A35   A(12,13,24)           128.2027         calculate D2E/DX2 analytically  !
 ! A36   A(2,14,15)            112.5997         calculate D2E/DX2 analytically  !
 ! A37   A(2,14,25)            108.2457         calculate D2E/DX2 analytically  !
 ! A38   A(2,14,26)            108.7351         calculate D2E/DX2 analytically  !
 ! A39   A(15,14,25)           110.0428         calculate D2E/DX2 analytically  !
 ! A40   A(15,14,26)           110.4801         calculate D2E/DX2 analytically  !
 ! A41   A(25,14,26)           106.5261         calculate D2E/DX2 analytically  !
 ! A42   A(14,15,16)           115.1154         calculate D2E/DX2 analytically  !
 ! A43   A(14,15,27)           108.9426         calculate D2E/DX2 analytically  !
 ! A44   A(14,15,28)           108.8971         calculate D2E/DX2 analytically  !
 ! A45   A(16,15,27)           108.4343         calculate D2E/DX2 analytically  !
 ! A46   A(16,15,28)           108.6001         calculate D2E/DX2 analytically  !
 ! A47   A(27,15,28)           106.5126         calculate D2E/DX2 analytically  !
 ! A48   A(15,16,29)           110.3896         calculate D2E/DX2 analytically  !
 ! A49   A(15,16,30)           110.346          calculate D2E/DX2 analytically  !
 ! A50   A(29,16,30)           106.6742         calculate D2E/DX2 analytically  !
 ! D1    D(1,2,3,4)             12.0744         calculate D2E/DX2 analytically  !
 ! D2    D(1,2,3,17)           162.572          calculate D2E/DX2 analytically  !
 ! D3    D(14,2,3,4)          -169.8126         calculate D2E/DX2 analytically  !
 ! D4    D(14,2,3,17)          -19.315          calculate D2E/DX2 analytically  !
 ! D5    D(1,2,14,15)          -11.2469         calculate D2E/DX2 analytically  !
 ! D6    D(1,2,14,25)          110.6307         calculate D2E/DX2 analytically  !
 ! D7    D(1,2,14,26)         -134.0235         calculate D2E/DX2 analytically  !
 ! D8    D(3,2,14,15)          170.7105         calculate D2E/DX2 analytically  !
 ! D9    D(3,2,14,25)          -67.4119         calculate D2E/DX2 analytically  !
 ! D10   D(3,2,14,26)           47.9339         calculate D2E/DX2 analytically  !
 ! D11   D(2,3,4,5)             60.0931         calculate D2E/DX2 analytically  !
 ! D12   D(2,3,4,8)            -67.7728         calculate D2E/DX2 analytically  !
 ! D13   D(2,3,4,18)           173.3023         calculate D2E/DX2 analytically  !
 ! D14   D(17,3,4,5)           -90.908          calculate D2E/DX2 analytically  !
 ! D15   D(17,3,4,8)           141.2261         calculate D2E/DX2 analytically  !
 ! D16   D(17,3,4,18)           22.3011         calculate D2E/DX2 analytically  !
 ! D17   D(3,4,5,6)           -156.8426         calculate D2E/DX2 analytically  !
 ! D18   D(3,4,5,7)             25.8192         calculate D2E/DX2 analytically  !
 ! D19   D(8,4,5,6)            -30.9674         calculate D2E/DX2 analytically  !
 ! D20   D(8,4,5,7)            151.6944         calculate D2E/DX2 analytically  !
 ! D21   D(18,4,5,6)            90.8097         calculate D2E/DX2 analytically  !
 ! D22   D(18,4,5,7)           -86.5285         calculate D2E/DX2 analytically  !
 ! D23   D(3,4,8,9)           -143.8929         calculate D2E/DX2 analytically  !
 ! D24   D(3,4,8,20)           -25.0377         calculate D2E/DX2 analytically  !
 ! D25   D(3,4,8,21)            89.965          calculate D2E/DX2 analytically  !
 ! D26   D(5,4,8,9)             91.5679         calculate D2E/DX2 analytically  !
 ! D27   D(5,4,8,20)          -149.5769         calculate D2E/DX2 analytically  !
 ! D28   D(5,4,8,21)           -34.5742         calculate D2E/DX2 analytically  !
 ! D29   D(18,4,8,9)           -28.0945         calculate D2E/DX2 analytically  !
 ! D30   D(18,4,8,20)           90.7606         calculate D2E/DX2 analytically  !
 ! D31   D(18,4,8,21)         -154.2367         calculate D2E/DX2 analytically  !
 ! D32   D(4,5,6,19)           179.6235         calculate D2E/DX2 analytically  !
 ! D33   D(7,5,6,19)            -2.9738         calculate D2E/DX2 analytically  !
 ! D34   D(4,8,9,10)           119.8815         calculate D2E/DX2 analytically  !
 ! D35   D(4,8,9,13)           -59.1069         calculate D2E/DX2 analytically  !
 ! D36   D(20,8,9,10)            0.6533         calculate D2E/DX2 analytically  !
 ! D37   D(20,8,9,13)         -178.3351         calculate D2E/DX2 analytically  !
 ! D38   D(21,8,9,10)         -114.7065         calculate D2E/DX2 analytically  !
 ! D39   D(21,8,9,13)           66.3052         calculate D2E/DX2 analytically  !
 ! D40   D(8,9,10,11)         -179.4414         calculate D2E/DX2 analytically  !
 ! D41   D(8,9,10,22)            0.862          calculate D2E/DX2 analytically  !
 ! D42   D(13,9,10,11)          -0.3138         calculate D2E/DX2 analytically  !
 ! D43   D(13,9,10,22)         179.9897         calculate D2E/DX2 analytically  !
 ! D44   D(8,9,13,12)          179.6249         calculate D2E/DX2 analytically  !
 ! D45   D(8,9,13,24)           -1.0112         calculate D2E/DX2 analytically  !
 ! D46   D(10,9,13,12)           0.4067         calculate D2E/DX2 analytically  !
 ! D47   D(10,9,13,24)         179.7705         calculate D2E/DX2 analytically  !
 ! D48   D(9,10,11,12)           0.0957         calculate D2E/DX2 analytically  !
 ! D49   D(22,10,11,12)        179.8165         calculate D2E/DX2 analytically  !
 ! D50   D(10,11,12,13)          0.172          calculate D2E/DX2 analytically  !
 ! D51   D(10,11,12,23)       -179.599          calculate D2E/DX2 analytically  !
 ! D52   D(11,12,13,9)          -0.3752         calculate D2E/DX2 analytically  !
 ! D53   D(11,12,13,24)       -179.7028         calculate D2E/DX2 analytically  !
 ! D54   D(23,12,13,9)         179.4086         calculate D2E/DX2 analytically  !
 ! D55   D(23,12,13,24)          0.081          calculate D2E/DX2 analytically  !
 ! D56   D(2,14,15,16)        -179.1721         calculate D2E/DX2 analytically  !
 ! D57   D(2,14,15,27)         -57.159          calculate D2E/DX2 analytically  !
 ! D58   D(2,14,15,28)          58.633          calculate D2E/DX2 analytically  !
 ! D59   D(25,14,15,16)         59.9738         calculate D2E/DX2 analytically  !
 ! D60   D(25,14,15,27)       -178.0131         calculate D2E/DX2 analytically  !
 ! D61   D(25,14,15,28)        -62.2211         calculate D2E/DX2 analytically  !
 ! D62   D(26,14,15,16)        -57.3794         calculate D2E/DX2 analytically  !
 ! D63   D(26,14,15,27)         64.6337         calculate D2E/DX2 analytically  !
 ! D64   D(26,14,15,28)       -179.5743         calculate D2E/DX2 analytically  !
 ! D65   D(14,15,16,29)         59.1042         calculate D2E/DX2 analytically  !
 ! D66   D(14,15,16,30)        -58.5613         calculate D2E/DX2 analytically  !
 ! D67   D(27,15,16,29)        -63.1825         calculate D2E/DX2 analytically  !
 ! D68   D(27,15,16,30)        179.152          calculate D2E/DX2 analytically  !
 ! D69   D(28,15,16,29)       -178.5413         calculate D2E/DX2 analytically  !
 ! D70   D(28,15,16,30)         63.7932         calculate D2E/DX2 analytically  !
 --------------------------------------------------------------------------------
 Trust Radius=3.00D-01 FncErr=1.00D-07 GrdErr=1.00D-06
 Number of steps in this run=    160 maximum allowed number of steps=    180.
 GradGradGradGradGradGradGradGradGradGradGradGradGradGradGradGradGradGrad

                          Input orientation:                          
 ---------------------------------------------------------------------
 Center     Atomic      Atomic             Coordinates (Angstroms)
 Number     Number       Type             X           Y           Z
 ---------------------------------------------------------------------
      1          8           0        1.417701    0.857484   -0.676571
      2          6           0        1.594364   -0.004096    0.170265
      3          7           0        0.538935   -0.706795    0.689955
      4          6           0       -0.769472   -0.614461    0.045092
      5          6           0       -0.648268   -1.107456   -1.387719
      6          8           0       -1.618787   -0.618740   -2.200176
      7          8           0        0.179315   -1.885674   -1.771125
      8          6           0       -1.377870    0.798338    0.199367
      9          6           0       -2.858733    0.801239    0.379029
     10          6           0       -3.649774    1.260823    1.394234
     11          7           0       -4.984605    1.029882    1.115776
     12          6           0       -4.992777    0.436482   -0.052640
     13          7           0       -3.733425    0.272184   -0.534742
     14          6           0        2.949245   -0.355035    0.761106
     15          6           0        4.108125    0.286154   -0.004116
     16          7           0        5.437961   -0.030629    0.506347
     17          1           0        0.736987   -1.567649    1.169641
     18          1           0       -1.392069   -1.349352    0.568090
     19          1           0       -1.436240   -0.992330   -3.075593
     20          1           0       -0.944825    1.253127    1.087858
     21          1           0       -1.075666    1.429147   -0.632825
     22          1           0       -3.345191    1.748206    2.307926
     23          1           0       -5.857934    0.107305   -0.600236
     24          1           0       -3.449616   -0.146799   -1.405213
     25          1           0        2.962802   -0.027195    1.807808
     26          1           0        3.055580   -1.446224    0.774651
     27          1           0        4.056937   -0.023239   -1.048389
     28          1           0        3.981055    1.368669    0.004859
     29          1           0        5.594239   -1.031986    0.487363
     30          1           0        5.522075    0.258626    1.474429
 ---------------------------------------------------------------------
                    Distance matrix (angstroms):
                    1          2          3          4          5
     1  O    0.000000
     2  C    1.220926   0.000000
     3  N    2.255347   1.370326   0.000000
     4  C    2.733340   2.444573   1.461610   0.000000
     5  C    2.938529   2.945185   2.426255   1.520092   0.000000
     6  O    3.704169   4.039940   3.607821   2.400537   1.356774
     7  O    3.202588   3.051507   2.752454   2.411395   1.198965
     8  C    2.930185   3.078786   2.486009   1.545946   2.585191
     9  C    4.405150   4.530146   3.730281   2.545728   3.413308
    10  C    5.489100   5.531646   4.681113   3.692291   4.728324
    11  N    6.650696   6.726510   5.805762   4.649470   5.444219
    12  C    6.454516   6.605621   5.697225   4.353199   4.800098
    13  N    5.186212   5.381329   4.550972   3.147596   3.485566
    14  C    2.425437   1.519195   2.436881   3.795898   4.257427
    15  C    2.831430   2.536464   3.769191   4.960291   5.145851
    16  N    4.283751   3.858354   4.948875   6.251867   6.464459
    17  H    3.123001   2.044149   1.005183   2.107747   2.944622
    18  H    3.783400   3.299509   2.038752   1.096001   2.106405
    19  H    4.161983   4.549369   4.261713   3.213415   1.866299
    20  H    2.975109   2.978266   2.490214   2.146159   3.433480
    21  H    2.558435   3.134995   2.986458   2.174778   2.680837
    22  H    5.690848   5.660332   4.871478   4.163765   5.393143
    23  H    7.314606   7.492851   6.576267   5.179752   5.407069
    24  H    5.022975   5.286230   4.540029   3.083060   2.961540
    25  H    3.056490   2.134175   2.754375   4.169163   4.941476
    26  H    3.177383   2.140133   2.624391   3.981848   4.302220
    27  H    2.807042   2.747681   3.983143   4.983921   4.840416
    28  H    2.701192   2.758285   4.077388   5.148003   5.431491
    29  H    4.729515   4.141994   5.069802   6.392711   6.518475
    30  H    4.672399   4.146900   5.136061   6.510673   6.937666
                    6          7          8          9         10
     6  O    0.000000
     7  O    2.241066   0.000000
     8  C    2.797134   3.675811   0.000000
     9  C    3.194700   4.590469   1.491725   0.000000
    10  C    4.536238   5.880635   2.608284   1.366603   0.000000
    11  N    5.004221   6.595509   3.728533   2.261505   1.382985
    12  C    4.136329   5.924200   3.641703   2.207607   2.139309
    13  N    2.835333   4.636220   2.522775   1.371116   2.169182
    14  C    5.450289   4.053093   4.513285   5.934270   6.823408
    15  C    6.199922   4.824387   5.513609   6.996373   7.942944
    16  N    7.580820   6.023407   6.872916   8.339266   9.221883
    17  H    4.219687   3.010024   3.318425   4.377888   5.224402
    18  H    2.872018   2.868592   2.179158   2.609959   3.548628
    19  H    0.969148   2.260469   3.732997   4.144248   5.473188
    20  H    3.843082   4.391988   1.088015   2.090380   2.722255
    21  H    2.635415   3.722733   1.087102   2.144165   3.280752
    22  H    5.376420   6.501222   3.036218   2.203187   1.079419
    23  H    4.588826   6.464621   4.603027   3.230434   3.191313
    24  H    2.051007   4.040634   2.785694   2.105098   3.139804
    25  H    6.115947   4.900051   4.702129   6.051280   6.749533
    26  H    5.602145   3.866134   5.002448   6.339299   7.257669
    27  H    5.821947   4.361991   5.636401   7.109415   8.185879
    28  H    6.337996   5.310188   5.392698   6.873477   7.757032
    29  H    7.708526   5.928824   7.214107   8.650156   9.567192
    30  H    8.078639   6.608837   7.037494   8.469491   9.226790
                   11         12         13         14         15
    11  N    0.000000
    12  C    1.310491   0.000000
    13  N    2.205395   1.358449   0.000000
    14  C    8.061623   8.022743   6.835986   0.000000
    15  C    9.191574   9.102273   7.859495   1.529605   0.000000
    16  N   10.494092  10.456145   9.235252   2.522667   1.459242
    17  H    6.283844   6.191988   5.125865   2.555664   4.022296
    18  H    4.343620   4.066892   3.054106   4.457907   5.766666
    19  H    5.852164   4.881466   3.651299   5.861645   6.465947
    20  H    4.046040   4.284106   3.372146   4.225723   5.259254
    21  H    4.300793   4.082372   2.900322   4.618036   5.345409
    22  H    2.150556   3.163453   3.226473   6.814411   7.939462
    23  H    2.135075   1.075506   2.131903   8.923755   9.985473
    24  H    3.177445   2.133312   1.006884   6.758826   7.698699
    25  H    8.047211   8.183368   7.100466   1.096926   2.166338
    26  H    8.419741   8.306928   7.124466   1.096442   2.171513
    27  H    9.356397   9.115930   7.812864   2.147404   1.090344
    28  H    9.040574   9.022303   7.810675   2.146555   1.089984
    29  H   10.796210  10.702005   9.473694   2.743937   2.046358
    30  H   10.541053  10.626650   9.471073   2.739501   2.045998
                   16         17         18         19         20
    16  N    0.000000
    17  H    4.990145   0.000000
    18  H    6.956447   2.223151   0.000000
    19  H    7.810877   4.803740   3.661399   0.000000
    20  H    6.536524   3.285112   2.691298   4.755827   0.000000
    21  H    6.771705   3.938956   3.043413   3.458422   1.734604
    22  H    9.140771   5.380963   4.054205   6.335370   2.737777
    23  H   11.350806   7.030712   4.840535   5.185361   5.319887
    24  H    9.091566   5.116281   3.094117   2.749323   3.801207
    25  H    2.796466   2.781098   4.716980   6.643091   4.174578
    26  H    2.784176   2.355129   4.453497   5.933536   4.836097
    27  H    2.079540   4.280996   5.836373   5.934954   5.586617
    28  H    2.081370   4.527986   6.047754   6.664126   5.044852
    29  H    1.013657   4.934099   6.993979   7.881869   6.952820
    30  H    1.013867   5.130813   7.156287   8.407481   6.554332
                   21         22         23         24         25
    21  H    0.000000
    22  H    3.728345   0.000000
    23  H    4.961694   4.178975   0.000000
    24  H    2.952258   4.170054   2.551970   0.000000
    25  H    4.938303   6.572134   9.144514   7.173347   0.000000
    26  H    5.226465   7.316090   9.151748   6.982685   1.757743
    27  H    5.350302   8.318315   9.925852   7.516044   3.058596
    28  H    5.097129   7.689086   9.937951   7.713612   2.497179
    29  H    7.197196   9.537155  11.559979   9.282064   3.110891
    30  H    7.024302   9.030059  11.568567   9.431222   2.596674
                   26         27         28         29         30
    26  H    0.000000
    27  H    2.520135   0.000000
    28  H    3.061488   1.747140   0.000000
    29  H    2.588227   2.395706   2.932290   0.000000
    30  H    3.078929   2.930988   2.401370   1.626404   0.000000
 Symmetry turned off by external request.
 Stoichiometry    C9H14N4O3
 Framework group  C1[X(C9H14N4O3)]
 Deg. of freedom    84
 Full point group                 C1      NOp   1
 Rotational constants (GHZ):      1.2523698      0.2304720      0.2066994
 Standard basis: 6-311G(d,p) (5D, 7F)
   372 basis functions,   624 primitive gaussians,   388 cartesian basis functions
    60 alpha electrons       60 beta electrons
       nuclear repulsion energy      1113.3337131870 Hartrees.
 NAtoms=   30 NActive=   30 NUniq=   30 SFac= 1.00D+00 NAtFMM=   60 NAOKFM=F Big=F
 Integral buffers will be    131072 words long.
 Raffenetti 2 integral format.
 Two-electron integral symmetry is turned off.
 Nuclear repulsion after empirical dispersion term =     1113.2796995233 Hartrees.
 One-electron integrals computed using PRISM.
 NBasis=   372 RedAO= T EigKep=  5.03D-04  NBF=   372
 NBsUse=   372 1.00D-06 EigRej= -1.00D+00 NBFU=   372
 ExpMin= 1.03D-01 ExpMax= 8.59D+03 ExpMxC= 1.30D+03 IAcc=3 IRadAn=         5 AccDes= 0.00D+00
 Harris functional with IExCor=  402 and IRadAn=       5 diagonalized for initial guess.
 HarFok:  IExCor=  402 AccDes= 0.00D+00 IRadAn=         5 IDoV= 1 UseB2=F ITyADJ=14
 ICtDFT=  3500011 ScaDFX=  1.000000  1.000000  1.000000  1.000000
 FoFCou: FMM=F IPFlag=           0 FMFlag=      100000 FMFlg1=           0
         NFxFlg=           0 DoJE=T BraDBF=F KetDBF=T FulRan=T
         wScrn=  0.000000 ICntrl=     500 IOpCl=  0 I1Cent=   200000004 NGrid=           0
         NMat0=    1 NMatS0=      1 NMatT0=    0 NMatD0=    1 NMtDS0=    0 NMtDT0=    0
 Symmetry not used in FoFCou.
 Requested convergence on RMS density matrix=1.00D-08 within 128 cycles.
 Requested convergence on MAX density matrix=1.00D-06.
 Requested convergence on             energy=1.00D-06.
 No special actions if energy rises.
 Integral accuracy reduced to 1.0D-05 until final iterations.
 Initial convergence to 1.0D-05 achieved.  Increase integral accuracy.
 SCF Done:  E(RB3LYP) =  -796.358100989     A.U. after   14 cycles
            NFock= 14  Conv=0.53D-08     -V/T= 2.0033
 DoSCS=F DFT=T ScalE2(SS,OS)=  1.000000  1.000000
 Range of M.O.s used for correlation:     1   372
 NBasis=   372 NAE=    60 NBE=    60 NFC=     0 NFV=     0
 NROrb=    372 NOA=    60 NOB=    60 NVA=   312 NVB=   312
 Symmetrizing basis deriv contribution to polar:
 IMax=3 JMax=2 DiffMx= 0.00D+00
 G2DrvN: will do    31 centers at a time, making    1 passes.
 Calling FoFCou, ICntrl=  3107 FMM=F I1Cent=   0 AccDes= 0.00D+00.
 End of G2Drv F.D. properties file   721 does not exist.
 End of G2Drv F.D. properties file   722 does not exist.
 End of G2Drv F.D. properties file   788 does not exist.
          IDoAtm=111111111111111111111111111111
          Differentiating once with respect to nuclear coordinates.
          There are    93 degrees of freedom in the 1st order CPHF.  IDoFFX=6 NUNeed=     0.
     87 vectors produced by pass  0 Test12= 2.01D-14 1.08D-09 XBig12= 1.73D-01 1.15D-01.
 AX will form    87 AO Fock derivatives at one time.
     87 vectors produced by pass  1 Test12= 2.01D-14 1.08D-09 XBig12= 2.28D-02 5.38D-02.
     87 vectors produced by pass  2 Test12= 2.01D-14 1.08D-09 XBig12= 2.13D-04 2.35D-03.
     87 vectors produced by pass  3 Test12= 2.01D-14 1.08D-09 XBig12= 1.01D-06 1.64D-04.
     87 vectors produced by pass  4 Test12= 2.01D-14 1.08D-09 XBig12= 2.62D-09 3.84D-06.
     77 vectors produced by pass  5 Test12= 2.01D-14 1.08D-09 XBig12= 2.82D-12 1.96D-07.
     24 vectors produced by pass  6 Test12= 2.01D-14 1.08D-09 XBig12= 2.60D-15 5.08D-09.
 InvSVY:  IOpt=1 It=  1 EMax= 6.11D-16
 Solved reduced A of dimension   536 with    93 vectors.
 End of Minotr F.D. properties file   721 does not exist.
 End of Minotr F.D. properties file   722 does not exist.
 End of Minotr F.D. properties file   788 does not exist.

 **********************************************************************

            Population analysis using the SCF density.

 **********************************************************************

 Alpha  occ. eigenvalues --  -19.19925 -19.13337 -19.09958 -14.35607 -14.35004
 Alpha  occ. eigenvalues --  -14.29022 -14.27982 -10.32824 -10.28377 -10.25057
 Alpha  occ. eigenvalues --  -10.21363 -10.19796 -10.19481 -10.19116 -10.18828
 Alpha  occ. eigenvalues --  -10.17188  -1.14241  -1.05911  -1.04921  -1.01373
 Alpha  occ. eigenvalues --   -0.94538  -0.88933  -0.86663  -0.81499  -0.76900
 Alpha  occ. eigenvalues --   -0.74275  -0.68574  -0.66044  -0.62173  -0.61247
 Alpha  occ. eigenvalues --   -0.59469  -0.58796  -0.55015  -0.53027  -0.52071
 Alpha  occ. eigenvalues --   -0.51384  -0.51052  -0.48656  -0.47691  -0.45814
 Alpha  occ. eigenvalues --   -0.45184  -0.43830  -0.43501  -0.42915  -0.42236
 Alpha  occ. eigenvalues --   -0.41162  -0.40465  -0.39486  -0.39249  -0.38511
 Alpha  occ. eigenvalues --   -0.38351  -0.35457  -0.34944  -0.30731  -0.28711
 Alpha  occ. eigenvalues --   -0.27708  -0.27460  -0.26203  -0.24196  -0.22438
 Alpha virt. eigenvalues --   -0.02329   0.00054   0.01429   0.02254   0.02879
 Alpha virt. eigenvalues --    0.03541   0.06469   0.06621   0.06839   0.07436
 Alpha virt. eigenvalues --    0.07737   0.08963   0.10815   0.10916   0.11489
 Alpha virt. eigenvalues --    0.12515   0.13277   0.14318   0.16159   0.18194
 Alpha virt. eigenvalues --    0.20006   0.20632   0.21484   0.22142   0.23068
 Alpha virt. eigenvalues --    0.23741   0.25091   0.25996   0.27809   0.28517
 Alpha virt. eigenvalues --    0.31643   0.31995   0.32437   0.33452   0.34370
 Alpha virt. eigenvalues --    0.35269   0.36008   0.37074   0.38125   0.38131
 Alpha virt. eigenvalues --    0.39216   0.40434   0.40609   0.40928   0.42623
 Alpha virt. eigenvalues --    0.43216   0.45219   0.46029   0.46594   0.47798
 Alpha virt. eigenvalues --    0.49081   0.49814   0.51007   0.52145   0.52883
 Alpha virt. eigenvalues --    0.53701   0.54301   0.54937   0.55831   0.56487
 Alpha virt. eigenvalues --    0.57270   0.57695   0.58482   0.58917   0.59472
 Alpha virt. eigenvalues --    0.59684   0.60461   0.60919   0.61684   0.62611
 Alpha virt. eigenvalues --    0.63311   0.63668   0.66026   0.67031   0.67757
 Alpha virt. eigenvalues --    0.68245   0.68978   0.71107   0.71543   0.73143
 Alpha virt. eigenvalues --    0.73607   0.74146   0.75349   0.75558   0.76341
 Alpha virt. eigenvalues --    0.77114   0.79130   0.80620   0.82312   0.84334
 Alpha virt. eigenvalues --    0.86470   0.87259   0.89306   0.92028   0.93724
 Alpha virt. eigenvalues --    0.95825   0.97984   0.98401   0.99633   1.01283
 Alpha virt. eigenvalues --    1.03059   1.04166   1.05648   1.06805   1.07746
 Alpha virt. eigenvalues --    1.09956   1.12024   1.12724   1.16256   1.17366
 Alpha virt. eigenvalues --    1.19575   1.21100   1.23180   1.23907   1.25212
 Alpha virt. eigenvalues --    1.25922   1.27940   1.28835   1.30620   1.32028
 Alpha virt. eigenvalues --    1.32448   1.35303   1.36686   1.39192   1.39558
 Alpha virt. eigenvalues --    1.41545   1.42495   1.43486   1.44067   1.45314
 Alpha virt. eigenvalues --    1.48149   1.48265   1.50459   1.52885   1.53618
 Alpha virt. eigenvalues --    1.54362   1.54892   1.55813   1.56970   1.57930
 Alpha virt. eigenvalues --    1.59836   1.61165   1.61987   1.62963   1.64434
 Alpha virt. eigenvalues --    1.65180   1.66815   1.68485   1.69343   1.70253
 Alpha virt. eigenvalues --    1.71156   1.72204   1.72805   1.73668   1.74451
 Alpha virt. eigenvalues --    1.75836   1.76396   1.77583   1.78603   1.79340
 Alpha virt. eigenvalues --    1.81354   1.82083   1.83177   1.85095   1.85797
 Alpha virt. eigenvalues --    1.89432   1.90353   1.92033   1.92389   1.94449
 Alpha virt. eigenvalues --    1.96063   1.96272   2.00105   2.02114   2.03511
 Alpha virt. eigenvalues --    2.04715   2.06157   2.08164   2.10697   2.11802
 Alpha virt. eigenvalues --    2.13307   2.16119   2.17702   2.21015   2.22008
 Alpha virt. eigenvalues --    2.24332   2.25558   2.26687   2.28827   2.29567
 Alpha virt. eigenvalues --    2.30605   2.35128   2.37811   2.40960   2.41879
 Alpha virt. eigenvalues --    2.42951   2.43937   2.44893   2.47145   2.48222
 Alpha virt. eigenvalues --    2.48884   2.49441   2.51449   2.52047   2.54757
 Alpha virt. eigenvalues --    2.55362   2.57596   2.58484   2.60519   2.60751
 Alpha virt. eigenvalues --    2.61429   2.62519   2.63597   2.64956   2.65414
 Alpha virt. eigenvalues --    2.66985   2.68605   2.70391   2.70942   2.72664
 Alpha virt. eigenvalues --    2.74193   2.74849   2.78481   2.79298   2.81220
 Alpha virt. eigenvalues --    2.82761   2.82916   2.83761   2.84455   2.87276
 Alpha virt. eigenvalues --    2.88327   2.89031   2.91868   2.92436   2.93219
 Alpha virt. eigenvalues --    2.94248   2.94926   2.95787   2.99283   3.01491
 Alpha virt. eigenvalues --    3.01997   3.05984   3.06917   3.09760   3.11975
 Alpha virt. eigenvalues --    3.13517   3.20267   3.20544   3.28688   3.30155
 Alpha virt. eigenvalues --    3.33583   3.34290   3.36532   3.38907   3.47120
 Alpha virt. eigenvalues --    3.47669   3.52109   3.55965   3.57755   3.59292
 Alpha virt. eigenvalues --    3.62403   3.66237   3.68006   3.73917   3.75580
 Alpha virt. eigenvalues --    3.78231   3.79513   3.81527   3.82663   3.84086
 Alpha virt. eigenvalues --    3.85740   3.87219   3.92052   3.96756   4.00588
 Alpha virt. eigenvalues --    4.04886   4.23047   4.23544   4.34074   4.42677
 Alpha virt. eigenvalues --    4.72494   4.77528   4.81417   4.81772   4.85514
 Alpha virt. eigenvalues --    4.91118   4.93827   4.94311   4.97713   5.03001
 Alpha virt. eigenvalues --    5.16083   5.26230   5.32226   5.54610   5.65529
 Alpha virt. eigenvalues --    5.73940  23.71964  23.73943  23.76797  23.80511
 Alpha virt. eigenvalues --   23.83998  23.87155  23.90951  23.94403  24.15721
 Alpha virt. eigenvalues --   35.52949  35.57190  35.59666  35.70016  49.81106
 Alpha virt. eigenvalues --   49.98588  50.00620
          Condensed to atoms (all electrons):
               1          2          3          4          5          6
     1  O    7.893041   0.622491  -0.104286   0.004792   0.010655  -0.000544
     2  C    0.622491   4.579960   0.348561  -0.060846  -0.004916  -0.000700
     3  N   -0.104286   0.348561   6.695931   0.293263  -0.066249   0.002753
     4  C    0.004792  -0.060846   0.293263   5.239557   0.273352  -0.087671
     5  C    0.010655  -0.004916  -0.066249   0.273352   4.527235   0.311392
     6  O   -0.000544  -0.000700   0.002753  -0.087671   0.311392   7.875691
     7  O   -0.002822   0.009930   0.001073  -0.088482   0.665417  -0.080292
     8  C    0.004516  -0.009305  -0.058031   0.301202  -0.066784   0.006330
     9  C    0.001550   0.000964   0.002895  -0.078578   0.003455  -0.000839
    10  C   -0.000002  -0.000010  -0.000139  -0.001667   0.000124   0.000199
    11  N    0.000000   0.000000   0.000000  -0.000132   0.000000  -0.000011
    12  C    0.000000   0.000001   0.000000   0.000245  -0.000047  -0.000203
    13  N    0.000002  -0.000005   0.000097   0.001885  -0.001042  -0.012290
    14  C   -0.094812   0.246098  -0.083972   0.008036   0.000169  -0.000022
    15  C    0.014475  -0.051594   0.004922  -0.000353   0.000023   0.000000
    16  N    0.000206   0.008364  -0.000059   0.000004   0.000000   0.000000
    17  H    0.004176  -0.031695   0.363811  -0.033317   0.001963   0.000063
    18  H    0.000659   0.007422  -0.020889   0.392090  -0.031060   0.001025
    19  H    0.000051  -0.000179  -0.000641   0.016511  -0.027116   0.299591
    20  H   -0.002041  -0.000434   0.004942  -0.031982   0.005889  -0.000069
    21  H    0.011220  -0.000784  -0.000062  -0.052452  -0.003336   0.005538
    22  H    0.000002   0.000000  -0.000019   0.000042  -0.000004   0.000006
    23  H    0.000000   0.000000   0.000000  -0.000005   0.000007  -0.000061
    24  H   -0.000015   0.000025   0.000003   0.000636  -0.001290   0.026775
    25  H    0.000518  -0.020422   0.000178   0.000070   0.000017   0.000000
    26  H    0.001895  -0.025202  -0.000243  -0.000396  -0.000106   0.000007
    27  H    0.004830  -0.001029   0.000286  -0.000019   0.000062   0.000001
    28  H    0.009333  -0.003370   0.000662  -0.000028  -0.000012   0.000000
    29  H    0.000012  -0.000248  -0.000001   0.000001   0.000000   0.000000
    30  H    0.000005   0.000068  -0.000003   0.000000   0.000000   0.000000
               7          8          9         10         11         12
     1  O   -0.002822   0.004516   0.001550  -0.000002   0.000000   0.000000
     2  C    0.009930  -0.009305   0.000964  -0.000010   0.000000   0.000001
     3  N    0.001073  -0.058031   0.002895  -0.000139   0.000000   0.000000
     4  C   -0.088482   0.301202  -0.078578  -0.001667  -0.000132   0.000245
     5  C    0.665417  -0.066784   0.003455   0.000124   0.000000  -0.000047
     6  O   -0.080292   0.006330  -0.000839   0.000199  -0.000011  -0.000203
     7  O    7.800980   0.003038   0.000141   0.000002   0.000000   0.000000
     8  C    0.003038   4.995403   0.272812  -0.031285   0.007397   0.005500
     9  C    0.000141   0.272812   5.126287   0.573571  -0.092569  -0.126143
    10  C    0.000002  -0.031285   0.573571   4.848554   0.506833  -0.180798
    11  N    0.000000   0.007397  -0.092569   0.506833   6.430942   0.584009
    12  C    0.000000   0.005500  -0.126143  -0.180798   0.584009   4.745154
    13  N   -0.000034  -0.055236   0.384298  -0.073474  -0.092080   0.427391
    14  C   -0.000968   0.000133   0.000080  -0.000001   0.000000   0.000000
    15  C   -0.000015  -0.000035  -0.000001   0.000000   0.000000   0.000000
    16  N    0.000000   0.000000   0.000000   0.000000   0.000000   0.000000
    17  H    0.003473   0.006460  -0.000411  -0.000038   0.000000   0.000001
    18  H    0.000278  -0.030014   0.002171   0.001761  -0.000345  -0.000631
    19  H    0.011740  -0.001556  -0.000172  -0.000018   0.000003   0.000010
    20  H   -0.000197   0.404833  -0.036585  -0.004007   0.000252  -0.000208
    21  H   -0.000067   0.407501  -0.032519  -0.000786  -0.000236   0.000405
    22  H    0.000000  -0.000512  -0.051369   0.422537  -0.025456   0.008547
    23  H    0.000000  -0.000393   0.004651   0.006440  -0.023251   0.414926
    24  H    0.000264  -0.000020  -0.033818   0.008087   0.005601  -0.023621
    25  H    0.000001  -0.000109  -0.000013   0.000000   0.000000   0.000000
    26  H    0.000872   0.000027  -0.000001   0.000000   0.000000   0.000000
    27  H    0.000144  -0.000008   0.000000   0.000000   0.000000   0.000000
    28  H    0.000004   0.000010   0.000000   0.000000   0.000000   0.000000
    29  H   -0.000001   0.000000   0.000000   0.000000   0.000000   0.000000
    30  H    0.000000   0.000000   0.000000   0.000000   0.000000   0.000000
              13         14         15         16         17         18
     1  O    0.000002  -0.094812   0.014475   0.000206   0.004176   0.000659
     2  C   -0.000005   0.246098  -0.051594   0.008364  -0.031695   0.007422
     3  N    0.000097  -0.083972   0.004922  -0.000059   0.363811  -0.020889
     4  C    0.001885   0.008036  -0.000353   0.000004  -0.033317   0.392090
     5  C   -0.001042   0.000169   0.000023   0.000000   0.001963  -0.031060
     6  O   -0.012290  -0.000022   0.000000   0.000000   0.000063   0.001025
     7  O   -0.000034  -0.000968  -0.000015   0.000000   0.003473   0.000278
     8  C   -0.055236   0.000133  -0.000035   0.000000   0.006460  -0.030014
     9  C    0.384298   0.000080  -0.000001   0.000000  -0.000411   0.002171
    10  C   -0.073474  -0.000001   0.000000   0.000000  -0.000038   0.001761
    11  N   -0.092080   0.000000   0.000000   0.000000   0.000000  -0.000345
    12  C    0.427391   0.000000   0.000000   0.000000   0.000001  -0.000631
    13  N    6.463680   0.000000   0.000000   0.000000   0.000005   0.002584
    14  C    0.000000   5.263489   0.357672  -0.060532   0.002333  -0.000099
    15  C    0.000000   0.357672   4.800021   0.335133  -0.000230   0.000002
    16  N    0.000000  -0.060532   0.335133   6.456732  -0.000084   0.000000
    17  H    0.000005   0.002333  -0.000230  -0.000084   0.468893  -0.010087
    18  H    0.002584  -0.000099   0.000002   0.000000  -0.010087   0.518624
    19  H    0.000322   0.000002   0.000001   0.000000  -0.000004  -0.000718
    20  H    0.004490  -0.000335   0.000036   0.000000   0.000518  -0.001812
    21  H   -0.002048   0.000389  -0.000010   0.000000  -0.000574   0.006939
    22  H    0.004465   0.000000   0.000000   0.000000  -0.000001   0.000070
    23  H   -0.038603   0.000000   0.000000   0.000000   0.000000   0.000014
    24  H    0.347749   0.000000   0.000000   0.000000  -0.000009   0.000052
    25  H    0.000000   0.376308  -0.031123   0.002709  -0.000128   0.000022
    26  H    0.000000   0.376019  -0.036542   0.004236   0.001375  -0.000049
    27  H    0.000000  -0.050956   0.407978  -0.028392  -0.000097   0.000002
    28  H    0.000000  -0.047344   0.404506  -0.027893  -0.000080  -0.000002
    29  H    0.000000  -0.001088  -0.057872   0.376316  -0.000011   0.000000
    30  H    0.000000  -0.001221  -0.058172   0.375791   0.000000   0.000000
              19         20         21         22         23         24
     1  O    0.000051  -0.002041   0.011220   0.000002   0.000000  -0.000015
     2  C   -0.000179  -0.000434  -0.000784   0.000000   0.000000   0.000025
     3  N   -0.000641   0.004942  -0.000062  -0.000019   0.000000   0.000003
     4  C    0.016511  -0.031982  -0.052452   0.000042  -0.000005   0.000636
     5  C   -0.027116   0.005889  -0.003336  -0.000004   0.000007  -0.001290
     6  O    0.299591  -0.000069   0.005538   0.000006  -0.000061   0.026775
     7  O    0.011740  -0.000197  -0.000067   0.000000   0.000000   0.000264
     8  C   -0.001556   0.404833   0.407501  -0.000512  -0.000393  -0.000020
     9  C   -0.000172  -0.036585  -0.032519  -0.051369   0.004651  -0.033818
    10  C   -0.000018  -0.004007  -0.000786   0.422537   0.006440   0.008087
    11  N    0.000003   0.000252  -0.000236  -0.025456  -0.023251   0.005601
    12  C    0.000010  -0.000208   0.000405   0.008547   0.414926  -0.023621
    13  N    0.000322   0.004490  -0.002048   0.004465  -0.038603   0.347749
    14  C    0.000002  -0.000335   0.000389   0.000000   0.000000   0.000000
    15  C    0.000001   0.000036  -0.000010   0.000000   0.000000   0.000000
    16  N    0.000000   0.000000   0.000000   0.000000   0.000000   0.000000
    17  H   -0.000004   0.000518  -0.000574  -0.000001   0.000000  -0.000009
    18  H   -0.000718  -0.001812   0.006939   0.000070   0.000014   0.000052
    19  H    0.436938   0.000123  -0.000689   0.000000   0.000004  -0.000952
    20  H    0.000123   0.539003  -0.020923   0.002253   0.000020  -0.000091
    21  H   -0.000689  -0.020923   0.515453  -0.000036   0.000000   0.000237
    22  H    0.000000   0.002253  -0.000036   0.549183  -0.000384  -0.000340
    23  H    0.000004   0.000020   0.000000  -0.000384   0.537064  -0.002622
    24  H   -0.000952  -0.000091   0.000237  -0.000340  -0.002622   0.442503
    25  H    0.000000   0.000022  -0.000030   0.000000   0.000000   0.000000
    26  H   -0.000004  -0.000005  -0.000028   0.000000   0.000000   0.000000
    27  H    0.000000   0.000001  -0.000001   0.000000   0.000000   0.000000
    28  H    0.000000   0.000002  -0.000006   0.000000   0.000000   0.000000
    29  H    0.000000   0.000000   0.000000   0.000000   0.000000   0.000000
    30  H    0.000000   0.000000   0.000000   0.000000   0.000000   0.000000
              25         26         27         28         29         30
     1  O    0.000518   0.001895   0.004830   0.009333   0.000012   0.000005
     2  C   -0.020422  -0.025202  -0.001029  -0.003370  -0.000248   0.000068
     3  N    0.000178  -0.000243   0.000286   0.000662  -0.000001  -0.000003
     4  C    0.000070  -0.000396  -0.000019  -0.000028   0.000001   0.000000
     5  C    0.000017  -0.000106   0.000062  -0.000012   0.000000   0.000000
     6  O    0.000000   0.000007   0.000001   0.000000   0.000000   0.000000
     7  O    0.000001   0.000872   0.000144   0.000004  -0.000001   0.000000
     8  C   -0.000109   0.000027  -0.000008   0.000010   0.000000   0.000000
     9  C   -0.000013  -0.000001   0.000000   0.000000   0.000000   0.000000
    10  C    0.000000   0.000000   0.000000   0.000000   0.000000   0.000000
    11  N    0.000000   0.000000   0.000000   0.000000   0.000000   0.000000
    12  C    0.000000   0.000000   0.000000   0.000000   0.000000   0.000000
    13  N    0.000000   0.000000   0.000000   0.000000   0.000000   0.000000
    14  C    0.376308   0.376019  -0.050956  -0.047344  -0.001088  -0.001221
    15  C   -0.031123  -0.036542   0.407978   0.404506  -0.057872  -0.058172
    16  N    0.002709   0.004236  -0.028392  -0.027893   0.376316   0.375791
    17  H   -0.000128   0.001375  -0.000097  -0.000080  -0.000011   0.000000
    18  H    0.000022  -0.000049   0.000002  -0.000002   0.000000   0.000000
    19  H    0.000000  -0.000004   0.000000   0.000000   0.000000   0.000000
    20  H    0.000022  -0.000005   0.000001   0.000002   0.000000   0.000000
    21  H   -0.000030  -0.000028  -0.000001  -0.000006   0.000000   0.000000
    22  H    0.000000   0.000000   0.000000   0.000000   0.000000   0.000000
    23  H    0.000000   0.000000   0.000000   0.000000   0.000000   0.000000
    24  H    0.000000   0.000000   0.000000   0.000000   0.000000   0.000000
    25  H    0.567003  -0.030257   0.008949  -0.007337  -0.000842   0.007197
    26  H   -0.030257   0.586261  -0.006645   0.009365   0.007479  -0.000668
    27  H    0.008949  -0.006645   0.567249  -0.029510  -0.010438   0.010056
    28  H   -0.007337   0.009365  -0.029510   0.562365   0.009779  -0.010080
    29  H   -0.000842   0.007479  -0.010438   0.009779   0.539692  -0.044043
    30  H    0.007197  -0.000668   0.010056  -0.010080  -0.044043   0.540564
 Mulliken charges:
               1
     1  O   -0.379906
     2  C    0.386856
     3  N   -0.384784
     4  C   -0.095758
     5  C    0.402203
     6  O   -0.346671
     7  O   -0.324480
     8  C   -0.161874
     9  C    0.080146
    10  C   -0.075884
    11  N   -0.300958
    12  C    0.145460
    13  N   -0.362155
    14  C   -0.289377
    15  C   -0.088822
    16  N   -0.442530
    17  H    0.223695
    18  H    0.161992
    19  H    0.266754
    20  H    0.136307
    21  H    0.166906
    22  H    0.091015
    23  H    0.102196
    24  H    0.230845
    25  H    0.127268
    26  H    0.112610
    27  H    0.127538
    28  H    0.129636
    29  H    0.181263
    30  H    0.180506
 Sum of Mulliken charges =   0.00000
 Mulliken charges with hydrogens summed into heavy atoms:
               1
     1  O   -0.379906
     2  C    0.386856
     3  N   -0.161089
     4  C    0.066234
     5  C    0.402203
     6  O   -0.079916
     7  O   -0.324480
     8  C    0.141339
     9  C    0.080146
    10  C    0.015131
    11  N   -0.300958
    12  C    0.247656
    13  N   -0.131310
    14  C   -0.049499
    15  C    0.168352
    16  N   -0.080761
 APT charges:
               1
     1  O   -0.306492
     2  C    0.210980
     3  N   -0.643696
     4  C   -0.405789
     5  C   -0.339719
     6  O   -0.623391
     7  O    0.174409
     8  C   -0.582857
     9  C   -0.492081
    10  C   -0.495197
    11  N    0.719131
    12  C   -0.907346
    13  N   -0.534085
    14  C   -0.681149
    15  C   -0.640112
    16  N   -0.782890
    17  H    0.594238
    18  H    0.443736
    19  H    0.819433
    20  H    0.284811
    21  H    0.308503
    22  H    0.411207
    23  H    1.002296
    24  H    0.271257
    25  H    0.365476
    26  H    0.337943
    27  H    0.256082
    28  H    0.274747
    29  H    0.476311
    30  H    0.484246
 Sum of APT charges =   0.00000
 APT charges with hydrogens summed into heavy atoms:
               1
     1  O   -0.306492
     2  C    0.210980
     3  N   -0.049458
     4  C    0.037947
     5  C   -0.339719
     6  O    0.196042
     7  O    0.174409
     8  C    0.010458
     9  C   -0.492081
    10  C   -0.083990
    11  N    0.719131
    12  C    0.094949
    13  N   -0.262828
    14  C    0.022269
    15  C   -0.109284
    16  N    0.177667
 Electronic spatial extent (au):  <R**2>=           5197.1775
 Charge=              0.0000 electrons
 Dipole moment (field-independent basis, Debye):
    X=              1.1539    Y=             -3.8139    Z=             -0.1824  Tot=              3.9888
 Quadrupole moment (field-independent basis, Debye-Ang):
   XX=           -117.5348   YY=            -96.1217   ZZ=            -86.0732
   XY=              4.1559   XZ=             25.4917   YZ=             -0.8434
 Traceless Quadrupole moment (field-independent basis, Debye-Ang):
   XX=            -17.6249   YY=              3.7882   ZZ=             13.8367
   XY=              4.1559   XZ=             25.4917   YZ=             -0.8434
 Octapole moment (field-independent basis, Debye-Ang**2):
  XXX=            166.2617  YYY=            -10.1433  ZZZ=            -13.3464  XYY=             52.8238
  XXY=            -83.0449  XXZ=            -40.9631  XZZ=             40.4050  YZZ=             -7.5123
  YYZ=             16.4781  XYZ=              0.4144
 Hexadecapole moment (field-independent basis, Debye-Ang**3):
 XXXX=          -6741.2247 YYYY=           -534.3409 ZZZZ=           -559.4228 XXXY=            335.2312
 XXXZ=            576.8456 YYYX=            260.0697 YYYZ=           -158.8540 ZZZX=             76.1234
 ZZZY=            -99.9873 XXYY=          -1059.3251 XXZZ=          -1031.9731 YYZZ=           -198.1060
 XXYZ=            -73.1959 YYXZ=             18.8970 ZZXY=            109.7516
 N-N= 1.113279699523D+03 E-N=-4.088393851889D+03  KE= 7.937090218794D+02
  Exact polarizability:   0.000   0.000   0.000   0.000   0.000   0.000
 Approx polarizability: 211.382  -7.161 164.229  -1.270   9.448 189.972
 Calling FoFJK, ICntrl=    100147 FMM=F ISym2X=0 I1Cent= 0 IOpClX= 0 NMat=1 NMatS=1 NMatT=0.
 -------------------------------------------------------------------
 Center     Atomic                   Forces (Hartrees/Bohr)
 Number     Number              X              Y              Z
 -------------------------------------------------------------------
      1        8           0.003738008   -0.002225663    0.001380474
      2        6          -0.001816742    0.002375130   -0.000946599
      3        7          -0.004440798   -0.001310906   -0.002268121
      4        6           0.008631572    0.002167611    0.009706744
      5        6           0.001529966   -0.002063091   -0.000655887
      6        8           0.000931680   -0.001269782   -0.003365451
      7        8           0.000235157   -0.000914887   -0.002276426
      8        6          -0.006552859    0.001597548    0.001875125
      9        6           0.008653681    0.000162325    0.001276414
     10        6          -0.007708840    0.001460340    0.004859474
     11        7           0.000443305    0.002453248    0.003479967
     12        6          -0.002910235    0.000197919    0.001437215
     13        7           0.000232345   -0.003355104   -0.008444331
     14        6          -0.001880071    0.000722329   -0.000000375
     15        6           0.000755084   -0.000125090   -0.000070707
     16        7           0.001228201    0.000618381   -0.000336061
     17        1           0.001802510   -0.001599980    0.001405087
     18        1          -0.003223940    0.003317262   -0.001506375
     19        1          -0.001263408    0.000385129   -0.001286368
     20        1           0.001261686   -0.001300577    0.001573739
     21        1           0.001436094   -0.000784513   -0.002701066
     22        1           0.000447818   -0.000196623   -0.000314238
     23        1          -0.003071241   -0.000650197   -0.000162289
     24        1          -0.000089128    0.000303300   -0.001593680
     25        1          -0.000074733   -0.000278087    0.000073518
     26        1           0.000687058   -0.000002423   -0.000064833
     27        1           0.000052082    0.000555775   -0.001518348
     28        1          -0.000245032    0.000948871   -0.001054872
     29        1           0.000615124   -0.001664342    0.000007021
     30        1           0.000595658    0.000476097    0.001491251
 -------------------------------------------------------------------
 Cartesian Forces:  Max     0.009706744 RMS     0.002710325
 FormGI is forming the generalized inverse of G from B-inverse, IUseBI=4.

 GradGradGradGradGradGradGradGradGradGradGradGradGradGradGradGradGradGrad
 Berny optimization.
 Internal  Forces:  Max     0.009058011 RMS     0.002125067
 Search for a local minimum.
 Step number   1 out of a maximum of  160
 All quantities printed in internal units (Hartrees-Bohrs-Radians)
 Mixed Optimization -- RFO/linear search
 Second derivative matrix not updated -- analytic derivatives used.
 ITU=  0
     Eigenvalues ---   -0.00112   0.00024   0.00190   0.00235   0.00312
     Eigenvalues ---    0.00360   0.00569   0.00913   0.01043   0.01116
     Eigenvalues ---    0.01805   0.01993   0.02026   0.02512   0.02932
     Eigenvalues ---    0.03260   0.04085   0.04117   0.04203   0.04339
     Eigenvalues ---    0.04359   0.04673   0.04957   0.05053   0.05408
     Eigenvalues ---    0.05519   0.06258   0.06331   0.07552   0.08012
     Eigenvalues ---    0.08674   0.10358   0.10666   0.10798   0.11555
     Eigenvalues ---    0.11830   0.12068   0.13553   0.14544   0.15433
     Eigenvalues ---    0.16541   0.17871   0.18417   0.18605   0.18926
     Eigenvalues ---    0.20583   0.20930   0.22662   0.23109   0.23365
     Eigenvalues ---    0.24097   0.25084   0.25319   0.26883   0.28321
     Eigenvalues ---    0.30136   0.32253   0.32628   0.33009   0.33301
     Eigenvalues ---    0.33614   0.33735   0.34277   0.34509   0.34790
     Eigenvalues ---    0.35370   0.36845   0.37190   0.37271   0.37497
     Eigenvalues ---    0.38548   0.41722   0.44455   0.44898   0.44971
     Eigenvalues ---    0.45212   0.47176   0.47799   0.48297   0.51049
     Eigenvalues ---    0.57849   0.59882   0.81209   0.90575
 RFO step:  Lambda=-2.87695371D-03 EMin=-1.11561262D-03
 Linear search not attempted -- first point.
 Iteration  1 RMS(Cart)=  0.16941806 RMS(Int)=  0.02526409
 Iteration  2 RMS(Cart)=  0.05938255 RMS(Int)=  0.00195149
 Iteration  3 RMS(Cart)=  0.00269783 RMS(Int)=  0.00007160
 Iteration  4 RMS(Cart)=  0.00000507 RMS(Int)=  0.00007155
 Iteration  5 RMS(Cart)=  0.00000000 RMS(Int)=  0.00007155
 Variable       Old X    -DE/DX   Delta X   Delta X   Delta X     New X
                                 (Linear)    (Quad)   (Total)
    R1        2.30721  -0.00307   0.00000  -0.00262  -0.00262   2.30460
    R2        2.58954   0.00393   0.00000   0.00402   0.00402   2.59356
    R3        2.87086   0.00068   0.00000   0.00008   0.00008   2.87094
    R4        2.76204   0.00017   0.00000  -0.01162  -0.01162   2.75042
    R5        1.89952   0.00240   0.00000   0.00371   0.00371   1.90323
    R6        2.87256   0.00852   0.00000   0.02801   0.02801   2.90057
    R7        2.92141   0.00312   0.00000   0.01044   0.01044   2.93185
    R8        2.07114  -0.00111   0.00000  -0.00369  -0.00369   2.06745
    R9        2.56393   0.00270   0.00000   0.00549   0.00549   2.56943
   R10        2.26572   0.00148   0.00000   0.00063   0.00063   2.26635
   R11        1.83142   0.00078   0.00000   0.00058   0.00058   1.83201
   R12        2.81895   0.00404   0.00000   0.00096   0.00096   2.81991
   R13        2.05605   0.00124   0.00000   0.00484   0.00484   2.06089
   R14        2.05432   0.00201   0.00000   0.00580   0.00580   2.06012
   R15        2.58251   0.00817   0.00000   0.01524   0.01524   2.59775
   R16        2.59103   0.00906   0.00000   0.01943   0.01945   2.61049
   R17        2.61346  -0.00153   0.00000  -0.01033  -0.01036   2.60311
   R18        2.03981  -0.00023   0.00000   0.00007   0.00007   2.03987
   R19        2.47647   0.00308   0.00000   0.00541   0.00539   2.48186
   R20        2.56710   0.00784   0.00000   0.01368   0.01369   2.58079
   R21        2.03241   0.00275   0.00000   0.00688   0.00688   2.03930
   R22        1.90273   0.00123   0.00000   0.00269   0.00269   1.90542
   R23        2.89054   0.00336   0.00000   0.01365   0.01365   2.90418
   R24        2.07289  -0.00001   0.00000   0.00080   0.00080   2.07369
   R25        2.07197   0.00007   0.00000  -0.00124  -0.00124   2.07073
   R26        2.75757   0.00275   0.00000   0.00406   0.00406   2.76163
   R27        2.06045   0.00129   0.00000   0.00568   0.00568   2.06613
   R28        2.05977   0.00096   0.00000   0.00089   0.00089   2.06066
   R29        1.91553   0.00174   0.00000   0.00346   0.00346   1.91900
   R30        1.91593   0.00161   0.00000   0.00312   0.00312   1.91905
    A1        2.11002   0.00287   0.00000   0.00441   0.00440   2.11442
    A2        2.16737  -0.00460   0.00000  -0.01966  -0.01966   2.14771
    A3        2.00528   0.00174   0.00000   0.01518   0.01518   2.02047
    A4        2.08260   0.00145   0.00000  -0.00472  -0.00492   2.07769
    A5        2.05827  -0.00219   0.00000  -0.00072  -0.00099   2.05727
    A6        2.02754   0.00095   0.00000   0.02237   0.02222   2.04976
    A7        1.90075  -0.00381   0.00000  -0.00676  -0.00693   1.89383
    A8        1.94550   0.00207   0.00000   0.01459   0.01459   1.96009
    A9        1.82929   0.00206   0.00000   0.03179   0.03202   1.86131
   A10        2.00626   0.00339   0.00000   0.01250   0.01238   2.01864
   A11        1.85211   0.00037   0.00000  -0.00885  -0.00896   1.84315
   A12        1.91941  -0.00428   0.00000  -0.04258  -0.04266   1.87675
   A13        1.97205   0.00315   0.00000   0.00982   0.00982   1.98187
   A14        2.17361   0.00065   0.00000  -0.00238  -0.00238   2.17123
   A15        2.13655  -0.00380   0.00000  -0.00739  -0.00739   2.12916
   A16        1.84140   0.00305   0.00000   0.00879   0.00879   1.85019
   A17        1.98720   0.00504   0.00000   0.00995   0.00999   1.99719
   A18        1.88268  -0.00341   0.00000  -0.02815  -0.02820   1.85448
   A19        1.92250  -0.00246   0.00000  -0.01390  -0.01400   1.90850
   A20        1.87125  -0.00103   0.00000   0.00216   0.00217   1.87342
   A21        1.94662  -0.00014   0.00000   0.01199   0.01201   1.95863
   A22        1.84620   0.00167   0.00000   0.01757   0.01730   1.86350
   A23        2.29795  -0.00218   0.00000  -0.00333  -0.00337   2.29458
   A24        2.15589   0.00433   0.00000   0.00891   0.00887   2.16476
   A25        1.82924  -0.00214   0.00000  -0.00541  -0.00540   1.82384
   A26        1.93152   0.00235   0.00000   0.00676   0.00675   1.93827
   A27        2.23614  -0.00172   0.00000  -0.01185  -0.01185   2.22429
   A28        2.11552  -0.00063   0.00000   0.00508   0.00508   2.12060
   A29        1.83501   0.00100   0.00000   0.00193   0.00189   1.83690
   A30        1.94486   0.00104   0.00000   0.00296   0.00297   1.94783
   A31        2.21125  -0.00202   0.00000  -0.01285  -0.01285   2.19840
   A32        2.12707   0.00099   0.00000   0.00990   0.00989   2.13696
   A33        1.88412  -0.00225   0.00000  -0.00618  -0.00618   1.87794
   A34        2.16144   0.00150   0.00000   0.00050   0.00043   2.16187
   A35        2.23756   0.00075   0.00000   0.00587   0.00580   2.24336
   A36        1.96523   0.00089   0.00000  -0.00360  -0.00367   1.96156
   A37        1.88924  -0.00048   0.00000  -0.01066  -0.01071   1.87853
   A38        1.89779   0.00031   0.00000   0.02884   0.02887   1.92665
   A39        1.92061   0.00004   0.00000  -0.00614  -0.00625   1.91436
   A40        1.92824  -0.00086   0.00000  -0.00615  -0.00623   1.92201
   A41        1.85923   0.00007   0.00000  -0.00197  -0.00196   1.85727
   A42        2.00914   0.00008   0.00000   0.00193   0.00192   2.01107
   A43        1.90141   0.00032   0.00000   0.00253   0.00253   1.90393
   A44        1.90061   0.00015   0.00000  -0.00144  -0.00146   1.89916
   A45        1.89253  -0.00005   0.00000  -0.00193  -0.00193   1.89061
   A46        1.89543   0.00005   0.00000   0.00611   0.00610   1.90153
   A47        1.85899  -0.00061   0.00000  -0.00805  -0.00805   1.85095
   A48        1.92666   0.00050   0.00000   0.00525   0.00524   1.93190
   A49        1.92590   0.00067   0.00000   0.00343   0.00342   1.92932
   A50        1.86182  -0.00031   0.00000   0.00177   0.00174   1.86355
    D1        0.21074  -0.00097   0.00000  -0.05566  -0.05556   0.15518
    D2        2.83742  -0.00028   0.00000  -0.01400  -0.01409   2.82333
    D3       -2.96379  -0.00073   0.00000  -0.05831  -0.05822  -3.02201
    D4       -0.33711  -0.00004   0.00000  -0.01665  -0.01676  -0.35387
    D5       -0.19629   0.00004   0.00000  -0.27383  -0.27381  -0.47010
    D6        1.93087   0.00032   0.00000  -0.29132  -0.29127   1.63960
    D7       -2.33915   0.00032   0.00000  -0.28415  -0.28420  -2.62335
    D8        2.97946  -0.00037   0.00000  -0.27162  -0.27162   2.70784
    D9       -1.17656  -0.00009   0.00000  -0.28912  -0.28908  -1.46564
   D10        0.83660  -0.00009   0.00000  -0.28195  -0.28201   0.55460
   D11        1.04882   0.00053   0.00000  -0.03020  -0.03010   1.01873
   D12       -1.18286  -0.00251   0.00000  -0.05213  -0.05192  -1.23478
   D13        3.02470   0.00029   0.00000  -0.02781  -0.02784   2.99685
   D14       -1.58664   0.00075   0.00000  -0.06471  -0.06479  -1.65143
   D15        2.46486  -0.00228   0.00000  -0.08663  -0.08661   2.37825
   D16        0.38923   0.00052   0.00000  -0.06231  -0.06253   0.32669
   D17       -2.73742  -0.00036   0.00000   0.08046   0.08050  -2.65692
   D18        0.45063  -0.00040   0.00000   0.07963   0.07968   0.53031
   D19       -0.54048   0.00185   0.00000   0.10392   0.10393  -0.43656
   D20        2.64757   0.00181   0.00000   0.10309   0.10310   2.75067
   D21        1.58493  -0.00119   0.00000   0.05129   0.05124   1.63617
   D22       -1.51021  -0.00123   0.00000   0.05047   0.05042  -1.45979
   D23       -2.51140   0.00045   0.00000  -0.03844  -0.03830  -2.54970
   D24       -0.43699  -0.00007   0.00000  -0.04886  -0.04877  -0.48576
   D25        1.57019  -0.00127   0.00000  -0.05093  -0.05069   1.51950
   D26        1.59816   0.00121   0.00000  -0.05140  -0.05142   1.54675
   D27       -2.61061   0.00068   0.00000  -0.06182  -0.06189  -2.67250
   D28       -0.60343  -0.00052   0.00000  -0.06389  -0.06381  -0.66724
   D29       -0.49034   0.00160   0.00000  -0.01684  -0.01701  -0.50735
   D30        1.58407   0.00107   0.00000  -0.02726  -0.02748   1.55659
   D31       -2.69194  -0.00013   0.00000  -0.02933  -0.02940  -2.72134
   D32        3.13502   0.00005   0.00000  -0.00036  -0.00036   3.13466
   D33       -0.05190   0.00021   0.00000   0.00058   0.00058  -0.05133
   D34        2.09233  -0.00143   0.00000  -0.12847  -0.12849   1.96383
   D35       -1.03161  -0.00183   0.00000  -0.14300  -0.14305  -1.17466
   D36        0.01140   0.00048   0.00000  -0.10079  -0.10074  -0.08933
   D37       -3.11253   0.00008   0.00000  -0.11532  -0.11529   3.05536
   D38       -2.00201  -0.00085   0.00000  -0.12946  -0.12945  -2.13146
   D39        1.15724  -0.00125   0.00000  -0.14400  -0.14401   1.01323
   D40       -3.13184  -0.00017   0.00000  -0.00852  -0.00845  -3.14030
   D41        0.01505  -0.00022   0.00000  -0.00597  -0.00593   0.00912
   D42       -0.00548   0.00023   0.00000   0.00412   0.00412  -0.00136
   D43        3.14141   0.00018   0.00000   0.00667   0.00664  -3.13513
   D44        3.13505  -0.00011   0.00000   0.00515   0.00521   3.14026
   D45       -0.01765  -0.00020   0.00000   0.02236   0.02237   0.00473
   D46        0.00710  -0.00040   0.00000  -0.00606  -0.00603   0.00107
   D47        3.13759  -0.00050   0.00000   0.01115   0.01113  -3.13447
   D48        0.00167   0.00001   0.00000  -0.00057  -0.00056   0.00111
   D49        3.13839   0.00006   0.00000  -0.00297  -0.00297   3.13543
   D50        0.00300  -0.00025   0.00000  -0.00337  -0.00340  -0.00040
   D51       -3.13459  -0.00005   0.00000  -0.00801  -0.00798   3.14061
   D52       -0.00655   0.00042   0.00000   0.00610   0.00612  -0.00043
   D53       -3.13641   0.00051   0.00000  -0.01204  -0.01205   3.13473
   D54        3.13127   0.00022   0.00000   0.01043   0.01045  -3.14146
   D55        0.00141   0.00032   0.00000  -0.00772  -0.00772  -0.00630
   D56       -3.12714  -0.00023   0.00000  -0.06213  -0.06210   3.09394
   D57       -0.99761   0.00002   0.00000  -0.06136  -0.06133  -1.05894
   D58        1.02334  -0.00046   0.00000  -0.07035  -0.07032   0.95302
   D59        1.04674  -0.00023   0.00000  -0.04179  -0.04179   1.00495
   D60       -3.10691   0.00001   0.00000  -0.04102  -0.04102   3.13525
   D61       -1.08596  -0.00046   0.00000  -0.05001  -0.05001  -1.13597
   D62       -1.00146   0.00018   0.00000  -0.03192  -0.03194  -1.03340
   D63        1.12807   0.00042   0.00000  -0.03115  -0.03117   1.09690
   D64       -3.13416  -0.00006   0.00000  -0.04014  -0.04016   3.10886
   D65        1.03156   0.00019   0.00000  -0.01480  -0.01480   1.01676
   D66       -1.02209  -0.00014   0.00000  -0.02230  -0.02232  -1.04440
   D67       -1.10274  -0.00025   0.00000  -0.01795  -0.01794  -1.12069
   D68        3.12679  -0.00058   0.00000  -0.02545  -0.02546   3.10133
   D69       -3.11613   0.00048   0.00000  -0.01065  -0.01063  -3.12677
   D70        1.11340   0.00014   0.00000  -0.01815  -0.01815   1.09525
         Item               Value     Threshold  Converged?
 Maximum Force            0.009058     0.000450     NO 
 RMS     Force            0.002125     0.000300     NO 
 Maximum Displacement     1.016863     0.001800     NO 
 RMS     Displacement     0.215385     0.001200     NO 
 Predicted change in Energy=-2.061326D-03
 GradGradGradGradGradGradGradGradGradGradGradGradGradGradGradGradGradGrad

                          Input orientation:                          
 ---------------------------------------------------------------------
 Center     Atomic      Atomic             Coordinates (Angstroms)
 Number     Number       Type             X           Y           Z
 ---------------------------------------------------------------------
      1          8           0        1.429322    0.849854   -0.689196
      2          6           0        1.604152    0.030928    0.197411
      3          7           0        0.554851   -0.679426    0.724664
      4          6           0       -0.749638   -0.592383    0.085059
      5          6           0       -0.608843   -1.050323   -1.373172
      6          8           0       -1.520157   -0.486581   -2.210092
      7          8           0        0.187144   -1.862270   -1.754571
      8          6           0       -1.415997    0.793218    0.292743
      9          6           0       -2.902810    0.751261    0.412669
     10          6           0       -3.738444    1.014362    1.472012
     11          7           0       -5.057964    0.841792    1.116194
     12          6           0       -5.030624    0.476196   -0.144943
     13          7           0       -3.752287    0.405256   -0.620273
     14          6           0        2.963139   -0.237642    0.821191
     15          6           0        4.120585    0.073871   -0.140640
     16          7           0        5.459364   -0.103433    0.417838
     17          1           0        0.765735   -1.520947    1.236245
     18          1           0       -1.386006   -1.339803    0.568107
     19          1           0       -1.329778   -0.842545   -3.091507
     20          1           0       -1.024879    1.182080    1.233579
     21          1           0       -1.084672    1.474493   -0.491196
     22          1           0       -3.458588    1.324585    2.467333
     23          1           0       -5.889607    0.251826   -0.758432
     24          1           0       -3.438700    0.147519   -1.543267
     25          1           0        3.047688    0.390505    1.716991
     26          1           0        3.027193   -1.276380    1.164212
     27          1           0        4.030565   -0.561339   -1.025974
     28          1           0        4.017462    1.100249   -0.494207
     29          1           0        5.589010   -1.056584    0.743282
     30          1           0        5.592851    0.501670    1.222391
 ---------------------------------------------------------------------
                    Distance matrix (angstroms):
                    1          2          3          4          5
     1  O    0.000000
     2  C    1.219540   0.000000
     3  N    2.258848   1.372454   0.000000
     4  C    2.725322   2.437512   1.455460   0.000000
     5  C    2.869253   2.921161   2.427481   1.534917   0.000000
     6  O    3.577514   3.978089   3.599395   2.423347   1.359682
     7  O    3.167593   3.066324   2.771449   2.423718   1.199299
     8  C    3.010523   3.116324   2.497896   1.551470   2.612550
     9  C    4.471151   4.569237   3.754947   2.559074   3.420120
    10  C    5.603899   5.579882   4.675450   3.665819   4.706634
    11  N    6.733823   6.773880   5.828473   4.656369   5.437989
    12  C    6.493592   6.658508   5.769681   4.418326   4.836420
    13  N    5.201104   5.431405   4.640779   3.241709   3.544970
    14  C    2.411745   1.519236   2.450376   3.801637   4.270215
    15  C    2.854113   2.539401   3.745752   4.920762   5.015021
    16  N    4.286668   3.863845   4.947742   6.237108   6.397456
    17  H    3.125439   2.047055   1.007147   2.117502   2.986638
    18  H    3.781730   3.310191   2.056097   1.094047   2.111006
    19  H    4.030874   4.493093   4.259295   3.238783   1.874992
    20  H    3.135369   3.051327   2.493942   2.131566   3.457147
    21  H    2.597989   3.128552   2.967443   2.171703   2.716430
    22  H    5.837868   5.697142   4.812552   4.085145   5.339543
    23  H    7.343646   7.557701   6.678162   5.276689   5.473570
    24  H    4.992028   5.336095   4.666454   3.229544   3.077637
    25  H    2.935958   2.126550   2.888546   4.248406   4.999531
    26  H    3.241788   2.160742   2.581091   3.987089   4.439615
    27  H    2.978482   2.781175   3.893490   4.907718   4.678008
    28  H    2.607525   2.728708   4.079529   5.091737   5.176894
    29  H    4.794737   4.166504   5.048302   6.389616   6.549259
    30  H    4.594603   4.145106   5.198477   6.535874   6.899757
                    6          7          8          9         10
     6  O    0.000000
     7  O    2.239396   0.000000
     8  C    2.812991   3.716608   0.000000
     9  C    3.212920   4.590783   1.492232   0.000000
    10  C    4.553187   5.839185   2.614065   1.374669   0.000000
    11  N    5.034365   6.562347   3.734214   2.268883   1.377505
    12  C    4.185112   5.940070   3.654805   2.216796   2.138667
    13  N    2.881892   4.684807   2.538181   1.381411   2.179187
    14  C    5.417619   4.120694   4.529765   5.962733   6.848525
    15  C    6.034460   4.671764   5.599913   7.077647   8.077716
    16  N    7.467699   5.967342   6.934712   8.405741   9.325257
    17  H    4.262916   3.065330   3.317456   4.393112   5.174070
    18  H    2.909360   2.853525   2.150931   2.587934   3.448637
    19  H    0.969457   2.264573   3.759827   4.158593   5.484112
    20  H    3.858575   4.434648   1.090578   2.094308   2.729178
    21  H    2.643872   3.787825   1.090170   2.155380   3.332928
    22  H    5.377373   6.424319   3.030408   2.204368   1.079455
    23  H    4.663116   6.510652   4.627230   3.246824   3.191213
    24  H    2.127803   4.150981   2.806988   2.115978   3.151693
    25  H    6.087403   5.030850   4.702674   6.102445   6.819149
    26  H    5.717351   4.114419   4.978417   6.311980   7.149551
    27  H    5.676111   4.122519   5.765317   7.201688   8.311454
    28  H    6.010617   5.003635   5.498730   6.988160   8.001716
    29  H    7.719299   6.005710   7.259124   8.688419   9.582341
    30  H    7.959489   6.608494   7.076242   8.537811   9.348702
                   11         12         13         14         15
    11  N    0.000000
    12  C    1.313345   0.000000
    13  N    2.216004   1.365693   0.000000
    14  C    8.098784   8.083516   6.898412   0.000000
    15  C    9.295972   9.160050   7.894427   1.536827   0.000000
    16  N   10.582785  10.521052   9.283908   2.532162   1.461391
    17  H    6.285890   6.284429   5.250661   2.578319   3.961600
    18  H    4.306162   4.133949   3.171240   4.493760   5.729166
    19  H    5.868655   4.910965   3.678662   5.839885   6.265293
    20  H    4.049117   4.294717   3.388064   4.253230   5.439890
    21  H    4.332558   4.084975   2.876820   4.586779   5.401790
    22  H    2.148643   3.164656   3.234924   6.810941   8.112316
    23  H    2.133990   1.079149   2.147269   9.005881  10.030816
    24  H    3.190104   2.144193   1.008307   6.835390   7.688665
    25  H    8.140406   8.290553   7.190457   1.097349   2.168446
    26  H    8.358153   8.349481   7.209274   1.095785   2.172861
    27  H    9.442405   9.162852   7.853132   2.157822   1.093350
    28  H    9.220821   9.076304   7.801788   2.152166   1.090456
    29  H   10.821319  10.766383   9.552805   2.751715   2.053173
    30  H   10.656774  10.711138   9.525561   2.760965   2.051447
                   16         17         18         19         20
    16  N    0.000000
    17  H    4.970844   0.000000
    18  H    6.957750   2.260356   0.000000
    19  H    7.678166   4.856011   3.693671   0.000000
    20  H    6.660584   3.242323   2.633090   4.785231   0.000000
    21  H    6.792688   3.921826   3.022116   3.491469   1.750408
    22  H    9.261184   5.239994   3.873192   6.334745   2.732288
    23  H   11.415295   7.170428   4.957359   5.237645   5.338451
    24  H    9.115067   5.309118   3.299027   2.797289   3.822005
    25  H    2.783515   3.015306   4.896074   6.618480   4.176850
    26  H    2.801488   2.275784   4.453728   6.105945   4.740056
    27  H    2.082243   4.086269   5.699679   5.751416   5.805394
    28  H    2.088003   4.520935   6.023274   6.254070   5.330773
    29  H    1.015489   4.870588   6.982961   7.913346   6.999681
    30  H    1.015517   5.233758   7.247314   8.266767   6.652626
                   21         22         23         24         25
    21  H    0.000000
    22  H    3.796162   0.000000
    23  H    4.965251   4.179261   0.000000
    24  H    2.899855   4.179808   2.575614   0.000000
    25  H    4.809108   6.615674   9.274815   7.263715   0.000000
    26  H    5.216811   7.108340   9.248854   7.153021   1.756272
    27  H    5.531388   8.476280   9.957039   7.520638   3.065276
    28  H    5.115842   8.044399   9.946840   7.589635   2.516663
    29  H    7.243502   9.513220  11.650138   9.390299   3.082287
    30  H    6.962190   9.173637  11.654738   9.452153   2.595158
                   26         27         28         29         30
    26  H    0.000000
    27  H    2.512958   0.000000
    28  H    3.062573   1.744656   0.000000
    29  H    2.605456   2.409209   2.941610   0.000000
[...]
 7,0.00005433,0.00003082,0.00002840,-0.00000151,-0.00004284,-0.00000823
 ,0.00000195,0.00002361,-0.00000731,0.00001717,0.00006757,-0.00013106,0
 .00018797,0.00028482,0.00044266,-0.00044205,0.00006126,-0.00030042,0.0
 0012789,-0.00074733,-0.00026383,-0.00004839,-0.00014011,0.00193888,-0.
 00020432,0.00011240,-0.00125351,-0.00002499,-0.00101918,0.01712009,0.0
 0010465,0.00001741,-0.00025853,-0.00020945,-0.00017545,0.00027765,0.00
 037502,-0.00008810,-0.00032947,-0.00054319,0.00046240,0.00001610,0.001
 07387,-0.00125541,0.00362021,0.00061204,0.00040141,-0.00590834,-0.0008
 8606,0.00072797,-0.00074106,-0.00037313,0.00020705,0.00073843,0.013053
 00,0.00101813,-0.01391522,-0.00287542,-0.00107422,-0.00331372,-0.00118
 496,-0.00079243,0.00364934,0.00193588,0.00162961,0.00212968,0.13154435
 ,-0.02369914,-0.39904069,0.00003527,0.00001724,-0.00000922,-0.00002711
 ,0.00004292,0.00005874,0.00003552,-0.00002383,-0.00003512,0.00003020,0
 .00001234,0.00003453,-0.00009493,0.00004311,-0.00015008,0.00150589,-0.
 00036256,-0.00025068,0.00037596,-0.00003723,0.00008798,-0.00026716,-0.
 00008563,0.00004557,0.00065340,-0.00006370,-0.00010365,-0.00006287,0.0
 0018112,-0.00012737,-0.14480889,0.02289171,0.41351754,0.00243189,0.002
 51138,0.00285241,-0.01435282,-0.03193903,-0.00829690,-0.00480853,0.002
 17923,-0.00203352,-0.00071710,0.00004454,0.00117629,0.00004381,-0.0000
 1743,0.00056143,-0.00005498,0.00006563,-0.00021286,0.00005995,-0.00002
 022,-0.00021822,-0.00025639,-0.00021779,-0.00015363,-0.00006263,0.0001
 7083,0.00002198,0.00002638,0.00002655,-0.00004714,-0.00006492,-0.00002
 279,-0.00001787,-0.00003870,-0.00001344,0.00002213,0.00002786,0.000027
 43,0.00004929,-0.08255080,-0.08883976,-0.03108608,0.00616578,0.0188318
 1,0.00677355,0.00287900,-0.00018518,-0.00050486,0.00038067,0.00025444,
 -0.00067095,-0.00027188,-0.00001544,-0.00014085,-0.00001353,-0.0000145
 1,0.00000049,-0.00001587,-0.00003770,0.00000894,-0.00000937,0.00002870
 ,-0.00002631,0.00000075,-0.00000414,0.00000359,-0.00000222,-0.00000408
 ,-0.00000013,0.00002178,-0.00001704,0.00000922,0.09348034,0.00055174,0
 .00084647,-0.00056349,0.00203643,0.00402438,0.00353257,0.00035199,0.00
 000303,-0.00059934,0.00034767,0.00012675,-0.00003625,0.00011178,-0.000
 16870,0.00004284,-0.00010074,0.00009097,-0.00011175,-0.00013704,0.0000
 8322,-0.00002018,-0.00006066,-0.00006120,-0.00003898,-0.00000086,0.000
 04062,-0.00000720,0.00000538,0.00000547,-0.00001475,-0.00002432,-0.000
 00424,0.00000169,-0.00000294,-0.00000189,0.00000107,-0.00000524,0.0000
 0820,0.00002109,-0.09070139,-0.25114735,-0.05951584,-0.00498717,-0.012
 66028,-0.00557062,-0.00035258,0.00186437,0.00153790,0.00049415,0.00024
 435,-0.00009620,0.00004661,0.00000737,-0.00000274,0.00000792,-0.000008
 23,0.00001147,0.00000061,-0.00001593,-0.00000023,-0.00001932,0.0000139
 2,-0.00000847,0.00000127,-0.00000266,0.00000058,-0.00000062,-0.0000021
 3,-0.00000013,0.00001763,-0.00001011,-0.00000024,0.09614007,0.27103050
 ,0.00015280,0.00175469,0.00036747,-0.00209639,-0.01087430,-0.00263938,
 -0.00102311,0.00078049,-0.00017791,0.00007578,-0.00030906,0.00023462,0
 .00008335,-0.00008771,0.00006019,-0.00005350,0.00005032,-0.00007125,-0
 .00009305,0.00003179,-0.00000450,0.00000750,-0.00000019,0.00005173,0.0
 0000424,0.00000585,-0.00001380,0.00000320,0.00000009,-0.00000064,-0.00
 001513,-0.00000250,-0.00000026,-0.00000169,-0.00000106,-0.00000381,-0.
 00000943,0.00000532,0.00000782,-0.03039709,-0.05825127,-0.06467285,-0.
 00820163,-0.02452711,-0.00989806,-0.00180897,0.00216947,0.00123183,-0.
 00029173,-0.00027505,-0.00000350,-0.00009041,0.00000925,-0.00003957,0.
 00000183,-0.00000740,0.00001362,0.00000688,0.00000056,-0.00001985,0.00
 001308,-0.00000596,-0.00000146,0.00000181,0.00000105,-0.00000140,-0.00
 000140,-0.00000092,-0.00000042,0.00001192,-0.00000680,0.00000135,0.029
 36120,0.06845716,0.06976527,-0.00835546,0.00242098,-0.00404560,0.00758
 808,0.02007293,-0.02386446,-0.00031396,-0.00080518,0.00167113,0.000518
 89,0.00021255,0.00012809,0.00026443,0.00041230,-0.00011015,-0.00004325
 ,-0.00010647,0.00005309,-0.00001191,-0.00015375,0.00001079,0.00002277,
 0.00010519,-0.00003303,0.00002103,-0.00007683,0.00002241,-0.00000767,-
 0.00001756,-0.00001590,-0.00002044,0.00000591,0.00000721,0.00000208,0.
 00000379,-0.00000130,-0.00000712,-0.00000123,0.00001798,-0.05002691,-0
 .00715141,0.00159937,-0.00137296,-0.01176827,0.01677667,0.00224288,-0.
 00103281,-0.00077896,-0.00148389,-0.00072088,-0.00085022,0.00004399,-0
 .00000785,0.00006320,0.00001180,0.00000836,0.00002925,-0.00000101,0.00
 000610,-0.00000469,0.00012174,-0.00009422,0.00003520,-0.00000150,0.000
 00355,0.00000266,-0.00000088,-0.00000010,0.00000050,0.00001460,0.00000
 679,-0.00000344,-0.00025292,-0.00693575,0.01066888,0.05327634,0.002963
 72,0.00218583,0.00122317,-0.00356270,-0.00704887,0.00306076,-0.0005757
 2,0.00018219,-0.00137149,0.00034856,0.00018804,-0.00021113,-0.00033232
 ,-0.00015787,-0.00003758,0.00010921,0.00000646,-0.00001293,0.00009189,
 0.00006513,-0.00001878,0.00002147,0.00000494,0.00005967,-0.00000855,0.
 00000947,-0.00001249,0.00000706,0.00001288,0.00003095,0.00003410,0.000
 00264,-0.00001837,-0.00000859,-0.00000153,0.00000312,0.00000888,-0.000
 00308,-0.00003962,-0.00279690,-0.14283621,0.12251260,0.00145877,0.0081
 5469,-0.01176965,-0.00196781,0.00081727,-0.00029501,-0.00016425,0.0010
 4146,0.00019416,0.00005189,0.00001747,0.00001482,-0.00003036,-0.000011
 87,-0.00003542,0.00000604,-0.00001754,0.00000659,-0.00007005,0.0000429
 7,-0.00001021,0.00000263,-0.00000440,-0.00000419,0.00000071,0.00000012
 ,-0.00000053,-0.00002724,0.00000018,0.00000567,0.00057377,-0.01575980,
 0.02246716,0.00256988,0.15224279,-0.00358672,0.00058123,0.00037135,0.0
 0618423,0.00679151,-0.00943131,0.00046779,-0.00037056,0.00120135,-0.00
 025347,-0.00028841,0.00004849,0.00018670,0.00019923,-0.00006887,-0.000
 02919,-0.00005922,0.00007201,-0.00006962,-0.00015423,0.00009250,0.0000
 2424,0.00004517,0.00001909,0.00001491,-0.00006675,0.00001328,-0.000008
 67,-0.00001307,-0.00001278,-0.00002183,0.00000009,0.00001562,0.0000105
 6,0.00000344,-0.00000820,-0.00001215,-0.00000192,0.00002211,-0.0016829
 5,0.12253761,-0.20497037,0.00012055,0.01512132,-0.02116960,-0.00136960
 ,-0.00059600,0.00260649,-0.00106992,-0.00085623,0.00021738,-0.00005418
 ,0.00000698,0.00000406,0.00003911,0.00003123,0.00001972,0.00000382,0.0
 0002229,-0.00001321,0.00008424,-0.00006792,0.00002057,-0.00000103,0.00
 000501,0.00000239,-0.00000088,0.00000169,-0.00000019,0.00001914,0.0000
 0634,-0.00000684,0.00046770,-0.00495024,0.00736124,-0.00287425,-0.1346
 9964,0.22489722,-0.00027884,-0.00019582,-0.00043443,0.00191319,0.00089
 746,0.00066667,-0.00000152,-0.00037157,-0.00018982,-0.00005357,-0.0000
 3805,0.00002689,-0.00039080,0.00042752,0.00011300,0.00024807,-0.000247
 48,0.00014660,0.00016377,-0.00020138,-0.00021922,0.00001661,0.00002109
 ,-0.00000195,-0.00000328,-0.00002154,0.00001617,-0.00000090,-0.0000029
 1,0.00000838,0.00002183,0.00000522,-0.00000867,-0.00000804,-0.00000035
 ,0.00000152,0.00001205,-0.00000703,-0.00002254,0.00625642,0.01737873,0
 .00616168,-0.08328772,-0.08232276,-0.02797845,-0.02320136,-0.03027107,
 -0.00875699,-0.00007656,0.00007442,0.00031605,-0.00000839,-0.00000745,
 -0.00001505,-0.00001612,0.00001094,-0.00005026,0.00000514,0.00000172,-
 0.00000979,0.00000876,0.00000056,0.00000612,-0.00000027,0.00000006,-0.
 00000116,0.00000106,0.00000055,0.00000026,-0.00003149,0.00001122,0.000
 00493,-0.00215516,0.00186489,0.00336875,0.00051066,-0.00064803,-0.0005
 7724,0.10437842,0.00094722,0.00005504,0.00056830,-0.00206416,-0.000756
 59,-0.00122116,0.00090767,0.00068132,0.00030813,-0.00000768,-0.0000121
 6,-0.00008262,0.00093907,-0.00095475,-0.00033383,-0.00039976,0.0004424
 4,-0.00019730,-0.00105841,0.00033335,0.00028586,0.00004506,-0.00000851
 ,0.00004079,-0.00000265,0.00001068,-0.00004007,-0.00000325,0.00000455,
 -0.00000478,-0.00001862,0.00000042,0.00002656,0.00003411,0.00000463,-0
 .00000878,-0.00002472,0.00001741,0.00003522,-0.00226148,-0.01134517,-0
 .00357751,-0.08804304,-0.24851692,-0.06302224,0.00258109,0.00836736,0.
 00184843,0.00010818,-0.00011740,-0.00028737,0.00004415,0.00002522,0.00
 003268,0.00004965,-0.00003421,0.00006936,-0.00002411,0.00001158,0.0000
 2659,-0.00002642,0.00000020,-0.00001849,-0.00000048,-0.00000210,0.0000
 0329,0.00000119,-0.00000240,-0.00000020,0.00005710,-0.00002857,-0.0000
 1833,0.00163509,0.00069739,-0.00174789,0.00025400,0.00103191,-0.000240
 31,0.09232006,0.26446701,0.00023349,-0.00006427,0.00050843,-0.00218618
 ,-0.00059787,-0.00057503,0.00030798,0.00054135,0.00019796,0.00015001,0
 .00004344,-0.00001450,-0.00015592,0.00010928,0.00019944,0.00005154,-0.
 00002793,-0.00002659,0.00012601,-0.00003487,-0.00027686,-0.00003329,-0
 .00002007,-0.00003732,-0.00000560,0.00002418,0.00000460,0.00000179,0.0
 0000295,-0.00000265,0.00000443,0.00000172,-0.00000787,-0.00000963,-0.0
 0000260,0.00000599,0.00000779,0.00000169,-0.00000697,-0.00487845,-0.02
 357529,-0.00869600,-0.02839605,-0.06116691,-0.07114627,-0.00698695,-0.
 00736081,-0.00121012,0.00026521,-0.00013903,-0.00031731,0.00003157,-0.
 00000872,-0.00000339,-0.00002248,0.00000466,-0.00001204,0.00000095,-0.
 00001811,0.00000205,-0.00001228,0.00001341,-0.00000532,-0.00000046,-0.
 00000262,0.00000012,0.00000013,-0.00000110,0.00000048,-0.00001165,0.00
 000087,0.00000513,0.00302119,-0.00197553,-0.00275794,-0.00097578,0.000
 56792,0.00078470,0.03068708,0.07259600,0.07527294,0.00022427,0.0008921
 0,-0.00188316,0.00082179,-0.00271705,0.00335937,-0.00016416,0.00055446
 ,-0.00053698,0.00003513,-0.00000615,0.00002111,-0.00035256,0.00007723,
 0.00011572,0.00010720,-0.00004352,0.00001479,0.00026236,0.00005870,-0.
 00016953,-0.00001633,-0.00002032,0.00002167,-0.00000844,0.00001784,-0.
 00000028,0.00000258,0.00000374,0.00001083,0.00002163,0.00000105,-0.000
 01105,-0.00001027,-0.00000198,0.00000297,0.00001005,-0.00000418,-0.000
 02230,-0.00147195,-0.01032819,0.01525545,-0.04730482,-0.00569475,0.001
 93808,-0.00751953,0.02680388,-0.02830479,0.00027134,0.00017300,0.00008
 640,0.00000380,-0.00000491,-0.00002678,-0.00004211,-0.00001801,-0.0000
 3288,-0.00000035,-0.00000271,-0.00000491,-0.00002402,0.00002818,-0.000
 01238,-0.00000004,-0.00000111,-0.00000156,0.00000056,0.00000014,0.0000
 0020,-0.00002667,0.00000474,0.00000635,0.00069828,0.00026673,-0.000753
 84,-0.00214903,0.00200504,0.00272958,0.00055306,-0.00763387,0.01041526
 ,0.06104908,-0.00025331,-0.00037980,-0.00044433,-0.00014392,0.00063120
 ,0.00001002,0.00006139,0.00005053,0.00020916,0.00003807,0.00000893,0.0
 0009164,-0.00020508,0.00023626,0.00019602,0.00007791,-0.00005537,0.000
 00956,0.00029126,0.00000291,-0.00022126,-0.00003318,-0.00000102,-0.000
 02926,0.00000014,-0.00000141,0.00001850,0.00000121,-0.00000039,-0.0000
 0209,0.00000554,0.00000133,-0.00001211,-0.00001504,-0.00000240,0.00000
 617,0.00001006,-0.00000299,-0.00001307,0.00154727,0.00760867,-0.011954
 79,-0.00183830,-0.15192900,0.12839747,0.00261540,-0.00276259,0.0035168
 0,-0.00003770,-0.00010505,-0.00015868,0.00000155,-0.00001261,-0.000012
 32,-0.00004308,-0.00000627,-0.00000072,0.00000644,-0.00000521,-0.00001
 084,0.00001372,-0.00000185,0.00000969,-0.00000014,-0.00000040,-0.00000
 111,-0.00000073,-0.00000009,0.00000041,-0.00002048,0.00000731,0.000009
 78,-0.00071644,0.00111271,0.00019164,0.00222163,0.00008249,-0.00259937
 ,-0.00007441,-0.01696869,0.02163156,-0.00450747,0.16004270,-0.00089827
 ,-0.00121595,0.00208202,-0.00163465,0.00249308,-0.00282942,0.00020705,
 -0.00025949,0.00052857,-0.00004872,0.00007043,0.00005751,0.00016249,0.
 00003132,-0.00007975,-0.00002194,-0.00000491,0.00004603,-0.00006285,-0
 .00001337,0.00004412,0.00000382,0.00003065,-0.00002103,0.00000348,-0.0
 0002291,0.00000545,-0.00000423,-0.00000600,-0.00000507,-0.00000096,0.0
 0000073,0.00000695,0.00000649,0.00000196,-0.00000088,-0.00000092,-0.00
 000100,0.00000753,0.00531474,0.01354382,-0.02194532,-0.00149373,0.1258
 8536,-0.20822276,-0.00423252,0.00610063,-0.00507605,-0.00014807,-0.000
 24573,-0.00011202,0.00001168,-0.00000349,0.00001876,0.00000934,0.00000
 660,0.00001017,-0.00000455,0.00001118,0.00000086,0.00001914,-0.0000199
 6,0.00001255,-0.00000168,0.00000263,0.00000173,0.00000052,0.00000082,0
 .00000031,0.00000445,0.00000394,-0.00000439,-0.00085610,0.00009508,0.0
 0084849,0.00269775,-0.00219143,-0.00242354,0.00074032,-0.00571819,0.00
 871204,0.00166451,-0.13788392,0.22829359,0.00026542,-0.00041099,0.0009
 9389,-0.00098567,0.00009340,-0.00102427,0.00040568,0.00003871,0.000103
 00,-0.00015546,0.00004763,-0.00003113,0.00000700,-0.00005043,-0.000220
 23,0.00006185,-0.00002164,0.00013038,-0.00002026,0.00002792,0.00012609
 ,0.00001603,0.00001813,0.00002113,-0.00001779,-0.00002497,0.00000120,-
 0.00000886,-0.00000471,0.00001174,0.00004295,0.00000675,0.00000418,0.0
 0001018,0.00000359,0.00000287,0.00000839,-0.00000369,-0.00002147,0.002
 32070,0.00038513,-0.00168916,-0.00570561,0.02776700,-0.03169777,-0.047
 65670,-0.01641438,-0.01505477,-0.00011556,-0.00004595,0.00001647,0.000
 01416,0.00001079,0.00001469,-0.00000287,-0.00000327,-0.00001757,-0.000
 01394,0.00001242,0.00001052,-0.00000685,-0.00000100,-0.00000234,-0.000
 00519,0.00000231,0.00000346,0.00000283,0.00000114,0.00000142,-0.000019
 21,0.00000529,-0.00000773,-0.00008817,-0.00002184,0.00022949,-0.000507
 91,-0.00020009,0.00110641,0.00106213,-0.00066795,0.00027941,-0.0062872
 9,0.00060947,-0.00147870,0.05681830,-0.00053928,0.00027130,-0.00062865
 ,0.00114118,0.00038680,0.00072047,-0.00059780,-0.00027105,-0.00008504,
 0.00016543,-0.00006416,0.00001812,-0.00005987,0.00016372,0.00023523,-0
 .00002374,-0.00002490,-0.00011258,0.00005190,-0.00014982,-0.00013698,-
 0.00001655,-0.00000979,-0.00002051,0.00002476,0.00001616,0.00000322,0.
 00000877,0.00000092,-0.00001020,-0.00004378,-0.00001062,-0.00000703,-0
 .00001485,-0.00000340,-0.00000244,-0.00000725,-0.00000110,0.00001862,-
 0.00251189,0.00016637,0.00018405,0.00333461,-0.00341804,0.00504144,-0.
 00255504,-0.18135055,0.16998705,0.00001001,0.00010296,0.00003076,-0.00
 003457,-0.00001083,-0.00001277,0.00000871,0.00001935,0.00001542,0.0000
 1926,-0.00001066,-0.00001563,0.00001655,-0.00000807,0.00000809,0.00000
 497,0.00000088,-0.00000386,-0.00000388,0.00000055,-0.00000157,0.000016
 20,0.00000155,0.00000923,0.00011577,-0.00027535,-0.00005329,0.00072444
 ,-0.00013101,-0.00043307,-0.00007566,0.00053927,-0.00066690,0.00040803
 ,0.00196744,-0.00064830,-0.00163919,0.20441565,-0.00018884,-0.00002902
 ,0.00004636,0.00096196,0.00011466,-0.00012265,-0.00038976,-0.00020525,
 0.00003375,0.00014334,-0.00001360,0.00002241,0.00002271,0.00007079,0.0
 0011400,-0.00003896,-0.00000857,-0.00007794,-0.00002971,-0.00010753,-0
 .00005699,-0.00001055,-0.00000486,-0.00001484,0.00001805,0.00001095,-0
 .00000163,0.00000611,0.00000064,-0.00000795,-0.00003627,-0.00000830,-0
 .00000158,-0.00000641,-0.00000192,-0.00000374,-0.00000872,-0.00000067,
 0.00001888,0.00009050,-0.00102242,0.00263335,0.00610606,0.00342547,-0.
 01157124,-0.03581628,0.21336743,-0.26648090,0.00000967,0.00007027,0.00
 002472,-0.00001793,-0.00000557,-0.00000120,0.00001926,0.00002078,0.000
 01221,0.00001274,-0.00000781,-0.00000980,0.00001115,-0.00000629,0.0000
 0428,0.00000395,0.00000062,-0.00000275,-0.00000274,0.00000056,-0.00000
 137,0.00001823,0.00000089,0.00000415,-0.00000087,-0.00003339,-0.000053
 55,-0.00033191,0.00050269,0.00042389,-0.00026478,-0.00015448,-0.000383
 17,-0.00364281,-0.00059897,0.00049601,0.03152489,-0.20298819,0.2696020
 5,0.00046489,-0.00013251,0.00052164,-0.00067631,0.00029537,-0.00098282
 ,0.00078387,0.00020358,0.00023569,-0.00010704,0.00006106,-0.00011220,0
 .00009060,-0.00020425,-0.00026031,0.00000414,0.00005469,0.00009621,-0.
 00014298,0.00011056,0.00015345,0.00002313,0.00001554,0.00002804,-0.000
 02115,-0.00002219,-0.00000664,-0.00001033,-0.00000378,0.00001305,0.000
 04725,0.00000801,0.00000887,0.00001696,0.00000449,0.00000143,0.0000053
 9,-0.00000144,-0.00001970,0.00217187,-0.00185587,-0.00000748,-0.021750
 39,-0.03445733,-0.01151314,-0.10266066,-0.12020779,-0.05278559,-0.0000
 0505,-0.00007230,-0.00004152,0.00004716,0.00001531,0.00002568,-0.00000
 376,-0.00001123,-0.00001201,-0.00002055,0.00001042,0.00001810,-0.00001
 892,0.00000530,-0.00000992,-0.00000571,0.00000142,0.00000418,0.0000035
 4,0.00000088,0.00000155,-0.00001419,0.00000111,-0.00001121,-0.00050051
 ,0.00110561,0.00084667,-0.00008248,0.00013899,0.00015270,-0.00563715,0
 .00231297,-0.00190912,0.00131644,0.00038820,0.00004210,0.00056171,0.00
 207277,0.00183791,0.12612025,-0.00007367,-0.00008517,0.00008938,0.0003
 2190,0.00004508,-0.00023811,0.00003812,-0.00004878,0.00006143,0.000011
 99,0.00002460,0.00001060,0.00004886,-0.00002536,-0.00001598,-0.0000220
 7,0.00000638,-0.00000566,-0.00003086,0.00002244,0.00001253,0.00000045,
 0.00000102,-0.00000338,0.00000167,0.00000113,-0.00000185,0.00000062,-0
 .00000042,-0.00000256,-0.00000799,-0.00000071,0.00000260,0.00000232,0.
 00000006,-0.00000189,-0.00000313,0.00000019,0.00000693,0.00128620,0.00
 136978,0.00124687,0.00727517,0.00579771,-0.00107726,-0.14998431,-0.330
 69813,-0.06346077,0.00000604,-0.00001521,-0.00000443,0.00000574,-0.000
 00183,0.00000305,0.00000604,0.00000045,0.00000363,0.00000047,0.0000011
 9,-0.00000065,0.00000278,-0.00000146,0.00000173,0.00000075,0.00000003,
 -0.00000029,-0.00000009,-0.00000012,-0.00000026,0.00000600,-0.00000079
 ,-0.00000085,-0.00054026,-0.00008182,0.00022567,-0.00015608,-0.0001167
 3,0.00004380,0.00147110,0.00205765,0.00012363,-0.00031062,0.00048268,-
 0.00004360,-0.00951957,-0.02231358,-0.01238891,0.15016243,0.34357974,-
 0.00026992,0.00033298,-0.00044289,0.00088079,-0.00049304,0.00053931,-0
 .00036659,0.00001188,-0.00013189,0.00012431,-0.00003785,0.00005616,0.0
 0023268,-0.00013916,0.00015403,-0.00014958,0.00010654,-0.00017667,-0.0
 0021453,0.00004900,-0.00008169,-0.00001107,-0.00001833,-0.00000907,0.0
 0002044,0.00002335,-0.00000183,0.00000871,0.00000626,-0.00001123,-0.00
 004755,-0.00000650,-0.00000483,-0.00000945,-0.00000316,-0.00000197,-0.
 00001218,0.00000821,0.00002200,-0.00007879,0.00195380,0.00090713,0.001
 18867,-0.01241620,-0.00494728,-0.07780658,-0.09474681,-0.06255249,0.00
 005138,0.00004701,-0.00004665,-0.00002161,-0.00000636,-0.00001142,0.00
 001117,-0.00001199,0.00004167,0.00001195,-0.00000660,-0.00000990,0.000
 00956,-0.00000542,0.00000374,0.00000546,-0.00000291,-0.00000360,-0.000
 00346,-0.00000214,-0.00000146,0.00002860,-0.00001262,0.00000799,-0.000
 06313,-0.00015589,0.00041653,0.00010552,0.00007921,-0.00008856,-0.0037
 3408,0.00083235,-0.00021451,-0.00023903,-0.00035557,-0.00045247,0.0166
 6390,0.02955533,0.00535526,0.06368440,0.07541462,0.06168658\\-0.000007
 37,0.00000436,0.00000272,0.00000554,-0.00000320,-0.00001318,0.00000142
 ,0.00000311,0.00000509,0.00000283,-0.00000033,0.00000101,0.00000044,-0
 .00000258,0.00000139,0.00000096,0.00000066,-0.00000344,-0.00000151,-0.
 00000018,-0.00000145,-0.00000215,0.00000084,0.00000178,0.00000338,-0.0
 0000136,0.00000050,-0.00000225,-0.00000086,0.00000138,-0.00000011,-0.0
 0000005,0.00000160,0.00000037,0.00000083,0.00000034,-0.00000166,0.0000
 0185,-0.00000398,-0.00000702,-0.00001616,0.00000447,0.00000132,0.00000
 627,-0.00000166,0.00000003,-0.00000078,0.00000143,0.00000001,-0.000000
 18,-0.00000094,-0.00000035,0.00000078,0.00000010,0.00000048,0.00000050
 ,-0.00000046,-0.00000051,-0.00000043,-0.00000023,0.00000109,0.00000087
 ,-0.00000124,0.00000004,-0.00000002,-0.00000036,-0.00000076,-0.0000000
 2,-0.00000058,0.00000090,-0.00000020,0.00000035,0.00000508,0.00000323,
 0.00000285,-0.00000016,0.00000516,0.00000146,0.00000043,0.00000027,-0.
 00000064,-0.00000175,-0.00000230,0.00000054,0.00000046,-0.00000004,0.0
 0000095,0.00000082,-0.00000005,0.00000020\\\@


 THE MOST INCOMPREHENSIBLE THING ABOUT THE WORLD
 IS THAT IT IS COMPREHENSIBLE. -- A. EINSTEIN
 Job cpu time:       0 days  2 hours  2 minutes 55.9 seconds.
 File lengths (MBytes):  RWF=    415 Int=      0 D2E=      0 Chk=     13 Scr=      1
 Normal termination of Gaussian 09 at Sat Jul 24 02:02:42 2021.
