 Entering Gaussian System, Link 0=g09
 Input=opt_freq-conf-591.com
 Output=opt_freq-conf-591.log
 Initial command:
 /aerosol/software/g09/l1.exe "/scratch/nicole/10401/Gau-72640.inp" -scrdir="/scratch/nicole/10401/"
 Entering Link 1 = /aerosol/software/g09/l1.exe PID=     72645.
  
 Copyright (c) 1988,1990,1992,1993,1995,1998,2003,2009,2013,
            Gaussian, Inc.  All Rights Reserved.
  
 This is part of the Gaussian(R) 09 program.  It is based on
 the Gaussian(R) 03 system (copyright 2003, Gaussian, Inc.),
 the Gaussian(R) 98 system (copyright 1998, Gaussian, Inc.),
 the Gaussian(R) 94 system (copyright 1995, Gaussian, Inc.),
 the Gaussian 92(TM) system (copyright 1992, Gaussian, Inc.),
 the Gaussian 90(TM) system (copyright 1990, Gaussian, Inc.),
 the Gaussian 88(TM) system (copyright 1988, Gaussian, Inc.),
 the Gaussian 86(TM) system (copyright 1986, Carnegie Mellon
 University), and the Gaussian 82(TM) system (copyright 1983,
 Carnegie Mellon University). Gaussian is a federally registered
 trademark of Gaussian, Inc.
  
 This software contains proprietary and confidential information,
 including trade secrets, belonging to Gaussian, Inc.
  
 This software is provided under written license and may be
 used, copied, transmitted, or stored only in accord with that
 written license.
  
 The following legend is applicable only to US Government
 contracts under FAR:
  
                    RESTRICTED RIGHTS LEGEND
  
 Use, reproduction and disclosure by the US Government is
 subject to restrictions as set forth in subparagraphs (a)
 and (c) of the Commercial Computer Software - Restricted
 Rights clause in FAR 52.227-19.
  
 Gaussian, Inc.
 340 Quinnipiac St., Bldg. 40, Wallingford CT 06492
  
  
 ---------------------------------------------------------------
 Warning -- This program may not be used in any manner that
 competes with the business of Gaussian, Inc. or will provide
 assistance to any competitor of Gaussian, Inc.  The licensee
 of this program is prohibited from giving any competitor of
 Gaussian, Inc. access to this program.  By using this program,
 the user acknowledges that Gaussian, Inc. is engaged in the
 business of creating and licensing software in the field of
 computational chemistry and represents and warrants to the
 licensee that it is not a competitor of Gaussian, Inc. and that
 it will not use this program in any manner prohibited above.
 ---------------------------------------------------------------
  

 Cite this work as:
 Gaussian 09, Revision D.01,
 M. J. Frisch, G. W. Trucks, H. B. Schlegel, G. E. Scuseria, 
 M. A. Robb, J. R. Cheeseman, G. Scalmani, V. Barone, B. Mennucci, 
 G. A. Petersson, H. Nakatsuji, M. Caricato, X. Li, H. P. Hratchian, 
 A. F. Izmaylov, J. Bloino, G. Zheng, J. L. Sonnenberg, M. Hada, 
 M. Ehara, K. Toyota, R. Fukuda, J. Hasegawa, M. Ishida, T. Nakajima, 
 Y. Honda, O. Kitao, H. Nakai, T. Vreven, J. A. Montgomery, Jr., 
 J. E. Peralta, F. Ogliaro, M. Bearpark, J. J. Heyd, E. Brothers, 
 K. N. Kudin, V. N. Staroverov, T. Keith, R. Kobayashi, J. Normand, 
 K. Raghavachari, A. Rendell, J. C. Burant, S. S. Iyengar, J. Tomasi, 
 M. Cossi, N. Rega, J. M. Millam, M. Klene, J. E. Knox, J. B. Cross, 
 V. Bakken, C. Adamo, J. Jaramillo, R. Gomperts, R. E. Stratmann, 
 O. Yazyev, A. J. Austin, R. Cammi, C. Pomelli, J. W. Ochterski, 
 R. L. Martin, K. Morokuma, V. G. Zakrzewski, G. A. Voth, 
 P. Salvador, J. J. Dannenberg, S. Dapprich, A. D. Daniels, 
 O. Farkas, J. B. Foresman, J. V. Ortiz, J. Cioslowski, 
 and D. J. Fox, Gaussian, Inc., Wallingford CT, 2013.
 
 ******************************************
 Gaussian 09:  ES64L-G09RevD.01 24-Apr-2013
                24-Jul-2021 
 ******************************************
 %mem=2gb
 %nproc=4
 Will use up to    4 processors via shared memory.
 %chk=conf-591.chk
 ----------------------------------------------------------------------
 # B3LYP/6-311G(d,p) EmpiricalDispersion=GD3BJ opt=calcfc freq=noraman 
 nosymm integral(ultrafinegrid)
 ----------------------------------------------------------------------
 1/10=4,14=-1,18=20,19=15,26=4,38=1/1,3;
 2/9=110,12=2,15=1,17=6,18=5,40=1/2;
 3/5=4,6=6,7=101,11=2,16=1,25=1,30=1,71=2,74=-5,75=-5,124=41,140=1/1,2,3;
 4//1;
 5/5=2,38=5/2;
 8/6=4,10=90,11=11/1;
 11/6=1,8=1,9=11,15=111,16=1,31=1/1,2,10;
 10/6=1,13=1,31=1/2;
 6/7=2,8=2,9=2,10=2,28=1/1;
 7/10=1,18=20,25=1,30=1/1,2,3,16;
 1/10=4,14=-1,18=20,19=15,26=4/3(2);
 2/9=110,15=1/2;
 99//99;
 2/9=110,15=1/2;
 3/5=4,6=6,7=101,11=2,16=1,25=1,30=1,71=1,74=-5,75=-5,124=41/1,2,3;
 4/5=5,16=3,69=1/1;
 5/5=2,38=5/2;
 7/30=1/1,2,3,16;
 1/14=-1,18=20,19=15,26=4/3(-5);
 2/9=110,15=1/2;
 6/7=2,8=2,9=2,10=2,19=2,28=1/1;
 99/9=1/99;
 ------------------------------------------------------------
 Candidate Structure: Conf:591 OPT and FREQ calc in gas phase
 ------------------------------------------------------------
 Symbolic Z-matrix:
 Charge =  0 Multiplicity = 1
 O                    -1.50958  -0.24594  -1.12071 
 C                    -1.65441  -0.21585   0.0925 
 N                    -0.5916   -0.29727   0.93485 
 C                     0.76368  -0.4252    0.42429 
 C                     1.58669  -1.02445   1.54156 
 O                     2.3125   -2.09563   1.1682 
 O                     1.5985   -0.57963   2.66283 
 C                     1.31394   0.95998   0.02517 
 C                     2.70026   0.91407  -0.52907 
 C                     3.9178    1.22596   0.01077 
 N                     4.93794   0.98003  -0.89233 
 C                     4.33935   0.52657  -1.96961 
 N                     2.98641   0.46695  -1.80145 
 C                    -3.00269  -0.05793   0.77323 
 C                    -4.17095  -0.43485  -0.12418 
 N                    -5.42234  -0.19908   0.60083 
 H                    -0.71097  -0.23088   1.93345 
 H                     0.74552  -1.08257  -0.44413 
 H                     2.80172  -2.37166   1.95519 
 H                     1.31406   1.5975    0.90708 
 H                     0.6228    1.38591  -0.69981 
 H                     4.1116    1.5998    1.00794 
 H                     4.81374   0.23118  -2.88829 
 H                     2.31183   0.15899  -2.48369 
 H                    -3.02322  -0.65284   1.69002 
 H                    -3.1142    0.9894    1.07929 
 H                    -4.11323  -1.49734  -0.37067 
 H                    -4.08587   0.12045  -1.06646 
 H                    -6.20558  -0.54364   0.05872 
 H                    -5.57369   0.79812   0.70512 
 

 GradGradGradGradGradGradGradGradGradGradGradGradGradGradGradGradGradGrad
 Berny optimization.
 Initialization pass.
                           ----------------------------
                           !    Initial Parameters    !
                           ! (Angstroms and Degrees)  !
 --------------------------                            --------------------------
 ! Name  Definition              Value          Derivative Info.                !
 --------------------------------------------------------------------------------
 ! R1    R(1,2)                  1.2222         calculate D2E/DX2 analytically  !
 ! R2    R(2,3)                  1.3586         calculate D2E/DX2 analytically  !
 ! R3    R(2,14)                 1.5186         calculate D2E/DX2 analytically  !
 ! R4    R(3,4)                  1.4539         calculate D2E/DX2 analytically  !
 ! R5    R(3,17)                 1.0079         calculate D2E/DX2 analytically  !
 ! R6    R(4,5)                  1.5115         calculate D2E/DX2 analytically  !
 ! R7    R(4,8)                  1.543          calculate D2E/DX2 analytically  !
 ! R8    R(4,18)                 1.0893         calculate D2E/DX2 analytically  !
 ! R9    R(5,6)                  1.3467         calculate D2E/DX2 analytically  !
 ! R10   R(5,7)                  1.2063         calculate D2E/DX2 analytically  !
 ! R11   R(6,19)                 0.9669         calculate D2E/DX2 analytically  !
 ! R12   R(8,9)                  1.4937         calculate D2E/DX2 analytically  !
 ! R13   R(8,20)                 1.0882         calculate D2E/DX2 analytically  !
 ! R14   R(8,21)                 1.0884         calculate D2E/DX2 analytically  !
 ! R15   R(9,10)                 1.3679         calculate D2E/DX2 analytically  !
 ! R16   R(9,13)                 1.3787         calculate D2E/DX2 analytically  !
 ! R17   R(10,11)                1.3845         calculate D2E/DX2 analytically  !
 ! R18   R(10,22)                1.0824         calculate D2E/DX2 analytically  !
 ! R19   R(11,12)                1.3132         calculate D2E/DX2 analytically  !
 ! R20   R(12,13)                1.3647         calculate D2E/DX2 analytically  !
 ! R21   R(12,23)                1.0753         calculate D2E/DX2 analytically  !
 ! R22   R(13,24)                1.0076         calculate D2E/DX2 analytically  !
 ! R23   R(14,15)                1.5206         calculate D2E/DX2 analytically  !
 ! R24   R(14,25)                1.0931         calculate D2E/DX2 analytically  !
 ! R25   R(14,26)                1.0968         calculate D2E/DX2 analytically  !
 ! R26   R(15,16)                1.4653         calculate D2E/DX2 analytically  !
 ! R27   R(15,27)                1.0922         calculate D2E/DX2 analytically  !
 ! R28   R(15,28)                1.097          calculate D2E/DX2 analytically  !
 ! R29   R(16,29)                1.013          calculate D2E/DX2 analytically  !
 ! R30   R(16,30)                1.014          calculate D2E/DX2 analytically  !
 ! A1    A(1,2,3)              121.4187         calculate D2E/DX2 analytically  !
 ! A2    A(1,2,14)             123.5544         calculate D2E/DX2 analytically  !
 ! A3    A(3,2,14)             115.0146         calculate D2E/DX2 analytically  !
 ! A4    A(2,3,4)              121.1161         calculate D2E/DX2 analytically  !
 ! A5    A(2,3,17)             121.1786         calculate D2E/DX2 analytically  !
 ! A6    A(4,3,17)             117.6531         calculate D2E/DX2 analytically  !
 ! A7    A(3,4,5)              106.432          calculate D2E/DX2 analytically  !
 ! A8    A(3,4,8)              110.1376         calculate D2E/DX2 analytically  !
 ! A9    A(3,4,18)             108.5126         calculate D2E/DX2 analytically  !
 ! A10   A(5,4,8)              110.6663         calculate D2E/DX2 analytically  !
 ! A11   A(5,4,18)             111.0446         calculate D2E/DX2 analytically  !
 ! A12   A(8,4,18)             109.9672         calculate D2E/DX2 analytically  !
 ! A13   A(4,5,6)              113.8206         calculate D2E/DX2 analytically  !
 ! A14   A(4,5,7)              123.1051         calculate D2E/DX2 analytically  !
 ! A15   A(6,5,7)              123.073          calculate D2E/DX2 analytically  !
 ! A16   A(5,6,19)             105.9096         calculate D2E/DX2 analytically  !
 ! A17   A(4,8,9)              113.5389         calculate D2E/DX2 analytically  !
 ! A18   A(4,8,20)             108.4415         calculate D2E/DX2 analytically  !
 ! A19   A(4,8,21)             107.2857         calculate D2E/DX2 analytically  !
 ! A20   A(9,8,20)             108.5794         calculate D2E/DX2 analytically  !
 ! A21   A(9,8,21)             110.7451         calculate D2E/DX2 analytically  !
 ! A22   A(20,8,21)            108.0966         calculate D2E/DX2 analytically  !
 ! A23   A(8,9,10)             132.2717         calculate D2E/DX2 analytically  !
 ! A24   A(8,9,13)             123.0274         calculate D2E/DX2 analytically  !
 ! A25   A(10,9,13)            104.681          calculate D2E/DX2 analytically  !
 ! A26   A(9,10,11)            110.9726         calculate D2E/DX2 analytically  !
 ! A27   A(9,10,22)            126.9908         calculate D2E/DX2 analytically  !
 ! A28   A(11,10,22)           122.0282         calculate D2E/DX2 analytically  !
 ! A29   A(10,11,12)           105.1044         calculate D2E/DX2 analytically  !
 ! A30   A(11,12,13)           111.4636         calculate D2E/DX2 analytically  !
 ! A31   A(11,12,23)           126.4854         calculate D2E/DX2 analytically  !
 ! A32   A(13,12,23)           122.0508         calculate D2E/DX2 analytically  !
 ! A33   A(9,13,12)            107.7781         calculate D2E/DX2 analytically  !
 ! A34   A(9,13,24)            125.8051         calculate D2E/DX2 analytically  !
 ! A35   A(12,13,24)           126.4152         calculate D2E/DX2 analytically  !
 ! A36   A(2,14,15)            113.0663         calculate D2E/DX2 analytically  !
 ! A37   A(2,14,25)            109.6361         calculate D2E/DX2 analytically  !
 ! A38   A(2,14,26)            108.3393         calculate D2E/DX2 analytically  !
 ! A39   A(15,14,25)           110.2211         calculate D2E/DX2 analytically  !
 ! A40   A(15,14,26)           108.8604         calculate D2E/DX2 analytically  !
 ! A41   A(25,14,26)           106.4831         calculate D2E/DX2 analytically  !
 ! A42   A(14,15,16)           108.9191         calculate D2E/DX2 analytically  !
 ! A43   A(14,15,27)           109.4936         calculate D2E/DX2 analytically  !
 ! A44   A(14,15,28)           108.7749         calculate D2E/DX2 analytically  !
 ! A45   A(16,15,27)           108.259          calculate D2E/DX2 analytically  !
 ! A46   A(16,15,28)           114.1907         calculate D2E/DX2 analytically  !
 ! A47   A(27,15,28)           107.125          calculate D2E/DX2 analytically  !
 ! A48   A(15,16,29)           109.9255         calculate D2E/DX2 analytically  !
 ! A49   A(15,16,30)           109.6695         calculate D2E/DX2 analytically  !
 ! A50   A(29,16,30)           105.9114         calculate D2E/DX2 analytically  !
 ! D1    D(1,2,3,4)             -0.0656         calculate D2E/DX2 analytically  !
 ! D2    D(1,2,3,17)           177.2451         calculate D2E/DX2 analytically  !
 ! D3    D(14,2,3,4)          -178.8382         calculate D2E/DX2 analytically  !
 ! D4    D(14,2,3,17)           -1.5275         calculate D2E/DX2 analytically  !
 ! D5    D(1,2,14,15)           20.6569         calculate D2E/DX2 analytically  !
 ! D6    D(1,2,14,25)          144.0797         calculate D2E/DX2 analytically  !
 ! D7    D(1,2,14,26)         -100.0943         calculate D2E/DX2 analytically  !
 ! D8    D(3,2,14,15)         -160.6            calculate D2E/DX2 analytically  !
 ! D9    D(3,2,14,25)          -37.1772         calculate D2E/DX2 analytically  !
 ! D10   D(3,2,14,26)           78.6488         calculate D2E/DX2 analytically  !
 ! D11   D(2,3,4,5)           -158.086          calculate D2E/DX2 analytically  !
 ! D12   D(2,3,4,8)             81.9102         calculate D2E/DX2 analytically  !
 ! D13   D(2,3,4,18)           -38.5106         calculate D2E/DX2 analytically  !
 ! D14   D(17,3,4,5)            24.5115         calculate D2E/DX2 analytically  !
 ! D15   D(17,3,4,8)           -95.4923         calculate D2E/DX2 analytically  !
 ! D16   D(17,3,4,18)          144.0868         calculate D2E/DX2 analytically  !
 ! D17   D(3,4,5,6)            129.2775         calculate D2E/DX2 analytically  !
 ! D18   D(3,4,5,7)            -51.1291         calculate D2E/DX2 analytically  !
 ! D19   D(8,4,5,6)           -111.0615         calculate D2E/DX2 analytically  !
 ! D20   D(8,4,5,7)             68.5318         calculate D2E/DX2 analytically  !
 ! D21   D(18,4,5,6)            11.3623         calculate D2E/DX2 analytically  !
 ! D22   D(18,4,5,7)          -169.0443         calculate D2E/DX2 analytically  !
 ! D23   D(3,4,8,9)           -179.2007         calculate D2E/DX2 analytically  !
 ! D24   D(3,4,8,20)            60.0281         calculate D2E/DX2 analytically  !
 ! D25   D(3,4,8,21)           -56.5037         calculate D2E/DX2 analytically  !
 ! D26   D(5,4,8,9)             63.3907         calculate D2E/DX2 analytically  !
 ! D27   D(5,4,8,20)           -57.3805         calculate D2E/DX2 analytically  !
 ! D28   D(5,4,8,21)          -173.9123         calculate D2E/DX2 analytically  !
 ! D29   D(18,4,8,9)           -59.6599         calculate D2E/DX2 analytically  !
 ! D30   D(18,4,8,20)          179.5689         calculate D2E/DX2 analytically  !
 ! D31   D(18,4,8,21)           63.0371         calculate D2E/DX2 analytically  !
 ! D32   D(4,5,6,19)           178.8488         calculate D2E/DX2 analytically  !
 ! D33   D(7,5,6,19)            -0.7447         calculate D2E/DX2 analytically  !
 ! D34   D(4,8,9,10)          -102.8953         calculate D2E/DX2 analytically  !
 ! D35   D(4,8,9,13)            75.2209         calculate D2E/DX2 analytically  !
 ! D36   D(20,8,9,10)           17.7983         calculate D2E/DX2 analytically  !
 ! D37   D(20,8,9,13)         -164.0855         calculate D2E/DX2 analytically  !
 ! D38   D(21,8,9,10)          136.3359         calculate D2E/DX2 analytically  !
 ! D39   D(21,8,9,13)          -45.5479         calculate D2E/DX2 analytically  !
 ! D40   D(8,9,10,11)          178.2377         calculate D2E/DX2 analytically  !
 ! D41   D(8,9,10,22)           -0.7218         calculate D2E/DX2 analytically  !
 ! D42   D(13,9,10,11)          -0.1296         calculate D2E/DX2 analytically  !
 ! D43   D(13,9,10,22)        -179.0891         calculate D2E/DX2 analytically  !
 ! D44   D(8,9,13,12)         -178.5056         calculate D2E/DX2 analytically  !
 ! D45   D(8,9,13,24)            1.9218         calculate D2E/DX2 analytically  !
 ! D46   D(10,9,13,12)           0.0535         calculate D2E/DX2 analytically  !
 ! D47   D(10,9,13,24)        -179.5191         calculate D2E/DX2 analytically  !
 ! D48   D(9,10,11,12)           0.1564         calculate D2E/DX2 analytically  !
 ! D49   D(22,10,11,12)        179.1761         calculate D2E/DX2 analytically  !
 ! D50   D(10,11,12,13)         -0.1201         calculate D2E/DX2 analytically  !
 ! D51   D(10,11,12,23)        179.7237         calculate D2E/DX2 analytically  !
 ! D52   D(11,12,13,9)           0.0439         calculate D2E/DX2 analytically  !
 ! D53   D(11,12,13,24)        179.6132         calculate D2E/DX2 analytically  !
 ! D54   D(23,12,13,9)        -179.808          calculate D2E/DX2 analytically  !
 ! D55   D(23,12,13,24)         -0.2387         calculate D2E/DX2 analytically  !
 ! D56   D(2,14,15,16)        -177.7752         calculate D2E/DX2 analytically  !
 ! D57   D(2,14,15,27)          64.0166         calculate D2E/DX2 analytically  !
 ! D58   D(2,14,15,28)         -52.7432         calculate D2E/DX2 analytically  !
 ! D59   D(25,14,15,16)         59.1254         calculate D2E/DX2 analytically  !
 ! D60   D(25,14,15,27)        -59.0828         calculate D2E/DX2 analytically  !
 ! D61   D(25,14,15,28)       -175.8427         calculate D2E/DX2 analytically  !
 ! D62   D(26,14,15,16)        -57.3205         calculate D2E/DX2 analytically  !
 ! D63   D(26,14,15,27)       -175.5287         calculate D2E/DX2 analytically  !
 ! D64   D(26,14,15,28)         67.7115         calculate D2E/DX2 analytically  !
 ! D65   D(14,15,16,29)       -173.5509         calculate D2E/DX2 analytically  !
 ! D66   D(14,15,16,30)         70.3928         calculate D2E/DX2 analytically  !
 ! D67   D(27,15,16,29)        -54.5684         calculate D2E/DX2 analytically  !
 ! D68   D(27,15,16,30)       -170.6246         calculate D2E/DX2 analytically  !
 ! D69   D(28,15,16,29)         64.6492         calculate D2E/DX2 analytically  !
 ! D70   D(28,15,16,30)        -51.4071         calculate D2E/DX2 analytically  !
 --------------------------------------------------------------------------------
 Trust Radius=3.00D-01 FncErr=1.00D-07 GrdErr=1.00D-06
 Number of steps in this run=    160 maximum allowed number of steps=    180.
 GradGradGradGradGradGradGradGradGradGradGradGradGradGradGradGradGradGrad

                          Input orientation:                          
 ---------------------------------------------------------------------
 Center     Atomic      Atomic             Coordinates (Angstroms)
 Number     Number       Type             X           Y           Z
 ---------------------------------------------------------------------
      1          8           0       -1.509581   -0.245936   -1.120711
      2          6           0       -1.654408   -0.215845    0.092497
      3          7           0       -0.591603   -0.297270    0.934847
      4          6           0        0.763675   -0.425200    0.424293
      5          6           0        1.586691   -1.024454    1.541556
      6          8           0        2.312500   -2.095628    1.168200
      7          8           0        1.598497   -0.579631    2.662833
      8          6           0        1.313942    0.959980    0.025173
      9          6           0        2.700265    0.914070   -0.529073
     10          6           0        3.917795    1.225960    0.010771
     11          7           0        4.937944    0.980033   -0.892326
     12          6           0        4.339346    0.526565   -1.969614
     13          7           0        2.986410    0.466949   -1.801446
     14          6           0       -3.002685   -0.057933    0.773225
     15          6           0       -4.170954   -0.434851   -0.124179
     16          7           0       -5.422337   -0.199076    0.600835
     17          1           0       -0.710969   -0.230878    1.933447
     18          1           0        0.745517   -1.082571   -0.444126
     19          1           0        2.801724   -2.371659    1.955187
     20          1           0        1.314056    1.597504    0.907083
     21          1           0        0.622798    1.385906   -0.699814
     22          1           0        4.111603    1.599804    1.007935
     23          1           0        4.813744    0.231179   -2.888290
     24          1           0        2.311827    0.158989   -2.483687
     25          1           0       -3.023218   -0.652842    1.690023
     26          1           0       -3.114197    0.989396    1.079293
     27          1           0       -4.113228   -1.497344   -0.370668
     28          1           0       -4.085865    0.120445   -1.066461
     29          1           0       -6.205576   -0.543642    0.058721
     30          1           0       -5.573690    0.798119    0.705120
 ---------------------------------------------------------------------
                    Distance matrix (angstroms):
                    1          2          3          4          5
     1  O    0.000000
     2  C    1.222193   0.000000
     3  N    2.251807   1.358579   0.000000
     4  C    2.754427   2.449703   1.453895   0.000000
     5  C    4.157000   3.641201   2.375259   1.511534   0.000000
     6  O    4.823772   4.519633   3.423793   2.396369   1.346702
     7  O    4.907820   4.161773   2.803962   2.394125   1.206345
     8  C    3.277128   3.193463   2.457496   1.542989   2.512327
     9  C    4.406637   4.541612   3.800894   2.540262   3.047200
    10  C    5.736126   5.756295   4.848589   3.584104   3.583534
    11  N    6.567019   6.771936   5.962042   4.597030   4.601375
    12  C    5.960482   6.381894   5.781769   4.407048   4.723462
    13  N    4.602775   5.058698   4.568753   3.269617   3.919077
    14  C    2.419029   1.518610   2.428317   3.800278   4.752564
    15  C    2.848100   2.535333   3.735267   4.965026   6.022688
    16  N    4.274995   3.802101   4.843263   6.192661   7.119879
    17  H    3.156880   2.068671   1.007899   2.118935   2.462231
    18  H    2.498637   2.607454   2.075127   1.089320   2.157286
    19  H    5.706768   5.289070   4.105954   3.207177   1.860741
    20  H    3.934863   3.572613   2.687466   2.151124   2.711374
    21  H    2.717922   2.894655   2.641962   2.136251   3.429674
    22  H    6.287734   6.114041   5.071920   3.955995   3.680579
    23  H    6.583039   7.135960   6.641793   5.273244   5.622635
    24  H    4.077355   4.744286   4.508264   3.345803   4.257809
    25  H    3.218213   2.148649   2.570890   3.999307   4.627245
    26  H    2.990126   2.134796   2.835463   4.179473   5.134941
    27  H    2.984555   2.811149   3.942891   5.056248   6.030696
    28  H    2.602772   2.714453   4.048406   5.102756   6.347475
    29  H    4.850985   4.563082   5.687265   6.979838   7.946659
    30  H    4.576100   4.094411   5.106255   6.460462   7.435889
                    6          7          8          9         10
     6  O    0.000000
     7  O    2.245433   0.000000
     8  C    3.411798   3.067348   0.000000
     9  C    3.476978   3.692330   1.493716   0.000000
    10  C    3.866466   3.958881   2.617442   1.367876   0.000000
    11  N    4.538547   5.120900   3.738395   2.267931   1.384474
    12  C    4.563976   5.495042   3.649670   2.216282   2.142144
    13  N    3.979919   4.790764   2.525226   1.378670   2.174329
    14  C    5.706084   5.001366   4.497666   5.929959   7.079743
    15  C    6.816421   6.408975   5.661444   7.014070   8.258593
    16  N    7.984141   7.327262   6.859465   8.276016   9.466624
    17  H    3.633767   2.446889   3.026536   4.360210   5.219629
    18  H    2.466032   3.260938   2.171489   2.795502   3.949632
    19  H    0.966893   2.271538   4.127744   4.120420   4.239013
    20  H    3.834617   2.811313   1.088211   2.109787   2.778647
    21  H    4.297167   4.015310   1.088439   2.137206   3.374540
    22  H    4.113231   3.715417   3.033497   2.196474   1.082432
    23  H    5.303335   6.466080   4.611727   3.240222   3.193253
    24  H    4.291803   5.247958   2.816334   2.131091   3.152757
    25  H    5.551920   4.723555   4.917711   6.335445   7.384270
    26  H    6.242941   5.213341   4.551972   6.033281   7.116643
    27  H    6.634458   6.532084   5.970704   7.229364   8.488770
    28  H    7.130481   6.834450   5.572648   6.853480   8.151145
    29  H    8.729102   8.227165   7.668452   9.043474  10.276985
    30  H    8.413097   7.561157   6.923005   8.366302   9.526461
                   11         12         13         14         15
    11  N    0.000000
    12  C    1.313203   0.000000
    13  N    2.213197   1.364650   0.000000
    14  C    8.179549   7.859404   6.540160   0.000000
    15  C    9.250079   8.761002   7.406371   1.520609   0.000000
    16  N   10.533530  10.120485   8.770494   2.429888   1.465331
    17  H    6.431292   6.427542   5.301604   2.574488   4.030747
    18  H    4.693790   4.222801   3.043835   4.071958   4.969265
    19  H    4.889336   5.115471   4.712123   6.359366   7.529491
    20  H    4.092885   4.309835   3.378026   4.625218   5.939638
    21  H    4.338465   4.020397   2.764912   4.171168   5.160093
    22  H    2.162857   3.173249   3.231415   7.308644   8.603618
    23  H    2.135435   1.075301   2.139151   8.636368   9.423837
    24  H    3.178527   2.123727   1.007648   6.236872   6.924332
    25  H    8.527304   8.306100   7.039881   1.093095   2.157810
    26  H    8.290014   8.066309   6.766758   1.096818   2.143259
    27  H    9.398577   8.837356   7.504028   2.147953   1.092237
    28  H    9.066330   8.483207   7.118802   2.142322   1.097037
    29  H   11.287343  10.791426   9.432609   3.317369   2.045721
    30  H   10.633879  10.271136   8.925685   2.710632   2.043433
                   16         17         18         19         20
    16  N    0.000000
    17  H    4.896310   0.000000
    18  H    6.317826   2.915405   0.000000
    19  H    8.613337   4.113689   3.412688   0.000000
    20  H    6.978573   2.914984   3.054800   4.366455   0.000000
    21  H    6.383377   3.365559   2.484716   5.090780   1.762025
    22  H    9.710701   5.240722   4.542483   4.287842   2.799365
    23  H   10.822960   7.347456   4.924465   5.855106   5.340367
    24  H    8.334253   5.366598   2.855627   5.133009   3.816044
    25  H    2.673575   2.363008   4.352312   6.079030   4.948636
    26  H    2.639867   2.827393   4.638021   6.860175   4.473128
    27  H    2.084007   4.299796   4.876970   7.347829   6.377001
    28  H    2.160585   4.529106   5.017649   7.923372   5.935969
    29  H    1.012954   5.814045   6.990063   9.384545   7.864419
    30  H    1.013992   5.119929   6.692543   9.041998   6.936919
                   21         22         23         24         25
    21  H    0.000000
    22  H    3.890234   0.000000
    23  H    4.866914   4.188880   0.000000
    24  H    2.745969   4.184085   2.535449   0.000000
    25  H    4.812613   7.513011   9.119233   6.822143   0.000000
    26  H    4.157832   7.251887   8.897688   6.544168   1.754484
    27  H    5.554404   8.896107   9.434885   6.963449   2.479466
    28  H    4.889512   8.584294   9.084843   6.552899   3.053751
    29  H    7.136190  10.580148  11.432875   8.916484   3.577774
    30  H    6.380893   9.723132  11.006035   8.529851   3.095194
                   26         27         28         29         30
    26  H    0.000000
    27  H    3.047020   0.000000
    28  H    2.510672   1.761284   0.000000
    29  H    3.598388   2.339197   2.490024   0.000000
    30  H    2.495135   2.925649   2.410677   1.617849   0.000000
 Symmetry turned off by external request.
 Stoichiometry    C9H14N4O3
 Framework group  C1[X(C9H14N4O3)]
 Deg. of freedom    84
 Full point group                 C1      NOp   1
 Rotational constants (GHZ):      1.0600287      0.2293246      0.2040481
 Standard basis: 6-311G(d,p) (5D, 7F)
   372 basis functions,   624 primitive gaussians,   388 cartesian basis functions
    60 alpha electrons       60 beta electrons
       nuclear repulsion energy      1097.9016211535 Hartrees.
 NAtoms=   30 NActive=   30 NUniq=   30 SFac= 1.00D+00 NAtFMM=   60 NAOKFM=F Big=F
 Integral buffers will be    131072 words long.
 Raffenetti 2 integral format.
 Two-electron integral symmetry is turned off.
 Nuclear repulsion after empirical dispersion term =     1097.8491152285 Hartrees.
 One-electron integrals computed using PRISM.
 NBasis=   372 RedAO= T EigKep=  5.24D-04  NBF=   372
 NBsUse=   372 1.00D-06 EigRej= -1.00D+00 NBFU=   372
 ExpMin= 1.03D-01 ExpMax= 8.59D+03 ExpMxC= 1.30D+03 IAcc=3 IRadAn=         5 AccDes= 0.00D+00
 Harris functional with IExCor=  402 and IRadAn=       5 diagonalized for initial guess.
 HarFok:  IExCor=  402 AccDes= 0.00D+00 IRadAn=         5 IDoV= 1 UseB2=F ITyADJ=14
 ICtDFT=  3500011 ScaDFX=  1.000000  1.000000  1.000000  1.000000
 FoFCou: FMM=F IPFlag=           0 FMFlag=      100000 FMFlg1=           0
         NFxFlg=           0 DoJE=T BraDBF=F KetDBF=T FulRan=T
         wScrn=  0.000000 ICntrl=     500 IOpCl=  0 I1Cent=   200000004 NGrid=           0
         NMat0=    1 NMatS0=      1 NMatT0=    0 NMatD0=    1 NMtDS0=    0 NMtDT0=    0
 Symmetry not used in FoFCou.
 Requested convergence on RMS density matrix=1.00D-08 within 128 cycles.
 Requested convergence on MAX density matrix=1.00D-06.
 Requested convergence on             energy=1.00D-06.
 No special actions if energy rises.
 Integral accuracy reduced to 1.0D-05 until final iterations.
 Initial convergence to 1.0D-05 achieved.  Increase integral accuracy.
 SCF Done:  E(RB3LYP) =  -796.361603333     A.U. after   14 cycles
            NFock= 14  Conv=0.52D-08     -V/T= 2.0034
 DoSCS=F DFT=T ScalE2(SS,OS)=  1.000000  1.000000
 Range of M.O.s used for correlation:     1   372
 NBasis=   372 NAE=    60 NBE=    60 NFC=     0 NFV=     0
 NROrb=    372 NOA=    60 NOB=    60 NVA=   312 NVB=   312

 **** Warning!!: The largest alpha MO coefficient is  0.10315597D+02

 Symmetrizing basis deriv contribution to polar:
 IMax=3 JMax=2 DiffMx= 0.00D+00
 G2DrvN: will do    31 centers at a time, making    1 passes.
 Calling FoFCou, ICntrl=  3107 FMM=F I1Cent=   0 AccDes= 0.00D+00.
 End of G2Drv F.D. properties file   721 does not exist.
 End of G2Drv F.D. properties file   722 does not exist.
 End of G2Drv F.D. properties file   788 does not exist.
          IDoAtm=111111111111111111111111111111
          Differentiating once with respect to nuclear coordinates.
          There are    93 degrees of freedom in the 1st order CPHF.  IDoFFX=6 NUNeed=     0.
     87 vectors produced by pass  0 Test12= 2.01D-14 1.08D-09 XBig12= 1.60D-01 8.23D-02.
 AX will form    87 AO Fock derivatives at one time.
     87 vectors produced by pass  1 Test12= 2.01D-14 1.08D-09 XBig12= 4.36D-02 6.36D-02.
     87 vectors produced by pass  2 Test12= 2.01D-14 1.08D-09 XBig12= 2.99D-04 2.40D-03.
     87 vectors produced by pass  3 Test12= 2.01D-14 1.08D-09 XBig12= 1.52D-06 1.24D-04.
     87 vectors produced by pass  4 Test12= 2.01D-14 1.08D-09 XBig12= 3.40D-09 5.22D-06.
     79 vectors produced by pass  5 Test12= 2.01D-14 1.08D-09 XBig12= 3.94D-12 1.81D-07.
     25 vectors produced by pass  6 Test12= 2.01D-14 1.08D-09 XBig12= 4.27D-15 7.53D-09.
 InvSVY:  IOpt=1 It=  1 EMax= 6.11D-16
 Solved reduced A of dimension   539 with    93 vectors.
 End of Minotr F.D. properties file   721 does not exist.
 End of Minotr F.D. properties file   722 does not exist.
 End of Minotr F.D. properties file   788 does not exist.

 **********************************************************************

            Population analysis using the SCF density.

 **********************************************************************

 Alpha  occ. eigenvalues --  -19.18700 -19.13050 -19.09174 -14.36783 -14.34858
 Alpha  occ. eigenvalues --  -14.29061 -14.28717 -10.32408 -10.27978 -10.24124
 Alpha  occ. eigenvalues --  -10.22172 -10.20562 -10.19674 -10.19623 -10.18448
 Alpha  occ. eigenvalues --  -10.17909  -1.13405  -1.05184  -1.04381  -1.01810
 Alpha  occ. eigenvalues --   -0.94390  -0.88947  -0.87252  -0.81651  -0.77065
 Alpha  occ. eigenvalues --   -0.74300  -0.69270  -0.64972  -0.61870  -0.60925
 Alpha  occ. eigenvalues --   -0.60260  -0.59407  -0.54436  -0.53791  -0.51258
 Alpha  occ. eigenvalues --   -0.50049  -0.49740  -0.48980  -0.47742  -0.46333
 Alpha  occ. eigenvalues --   -0.45357  -0.44387  -0.43544  -0.43009  -0.42410
 Alpha  occ. eigenvalues --   -0.40987  -0.40621  -0.39699  -0.39345  -0.38192
 Alpha  occ. eigenvalues --   -0.37616  -0.35267  -0.34474  -0.30637  -0.28443
 Alpha  occ. eigenvalues --   -0.27660  -0.26996  -0.26798  -0.24289  -0.23011
 Alpha virt. eigenvalues --   -0.02180   0.01001   0.01710   0.03000   0.03309
 Alpha virt. eigenvalues --    0.03642   0.04483   0.05668   0.07366   0.07718
 Alpha virt. eigenvalues --    0.07993   0.09251   0.10537   0.11228   0.11386
 Alpha virt. eigenvalues --    0.12357   0.12822   0.14881   0.17332   0.17807
 Alpha virt. eigenvalues --    0.19481   0.20364   0.21292   0.21613   0.22283
 Alpha virt. eigenvalues --    0.24305   0.24978   0.25210   0.26813   0.27607
 Alpha virt. eigenvalues --    0.31189   0.31667   0.32374   0.33010   0.34771
 Alpha virt. eigenvalues --    0.35682   0.35799   0.36687   0.37142   0.37772
 Alpha virt. eigenvalues --    0.38681   0.39246   0.40694   0.41978   0.42774
 Alpha virt. eigenvalues --    0.43826   0.44561   0.45816   0.46877   0.47811
 Alpha virt. eigenvalues --    0.49448   0.50925   0.51696   0.52502   0.53392
 Alpha virt. eigenvalues --    0.54616   0.54855   0.55470   0.56202   0.56635
 Alpha virt. eigenvalues --    0.56849   0.57546   0.58192   0.59038   0.59318
 Alpha virt. eigenvalues --    0.60091   0.60590   0.62071   0.62524   0.63112
 Alpha virt. eigenvalues --    0.63495   0.64713   0.65936   0.66985   0.67721
 Alpha virt. eigenvalues --    0.69416   0.70083   0.70791   0.71401   0.71933
 Alpha virt. eigenvalues --    0.73016   0.74567   0.75518   0.75941   0.77042
 Alpha virt. eigenvalues --    0.77977   0.79262   0.80490   0.82014   0.83461
 Alpha virt. eigenvalues --    0.84174   0.86736   0.88646   0.91510   0.92196
 Alpha virt. eigenvalues --    0.93445   0.94530   0.97179   0.98582   0.98763
 Alpha virt. eigenvalues --    1.01290   1.01866   1.03888   1.05690   1.06954
 Alpha virt. eigenvalues --    1.09180   1.11679   1.12504   1.13091   1.15292
 Alpha virt. eigenvalues --    1.18638   1.19074   1.22024   1.23573   1.24290
 Alpha virt. eigenvalues --    1.25265   1.25478   1.29555   1.30335   1.31048
 Alpha virt. eigenvalues --    1.32916   1.34525   1.36498   1.37309   1.39344
 Alpha virt. eigenvalues --    1.41633   1.42716   1.43216   1.44292   1.47734
 Alpha virt. eigenvalues --    1.47989   1.48980   1.52083   1.52661   1.53572
 Alpha virt. eigenvalues --    1.54209   1.55342   1.56048   1.57221   1.59238
 Alpha virt. eigenvalues --    1.60217   1.61063   1.62409   1.63063   1.63656
 Alpha virt. eigenvalues --    1.64616   1.65994   1.66492   1.67321   1.67885
 Alpha virt. eigenvalues --    1.69502   1.70480   1.71442   1.73477   1.73660
 Alpha virt. eigenvalues --    1.75444   1.75448   1.76975   1.77910   1.79839
 Alpha virt. eigenvalues --    1.80417   1.81924   1.84084   1.84643   1.86085
 Alpha virt. eigenvalues --    1.87980   1.88626   1.91127   1.95030   1.95471
 Alpha virt. eigenvalues --    1.95679   1.98523   2.00725   2.01971   2.03191
 Alpha virt. eigenvalues --    2.04148   2.06259   2.07116   2.10928   2.11927
 Alpha virt. eigenvalues --    2.16267   2.16719   2.18946   2.20096   2.21029
 Alpha virt. eigenvalues --    2.23378   2.24145   2.25729   2.28060   2.28551
 Alpha virt. eigenvalues --    2.30781   2.34339   2.37233   2.40248   2.41954
 Alpha virt. eigenvalues --    2.43970   2.44158   2.44918   2.46165   2.47650
 Alpha virt. eigenvalues --    2.48909   2.49468   2.51859   2.52408   2.52711
 Alpha virt. eigenvalues --    2.54839   2.55163   2.56248   2.57418   2.58792
 Alpha virt. eigenvalues --    2.61603   2.62140   2.62961   2.64605   2.65447
 Alpha virt. eigenvalues --    2.68607   2.70236   2.71452   2.71927   2.72893
 Alpha virt. eigenvalues --    2.74219   2.76453   2.78007   2.78918   2.80267
 Alpha virt. eigenvalues --    2.81295   2.82562   2.83696   2.83957   2.86180
 Alpha virt. eigenvalues --    2.87094   2.88713   2.90628   2.91226   2.93081
 Alpha virt. eigenvalues --    2.94242   2.94826   2.96419   2.99118   3.02344
 Alpha virt. eigenvalues --    3.03172   3.05318   3.07675   3.10829   3.13405
 Alpha virt. eigenvalues --    3.13572   3.15075   3.22649   3.25535   3.28343
 Alpha virt. eigenvalues --    3.34104   3.34940   3.37037   3.38168   3.47056
 Alpha virt. eigenvalues --    3.47702   3.52546   3.55237   3.57216   3.58286
 Alpha virt. eigenvalues --    3.63440   3.65096   3.66662   3.71118   3.77107
 Alpha virt. eigenvalues --    3.77872   3.78190   3.79714   3.80166   3.82891
 Alpha virt. eigenvalues --    3.84821   3.85903   3.91027   4.00496   4.05790
 Alpha virt. eigenvalues --    4.09264   4.18991   4.27831   4.29889   4.41567
 Alpha virt. eigenvalues --    4.72195   4.75272   4.80154   4.81980   4.85036
 Alpha virt. eigenvalues --    4.90674   4.91911   4.93750   4.95480   5.02819
 Alpha virt. eigenvalues --    5.11577   5.23418   5.25118   5.54932   5.65153
 Alpha virt. eigenvalues --    5.74629  23.70637  23.74045  23.79564  23.80479
 Alpha virt. eigenvalues --   23.84393  23.87674  23.89985  23.92808  24.14200
 Alpha virt. eigenvalues --   35.51664  35.57736  35.59983  35.68248  49.82405
 Alpha virt. eigenvalues --   49.99650  50.01025
          Condensed to atoms (all electrons):
               1          2          3          4          5          6
     1  O    7.896277   0.629134  -0.103795   0.007530   0.000727   0.000002
     2  C    0.629134   4.535207   0.370449  -0.060617   0.008403  -0.000199
     3  N   -0.103795   0.370449   6.759788   0.227852  -0.025060   0.000601
     4  C    0.007530  -0.060617   0.227852   5.260526   0.248096  -0.082022
     5  C    0.000727   0.008403  -0.025060   0.248096   4.542357   0.360774
     6  O    0.000002  -0.000199   0.000601  -0.082022   0.360774   7.785283
     7  O   -0.000005  -0.000209  -0.005694  -0.096413   0.620410  -0.077884
     8  C   -0.005741  -0.004668  -0.050790   0.318164  -0.058412  -0.001647
     9  C   -0.000771   0.000014   0.007452  -0.079504  -0.005028   0.003270
    10  C   -0.000007  -0.000020  -0.000056  -0.007554   0.004542  -0.000356
    11  N    0.000000   0.000000   0.000000  -0.000253  -0.000017  -0.000050
    12  C   -0.000001   0.000001   0.000004   0.000453  -0.000084   0.000249
    13  N    0.000018   0.000005  -0.000011   0.002943  -0.000776  -0.000352
    14  C   -0.089843   0.264120  -0.083228   0.010233  -0.000110   0.000000
    15  C    0.010112  -0.042470   0.004102  -0.000444  -0.000001   0.000000
    16  N    0.000192   0.004815  -0.000017   0.000002   0.000000   0.000000
    17  H    0.003317  -0.024442   0.358699  -0.043529  -0.008094   0.001077
    18  H    0.018634  -0.009052  -0.032985   0.392696  -0.031271   0.009395
    19  H    0.000003   0.000044  -0.000592   0.018091  -0.034934   0.305348
    20  H   -0.000115  -0.000351   0.004800  -0.038649  -0.007377   0.000425
    21  H    0.011635   0.002169  -0.010314  -0.044263   0.007823  -0.000215
    22  H    0.000000   0.000000  -0.000018   0.000018   0.000566  -0.000060
    23  H    0.000000   0.000000   0.000000   0.000007   0.000001   0.000009
    24  H    0.000283   0.000021  -0.000077   0.000103   0.000086  -0.000048
    25  H    0.002537  -0.032629   0.004269   0.000364  -0.000029  -0.000001
    26  H    0.000711  -0.025640  -0.000996  -0.000718  -0.000008   0.000000
    27  H    0.002344  -0.003135   0.000035  -0.000037  -0.000002   0.000000
    28  H    0.013629   0.002070   0.001163   0.000056   0.000000   0.000000
    29  H    0.000034  -0.000742   0.000011  -0.000001   0.000000   0.000000
    30  H    0.000000  -0.000211  -0.000019  -0.000001   0.000000   0.000000
               7          8          9         10         11         12
     1  O   -0.000005  -0.005741  -0.000771  -0.000007   0.000000  -0.000001
     2  C   -0.000209  -0.004668   0.000014  -0.000020   0.000000   0.000001
     3  N   -0.005694  -0.050790   0.007452  -0.000056   0.000000   0.000004
     4  C   -0.096413   0.318164  -0.079504  -0.007554  -0.000253   0.000453
     5  C    0.620410  -0.058412  -0.005028   0.004542  -0.000017  -0.000084
     6  O   -0.077884  -0.001647   0.003270  -0.000356  -0.000050   0.000249
     7  O    7.858324   0.005974  -0.004212   0.000665   0.000004  -0.000003
     8  C    0.005974   4.977014   0.284864  -0.029952   0.007911   0.004646
     9  C   -0.004212   0.284864   5.167558   0.562420  -0.093291  -0.120824
    10  C    0.000665  -0.029952   0.562420   4.845386   0.499279  -0.177250
    11  N    0.000004   0.007911  -0.093291   0.499279   6.433939   0.580322
    12  C   -0.000003   0.004646  -0.120824  -0.177250   0.580322   4.740804
    13  N    0.000001  -0.051485   0.372111  -0.074471  -0.086630   0.419262
    14  C   -0.000084  -0.001458  -0.000016  -0.000001   0.000000   0.000000
    15  C    0.000000   0.000015   0.000001   0.000000   0.000000   0.000000
    16  N    0.000000   0.000000   0.000000   0.000000   0.000000   0.000000
    17  H    0.021211   0.001740  -0.000150   0.000005   0.000000   0.000000
    18  H    0.004120  -0.038233  -0.003291  -0.000356   0.000032   0.000000
    19  H    0.009345  -0.001487   0.000863   0.000464  -0.000011  -0.000049
    20  H    0.009660   0.399204  -0.035946  -0.003091   0.000337  -0.000243
    21  H   -0.000175   0.409010  -0.028390   0.001964  -0.000305  -0.000013
    22  H    0.000524   0.000048  -0.049957   0.422009  -0.024665   0.008023
    23  H    0.000000  -0.000384   0.004429   0.006338  -0.023065   0.414014
    24  H   -0.000004   0.002838  -0.035945   0.007136   0.006733  -0.023020
    25  H   -0.000075   0.000076   0.000002   0.000000   0.000000   0.000000
    26  H   -0.000006   0.000254  -0.000009   0.000000   0.000000   0.000000
    27  H    0.000000   0.000005   0.000000   0.000000   0.000000   0.000000
    28  H    0.000000   0.000002   0.000001   0.000000   0.000000   0.000000
    29  H    0.000000   0.000000   0.000000   0.000000   0.000000   0.000000
    30  H    0.000000   0.000000   0.000000   0.000000   0.000000   0.000000
              13         14         15         16         17         18
     1  O    0.000018  -0.089843   0.010112   0.000192   0.003317   0.018634
     2  C    0.000005   0.264120  -0.042470   0.004815  -0.024442  -0.009052
     3  N   -0.000011  -0.083228   0.004102  -0.000017   0.358699  -0.032985
     4  C    0.002943   0.010233  -0.000444   0.000002  -0.043529   0.392696
     5  C   -0.000776  -0.000110  -0.000001   0.000000  -0.008094  -0.031271
     6  O   -0.000352   0.000000   0.000000   0.000000   0.001077   0.009395
     7  O    0.000001  -0.000084   0.000000   0.000000   0.021211   0.004120
     8  C   -0.051485  -0.001458   0.000015   0.000000   0.001740  -0.038233
     9  C    0.372111  -0.000016   0.000001   0.000000  -0.000150  -0.003291
    10  C   -0.074471  -0.000001   0.000000   0.000000   0.000005  -0.000356
    11  N   -0.086630   0.000000   0.000000   0.000000   0.000000   0.000032
    12  C    0.419262   0.000000   0.000000   0.000000   0.000000   0.000000
    13  N    6.459420   0.000000   0.000000   0.000000  -0.000005   0.004398
    14  C    0.000000   5.222133   0.320187  -0.056965  -0.000014   0.002020
    15  C    0.000000   0.320187   4.812425   0.326521  -0.000086   0.000025
    16  N    0.000000  -0.056965   0.326521   6.519247  -0.000065   0.000000
    17  H   -0.000005  -0.000014  -0.000086  -0.000065   0.443520   0.005627
    18  H    0.004398   0.002020   0.000025   0.000000   0.005627   0.519083
    19  H    0.000015   0.000001   0.000000   0.000000  -0.000394  -0.001222
    20  H    0.004033   0.000031   0.000005   0.000000   0.003206   0.008214
    21  H   -0.002231   0.000715  -0.000032   0.000000  -0.000911  -0.006433
    22  H    0.004297   0.000000   0.000000   0.000000  -0.000007  -0.000022
    23  H   -0.037582   0.000000   0.000000   0.000000   0.000000   0.000012
    24  H    0.351715   0.000003   0.000000   0.000000   0.000005   0.000953
    25  H    0.000000   0.378525  -0.033869   0.012887   0.000620  -0.000345
    26  H    0.000000   0.387868  -0.031482  -0.003874   0.000316  -0.000083
    27  H    0.000000  -0.029639   0.400091  -0.031872   0.000002  -0.000016
    28  H    0.000000  -0.060648   0.418087  -0.041115  -0.000116  -0.000050
    29  H    0.000000   0.010322  -0.042820   0.368134   0.000003   0.000000
    30  H    0.000000  -0.006802  -0.046991   0.364446   0.000011   0.000000
              19         20         21         22         23         24
     1  O    0.000003  -0.000115   0.011635   0.000000   0.000000   0.000283
     2  C    0.000044  -0.000351   0.002169   0.000000   0.000000   0.000021
     3  N   -0.000592   0.004800  -0.010314  -0.000018   0.000000  -0.000077
     4  C    0.018091  -0.038649  -0.044263   0.000018   0.000007   0.000103
     5  C   -0.034934  -0.007377   0.007823   0.000566   0.000001   0.000086
     6  O    0.305348   0.000425  -0.000215  -0.000060   0.000009  -0.000048
     7  O    0.009345   0.009660  -0.000175   0.000524   0.000000  -0.000004
     8  C   -0.001487   0.399204   0.409010   0.000048  -0.000384   0.002838
     9  C    0.000863  -0.035946  -0.028390  -0.049957   0.004429  -0.035945
    10  C    0.000464  -0.003091   0.001964   0.422009   0.006338   0.007136
    11  N   -0.000011   0.000337  -0.000305  -0.024665  -0.023065   0.006733
    12  C   -0.000049  -0.000243  -0.000013   0.008023   0.414014  -0.023020
    13  N    0.000015   0.004033  -0.002231   0.004297  -0.037582   0.351715
    14  C    0.000001   0.000031   0.000715   0.000000   0.000000   0.000003
    15  C    0.000000   0.000005  -0.000032   0.000000   0.000000   0.000000
    16  N    0.000000   0.000000   0.000000   0.000000   0.000000   0.000000
    17  H   -0.000394   0.003206  -0.000911  -0.000007   0.000000   0.000005
    18  H   -0.001222   0.008214  -0.006433  -0.000022   0.000012   0.000953
    19  H    0.448497  -0.000123   0.000061   0.000057   0.000001   0.000006
    20  H   -0.000123   0.541330  -0.021567   0.001383   0.000016  -0.000032
    21  H    0.000061  -0.021567   0.528042   0.000081  -0.000012   0.001862
    22  H    0.000057   0.001383   0.000081   0.538624  -0.000357  -0.000329
    23  H    0.000001   0.000016  -0.000012  -0.000357   0.529721  -0.002093
    24  H    0.000006  -0.000032   0.001862  -0.000329  -0.002093   0.456101
    25  H    0.000000  -0.000045   0.000010   0.000000   0.000000   0.000000
    26  H    0.000000  -0.000028  -0.000164   0.000000   0.000000   0.000000
    27  H    0.000000   0.000000  -0.000006   0.000000   0.000000   0.000000
    28  H    0.000000  -0.000002   0.000003   0.000000   0.000000   0.000000
    29  H    0.000000   0.000000   0.000000   0.000000   0.000000   0.000000
    30  H    0.000000   0.000000   0.000000   0.000000   0.000000   0.000000
              25         26         27         28         29         30
     1  O    0.002537   0.000711   0.002344   0.013629   0.000034   0.000000
     2  C   -0.032629  -0.025640  -0.003135   0.002070  -0.000742  -0.000211
     3  N    0.004269  -0.000996   0.000035   0.001163   0.000011  -0.000019
     4  C    0.000364  -0.000718  -0.000037   0.000056  -0.000001  -0.000001
     5  C   -0.000029  -0.000008  -0.000002   0.000000   0.000000   0.000000
     6  O   -0.000001   0.000000   0.000000   0.000000   0.000000   0.000000
     7  O   -0.000075  -0.000006   0.000000   0.000000   0.000000   0.000000
     8  C    0.000076   0.000254   0.000005   0.000002   0.000000   0.000000
     9  C    0.000002  -0.000009   0.000000   0.000001   0.000000   0.000000
    10  C    0.000000   0.000000   0.000000   0.000000   0.000000   0.000000
    11  N    0.000000   0.000000   0.000000   0.000000   0.000000   0.000000
    12  C    0.000000   0.000000   0.000000   0.000000   0.000000   0.000000
    13  N    0.000000   0.000000   0.000000   0.000000   0.000000   0.000000
    14  C    0.378525   0.387868  -0.029639  -0.060648   0.010322  -0.006802
    15  C   -0.033869  -0.031482   0.400091   0.418087  -0.042820  -0.046991
    16  N    0.012887  -0.003874  -0.031872  -0.041115   0.368134   0.364446
    17  H    0.000620   0.000316   0.000002  -0.000116   0.000003   0.000011
    18  H   -0.000345  -0.000083  -0.000016  -0.000050   0.000000   0.000000
    19  H    0.000000   0.000000   0.000000   0.000000   0.000000   0.000000
    20  H   -0.000045  -0.000028   0.000000  -0.000002   0.000000   0.000000
    21  H    0.000010  -0.000164  -0.000006   0.000003   0.000000   0.000000
    22  H    0.000000   0.000000   0.000000   0.000000   0.000000   0.000000
    23  H    0.000000   0.000000   0.000000   0.000000   0.000000   0.000000
    24  H    0.000000   0.000000   0.000000   0.000000   0.000000   0.000000
    25  H    0.570440  -0.030012  -0.010976   0.011533  -0.000265  -0.002049
    26  H   -0.030012   0.567180   0.008876  -0.008409  -0.000268   0.006556
    27  H   -0.010976   0.008876   0.587835  -0.040226  -0.009752   0.010466
    28  H    0.011533  -0.008409  -0.040226   0.599986  -0.001407  -0.008483
    29  H   -0.000265  -0.000268  -0.009752  -0.001407   0.525778  -0.039815
    30  H   -0.002049   0.006556   0.010466  -0.008483  -0.039815   0.540403
 Mulliken charges:
               1
     1  O   -0.396843
     2  C    0.387936
     3  N   -0.425574
     4  C   -0.033129
     5  C    0.377416
     6  O   -0.303601
     7  O   -0.345475
     8  C   -0.167507
     9  C    0.054350
    10  C   -0.057094
    11  N   -0.300271
    12  C    0.153710
    13  N   -0.364675
    14  C   -0.267351
    15  C   -0.093373
    16  N   -0.462334
    17  H    0.238453
    18  H    0.158150
    19  H    0.256018
    20  H    0.134924
    21  H    0.151658
    22  H    0.099786
    23  H    0.108945
    24  H    0.233703
    25  H    0.129034
    26  H    0.129937
    27  H    0.116006
    28  H    0.113925
    29  H    0.190788
    30  H    0.182487
 Sum of Mulliken charges =   0.00000
 Mulliken charges with hydrogens summed into heavy atoms:
               1
     1  O   -0.396843
     2  C    0.387936
     3  N   -0.187121
     4  C    0.125021
     5  C    0.377416
     6  O   -0.047583
     7  O   -0.345475
     8  C    0.119075
     9  C    0.054350
    10  C    0.042692
    11  N   -0.300271
    12  C    0.262656
    13  N   -0.130972
    14  C   -0.008380
    15  C    0.136558
    16  N   -0.089060
 APT charges:
               1
     1  O   -0.289461
     2  C    0.207129
     3  N   -0.658252
     4  C   -0.194460
     5  C   -0.529535
     6  O   -0.643202
     7  O    0.247024
     8  C   -0.631413
     9  C   -0.498326
    10  C   -0.486485
    11  N    0.759409
    12  C   -0.873922
    13  N   -0.536507
    14  C   -0.660884
    15  C   -0.440618
    16  N   -1.591716
    17  H    0.575496
    18  H    0.275263
    19  H    0.958381
    20  H    0.366165
    21  H    0.232043
    22  H    0.486240
    23  H    0.928289
    24  H    0.226036
    25  H    0.354787
    26  H    0.359255
    27  H    0.314993
    28  H    0.240022
    29  H    1.030001
    30  H    0.474246
 Sum of APT charges =   0.00000
 APT charges with hydrogens summed into heavy atoms:
               1
     1  O   -0.289461
     2  C    0.207129
     3  N   -0.082757
     4  C    0.080803
     5  C   -0.529535
     6  O    0.315179
     7  O    0.247024
     8  C   -0.033204
     9  C   -0.498326
    10  C   -0.000245
    11  N    0.759409
    12  C    0.054368
    13  N   -0.310471
    14  C    0.053158
    15  C    0.114398
    16  N   -0.087468
 Electronic spatial extent (au):  <R**2>=           5354.9647
 Charge=              0.0000 electrons
 Dipole moment (field-independent basis, Debye):
    X=             -3.0197    Y=             -0.8598    Z=             -0.4682  Tot=              3.1745
 Quadrupole moment (field-independent basis, Debye-Ang):
   XX=           -107.1570   YY=            -91.5589   ZZ=            -91.6777
   XY=            -13.0223   XZ=             -0.1143   YZ=             -0.5137
 Traceless Quadrupole moment (field-independent basis, Debye-Ang):
   XX=            -10.3591   YY=              5.2390   ZZ=              5.1201
   XY=            -13.0223   XZ=             -0.1143   YZ=             -0.5137
 Octapole moment (field-independent basis, Debye-Ang**2):
  XXX=           -332.3487  YYY=             -5.5347  ZZZ=            -70.7941  XYY=            -53.9550
  XXY=            -26.9016  XXZ=            -31.2631  XZZ=             -6.8638  YZZ=             -4.8363
  YYZ=              7.0638  XYZ=             -8.6881
 Hexadecapole moment (field-independent basis, Debye-Ang**3):
 XXXX=          -6019.6733 YYYY=           -506.0925 ZZZZ=           -908.9693 XXXY=           -569.4757
 XXXZ=            539.4468 YYYX=           -281.4726 YYYZ=            126.8499 ZZZX=            152.1127
 ZZZY=            136.1313 XXYY=          -1000.5876 XXZZ=          -1019.4798 YYZZ=           -212.5286
 XXYZ=            103.5065 YYXZ=            147.4004 ZZXY=           -117.9056
 N-N= 1.097849115228D+03 E-N=-4.057537151913D+03  KE= 7.936507034457D+02
  Exact polarizability:   0.000   0.000   0.000   0.000   0.000   0.000
 Approx polarizability: 208.722  -1.657 147.790   1.620  20.913 211.605
 Calling FoFJK, ICntrl=    100147 FMM=F ISym2X=0 I1Cent= 0 IOpClX= 0 NMat=1 NMatS=1 NMatT=0.
 -------------------------------------------------------------------
 Center     Atomic                   Forces (Hartrees/Bohr)
 Number     Number              X              Y              Z
 -------------------------------------------------------------------
      1        8          -0.000883914   -0.000981028   -0.002300497
      2        6          -0.001511410    0.003302686   -0.002512597
      3        7           0.000366942   -0.003954915    0.001627400
      4        6          -0.005452167    0.001563727    0.000288317
      5        6           0.007142331   -0.002979725    0.001137972
      6        8          -0.004796661    0.004970596   -0.002294457
      7        8          -0.001662377   -0.000470662    0.000820810
      8        6           0.009206008    0.000147770   -0.002107620
      9        6          -0.006274711    0.000934440    0.001601404
     10        6           0.006864868   -0.000395175    0.002299095
     11        7          -0.002954281    0.000631894    0.001733200
     12        6           0.001111021    0.001153585    0.003321402
     13        7          -0.002317142   -0.002348834   -0.003967525
     14        6           0.002343358   -0.000856096    0.001229034
     15        6          -0.001342700    0.001060128   -0.001021375
     16        7          -0.001263918   -0.001746748    0.001225828
     17        1           0.000047702    0.000891846    0.000940346
     18        1           0.000372155   -0.000488484    0.000737634
     19        1           0.003074586   -0.001512931    0.001579614
     20        1          -0.000962939    0.000725374    0.002072867
     21        1          -0.002546296    0.000416364   -0.001283548
     22        1           0.000502429   -0.000183654   -0.002532750
     23        1           0.002015266   -0.000498995   -0.001963193
     24        1          -0.000665871    0.000143490   -0.000155368
     25        1          -0.001731233    0.000162946    0.000647478
     26        1           0.001578628    0.000676142    0.000187553
     27        1           0.000334897   -0.000443679   -0.000505039
     28        1           0.000922146   -0.000988824   -0.000581559
     29        1          -0.001358731   -0.001033521   -0.000845063
     30        1          -0.000157987    0.002102281    0.000620639
 -------------------------------------------------------------------
 Cartesian Forces:  Max     0.009206008 RMS     0.002389126
 FormGI is forming the generalized inverse of G from B-inverse, IUseBI=4.
 GSVD:  received Info=                   1 from GESDD.

 GradGradGradGradGradGradGradGradGradGradGradGradGradGradGradGradGradGrad
 Berny optimization.
 Internal  Forces:  Max     0.004866720 RMS     0.001483334
 Search for a local minimum.
 Step number   1 out of a maximum of  160
 All quantities printed in internal units (Hartrees-Bohrs-Radians)
 Mixed Optimization -- RFO/linear search
 Second derivative matrix not updated -- analytic derivatives used.
 ITU=  0
     Eigenvalues ---   -0.00057   0.00019   0.00172   0.00191   0.00233
     Eigenvalues ---    0.00251   0.00288   0.00446   0.00535   0.00879
     Eigenvalues ---    0.01806   0.01978   0.02151   0.02459   0.03217
     Eigenvalues ---    0.03348   0.03706   0.04110   0.04222   0.04328
     Eigenvalues ---    0.04433   0.04571   0.04586   0.05113   0.05180
     Eigenvalues ---    0.05260   0.05681   0.06212   0.07668   0.07822
     Eigenvalues ---    0.08233   0.10053   0.10650   0.10672   0.10838
     Eigenvalues ---    0.11495   0.11740   0.13454   0.14493   0.15013
     Eigenvalues ---    0.15033   0.15694   0.16024   0.16908   0.18356
     Eigenvalues ---    0.18646   0.19439   0.21017   0.21553   0.22870
     Eigenvalues ---    0.23169   0.24364   0.24530   0.24960   0.26829
     Eigenvalues ---    0.29886   0.31582   0.31990   0.32498   0.32997
     Eigenvalues ---    0.33441   0.33498   0.33707   0.34168   0.34238
     Eigenvalues ---    0.34861   0.34948   0.36290   0.37067   0.37556
     Eigenvalues ---    0.37656   0.40799   0.40906   0.44771   0.44784
     Eigenvalues ---    0.45245   0.45559   0.47131   0.47211   0.47804
     Eigenvalues ---    0.52109   0.58387   0.81383   0.87455
 RFO step:  Lambda=-3.20888010D-03 EMin=-5.71434171D-04
 Linear search not attempted -- first point.
 Iteration  1 RMS(Cart)=  0.13320424 RMS(Int)=  0.02688641
 Iteration  2 RMS(Cart)=  0.06725861 RMS(Int)=  0.00196574
 Iteration  3 RMS(Cart)=  0.00285308 RMS(Int)=  0.00015381
 Iteration  4 RMS(Cart)=  0.00000341 RMS(Int)=  0.00015379
 Iteration  5 RMS(Cart)=  0.00000000 RMS(Int)=  0.00015379
 Variable       Old X    -DE/DX   Delta X   Delta X   Delta X     New X
                                 (Linear)    (Quad)   (Total)
    R1        2.30961   0.00220   0.00000   0.00295   0.00295   2.31256
    R2        2.56734   0.00487   0.00000   0.00742   0.00742   2.57476
    R3        2.86976   0.00092   0.00000   0.00041   0.00041   2.87016
    R4        2.74746   0.00187   0.00000  -0.01144  -0.01144   2.73602
    R5        1.90465   0.00098   0.00000   0.00270   0.00270   1.90736
    R6        2.85639   0.00296   0.00000   0.00770   0.00770   2.86409
    R7        2.91583   0.00232   0.00000   0.02275   0.02275   2.93857
    R8        2.05852  -0.00030   0.00000  -0.00079  -0.00079   2.05773
    R9        2.54490  -0.00348   0.00000  -0.01172  -0.01172   2.53318
   R10        2.27966   0.00057   0.00000   0.00024   0.00024   2.27990
   R11        1.82716   0.00327   0.00000   0.00585   0.00585   1.83301
   R12        2.82271  -0.00170   0.00000  -0.01096  -0.01096   2.81175
   R13        2.05642   0.00210   0.00000   0.00674   0.00674   2.06316
   R14        2.05685   0.00263   0.00000   0.00858   0.00858   2.06543
   R15        2.58491   0.00483   0.00000   0.00984   0.00987   2.59478
   R16        2.60531   0.00354   0.00000   0.00860   0.00862   2.61393
   R17        2.61628  -0.00367   0.00000  -0.01198  -0.01198   2.60429
   R18        2.04550  -0.00231   0.00000  -0.00599  -0.00599   2.03951
   R19        2.48159  -0.00047   0.00000  -0.00218  -0.00221   2.47938
   R20        2.57882   0.00292   0.00000   0.00587   0.00586   2.58467
   R21        2.03202   0.00270   0.00000   0.00695   0.00695   2.03898
   R22        1.90418   0.00051   0.00000   0.00096   0.00096   1.90513
   R23        2.87353   0.00311   0.00000   0.01395   0.01395   2.88749
   R24        2.06565   0.00049   0.00000  -0.00068  -0.00068   2.06497
   R25        2.07269   0.00054   0.00000   0.00209   0.00209   2.07478
   R26        2.76907   0.00276   0.00000   0.00423   0.00423   2.77331
   R27        2.06403   0.00056   0.00000   0.00412   0.00412   2.06815
   R28        2.07310   0.00007   0.00000  -0.00142  -0.00142   2.07167
   R29        1.91421   0.00185   0.00000   0.00377   0.00377   1.91798
   R30        1.91617   0.00215   0.00000   0.00462   0.00462   1.92079
    A1        2.11916   0.00135   0.00000   0.00398   0.00398   2.12314
    A2        2.15643  -0.00110   0.00000  -0.00782  -0.00783   2.14861
    A3        2.00738  -0.00024   0.00000   0.00392   0.00392   2.01130
    A4        2.11388  -0.00066   0.00000  -0.00466  -0.00508   2.10880
    A5        2.11496   0.00043   0.00000   0.00703   0.00660   2.12157
    A6        2.05343   0.00021   0.00000  -0.00450  -0.00491   2.04852
    A7        1.85759   0.00279   0.00000   0.03441   0.03460   1.89219
    A8        1.92226   0.00241   0.00000   0.02340   0.02360   1.94586
    A9        1.89390  -0.00156   0.00000   0.00243   0.00269   1.89659
   A10        1.93149  -0.00342   0.00000  -0.02432  -0.02510   1.90639
   A11        1.93809  -0.00029   0.00000  -0.01588  -0.01656   1.92154
   A12        1.91929   0.00022   0.00000  -0.01745  -0.01798   1.90131
   A13        1.98654  -0.00421   0.00000  -0.02382  -0.02394   1.96260
   A14        2.14859   0.00152   0.00000   0.00811   0.00799   2.15658
   A15        2.14803   0.00269   0.00000   0.01552   0.01540   2.16343
   A16        1.84847   0.00290   0.00000   0.02407   0.02407   1.87254
   A17        1.98163  -0.00193   0.00000  -0.00750  -0.00750   1.97413
   A18        1.89266  -0.00019   0.00000  -0.00207  -0.00205   1.89061
   A19        1.87249  -0.00027   0.00000  -0.01405  -0.01406   1.85843
   A20        1.89507   0.00150   0.00000   0.01735   0.01732   1.91239
   A21        1.93287   0.00111   0.00000   0.00895   0.00883   1.94170
   A22        1.88664  -0.00021   0.00000  -0.00308  -0.00322   1.88342
   A23        2.30858   0.00089   0.00000   0.00722   0.00702   2.31559
   A24        2.14723  -0.00021   0.00000  -0.00597  -0.00615   2.14109
   A25        1.82703  -0.00068   0.00000  -0.00205  -0.00210   1.82492
   A26        1.93684   0.00011   0.00000   0.00048   0.00049   1.93733
   A27        2.21641   0.00096   0.00000   0.00728   0.00720   2.22361
   A28        2.12979  -0.00107   0.00000  -0.00747  -0.00755   2.12225
   A29        1.83442   0.00171   0.00000   0.00531   0.00531   1.83972
   A30        1.94541   0.00074   0.00000   0.00072   0.00071   1.94612
   A31        2.20759  -0.00131   0.00000  -0.00708  -0.00708   2.20051
   A32        2.13019   0.00057   0.00000   0.00635   0.00635   2.13654
   A33        1.88108  -0.00189   0.00000  -0.00445  -0.00441   1.87668
   A34        2.19571   0.00055   0.00000  -0.00240  -0.00243   2.19328
   A35        2.20636   0.00134   0.00000   0.00682   0.00680   2.21316
   A36        1.97338  -0.00099   0.00000  -0.01296  -0.01308   1.96030
   A37        1.91351   0.00187   0.00000   0.03495   0.03506   1.94857
   A38        1.89088  -0.00118   0.00000  -0.02472  -0.02476   1.86612
   A39        1.92372  -0.00113   0.00000  -0.00783  -0.00780   1.91592
   A40        1.89997   0.00177   0.00000   0.00638   0.00607   1.90604
   A41        1.85848  -0.00031   0.00000   0.00462   0.00480   1.86328
   A42        1.90100   0.00184   0.00000   0.01182   0.01178   1.91278
   A43        1.91102  -0.00068   0.00000  -0.01038  -0.01039   1.90063
   A44        1.89848  -0.00082   0.00000  -0.00541  -0.00558   1.89290
   A45        1.88948  -0.00067   0.00000  -0.00660  -0.00653   1.88294
   A46        1.99300   0.00044   0.00000   0.01382   0.01379   2.00680
   A47        1.86968  -0.00020   0.00000  -0.00453  -0.00457   1.86511
   A48        1.91856  -0.00001   0.00000  -0.00117  -0.00118   1.91739
   A49        1.91409   0.00022   0.00000   0.00065   0.00065   1.91474
   A50        1.84850   0.00022   0.00000   0.00489   0.00489   1.85339
    D1       -0.00115   0.00102   0.00000   0.04964   0.04975   0.04860
    D2        3.09351   0.00040   0.00000  -0.00539  -0.00548   3.08803
    D3       -3.12132   0.00050   0.00000   0.04591   0.04600  -3.07531
    D4       -0.02666  -0.00012   0.00000  -0.00912  -0.00923  -0.03589
    D5        0.36053   0.00032   0.00000   0.30993   0.31008   0.67061
    D6        2.51466  -0.00046   0.00000   0.31664   0.31671   2.83138
    D7       -1.74698  -0.00046   0.00000   0.32730   0.32710  -1.41988
    D8       -2.80300   0.00088   0.00000   0.31391   0.31405  -2.48895
    D9       -0.64886   0.00011   0.00000   0.32063   0.32069  -0.32818
   D10        1.37268   0.00010   0.00000   0.33128   0.33107   1.70375
   D11       -2.75912  -0.00051   0.00000  -0.01028  -0.00995  -2.76907
   D12        1.42960   0.00061   0.00000  -0.01445  -0.01464   1.41496
   D13       -0.67214  -0.00014   0.00000  -0.00872  -0.00862  -0.68076
   D14        0.42781   0.00008   0.00000   0.04257   0.04274   0.47054
   D15       -1.66666   0.00120   0.00000   0.03840   0.03804  -1.62861
   D16        2.51479   0.00045   0.00000   0.04412   0.04406   2.55885
   D17        2.25632  -0.00011   0.00000   0.21632   0.21637   2.47269
   D18       -0.89237  -0.00019   0.00000   0.18821   0.18829  -0.70408
   D19       -1.93839   0.00257   0.00000   0.25173   0.25145  -1.68694
   D20        1.19611   0.00249   0.00000   0.22362   0.22338   1.41948
   D21        0.19831   0.00027   0.00000   0.20159   0.20177   0.40008
   D22       -2.95038   0.00019   0.00000   0.17348   0.17369  -2.77669
   D23       -3.12764   0.00137   0.00000   0.03003   0.02995  -3.09769
   D24        1.04769   0.00085   0.00000   0.01434   0.01430   1.06199
   D25       -0.98618   0.00133   0.00000   0.02644   0.02640  -0.95978
   D26        1.10638  -0.00145   0.00000  -0.01187  -0.01166   1.09471
   D27       -1.00148  -0.00198   0.00000  -0.02756  -0.02731  -1.02879
   D28       -3.03534  -0.00150   0.00000  -0.01547  -0.01522  -3.05056
   D29       -1.04126   0.00109   0.00000   0.03672   0.03651  -1.00475
   D30        3.13407   0.00057   0.00000   0.02103   0.02086  -3.12826
   D31        1.10021   0.00105   0.00000   0.03312   0.03295   1.13316
   D32        3.12150  -0.00092   0.00000  -0.07638  -0.07643   3.04507
   D33       -0.01300  -0.00084   0.00000  -0.04824  -0.04819  -0.06119
   D34       -1.79586   0.00004   0.00000  -0.00686  -0.00687  -1.80274
   D35        1.31285  -0.00033   0.00000  -0.04440  -0.04441   1.26844
   D36        0.31064  -0.00039   0.00000  -0.00211  -0.00216   0.30848
   D37       -2.86383  -0.00076   0.00000  -0.03964  -0.03970  -2.90353
   D38        2.37951   0.00093   0.00000   0.01005   0.01013   2.38964
   D39       -0.79496   0.00056   0.00000  -0.02748  -0.02741  -0.82237
   D40        3.11083  -0.00012   0.00000  -0.02760  -0.02773   3.08310
   D41       -0.01260  -0.00057   0.00000  -0.04606  -0.04619  -0.05879
   D42       -0.00226   0.00020   0.00000   0.00502   0.00500   0.00274
   D43       -3.12570  -0.00025   0.00000  -0.01344  -0.01346  -3.13915
   D44       -3.11551   0.00014   0.00000   0.02521   0.02503  -3.09048
   D45        0.03354   0.00025   0.00000   0.02958   0.02944   0.06298
   D46        0.00093  -0.00012   0.00000  -0.00332  -0.00330  -0.00236
   D47       -3.13320  -0.00001   0.00000   0.00106   0.00111  -3.13209
   D48        0.00273  -0.00020   0.00000  -0.00477  -0.00476  -0.00203
   D49        3.12721   0.00024   0.00000   0.01279   0.01262   3.13984
   D50       -0.00210   0.00012   0.00000   0.00255   0.00255   0.00045
   D51        3.13677   0.00001   0.00000  -0.00074  -0.00074   3.13603
   D52        0.00077  -0.00001   0.00000   0.00047   0.00047   0.00124
   D53        3.13484  -0.00012   0.00000  -0.00399  -0.00405   3.13079
   D54       -3.13824   0.00010   0.00000   0.00361   0.00365  -3.13460
   D55       -0.00417  -0.00002   0.00000  -0.00085  -0.00088  -0.00505
   D56       -3.10276   0.00005   0.00000   0.02345   0.02346  -3.07930
   D57        1.11730   0.00017   0.00000   0.03051   0.03055   1.14785
   D58       -0.92054   0.00125   0.00000   0.04483   0.04480  -0.87574
   D59        1.03193  -0.00084   0.00000  -0.00691  -0.00690   1.02503
   D60       -1.03119  -0.00071   0.00000   0.00015   0.00019  -1.03100
   D61       -3.06903   0.00037   0.00000   0.01447   0.01444  -3.05459
   D62       -1.00043  -0.00086   0.00000  -0.01177  -0.01178  -1.01221
   D63       -3.06355  -0.00073   0.00000  -0.00470  -0.00469  -3.06824
   D64        1.18179   0.00035   0.00000   0.00961   0.00956   1.19135
   D65       -3.02904   0.00045   0.00000   0.01427   0.01434  -3.01470
   D66        1.22859   0.00006   0.00000   0.00866   0.00872   1.23731
   D67       -0.95240   0.00029   0.00000   0.00473   0.00474  -0.94766
   D68       -2.97796  -0.00010   0.00000  -0.00088  -0.00088  -2.97884
   D69        1.12834  -0.00015   0.00000   0.00308   0.00301   1.13135
   D70       -0.89722  -0.00054   0.00000  -0.00253  -0.00261  -0.89983
         Item               Value     Threshold  Converged?
 Maximum Force            0.004867     0.000450     NO 
 RMS     Force            0.001483     0.000300     NO 
 Maximum Displacement     0.818487     0.001800     NO 
 RMS     Displacement     0.184672     0.001200     NO 
 Predicted change in Energy=-2.463713D-03
 GradGradGradGradGradGradGradGradGradGradGradGradGradGradGradGradGradGrad

                          Input orientation:                          
 ---------------------------------------------------------------------
 Center     Atomic      Atomic             Coordinates (Angstroms)
 Number     Number       Type             X           Y           Z
 ---------------------------------------------------------------------
      1          8           0       -1.518769   -0.065398   -1.147551
      2          6           0       -1.676043   -0.078261    0.065987
      3          7           0       -0.630582   -0.260843    0.920442
      4          6           0        0.722412   -0.387784    0.420902
      5          6           0        1.558031   -1.087230    1.474272
      6          8           0        2.440842   -1.943895    0.941630
      7          8           0        1.462728   -0.866017    2.656456
      8          6           0        1.347800    1.001711    0.110583
      9          6           0        2.718246    0.910652   -0.461673
     10          6           0        3.965899    1.116314    0.073554
     11          7           0        4.951212    0.833548   -0.847560
     12          6           0        4.316577    0.457022   -1.932408
     13          7           0        2.960662    0.483869   -1.754897
     14          6           0       -3.026341    0.129013    0.729737
     15          6           0       -4.160989   -0.545022   -0.040338
     16          7           0       -5.443499   -0.236821    0.603045
     17          1           0       -0.754253   -0.225784    1.921553
     18          1           0        0.702278   -0.978454   -0.493655
     19          1           0        2.990380   -2.279658    1.666989
     20          1           0        1.375652    1.580028    1.036189
     21          1           0        0.663265    1.502920   -0.578473
     22          1           0        4.204038    1.452468    1.071099
     23          1           0        4.772062    0.162647   -2.865186
     24          1           0        2.257350    0.248783   -2.437876
     25          1           0       -3.024179   -0.219718    1.765329
     26          1           0       -3.204286    1.211980    0.760762
     27          1           0       -4.018769   -1.629549   -0.003964
     28          1           0       -4.088722   -0.249962   -1.093692
     29          1           0       -6.185383   -0.776812    0.169290
     30          1           0       -5.677600    0.740392    0.450095
 ---------------------------------------------------------------------
                    Distance matrix (angstroms):
                    1          2          3          4          5
     1  O    0.000000
     2  C    1.223755   0.000000
     3  N    2.259131   1.362505   0.000000
     4  C    2.754427   2.444250   1.447842   0.000000
     5  C    4.169508   3.668858   2.404094   1.515609   0.000000
     6  O    4.855095   4.603921   3.502393   2.376056   1.340499
     7  O    4.899060   4.145235   2.786023   2.403014   1.206473
     8  C    3.307392   3.211224   2.482722   1.555026   2.503501
     9  C    4.401749   4.534992   3.807530   2.539336   3.014219
    10  C    5.741874   5.767025   4.872516   3.592098   3.551823
    11  N    6.539018   6.751776   5.956505   4.580764   4.538058
    12  C    5.911022   6.339686   5.755733   4.378332   4.647554
    13  N    4.553665   5.013048   4.539721   3.240933   3.855289
    14  C    2.415529   1.518825   2.434752   3.796789   4.801046
    15  C    2.904701   2.530637   3.669827   4.907654   5.940978
    16  N    4.300870   3.808844   4.823432   6.170448   7.106592
    17  H    3.166956   2.077158   1.009330   2.111572   2.507749
    18  H    2.488835   2.603835   2.071509   1.088903   2.148693
    19  H    5.758212   5.402301   4.212399   3.205557   1.873672
    20  H    3.981685   3.606114   2.725285   2.162773   2.709141
    21  H    2.746769   2.896174   2.651726   2.139396   3.423923
    22  H    6.322725   6.158632   5.131441   3.991367   3.689712
    23  H    6.525092   7.087163   6.610513   5.244141   5.542841
    24  H    4.002839   4.674171   4.458494   3.306639   4.192717
    25  H    3.282521   2.173762   2.538667   3.984052   4.672680
    26  H    2.848564   2.117300   2.969622   4.253669   5.336209
    27  H    3.162967   2.810649   3.769309   4.919480   5.794824
    28  H    2.577135   2.682416   4.001948   5.045790   6.259495
    29  H    4.900762   4.564295   5.629056   6.923314   7.858740
    30  H    4.527433   4.102461   5.166826   6.498753   7.532828
                    6          7          8          9         10
     6  O    0.000000
     7  O    2.249257   0.000000
     8  C    3.249919   3.159602   0.000000
     9  C    3.192907   3.802052   1.487914   0.000000
    10  C    3.527639   4.106931   2.620867   1.373100   0.000000
    11  N    4.149380   5.228400   3.732411   2.267376   1.378133
    12  C    4.188422   5.563502   3.644740   2.218897   2.140450
    13  N    3.665448   4.850364   2.519820   1.383234   2.180303
    14  C    5.850807   4.985386   4.503117   5.918673   7.092020
    15  C    6.819478   6.245153   5.723803   7.044173   8.295741
    16  N    8.074130   7.232452   6.920855   8.310499   9.520930
    17  H    3.757764   2.421773   3.033972   4.362281   5.243678
    18  H    2.452494   3.242549   2.168606   2.762946   3.919312
    19  H    0.969987   2.304592   3.985956   3.844911   3.875991
    20  H    3.682609   2.935299   1.091775   2.119955   2.801977
    21  H    4.165457   4.088493   1.092977   2.141815   3.388509
    22  H    3.828957   3.924730   3.046944   2.202393   1.079262
    23  H    4.935986   6.519077   4.613545   3.248776   3.193051
    24  H    4.032687   5.275075   2.808704   2.134449   3.158960
    25  H    5.789449   4.619973   4.831591   6.262005   7.314935
    26  H    6.469910   5.449105   4.603090   6.054876   7.203676
    27  H    6.536018   6.140653   5.978019   7.214533   8.443974
    28  H    7.046073   6.727684   5.707253   6.934067   8.252641
    29  H    8.739013   8.042858   7.740506   9.084066  10.326742
    30  H    8.564818   7.644139   7.038452   8.446924   9.658166
                   11         12         13         14         15
    11  N    0.000000
    12  C    1.312032   0.000000
    13  N    2.215361   1.367749   0.000000
    14  C    8.162450   7.817483   6.491805   0.000000
    15  C    9.251177   8.743749   7.397043   1.527994   0.000000
    16  N   10.549880  10.107870   8.758380   2.447967   1.467570
    17  H    6.429814   6.405666   5.274513   2.590114   3.944209
    18  H    4.632715   4.146536   2.971434   4.077470   4.903542
    19  H    4.456442   4.712099   4.398553   6.548363   7.554204
    20  H    4.109790   4.326979   3.391751   4.645094   6.027366
    21  H    4.348214   4.034072   2.774972   4.148762   5.268499
    22  H    2.150020   3.166170   3.235803   7.358427   8.671732
    23  H    2.133780   1.078980   2.148743   8.587182   9.395742
    24  H    3.182444   2.130558   1.008154   6.161615   6.897346
    25  H    8.458334   8.247299   6.978921   1.092735   2.158378
    26  H    8.321181   8.024120   6.698154   1.097927   2.155017
    27  H    9.340185   8.806286   7.499650   2.148434   1.094417
    28  H    9.107963   8.476575   7.118252   2.144100   1.096283
    29  H   11.298274  10.781032   9.430904   3.333792   2.048375
    30  H   10.708139  10.278142   8.918933   2.735171   2.047663
                   16         17         18         19         20
    16  N    0.000000
    17  H    4.871100   0.000000
    18  H    6.286759   2.919114   0.000000
    19  H    8.742738   4.278490   3.405426   0.000000
    20  H    7.070317   2.929389   3.056090   4.231126   0.000000
    21  H    6.458735   3.353790   2.483130   4.976491   1.766515
    22  H    9.805496   5.303249   4.540943   3.969486   2.831477
    23  H   10.795642   7.321469   4.846588   5.447923   5.363329
    24  H    8.293738   5.319735   2.775672   4.876501   3.823444
    25  H    2.684084   2.275304   4.423253   6.358297   4.809287
    26  H    2.671699   3.068756   4.651107   7.168449   4.602950
    27  H    2.082788   4.041687   4.790825   7.234838   6.362631
    28  H    2.171292   4.495661   4.883075   7.864776   6.143666
    29  H    1.014950   5.733344   6.922429   9.417869   7.967148
    30  H    1.016436   5.228578   6.674424   9.259341   7.127191
                   21         22         23         24         25
    21  H    0.000000
    22  H    3.906496   0.000000
    23  H    4.889540   4.180985   0.000000
    24  H    2.751608   4.189434   2.552213   0.000000
    25  H    4.696608   7.451529   9.075750   6.766164   0.000000
    26  H    4.103187   7.418720   8.824439   6.402226   1.758224
    27  H    5.662496   8.846985   9.416861   6.988686   2.471281
    28  H    5.091112   8.738104   9.045548   6.506013   3.050929
    29  H    7.256742  10.664100  11.408603   8.895442   3.584816
    30  H    6.468846   9.926705  10.978174   8.458456   3.113245
                   26         27         28         29         30
    26  H    0.000000
    27  H    3.053272   0.000000
[...]
 19,0.00238039,-0.05503044,-0.02015964,-0.01055130,0.00028482,0.0006760
 9,-0.00057859,-0.00009367,-0.00005277,-0.00012615,0.00018395,0.0000071
 0,-0.00001696,-0.00002797,0.00005655,0.00003175,0.00018210,-0.00078846
 ,0.00072557,0.00003235,0.00002463,0.00001853,0.00001443,-0.00032896,0.
 00014215,0.00025425,-0.00024371,-0.00062881,-0.00007604,0.00186080,-0.
 00006419,0.00013587,-0.00127747,0.00001002,0.05186363,0.02934951,-0.00
 432706,-0.00211148,0.00250107,0.00130665,0.00109194,-0.00745794,0.0011
 6803,-0.00036996,0.00173697,-0.00022202,0.00035228,-0.00064987,-0.0007
 6959,0.00069389,-0.00044622,0.00061510,-0.00031513,0.00019724,0.000303
 89,-0.00031335,0.00037215,0.00004866,-0.00008945,0.00081442,-0.0283086
 0,-0.00280488,0.00901240,-0.00474071,-0.00084069,-0.00706027,0.0063183
 3,-0.00030178,-0.00413065,0.01793476,0.00391908,0.01512015,-0.03295454
 ,-0.00874578,-0.07950351,-0.00035340,0.00019676,0.00072828,0.00025667,
 0.00021268,0.00044283,-0.00026862,-0.00012417,-0.00009181,0.00012716,-
 0.00003729,-0.00018018,-0.00006407,0.00060839,-0.00035686,-0.00005612,
 0.00001846,-0.00001396,0.00019764,-0.00004638,0.00026997,0.00023869,-0
 .00040713,-0.00056750,-0.00123691,-0.00009995,0.00075277,-0.00052915,-
 0.00003020,-0.00051283,0.04573839,0.00948110,0.06887861,-0.00885709,0.
 00171081,0.00336158,0.00012472,-0.00992005,0.03140649,0.00052239,0.000
 29188,-0.00136947,0.00035994,-0.00005885,-0.00006023,-0.00022639,-0.00
 001882,0.00029020,0.00020294,-0.00005269,-0.00004713,0.00018317,0.0000
 2573,-0.00022002,0.00006322,-0.00003668,0.00002275,0.00013163,0.000052
 47,0.00020863,-0.00008343,-0.00000135,0.00003001,-0.00019076,-0.000014
 63,-0.00005916,0.00015716,-0.00002088,-0.00023915,-0.00046223,-0.00011
 848,0.00017452,-0.06182160,-0.01165567,0.05131648,0.00352527,0.0044868
 5,-0.01964700,0.00159277,0.00046958,0.00042989,-0.00215513,0.00048886,
 -0.00059630,0.00017791,-0.00006548,0.00005238,-0.00002556,0.00000427,0
 .00000153,-0.00000698,0.00002050,-0.00002441,0.00001978,0.00003288,0.0
 0002265,-0.00001829,-0.00000257,-0.00000079,0.00000010,0.00000136,0.00
 000193,0.00069859,0.00025890,-0.00032237,0.06669145,0.00132718,0.00218
 819,-0.00080150,0.00140242,-0.00209422,-0.00501776,-0.00019187,-0.0003
 6343,-0.00038698,-0.00010230,-0.00002412,-0.00021615,0.00000598,-0.000
 01294,0.00006069,-0.00002966,0.00002366,-0.00002111,-0.00003920,-0.000
 05384,-0.00006056,-0.00001659,0.00001165,-0.00000651,-0.00000400,-0.00
 000929,-0.00000056,0.00000030,-0.00000472,0.00000078,-0.00000406,0.000
 00245,0.00000043,0.00001636,0.00000249,-0.00000101,0.00004528,0.000000
 04,-0.00002759,-0.01362863,-0.06362226,0.06208935,0.00351983,0.0041005
 4,-0.01936535,0.00112191,0.00014630,0.00114273,0.00023007,0.00087711,0
 .00003165,0.00006395,-0.00000860,-0.00001514,0.00000538,0.00000923,0.0
 0000612,-0.00002164,-0.00000052,-0.00000136,0.00000101,-0.00000543,0.0
 0002233,-0.00000084,0.00000127,-0.00000082,0.00000127,-0.00000126,-0.0
 0000159,-0.00003375,0.00000964,0.00003130,0.01477316,0.06589649,0.0018
 6773,0.00005262,0.00174293,-0.00257088,0.00126892,-0.00730913,-0.00159
 719,-0.00001920,0.00070721,0.00043205,-0.00042682,0.00047141,0.0002818
 3,0.00002601,-0.00020821,-0.00010999,0.00001836,0.00004426,-0.00016564
 ,-0.00003015,0.00012608,-0.00008261,0.00005746,-0.00000253,-0.00007535
 ,-0.00004367,-0.00008502,0.00005422,-0.00000363,-0.00000919,0.00007908
 ,0.00001319,0.00005615,-0.00009301,-0.00000100,0.00010160,0.00013229,0
 .00001838,-0.00008428,0.05460136,0.06030406,-0.28015151,0.00446073,0.0
 0433927,-0.02204231,0.00072251,0.00077993,0.00253748,0.00019823,0.0000
 1270,0.00126001,-0.00009116,0.00005720,0.00004132,0.00002222,-0.000005
 03,0.00000166,0.00000232,-0.00001791,0.00001607,-0.00000756,-0.0000115
 8,-0.00001772,0.00001005,0.00000065,0.00000152,-0.00000544,-0.00000022
 ,0.00000505,-0.00024672,-0.00004855,0.00008474,-0.05630168,-0.06425149
 ,0.30662810,0.00055449,-0.00393573,-0.00029768,-0.00832119,0.03581447,
 -0.00564265,-0.00361624,-0.00128480,0.00060105,-0.00048916,-0.00146140
 ,-0.00075333,0.00003579,-0.00026368,0.00028401,-0.00014190,0.00011335,
 -0.00009543,-0.00004561,0.00006289,-0.00016779,-0.00037387,0.00035695,
 -0.00012265,-0.00002603,-0.00008370,-0.00003826,0.00001572,-0.00002324
 ,0.00001114,-0.00003116,0.00001247,0.00004116,-0.00001526,0.00000479,-
 0.00001458,-0.00005444,-0.00002300,0.00005867,-0.05630942,0.05462192,-
 0.00415378,0.00292248,-0.02068890,0.00225680,0.00202560,-0.00023828,0.
 00052488,-0.00006297,0.00067335,0.00046404,0.00013234,-0.00001525,0.00
 002148,0.00000476,0.00001399,0.00000753,-0.00008263,-0.00011638,0.0000
 3034,-0.00001232,-0.00000655,-0.00001214,0.00000081,0.00000327,-0.0000
 0231,-0.00000238,0.00000265,0.00000620,0.00012300,-0.00000702,-0.00012
 202,0.00149065,-0.00712117,0.00059131,0.06372946,-0.00022526,0.0015336
 7,-0.00040358,0.00158589,-0.00487977,0.00228940,0.00083438,0.00023124,
 -0.00085250,-0.00009213,0.00002475,0.00010035,-0.00005115,0.00001019,-
 0.00003143,0.00007550,-0.00002523,0.00002907,0.00006168,0.00001382,0.0
 0000723,0.00007525,-0.00006096,0.00002931,0.00002286,0.00002946,0.0000
 3834,-0.00001539,0.00000761,-0.00000542,-0.00000447,0.00000042,-0.0000
 1973,0.00002040,0.00000070,-0.00001440,-0.00000630,0.00001767,-0.00001
 036,0.05231022,-0.28234100,0.03575774,0.00247353,-0.02117463,0.0009445
 2,0.00100577,0.00210501,0.00050710,-0.00024303,-0.00013669,-0.00025550
 ,0.00000051,-0.00001802,-0.00000486,-0.00000729,-0.00000641,-0.0000045
 1,0.00003097,0.00001314,-0.00001657,0.00001327,-0.00002232,0.00000373,
 -0.00000192,-0.00000364,0.00000089,0.00000194,-0.00000509,-0.00000216,
 0.00004699,-0.00003863,0.00001130,0.00135698,-0.00665857,0.00115248,-0
 .05588916,0.31041035,0.00093360,0.00124037,-0.00048464,-0.00006860,-0.
 00631796,-0.00032632,-0.00067494,-0.00009036,0.00001775,-0.00000099,-0
 .00043199,0.00003699,0.00013615,0.00000226,-0.00003651,-0.00007481,0.0
 0002004,0.00000151,-0.00009941,-0.00002659,0.00001198,-0.00013113,0.00
 012057,0.00000413,-0.00003516,-0.00004873,-0.00002161,0.00001914,-0.00
 000980,0.00000065,0.00001530,0.00001239,0.00001033,-0.00001549,-0.0000
 0159,0.00003439,0.00004283,-0.00000029,-0.00004083,-0.00445992,0.03629
 433,-0.05082573,0.00273416,-0.02360642,0.00160081,0.00174127,0.0009725
 7,0.00039132,0.00040355,0.00054037,0.00044293,0.00002527,0.00001471,0.
 00002141,0.00001019,0.00000291,0.00000329,-0.00001996,-0.00001807,0.00
 000817,0.00000495,-0.00001767,0.00001155,0.00000106,0.00000052,-0.0000
 0108,0.00000284,-0.00000293,-0.00000269,-0.00010343,0.00000533,0.00006
 923,-0.00743824,0.02918560,-0.00371723,0.00905758,-0.03601426,0.053224
 01,-0.00036649,0.00046892,0.00037824,0.00186437,-0.00129544,-0.0000280
 3,-0.00001302,0.00046778,-0.00009048,-0.00006596,-0.00003828,-0.000028
 22,-0.00003618,0.00000777,-0.00003380,0.00001713,-0.00000337,0.0000111
 6,0.00001460,-0.00000068,0.00002757,0.00001845,-0.00002293,-0.00000223
 ,0.00000047,0.00001223,-0.00000411,-0.00000176,0.00000228,-0.00000201,
 0.00000696,0.00000172,-0.00000288,-0.00000488,-0.00000044,0.00000608,0
 .00000365,0.00001293,0.00000129,0.00230723,-0.02011042,0.00302516,-0.0
 5561018,0.03775473,-0.00566903,-0.01358042,0.03755070,-0.00302379,0.00
 001987,-0.00009296,-0.00005094,-0.00001876,-0.00001923,0.00000718,-0.0
 0000441,-0.00000101,-0.00000393,0.00000670,0.00000588,-0.00000041,0.00
 000255,-0.00000070,0.00000475,0.00000049,-0.00000118,0.00000049,0.0000
 0029,-0.00000251,0.00000019,-0.00000232,-0.00002594,0.00000530,0.00052
 710,0.00089655,0.00037942,-0.00216032,-0.00240177,-0.00295315,0.070455
 44,-0.00099544,0.00048861,0.00063495,0.00198566,-0.00077345,-0.0005645
 9,-0.00079420,0.00056987,-0.00024079,0.00000631,-0.00011752,-0.0001418
 6,-0.00005604,-0.00007361,0.00009171,-0.00000873,0.00003983,-0.0000270
 2,0.00002704,0.00007251,-0.00004554,-0.00001502,-0.00001643,-0.0000045
 8,0.00001099,0.00001082,0.00000566,-0.00000413,0.00000395,0.00000246,-
 0.00002036,0.00000859,0.00000577,0.00000870,-0.00000066,-0.00001693,-0
 .00004364,0.00002274,0.00002030,0.00015469,-0.01736853,0.00193025,0.04
 429188,-0.28718988,0.04019669,0.00395932,-0.00417918,-0.00048024,-0.00
 000112,-0.00021097,0.00000657,-0.00004936,-0.00001951,0.00003342,-0.00
 001355,-0.00001356,-0.00000772,-0.00000746,-0.00000106,-0.00000030,0.0
 0000424,0.00002408,0.00000583,-0.00000046,-0.00000446,-0.00000018,0.00
 000059,-0.00000923,0.00000263,0.00006668,-0.00004571,-0.00003635,0.000
 31314,0.00086330,-0.00025461,-0.00218043,-0.00035159,-0.00241322,-0.04
 879765,0.31292474,0.00027970,-0.00024479,0.00015761,0.00105501,-0.0000
 3421,0.00071734,0.00022709,0.00033523,-0.00006057,-0.00006397,-0.00004
 047,-0.00002638,-0.00008747,-0.00000738,0.00005379,0.00006045,-0.00002
 279,-0.00000683,0.00006800,0.00001956,-0.00003516,0.00000371,-0.000028
 67,-0.00000802,0.00000206,0.00000841,0.00000609,-0.00000307,0.00000220
 ,-0.00000064,0.00000535,-0.00000682,-0.00000832,0.00000110,-0.00000006
 ,-0.00000271,0.00000649,-0.00001013,0.00000499,0.00253219,-0.02162332,
 0.00210885,-0.00632024,0.04396595,-0.05864325,0.00159074,-0.00842091,0
 .00136827,-0.00009476,-0.00008496,-0.00005272,0.00003600,-0.00000531,0
 .00000229,-0.00000810,0.00000313,0.00000109,0.00000416,0.00000104,-0.0
 0000095,0.00000297,0.00000078,-0.00000397,-0.00000096,0.00000064,0.000
 00007,-0.00000082,0.00000617,-0.00000173,-0.00001259,0.00001928,-0.000
 00274,0.00087183,0.00001479,0.00095356,-0.00288732,-0.00287933,-0.0018
 4110,0.00720519,-0.04083889,0.05835170,-0.00111521,-0.00013228,0.00127
 253,0.00139006,0.00070681,-0.00291901,-0.00023341,-0.00019356,0.000806
 44,-0.00005699,0.00007651,0.00009678,0.00005235,0.00001973,-0.00005075
 ,-0.00003049,0.00000296,0.00001233,-0.00003770,-0.00001348,0.00004423,
 -0.00000277,-0.00000246,-0.00000665,-0.00002675,-0.00000920,-0.0000414
 0,0.00001766,0.00000108,-0.00000561,0.00003725,0.00000298,0.00000991,-
 0.00003455,0.00000313,0.00004969,0.00006551,0.00001518,-0.00002633,0.0
 0364635,0.00375413,-0.01882108,-0.05964011,-0.01142723,0.05106070,-0.0
 2196755,-0.00434443,0.03375006,0.00036512,-0.00014542,0.00008367,-0.00
 006959,0.00002351,-0.00002220,0.00000573,-0.00000168,0.00000168,0.0000
 0479,-0.00000300,0.00000492,-0.00000138,-0.00000789,-0.00000742,0.0000
 0336,0.00000015,-0.00000013,0.00000063,-0.00000097,-0.00000025,-0.0001
 3845,-0.00004372,0.00004213,-0.00277341,-0.00239194,-0.00267927,0.0007
 6713,0.00012152,0.00091667,0.00252716,0.00085167,-0.00533165,0.0746462
 1,-0.00006422,-0.00075722,0.00026897,0.00048079,0.00038613,-0.00038049
 ,-0.00015664,0.00031058,0.00011320,-0.00002317,0.00006821,0.00007942,0
 .00000572,-0.00003128,0.00003940,-0.00001199,0.00000915,-0.00001136,-0
 .00000214,0.00002992,-0.00001609,-0.00000312,0.00000027,0.00000200,-0.
 00000852,-0.00000488,-0.00000557,0.00000330,-0.00000054,-0.00000212,0.
 00000298,-0.00000538,0.00000072,-0.00000003,0.00000015,0.00001289,0.00
 000999,-0.00001341,-0.00001075,0.00132927,0.00326220,-0.01936765,-0.01
 101138,-0.06882185,0.05594538,0.00338818,0.00482224,-0.00723785,0.0001
 8591,-0.00014189,0.00003915,-0.00005429,0.00000489,-0.00001073,-0.0000
 0188,-0.00000391,-0.00000028,0.00000081,-0.00000357,0.00000013,0.00000
 188,-0.00000091,-0.00001144,-0.00000017,0.00000124,-0.00000105,0.00000
 175,0.00000776,-0.00000267,-0.00001806,0.00003522,0.00002462,-0.002288
 11,-0.00108114,-0.00286319,0.00108512,0.00111622,0.00011806,-0.0059622
 9,-0.00725806,0.03036476,0.01405643,0.06737866,0.00127998,0.00036409,0
 .00357506,0.00253325,0.00021110,-0.00477151,-0.00036461,-0.00005259,0.
 00084008,0.00000760,0.00008363,0.00002279,0.00007880,0.00004007,-0.000
 13113,-0.00007043,0.00001492,0.00002130,-0.00007912,-0.00002671,0.0001
 2203,0.00000122,0.00001791,-0.00002593,-0.00004415,-0.00001360,-0.0000
 7219,0.00002981,-0.00000003,-0.00000437,0.00006342,0.00000887,0.000038
 97,-0.00008064,-0.00000172,0.00005711,0.00009509,0.00001267,-0.0000169
 8,0.00061766,0.00445500,-0.02256165,0.04662020,0.05390592,-0.26717052,
 0.00804546,-0.00134238,0.00050481,0.00020862,-0.00018188,0.00018699,-0
 .00006430,0.00002486,-0.00000644,0.00000522,-0.00000057,-0.00000541,0.
 00000611,-0.00000847,0.00001124,-0.00000704,-0.00000902,-0.00001274,0.
 00000835,0.00000130,0.00000268,-0.00000920,-0.00000149,0.00000891,-0.0
 0015032,-0.00003049,0.00001108,-0.00216874,-0.00265640,-0.00136432,0.0
 0052371,-0.00010008,0.00115563,0.00022330,0.00211913,-0.00417024,-0.05
 833344,-0.05619075,0.29210223,-0.00012273,0.00020511,0.00068149,0.0002
 9924,-0.00140387,-0.00229601,-0.00076681,0.00019889,0.00016784,0.00009
 089,0.00011974,-0.00015032,-0.00000641,-0.00005583,0.00010702,-0.00006
 146,0.00004716,-0.00004634,-0.00001822,0.00003786,-0.00004435,0.000013
 44,0.00002395,-0.00001638,0.00000904,-0.00000780,-0.00000165,0.0000063
 3,-0.00000108,0.00000378,-0.00001604,0.00000342,0.00002366,-0.00000331
 ,-0.00000123,-0.00001470,-0.00003346,-0.00000548,0.00000925,-0.0070717
 2,0.00248527,0.00308557,-0.02199468,-0.02464684,-0.02189677,-0.1688531
 7,-0.12348135,-0.10662224,-0.00001406,-0.00007985,0.00005980,-0.000037
 35,0.00000178,0.00000194,-0.00000473,-0.00000447,-0.00000251,-0.000011
 29,-0.00000459,0.00000136,0.00000563,0.00001063,0.00000567,0.00000085,
 0.00000011,0.00000020,-0.00000362,-0.00000191,0.00000521,0.00005941,0.
 00001283,-0.00005490,0.00017948,0.00029377,0.00009557,0.00028885,0.000
 09925,0.00041174,0.00120414,0.00058272,-0.00057736,0.00084682,-0.00064
 322,0.00060026,0.18934088,0.00017705,-0.00009907,-0.00001632,-0.000067
 24,0.00101049,-0.00000842,0.00023775,-0.00025373,0.00018197,-0.0000731
 0,-0.00008740,0.00001599,-0.00001505,0.00005820,-0.00009997,0.00003743
 ,-0.00003421,0.00003204,0.00000731,-0.00004318,0.00005993,-0.00000700,
 -0.00000498,0.00000642,-0.00001239,0.00000012,-0.00001333,-0.00000003,
 -0.00000030,-0.00000234,0.00002600,-0.00000191,-0.00000550,-0.00001943
 ,-0.00000075,0.00001419,0.00004103,0.00000211,0.00000033,0.00225145,0.
 00069276,0.00032921,0.00540174,0.00551267,0.00364412,-0.12388042,-0.20
 158662,-0.11790861,0.00000973,0.00006598,-0.00003730,0.00003028,0.0000
 0076,-0.00000138,0.00000194,0.00000865,0.00000047,0.00000923,0.0000023
 3,0.00000172,-0.00000537,-0.00001205,-0.00000394,0.00000143,0.00000128
 ,0.00000140,-0.00000210,0.00000245,0.00000019,-0.00005839,-0.00000671,
 0.00001552,-0.00004865,-0.00009943,-0.00006444,0.00013399,0.00034554,-
 0.00003086,0.00027337,0.00045198,0.00030474,0.00035645,-0.00040416,-0.
 00000039,0.13843390,0.21884085,-0.00052890,0.00008931,0.00045930,0.000
 99022,-0.00084833,0.00000138,-0.00051083,0.00026308,-0.00028244,0.0001
 7292,0.00003597,-0.00006646,0.00006899,-0.00012487,0.00019129,-0.00009
 356,0.00006883,-0.00006419,-0.00003491,0.00008201,-0.00011799,-0.00000
 456,0.00001129,-0.00001384,0.00003080,-0.00000380,0.00003582,0.0000009
 2,-0.00000057,0.00000608,-0.00006793,-0.00000094,0.00001669,0.00005075
 ,0.00000023,-0.00004068,-0.00011193,-0.00001705,0.00000812,-0.00185023
 ,-0.00004733,-0.00020074,0.01313205,0.00723572,-0.00082307,-0.14105386
 ,-0.15585776,-0.12686403,0.00001674,-0.00007123,0.00009652,-0.00003550
 ,-0.00000112,0.00000982,0.00000622,-0.00001520,0.00000616,-0.00002176,
 -0.00000752,-0.00000321,0.00000627,0.00002518,0.00000813,-0.00000319,-
 0.00000108,-0.00000395,0.00000452,-0.00000064,-0.00000097,0.00014720,0
 .00003427,-0.00005094,0.00035699,0.00001420,0.00044110,0.00019079,0.00
 011218,-0.00006267,-0.00064905,0.00017435,0.00057714,0.00074330,0.0006
 1630,0.00065000,0.12130806,0.13619566,0.12449506,0.00029068,-0.0001739
 5,-0.00014850,-0.00042169,-0.00030116,0.00042663,0.00044072,-0.0001022
 4,0.00007082,-0.00006069,0.00008368,0.00008983,-0.00004319,0.00006780,
 -0.00007017,0.00005915,-0.00004115,0.00002772,0.00003038,-0.00003832,0
 .00004053,0.00000955,-0.00000360,0.00000905,-0.00001479,0.00000084,-0.
 00001679,-0.00000179,-0.00000002,-0.00000280,0.00003623,-0.00000117,-0
 .00001386,-0.00002506,-0.00000065,0.00002235,0.00005908,-0.00000301,-0
 .00000513,0.00108024,0.00117468,-0.00018160,-0.01210434,0.03935604,-0.
 01150430,-0.07994568,0.07369710,-0.03025053,-0.00001806,0.00003743,-0.
 00004604,0.00001387,0.00000327,-0.00001429,-0.00000551,0.00000696,-0.0
 0000255,0.00001172,0.00000336,0.00000117,-0.00000157,-0.00001752,-0.00
 000817,0.00000093,0.00000099,0.00000201,-0.00000225,0.00000285,-0.0000
 0022,-0.00007339,0.00000966,0.00002868,-0.00002740,-0.00011878,0.00009
 558,-0.00034620,-0.00119905,-0.00038105,-0.00711188,0.00072397,0.00143
 627,0.00175223,-0.00030289,0.00042392,0.00667406,-0.02324089,0.0077394
 9,0.08974466,0.00007307,-0.00004777,-0.00018839,-0.00012085,0.00003611
 ,0.00016343,0.00000466,0.00000495,-0.00004144,0.00000550,0.00000050,0.
 00000773,-0.00002288,0.00000476,0.00000599,0.00001809,-0.00000707,0.00
 000110,0.00001517,-0.00000041,-0.00000602,-0.00000640,0.00000046,0.000
 00574,-0.00000375,-0.00000005,-0.00000122,-0.00000245,-0.00000049,-0.0
 0000033,0.00000518,-0.00000069,-0.00000848,-0.00000035,0.00000035,0.00
 000631,0.00001045,0.00000102,-0.00000424,0.00015029,0.00161066,0.00011
 018,0.00060241,-0.00601241,0.00405316,0.08062929,-0.36406915,0.0816629
 0,-0.00000348,0.00000440,-0.00000369,-0.00000267,-0.00000100,-0.000001
 55,-0.00000354,0.00000099,-0.00000056,0.00000095,0.00000040,-0.0000002
 8,0.00000238,-0.00000135,-0.00000152,-0.00000070,0.00000006,0.00000002
 ,0.00000107,0.00000046,-0.00000126,-0.00001030,-0.00000079,0.00001665,
 0.00001552,-0.00009258,-0.00005972,0.00043947,-0.00013723,0.00050071,0
 .00132191,0.00215239,-0.00079862,-0.00127495,0.00109536,-0.00064290,0.
 00778113,-0.02436167,0.01203883,-0.08962421,0.38981978,0.00001521,0.00
 005623,-0.00055026,-0.00026291,-0.00047651,0.00066939,0.00002431,-0.00
 002753,-0.00022403,0.00003375,0.00005995,0.00001789,-0.00000975,-0.000
 00061,0.00005175,0.00001039,-0.00000735,-0.00001369,0.00001273,-0.0000
 1077,-0.00004750,-0.00000456,0.00001107,0.00001072,0.00000772,-0.00000
 574,0.00002195,-0.00000711,-0.00000276,0.00000069,-0.00001814,-0.00000
 476,-0.00001996,0.00002944,0.00000189,-0.00000496,-0.00002183,-0.00000
 612,-0.00001091,-0.00067261,0.00111934,0.00002268,0.00901096,-0.010974
 40,-0.00195604,-0.04576111,0.13141589,-0.05117794,-0.00001219,0.000063
 11,0.00001399,0.00000151,0.00000024,-0.00000414,0.00000154,0.00000560,
 0.00000557,-0.00000521,0.00000176,-0.00000371,0.00000863,-0.00000379,0
 .00000389,-0.00000380,0.00000116,-0.00000211,0.00000592,0.00000164,-0.
 00000583,0.00002702,0.00001304,0.00003340,-0.00005317,0.00023190,-0.00
 022879,-0.00036078,-0.00036895,0.00031434,0.00126678,-0.00015689,0.000
 56254,-0.00064983,-0.00151301,0.00100249,0.00515511,-0.02261108,0.0015
 9259,0.03223196,-0.09681253,0.04992597\\0.00000157,-0.00000145,0.00000
 133,0.00000071,0.00000248,-0.00000245,-0.00000015,-0.00000156,0.000001
 49,-0.00000214,0.00000995,0.00000359,0.00000454,-0.00000449,0.00000197
 ,-0.00000136,0.00000094,-0.00000039,-0.00000007,-0.00000009,-0.0000031
 1,0.00000445,-0.00000059,-0.00000215,-0.00000403,-0.00000014,0.0000007
 3,0.00000242,-0.00000081,-0.00000090,-0.00000088,-0.00000001,0.0000009
 8,0.00000173,-0.00000023,0.00000039,-0.00000343,-0.00000172,-0.0000009
 8,-0.00000147,-0.00000147,-0.00000105,-0.00000084,0.00000116,0.0000003
 5,-0.00000092,-0.00000025,0.00000048,-0.00000115,0.00000022,-0.0000008
 1,0.00000092,-0.00000187,0.00000059,0.00000097,-0.00000137,0.00000091,
 -0.00000071,-0.00000187,0.00000061,-0.00000155,0.00000074,-0.00000073,
 -0.00000023,0.00000044,-0.00000097,0.00000006,-0.00000042,-0.00000121,
 0.00000106,0.00000103,0.00000159,0.00000054,0.00000029,0.00000005,0.00
 000035,0.00000062,-0.00000013,0.00000014,0.00000025,0.00000009,0.00000
 019,-0.00000038,-0.00000011,-0.00000047,-0.00000033,-0.00000012,-0.000
 00025,0.00000092,-0.00000006\\\@


 WHEN YOU'VE SEEN ONE NUCLEAR WAR YOU'VE SEEN THEM ALL.
 Job cpu time:       0 days  2 hours  3 minutes 24.7 seconds.
 File lengths (MBytes):  RWF=    415 Int=      0 D2E=      0 Chk=     13 Scr=      1
 Normal termination of Gaussian 09 at Sat Jul 24 02:34:57 2021.
