 Entering Gaussian System, Link 0=g09
 Input=opt_freq-conf-455.com
 Output=opt_freq-conf-455.log
 Initial command:
 /aerosol/software/g09/l1.exe "/scratch/nicole/10406/Gau-73626.inp" -scrdir="/scratch/nicole/10406/"
 Entering Link 1 = /aerosol/software/g09/l1.exe PID=     73633.
  
 Copyright (c) 1988,1990,1992,1993,1995,1998,2003,2009,2013,
            Gaussian, Inc.  All Rights Reserved.
  
 This is part of the Gaussian(R) 09 program.  It is based on
 the Gaussian(R) 03 system (copyright 2003, Gaussian, Inc.),
 the Gaussian(R) 98 system (copyright 1998, Gaussian, Inc.),
 the Gaussian(R) 94 system (copyright 1995, Gaussian, Inc.),
 the Gaussian 92(TM) system (copyright 1992, Gaussian, Inc.),
 the Gaussian 90(TM) system (copyright 1990, Gaussian, Inc.),
 the Gaussian 88(TM) system (copyright 1988, Gaussian, Inc.),
 the Gaussian 86(TM) system (copyright 1986, Carnegie Mellon
 University), and the Gaussian 82(TM) system (copyright 1983,
 Carnegie Mellon University). Gaussian is a federally registered
 trademark of Gaussian, Inc.
  
 This software contains proprietary and confidential information,
 including trade secrets, belonging to Gaussian, Inc.
  
 This software is provided under written license and may be
 used, copied, transmitted, or stored only in accord with that
 written license.
  
 The following legend is applicable only to US Government
 contracts under FAR:
  
                    RESTRICTED RIGHTS LEGEND
  
 Use, reproduction and disclosure by the US Government is
 subject to restrictions as set forth in subparagraphs (a)
 and (c) of the Commercial Computer Software - Restricted
 Rights clause in FAR 52.227-19.
  
 Gaussian, Inc.
 340 Quinnipiac St., Bldg. 40, Wallingford CT 06492
  
  
 ---------------------------------------------------------------
 Warning -- This program may not be used in any manner that
 competes with the business of Gaussian, Inc. or will provide
 assistance to any competitor of Gaussian, Inc.  The licensee
 of this program is prohibited from giving any competitor of
 Gaussian, Inc. access to this program.  By using this program,
 the user acknowledges that Gaussian, Inc. is engaged in the
 business of creating and licensing software in the field of
 computational chemistry and represents and warrants to the
 licensee that it is not a competitor of Gaussian, Inc. and that
 it will not use this program in any manner prohibited above.
 ---------------------------------------------------------------
  

 Cite this work as:
 Gaussian 09, Revision D.01,
 M. J. Frisch, G. W. Trucks, H. B. Schlegel, G. E. Scuseria, 
 M. A. Robb, J. R. Cheeseman, G. Scalmani, V. Barone, B. Mennucci, 
 G. A. Petersson, H. Nakatsuji, M. Caricato, X. Li, H. P. Hratchian, 
 A. F. Izmaylov, J. Bloino, G. Zheng, J. L. Sonnenberg, M. Hada, 
 M. Ehara, K. Toyota, R. Fukuda, J. Hasegawa, M. Ishida, T. Nakajima, 
 Y. Honda, O. Kitao, H. Nakai, T. Vreven, J. A. Montgomery, Jr., 
 J. E. Peralta, F. Ogliaro, M. Bearpark, J. J. Heyd, E. Brothers, 
 K. N. Kudin, V. N. Staroverov, T. Keith, R. Kobayashi, J. Normand, 
 K. Raghavachari, A. Rendell, J. C. Burant, S. S. Iyengar, J. Tomasi, 
 M. Cossi, N. Rega, J. M. Millam, M. Klene, J. E. Knox, J. B. Cross, 
 V. Bakken, C. Adamo, J. Jaramillo, R. Gomperts, R. E. Stratmann, 
 O. Yazyev, A. J. Austin, R. Cammi, C. Pomelli, J. W. Ochterski, 
 R. L. Martin, K. Morokuma, V. G. Zakrzewski, G. A. Voth, 
 P. Salvador, J. J. Dannenberg, S. Dapprich, A. D. Daniels, 
 O. Farkas, J. B. Foresman, J. V. Ortiz, J. Cioslowski, 
 and D. J. Fox, Gaussian, Inc., Wallingford CT, 2013.
 
 ******************************************
 Gaussian 09:  ES64L-G09RevD.01 24-Apr-2013
                24-Jul-2021 
 ******************************************
 %mem=2gb
 %nproc=4
 Will use up to    4 processors via shared memory.
 %chk=conf-455.chk
 ----------------------------------------------------------------------
 # B3LYP/6-311G(d,p) EmpiricalDispersion=GD3BJ opt=calcfc freq=noraman 
 nosymm integral(ultrafinegrid)
 ----------------------------------------------------------------------
 1/10=4,14=-1,18=20,19=15,26=4,38=1/1,3;
 2/9=110,12=2,15=1,17=6,18=5,40=1/2;
 3/5=4,6=6,7=101,11=2,16=1,25=1,30=1,71=2,74=-5,75=-5,124=41,140=1/1,2,3;
 4//1;
 5/5=2,38=5/2;
 8/6=4,10=90,11=11/1;
 11/6=1,8=1,9=11,15=111,16=1,31=1/1,2,10;
 10/6=1,13=1,31=1/2;
 6/7=2,8=2,9=2,10=2,28=1/1;
 7/10=1,18=20,25=1,30=1/1,2,3,16;
 1/10=4,14=-1,18=20,19=15,26=4/3(2);
 2/9=110,15=1/2;
 99//99;
 2/9=110,15=1/2;
 3/5=4,6=6,7=101,11=2,16=1,25=1,30=1,71=1,74=-5,75=-5,124=41/1,2,3;
 4/5=5,16=3,69=1/1;
 5/5=2,38=5/2;
 7/30=1/1,2,3,16;
 1/14=-1,18=20,19=15,26=4/3(-5);
 2/9=110,15=1/2;
 6/7=2,8=2,9=2,10=2,19=2,28=1/1;
 99/9=1/99;
 ------------------------------------------------------------
 Candidate Structure: Conf:455 OPT and FREQ calc in gas phase
 ------------------------------------------------------------
 Symbolic Z-matrix:
 Charge =  0 Multiplicity = 1
 O                     0.28008  -0.25923  -1.27944 
 C                     0.9495   -0.15887  -0.2498 
 N                     0.4937   -0.52865   0.97949 
 C                    -0.61605  -1.43415   1.23982 
 C                    -0.16578  -2.89331   1.09177 
 O                    -1.0117   -3.80859   1.62216 
 O                     0.85198  -3.23587   0.56269 
 C                    -1.87574  -1.18421   0.39051 
 C                    -2.39463   0.209     0.52312 
 C                    -3.31851   0.77342   1.35646 
 N                    -3.40808   2.13496   1.12826 
 C                    -2.54901   2.37777   0.1668 
 N                    -1.91356   1.2507   -0.23435 
 C                     2.35746   0.42422  -0.24031 
 C                     2.66699   1.2558   -1.48472 
 N                     3.99632   1.85969  -1.50811 
 H                     1.17862  -0.50482   1.71547 
 H                    -0.87804  -1.28132   2.29154 
 H                    -1.75658  -3.37408   2.04376 
 H                    -2.65134  -1.87719   0.72534 
 H                    -1.66079  -1.41998  -0.64787 
 H                    -3.9224    0.28943   2.11093 
 H                    -2.33695   3.33354  -0.27858 
 H                    -1.20225   1.15599  -0.94843 
 H                     2.49242   1.02514   0.66613 
 H                     3.07123  -0.40887  -0.17155 
 H                     2.56078   0.62307  -2.36526 
 H                     1.9279    2.05322  -1.57997 
 H                     4.12507   2.46199  -0.70287 
 H                     4.70929   1.14111  -1.45005 
 

 GradGradGradGradGradGradGradGradGradGradGradGradGradGradGradGradGradGrad
 Berny optimization.
 Initialization pass.
                           ----------------------------
                           !    Initial Parameters    !
                           ! (Angstroms and Degrees)  !
 --------------------------                            --------------------------
 ! Name  Definition              Value          Derivative Info.                !
 --------------------------------------------------------------------------------
 ! R1    R(1,2)                  1.2322         calculate D2E/DX2 analytically  !
 ! R2    R(2,3)                  1.3622         calculate D2E/DX2 analytically  !
 ! R3    R(2,14)                 1.524          calculate D2E/DX2 analytically  !
 ! R4    R(3,4)                  1.4558         calculate D2E/DX2 analytically  !
 ! R5    R(3,17)                 1.0057         calculate D2E/DX2 analytically  !
 ! R6    R(4,5)                  1.5342         calculate D2E/DX2 analytically  !
 ! R7    R(4,8)                  1.5397         calculate D2E/DX2 analytically  !
 ! R8    R(4,18)                 1.0946         calculate D2E/DX2 analytically  !
 ! R9    R(5,6)                  1.3545         calculate D2E/DX2 analytically  !
 ! R10   R(5,7)                  1.1971         calculate D2E/DX2 analytically  !
 ! R11   R(6,19)                 0.9599         calculate D2E/DX2 analytically  !
 ! R12   R(8,9)                  1.4926         calculate D2E/DX2 analytically  !
 ! R13   R(8,20)                 1.0927         calculate D2E/DX2 analytically  !
 ! R14   R(8,21)                 1.0863         calculate D2E/DX2 analytically  !
 ! R15   R(9,10)                 1.3662         calculate D2E/DX2 analytically  !
 ! R16   R(9,13)                 1.3749         calculate D2E/DX2 analytically  !
 ! R17   R(10,11)                1.3834         calculate D2E/DX2 analytically  !
 ! R18   R(10,22)                1.0808         calculate D2E/DX2 analytically  !
 ! R19   R(11,12)                1.312          calculate D2E/DX2 analytically  !
 ! R20   R(12,13)                1.3546         calculate D2E/DX2 analytically  !
 ! R21   R(12,23)                1.0756         calculate D2E/DX2 analytically  !
 ! R22   R(13,24)                1.0123         calculate D2E/DX2 analytically  !
 ! R23   R(14,15)                1.5284         calculate D2E/DX2 analytically  !
 ! R24   R(14,25)                1.0959         calculate D2E/DX2 analytically  !
 ! R25   R(14,26)                1.0992         calculate D2E/DX2 analytically  !
 ! R26   R(15,16)                1.4603         calculate D2E/DX2 analytically  !
 ! R27   R(15,27)                1.0895         calculate D2E/DX2 analytically  !
 ! R28   R(15,28)                1.0914         calculate D2E/DX2 analytically  !
 ! R29   R(16,29)                1.0138         calculate D2E/DX2 analytically  !
 ! R30   R(16,30)                1.0139         calculate D2E/DX2 analytically  !
 ! A1    A(1,2,3)              123.3788         calculate D2E/DX2 analytically  !
 ! A2    A(1,2,14)             122.5669         calculate D2E/DX2 analytically  !
 ! A3    A(3,2,14)             114.0402         calculate D2E/DX2 analytically  !
 ! A4    A(2,3,4)              125.8242         calculate D2E/DX2 analytically  !
 ! A5    A(2,3,17)             115.2206         calculate D2E/DX2 analytically  !
 ! A6    A(4,3,17)             113.7692         calculate D2E/DX2 analytically  !
 ! A7    A(3,4,5)              110.5236         calculate D2E/DX2 analytically  !
 ! A8    A(3,4,8)              115.0915         calculate D2E/DX2 analytically  !
 ! A9    A(3,4,18)             105.512          calculate D2E/DX2 analytically  !
 ! A10   A(5,4,8)              109.9549         calculate D2E/DX2 analytically  !
 ! A11   A(5,4,18)             107.2037         calculate D2E/DX2 analytically  !
 ! A12   A(8,4,18)             108.1509         calculate D2E/DX2 analytically  !
 ! A13   A(4,5,6)              114.9362         calculate D2E/DX2 analytically  !
 ! A14   A(4,5,7)              124.355          calculate D2E/DX2 analytically  !
 ! A15   A(6,5,7)              120.707          calculate D2E/DX2 analytically  !
 ! A16   A(5,6,19)             110.5326         calculate D2E/DX2 analytically  !
 ! A17   A(4,8,9)              112.7642         calculate D2E/DX2 analytically  !
 ! A18   A(4,8,20)             107.9844         calculate D2E/DX2 analytically  !
 ! A19   A(4,8,21)             109.2787         calculate D2E/DX2 analytically  !
 ! A20   A(9,8,20)             108.5416         calculate D2E/DX2 analytically  !
 ! A21   A(9,8,21)             110.8736         calculate D2E/DX2 analytically  !
 ! A22   A(20,8,21)            107.201          calculate D2E/DX2 analytically  !
 ! A23   A(8,9,10)             132.4452         calculate D2E/DX2 analytically  !
 ! A24   A(8,9,13)             122.4539         calculate D2E/DX2 analytically  !
 ! A25   A(10,9,13)            105.0494         calculate D2E/DX2 analytically  !
 ! A26   A(9,10,11)            110.4721         calculate D2E/DX2 analytically  !
 ! A27   A(9,10,22)            128.2159         calculate D2E/DX2 analytically  !
 ! A28   A(11,10,22)           121.311          calculate D2E/DX2 analytically  !
 ! A29   A(10,11,12)           105.1067         calculate D2E/DX2 analytically  !
 ! A30   A(11,12,13)           111.7273         calculate D2E/DX2 analytically  !
 ! A31   A(11,12,23)           126.6557         calculate D2E/DX2 analytically  !
 ! A32   A(13,12,23)           121.6167         calculate D2E/DX2 analytically  !
 ! A33   A(9,13,12)            107.644          calculate D2E/DX2 analytically  !
 ! A34   A(9,13,24)            124.304          calculate D2E/DX2 analytically  !
 ! A35   A(12,13,24)           128.0481         calculate D2E/DX2 analytically  !
 ! A36   A(2,14,15)            112.968          calculate D2E/DX2 analytically  !
 ! A37   A(2,14,25)            109.1919         calculate D2E/DX2 analytically  !
 ! A38   A(2,14,26)            108.079          calculate D2E/DX2 analytically  !
 ! A39   A(15,14,25)           110.4976         calculate D2E/DX2 analytically  !
 ! A40   A(15,14,26)           109.3782         calculate D2E/DX2 analytically  !
 ! A41   A(25,14,26)           106.4924         calculate D2E/DX2 analytically  !
 ! A42   A(14,15,16)           114.9869         calculate D2E/DX2 analytically  !
 ! A43   A(14,15,27)           108.8035         calculate D2E/DX2 analytically  !
 ! A44   A(14,15,28)           109.3562         calculate D2E/DX2 analytically  !
 ! A45   A(16,15,27)           108.4196         calculate D2E/DX2 analytically  !
 ! A46   A(16,15,28)           108.2352         calculate D2E/DX2 analytically  !
 ! A47   A(27,15,28)           106.7251         calculate D2E/DX2 analytically  !
 ! A48   A(15,16,29)           110.4008         calculate D2E/DX2 analytically  !
 ! A49   A(15,16,30)           110.2504         calculate D2E/DX2 analytically  !
 ! A50   A(29,16,30)           106.6351         calculate D2E/DX2 analytically  !
 ! D1    D(1,2,3,4)             19.7155         calculate D2E/DX2 analytically  !
 ! D2    D(1,2,3,17)           172.5228         calculate D2E/DX2 analytically  !
 ! D3    D(14,2,3,4)          -161.625          calculate D2E/DX2 analytically  !
 ! D4    D(14,2,3,17)           -8.8176         calculate D2E/DX2 analytically  !
 ! D5    D(1,2,14,15)           18.4503         calculate D2E/DX2 analytically  !
 ! D6    D(1,2,14,25)          141.8325         calculate D2E/DX2 analytically  !
 ! D7    D(1,2,14,26)         -102.7103         calculate D2E/DX2 analytically  !
 ! D8    D(3,2,14,15)         -160.2215         calculate D2E/DX2 analytically  !
 ! D9    D(3,2,14,25)          -36.8393         calculate D2E/DX2 analytically  !
 ! D10   D(3,2,14,26)           78.6178         calculate D2E/DX2 analytically  !
 ! D11   D(2,3,4,5)             79.9655         calculate D2E/DX2 analytically  !
 ! D12   D(2,3,4,8)            -45.3216         calculate D2E/DX2 analytically  !
 ! D13   D(2,3,4,18)          -164.4618         calculate D2E/DX2 analytically  !
 ! D14   D(17,3,4,5)           -73.1791         calculate D2E/DX2 analytically  !
 ! D15   D(17,3,4,8)           161.5337         calculate D2E/DX2 analytically  !
 ! D16   D(17,3,4,18)           42.3935         calculate D2E/DX2 analytically  !
 ! D17   D(3,4,5,6)            164.5717         calculate D2E/DX2 analytically  !
 ! D18   D(3,4,5,7)            -14.9493         calculate D2E/DX2 analytically  !
 ! D19   D(8,4,5,6)            -67.2837         calculate D2E/DX2 analytically  !
 ! D20   D(8,4,5,7)            113.1952         calculate D2E/DX2 analytically  !
 ! D21   D(18,4,5,6)            50.062          calculate D2E/DX2 analytically  !
 ! D22   D(18,4,5,7)          -129.4591         calculate D2E/DX2 analytically  !
 ! D23   D(3,4,8,9)            -56.2643         calculate D2E/DX2 analytically  !
 ! D24   D(3,4,8,20)          -176.1842         calculate D2E/DX2 analytically  !
 ! D25   D(3,4,8,21)            67.5248         calculate D2E/DX2 analytically  !
 ! D26   D(5,4,8,9)            178.1539         calculate D2E/DX2 analytically  !
 ! D27   D(5,4,8,20)            58.234          calculate D2E/DX2 analytically  !
 ! D28   D(5,4,8,21)           -58.057          calculate D2E/DX2 analytically  !
 ! D29   D(18,4,8,9)            61.3994         calculate D2E/DX2 analytically  !
 ! D30   D(18,4,8,20)          -58.5205         calculate D2E/DX2 analytically  !
 ! D31   D(18,4,8,21)         -174.8115         calculate D2E/DX2 analytically  !
 ! D32   D(4,5,6,19)            -2.2359         calculate D2E/DX2 analytically  !
 ! D33   D(7,5,6,19)           177.3042         calculate D2E/DX2 analytically  !
 ! D34   D(4,8,9,10)           -91.9136         calculate D2E/DX2 analytically  !
 ! D35   D(4,8,9,13)            85.0596         calculate D2E/DX2 analytically  !
 ! D36   D(20,8,9,10)           27.6848         calculate D2E/DX2 analytically  !
 ! D37   D(20,8,9,13)         -155.3421         calculate D2E/DX2 analytically  !
 ! D38   D(21,8,9,10)          145.1832         calculate D2E/DX2 analytically  !
 ! D39   D(21,8,9,13)          -37.8436         calculate D2E/DX2 analytically  !
 ! D40   D(8,9,10,11)          177.1271         calculate D2E/DX2 analytically  !
 ! D41   D(8,9,10,22)           -2.4995         calculate D2E/DX2 analytically  !
 ! D42   D(13,9,10,11)          -0.2284         calculate D2E/DX2 analytically  !
 ! D43   D(13,9,10,22)        -179.855          calculate D2E/DX2 analytically  !
 ! D44   D(8,9,13,12)         -177.4772         calculate D2E/DX2 analytically  !
 ! D45   D(8,9,13,24)            1.8542         calculate D2E/DX2 analytically  !
 ! D46   D(10,9,13,12)           0.2103         calculate D2E/DX2 analytically  !
 ! D47   D(10,9,13,24)         179.5417         calculate D2E/DX2 analytically  !
 ! D48   D(9,10,11,12)           0.157          calculate D2E/DX2 analytically  !
 ! D49   D(22,10,11,12)        179.8136         calculate D2E/DX2 analytically  !
 ! D50   D(10,11,12,13)         -0.0184         calculate D2E/DX2 analytically  !
 ! D51   D(10,11,12,23)       -179.8148         calculate D2E/DX2 analytically  !
 ! D52   D(11,12,13,9)          -0.1235         calculate D2E/DX2 analytically  !
 ! D53   D(11,12,13,24)       -179.4222         calculate D2E/DX2 analytically  !
 ! D54   D(23,12,13,9)         179.6847         calculate D2E/DX2 analytically  !
 ! D55   D(23,12,13,24)          0.386          calculate D2E/DX2 analytically  !
 ! D56   D(2,14,15,16)         178.7562         calculate D2E/DX2 analytically  !
 ! D57   D(2,14,15,27)         -59.4451         calculate D2E/DX2 analytically  !
 ! D58   D(2,14,15,28)          56.7759         calculate D2E/DX2 analytically  !
 ! D59   D(25,14,15,16)         56.0991         calculate D2E/DX2 analytically  !
 ! D60   D(25,14,15,27)        177.8978         calculate D2E/DX2 analytically  !
 ! D61   D(25,14,15,28)        -65.8812         calculate D2E/DX2 analytically  !
 ! D62   D(26,14,15,16)        -60.8223         calculate D2E/DX2 analytically  !
 ! D63   D(26,14,15,27)         60.9764         calculate D2E/DX2 analytically  !
 ! D64   D(26,14,15,28)        177.1974         calculate D2E/DX2 analytically  !
 ! D65   D(14,15,16,29)        -58.4127         calculate D2E/DX2 analytically  !
 ! D66   D(14,15,16,30)         59.1529         calculate D2E/DX2 analytically  !
 ! D67   D(27,15,16,29)        179.5809         calculate D2E/DX2 analytically  !
 ! D68   D(27,15,16,30)        -62.8534         calculate D2E/DX2 analytically  !
 ! D69   D(28,15,16,29)         64.1716         calculate D2E/DX2 analytically  !
 ! D70   D(28,15,16,30)       -178.2628         calculate D2E/DX2 analytically  !
 --------------------------------------------------------------------------------
 Trust Radius=3.00D-01 FncErr=1.00D-07 GrdErr=1.00D-06
 Number of steps in this run=    160 maximum allowed number of steps=    180.
 GradGradGradGradGradGradGradGradGradGradGradGradGradGradGradGradGradGrad

                          Input orientation:                          
 ---------------------------------------------------------------------
 Center     Atomic      Atomic             Coordinates (Angstroms)
 Number     Number       Type             X           Y           Z
 ---------------------------------------------------------------------
      1          8           0        0.280076   -0.259227   -1.279438
      2          6           0        0.949501   -0.158872   -0.249798
      3          7           0        0.493702   -0.528654    0.979487
      4          6           0       -0.616052   -1.434154    1.239824
      5          6           0       -0.165782   -2.893307    1.091772
      6          8           0       -1.011697   -3.808590    1.622156
      7          8           0        0.851977   -3.235870    0.562694
      8          6           0       -1.875739   -1.184206    0.390509
      9          6           0       -2.394627    0.209002    0.523119
     10          6           0       -3.318514    0.773416    1.356456
     11          7           0       -3.408081    2.134965    1.128260
     12          6           0       -2.549011    2.377768    0.166802
     13          7           0       -1.913559    1.250695   -0.234345
     14          6           0        2.357461    0.424218   -0.240307
     15          6           0        2.666987    1.255801   -1.484724
     16          7           0        3.996323    1.859687   -1.508106
     17          1           0        1.178621   -0.504817    1.715468
     18          1           0       -0.878044   -1.281316    2.291542
     19          1           0       -1.756579   -3.374081    2.043759
     20          1           0       -2.651343   -1.877186    0.725335
     21          1           0       -1.660789   -1.419981   -0.647874
     22          1           0       -3.922403    0.289426    2.110935
     23          1           0       -2.336948    3.333540   -0.278585
     24          1           0       -1.202253    1.155990   -0.948429
     25          1           0        2.492418    1.025139    0.666134
     26          1           0        3.071227   -0.408875   -0.171547
     27          1           0        2.560782    0.623066   -2.365263
     28          1           0        1.927898    2.053224   -1.579966
     29          1           0        4.125069    2.461991   -0.702866
     30          1           0        4.709286    1.141108   -1.450048
 ---------------------------------------------------------------------
                    Distance matrix (angstroms):
                    1          2          3          4          5
     1  O    0.000000
     2  C    1.232217   0.000000
     3  N    2.284943   1.362216   0.000000
     4  C    2.920647   2.509237   1.455768   0.000000
     5  C    3.572087   3.243578   2.457460   1.534205   0.000000
     6  O    4.762972   4.546531   3.665682   2.437346   1.354482
     7  O    3.546961   3.183955   2.762444   2.420701   1.197125
     8  C    2.879558   3.072993   2.528022   1.539683   2.517289
     9  C    3.259216   3.451945   3.015767   2.525264   3.862051
    10  C    4.578661   4.654585   4.046045   3.491457   4.842997
    11  N    5.013150   5.113634   4.726617   4.532823   5.983088
    12  C    4.129053   4.341391   4.285539   4.406638   5.858291
    13  N    2.860790   3.191274   3.230228   3.326427   4.688930
    14  C    2.421243   1.523954   2.422696   3.806062   4.375747
    15  C    2.834571   2.544819   3.738955   5.043547   5.646062
    16  N    4.283990   3.865365   4.915348   6.298770   6.831796
    17  H    3.136425   2.008593   1.005660   2.076236   2.810925
    18  H    3.890734   3.325389   2.041979   1.094583   2.131965
    19  H    4.989381   4.787572   3.780595   2.389651   1.915217
    20  H    3.902579   4.107257   3.431390   2.145550   2.710127
    21  H    2.348017   2.926171   2.843343   2.157564   2.726189
    22  H    5.427382   5.432262   4.631567   3.829037   5.027989
    23  H    4.556149   4.795677   4.950946   5.291310   6.735388
    24  H    2.075983   2.616676   3.071017   3.441065   4.651182
    25  H    3.213923   2.149746   2.550947   4.004975   4.754095
    26  H    3.006715   2.137837   2.825396   4.079117   4.271605
    27  H    2.675644   2.771795   4.097148   5.226956   5.634724
    28  H    2.855356   2.760430   3.908172   5.156035   5.999154
    29  H    4.745674   4.142273   4.996108   6.436786   7.093049
    30  H    4.648434   4.155301   5.144112   6.498200   6.819358
                    6          7          8          9         10
     6  O    0.000000
     7  O    2.218952   0.000000
     8  C    3.025048   3.417515   0.000000
     9  C    4.388784   4.733831   1.492602   0.000000
    10  C    5.136806   5.839300   2.616665   1.366228   0.000000
    11  N    6.427475   6.878505   3.729510   2.258897   1.383442
    12  C    6.538533   6.575438   3.631941   2.203256   2.140410
    13  N    5.464094   5.330360   2.514084   1.374883   2.175395
    14  C    5.721595   4.038259   4.572192   4.817829   5.906630
    15  C    6.988095   5.259401   5.486939   5.545012   6.643133
    16  N    8.185851   6.335600   6.881216   6.906147   7.930481
    17  H    3.964986   2.982321   3.397970   3.833971   4.689028
    18  H    2.617834   3.130842   2.149128   2.765573   3.324485
    19  H    0.959894   3.002869   2.746450   3.944355   4.484836
    20  H    2.687573   3.761080   1.092652   2.111628   2.805195
    21  H    3.358543   3.328202   1.086293   2.136195   3.402407
    22  H    5.050233   6.133471   3.052915   2.204932   1.080818
    23  H    7.508604   7.350792   4.590254   3.226266   3.192345
    24  H    5.593860   5.078562   2.779003   2.117545   3.152367
    25  H    6.046300   4.567051   4.902854   4.956787   5.857204
    26  H    5.607647   3.668254   5.038802   5.544357   6.675432
    27  H    6.949941   5.136568   5.526593   5.750676   6.959879
    28  H    7.297648   5.807161   5.369486   5.148625   6.146976
    29  H    8.432809   6.691815   7.106330   7.006099   7.905632
    30  H    8.165022   6.171539   7.222000   7.431540   8.512181
                   11         12         13         14         15
    11  N    0.000000
    12  C    1.312005   0.000000
    13  N    2.207312   1.354626   0.000000
    14  C    6.167747   5.296749   4.350254   0.000000
    15  C    6.671362   5.585068   4.748144   1.528369   0.000000
    16  N    7.864566   6.776069   6.076186   2.520666   1.460259
    17  H    5.324574   4.960130   4.055264   2.465324   3.944140
    18  H    4.407413   4.549236   3.723370   4.448325   5.767530
    19  H    5.823674   6.102022   5.157806   6.047260   7.311220
    20  H    4.102725   4.292675   3.353946   5.596162   6.556264
    21  H    4.341120   3.984411   2.714297   4.439990   5.156528
    22  H    2.153181   3.166548   3.234166   6.706951   7.568534
    23  H    2.136147   1.075566   2.125902   5.522960   5.550778
    24  H    3.183820   2.133129   1.012344   3.702498   3.907505
    25  H    6.021724   5.243561   4.502707   1.095881   2.170224
    26  H    7.081105   6.282271   5.254161   1.099197   2.158469
    27  H    7.079398   5.966600   4.995443   2.143903   1.089487
    28  H    5.984467   4.816559   4.148679   2.152411   1.091424
    29  H    7.759402   6.731029   6.176712   2.736954   2.047485
    30  H    8.574793   7.538328   6.734390   2.740162   2.045810
                   16         17         18         19         20
    16  N    0.000000
    17  H    4.890987   0.000000
    18  H    6.932725   2.272594   0.000000
    19  H    8.550085   4.117749   2.283175   0.000000
    20  H    7.946316   4.187168   2.439806   2.186216   0.000000
    21  H    6.595388   3.805938   3.045010   3.327548   1.753835
    22  H    8.846999   5.177611   3.430448   4.256359   2.868743
    23  H    6.617725   5.573908   5.480041   7.121958   5.315859
    24  H    5.275757   3.939948   4.067307   5.457290   3.755197
    25  H    2.772277   2.273308   4.395646   6.269368   5.906375
    26  H    2.790800   2.674321   4.735473   6.083399   5.975629
    27  H    2.079598   4.453634   6.094098   7.352296   6.555097
    28  H    2.078702   4.238499   5.829326   7.494157   6.460029
    29  H    1.013783   4.830305   6.928922   8.729116   8.172390
    30  H    1.013925   5.019478   7.147439   8.625603   8.247499
                   21         22         23         24         25
    21  H    0.000000
    22  H    3.955755   0.000000
    23  H    4.815551   4.182117   0.000000
    24  H    2.633669   4.184478   2.545182   0.000000
    25  H    4.995434   6.616543   5.435437   4.034170   0.000000
    26  H    4.862222   7.389737   6.577650   4.616815   1.758729
    27  H    4.994510   7.885388   5.973998   4.056089   3.058709
    28  H    5.080416   7.138610   4.639150   3.316883   2.533891
    29  H    6.967703   8.797688   6.534315   5.490564   2.569874
    30  H    6.912345   9.376140   7.471847   5.932801   3.066949
                   26         27         28         29         30
    26  H    0.000000
    27  H    2.477467   0.000000
    28  H    3.058230   1.750024   0.000000
    29  H    3.103989   2.931245   2.400823   0.000000
    30  H    2.592343   2.392081   2.930009   1.626137   0.000000
 Symmetry turned off by external request.
 Stoichiometry    C9H14N4O3
 Framework group  C1[X(C9H14N4O3)]
 Deg. of freedom    84
 Full point group                 C1      NOp   1
 Rotational constants (GHZ):      0.5402563      0.4097795      0.2497933
 Standard basis: 6-311G(d,p) (5D, 7F)
   372 basis functions,   624 primitive gaussians,   388 cartesian basis functions
    60 alpha electrons       60 beta electrons
       nuclear repulsion energy      1133.9479686227 Hartrees.
 NAtoms=   30 NActive=   30 NUniq=   30 SFac= 1.00D+00 NAtFMM=   60 NAOKFM=F Big=F
 Integral buffers will be    131072 words long.
 Raffenetti 2 integral format.
 Two-electron integral symmetry is turned off.
 Nuclear repulsion after empirical dispersion term =     1133.8925071366 Hartrees.
 One-electron integrals computed using PRISM.
 NBasis=   372 RedAO= T EigKep=  5.05D-04  NBF=   372
 NBsUse=   372 1.00D-06 EigRej= -1.00D+00 NBFU=   372
 ExpMin= 1.03D-01 ExpMax= 8.59D+03 ExpMxC= 1.30D+03 IAcc=3 IRadAn=         5 AccDes= 0.00D+00
 Harris functional with IExCor=  402 and IRadAn=       5 diagonalized for initial guess.
 HarFok:  IExCor=  402 AccDes= 0.00D+00 IRadAn=         5 IDoV= 1 UseB2=F ITyADJ=14
 ICtDFT=  3500011 ScaDFX=  1.000000  1.000000  1.000000  1.000000
 FoFCou: FMM=F IPFlag=           0 FMFlag=      100000 FMFlg1=           0
         NFxFlg=           0 DoJE=T BraDBF=F KetDBF=T FulRan=T
         wScrn=  0.000000 ICntrl=     500 IOpCl=  0 I1Cent=   200000004 NGrid=           0
         NMat0=    1 NMatS0=      1 NMatT0=    0 NMatD0=    1 NMtDS0=    0 NMtDT0=    0
 Symmetry not used in FoFCou.
 Requested convergence on RMS density matrix=1.00D-08 within 128 cycles.
 Requested convergence on MAX density matrix=1.00D-06.
 Requested convergence on             energy=1.00D-06.
 No special actions if energy rises.
 Integral accuracy reduced to 1.0D-05 until final iterations.
 Initial convergence to 1.0D-05 achieved.  Increase integral accuracy.
 SCF Done:  E(RB3LYP) =  -796.353638188     A.U. after   14 cycles
            NFock= 14  Conv=0.62D-08     -V/T= 2.0034
 DoSCS=F DFT=T ScalE2(SS,OS)=  1.000000  1.000000
 Range of M.O.s used for correlation:     1   372
 NBasis=   372 NAE=    60 NBE=    60 NFC=     0 NFV=     0
 NROrb=    372 NOA=    60 NOB=    60 NVA=   312 NVB=   312
 Symmetrizing basis deriv contribution to polar:
 IMax=3 JMax=2 DiffMx= 0.00D+00
 G2DrvN: will do    31 centers at a time, making    1 passes.
 Calling FoFCou, ICntrl=  3107 FMM=F I1Cent=   0 AccDes= 0.00D+00.
 End of G2Drv F.D. properties file   721 does not exist.
 End of G2Drv F.D. properties file   722 does not exist.
 End of G2Drv F.D. properties file   788 does not exist.
          IDoAtm=111111111111111111111111111111
          Differentiating once with respect to nuclear coordinates.
          There are    93 degrees of freedom in the 1st order CPHF.  IDoFFX=6 NUNeed=     0.
     87 vectors produced by pass  0 Test12= 2.01D-14 1.08D-09 XBig12= 1.88D-01 8.67D-02.
 AX will form    87 AO Fock derivatives at one time.
     87 vectors produced by pass  1 Test12= 2.01D-14 1.08D-09 XBig12= 2.52D-02 3.73D-02.
     87 vectors produced by pass  2 Test12= 2.01D-14 1.08D-09 XBig12= 2.97D-04 4.15D-03.
     87 vectors produced by pass  3 Test12= 2.01D-14 1.08D-09 XBig12= 1.19D-06 1.87D-04.
     87 vectors produced by pass  4 Test12= 2.01D-14 1.08D-09 XBig12= 2.53D-09 3.87D-06.
     79 vectors produced by pass  5 Test12= 2.01D-14 1.08D-09 XBig12= 3.13D-12 1.50D-07.
     26 vectors produced by pass  6 Test12= 2.01D-14 1.08D-09 XBig12= 3.08D-15 6.40D-09.
 InvSVY:  IOpt=1 It=  1 EMax= 5.55D-16
 Solved reduced A of dimension   540 with    93 vectors.
 End of Minotr F.D. properties file   721 does not exist.
 End of Minotr F.D. properties file   722 does not exist.
 End of Minotr F.D. properties file   788 does not exist.

 **********************************************************************

            Population analysis using the SCF density.

 **********************************************************************

 Alpha  occ. eigenvalues --  -19.18809 -19.12595 -19.10980 -14.36490 -14.35889
 Alpha  occ. eigenvalues --  -14.29571 -14.28438 -10.32178 -10.29846 -10.25995
 Alpha  occ. eigenvalues --  -10.21745 -10.20914 -10.20528 -10.20224 -10.19499
 Alpha  occ. eigenvalues --  -10.17979  -1.12959  -1.06385  -1.04820  -1.01673
 Alpha  occ. eigenvalues --   -0.95937  -0.89512  -0.86935  -0.82687  -0.77520
 Alpha  occ. eigenvalues --   -0.74689  -0.69045  -0.65493  -0.63468  -0.61321
 Alpha  occ. eigenvalues --   -0.60617  -0.59416  -0.56919  -0.54349  -0.53602
 Alpha  occ. eigenvalues --   -0.51797  -0.50057  -0.47770  -0.46977  -0.46128
 Alpha  occ. eigenvalues --   -0.45840  -0.44676  -0.43988  -0.43307  -0.42403
 Alpha  occ. eigenvalues --   -0.41585  -0.41145  -0.40860  -0.39941  -0.39377
 Alpha  occ. eigenvalues --   -0.38715  -0.35883  -0.34477  -0.30870  -0.29190
 Alpha  occ. eigenvalues --   -0.28316  -0.27868  -0.26623  -0.24770  -0.23150
 Alpha virt. eigenvalues --   -0.02150  -0.00971  -0.00630   0.01841   0.02545
 Alpha virt. eigenvalues --    0.03015   0.04975   0.05602   0.07086   0.07256
 Alpha virt. eigenvalues --    0.07952   0.09249   0.10085   0.10488   0.11817
 Alpha virt. eigenvalues --    0.12620   0.12979   0.14717   0.15778   0.17338
 Alpha virt. eigenvalues --    0.18596   0.20062   0.20297   0.21736   0.22882
 Alpha virt. eigenvalues --    0.23922   0.25058   0.25920   0.27457   0.28175
 Alpha virt. eigenvalues --    0.29612   0.30594   0.31334   0.32947   0.33488
 Alpha virt. eigenvalues --    0.33972   0.35846   0.36135   0.37242   0.37611
 Alpha virt. eigenvalues --    0.38644   0.39732   0.40610   0.41102   0.42249
 Alpha virt. eigenvalues --    0.42986   0.43887   0.44543   0.46561   0.46738
 Alpha virt. eigenvalues --    0.48272   0.49189   0.50519   0.50886   0.51948
 Alpha virt. eigenvalues --    0.52302   0.54130   0.54758   0.55356   0.56081
 Alpha virt. eigenvalues --    0.56183   0.57161   0.57813   0.58372   0.58595
 Alpha virt. eigenvalues --    0.59085   0.60301   0.61013   0.61646   0.61859
 Alpha virt. eigenvalues --    0.62096   0.63481   0.64366   0.66887   0.68393
 Alpha virt. eigenvalues --    0.69143   0.70078   0.71486   0.71942   0.72872
 Alpha virt. eigenvalues --    0.73364   0.74754   0.75041   0.75843   0.78466
 Alpha virt. eigenvalues --    0.79504   0.81071   0.82418   0.82789   0.83942
 Alpha virt. eigenvalues --    0.84897   0.87781   0.90676   0.91703   0.92912
 Alpha virt. eigenvalues --    0.93900   0.97079   0.97535   0.98538   1.00248
 Alpha virt. eigenvalues --    1.03137   1.04803   1.05096   1.06315   1.08660
 Alpha virt. eigenvalues --    1.09217   1.10495   1.11952   1.15141   1.15773
 Alpha virt. eigenvalues --    1.17503   1.18979   1.19343   1.21967   1.22768
 Alpha virt. eigenvalues --    1.24753   1.25733   1.27777   1.29283   1.31038
 Alpha virt. eigenvalues --    1.31982   1.33942   1.36397   1.37314   1.40156
 Alpha virt. eigenvalues --    1.41111   1.43318   1.44532   1.45942   1.46173
 Alpha virt. eigenvalues --    1.47897   1.48408   1.49488   1.52426   1.53969
 Alpha virt. eigenvalues --    1.53987   1.54773   1.56017   1.56484   1.57384
 Alpha virt. eigenvalues --    1.58942   1.60684   1.60936   1.61125   1.62832
 Alpha virt. eigenvalues --    1.63612   1.65631   1.67004   1.67628   1.68830
 Alpha virt. eigenvalues --    1.70533   1.70808   1.71787   1.72555   1.73029
 Alpha virt. eigenvalues --    1.73279   1.75255   1.76400   1.77292   1.78840
 Alpha virt. eigenvalues --    1.80162   1.82735   1.83721   1.84222   1.85433
 Alpha virt. eigenvalues --    1.89431   1.90996   1.91646   1.93640   1.95193
 Alpha virt. eigenvalues --    1.95874   1.97290   1.98136   2.01259   2.02458
 Alpha virt. eigenvalues --    2.04604   2.04978   2.07700   2.09467   2.11778
 Alpha virt. eigenvalues --    2.13108   2.16337   2.16581   2.18635   2.20102
 Alpha virt. eigenvalues --    2.22978   2.24294   2.25356   2.27436   2.29084
 Alpha virt. eigenvalues --    2.31467   2.35550   2.37090   2.38442   2.39778
 Alpha virt. eigenvalues --    2.40987   2.42568   2.44805   2.45585   2.46916
 Alpha virt. eigenvalues --    2.48387   2.49251   2.50368   2.53308   2.54741
 Alpha virt. eigenvalues --    2.55838   2.56928   2.58210   2.58498   2.59439
 Alpha virt. eigenvalues --    2.60887   2.61459   2.63420   2.64342   2.65687
 Alpha virt. eigenvalues --    2.67396   2.69734   2.71679   2.72210   2.73264
 Alpha virt. eigenvalues --    2.75115   2.76076   2.77773   2.79841   2.80826
 Alpha virt. eigenvalues --    2.81663   2.82985   2.83236   2.85148   2.86567
 Alpha virt. eigenvalues --    2.87546   2.89135   2.90514   2.90911   2.92902
 Alpha virt. eigenvalues --    2.93489   2.95888   2.96846   3.00125   3.01084
 Alpha virt. eigenvalues --    3.02844   3.05179   3.05955   3.10368   3.11605
 Alpha virt. eigenvalues --    3.15473   3.16457   3.26133   3.28229   3.29201
 Alpha virt. eigenvalues --    3.33183   3.33696   3.35691   3.38051   3.46810
 Alpha virt. eigenvalues --    3.48081   3.49582   3.52415   3.56769   3.58976
 Alpha virt. eigenvalues --    3.59569   3.65854   3.67855   3.75525   3.77940
 Alpha virt. eigenvalues --    3.79830   3.81518   3.82526   3.82908   3.84510
 Alpha virt. eigenvalues --    3.85664   3.89575   3.94984   4.00124   4.02097
 Alpha virt. eigenvalues --    4.04128   4.16663   4.22402   4.28968   4.41789
 Alpha virt. eigenvalues --    4.71946   4.77078   4.78142   4.79073   4.84785
 Alpha virt. eigenvalues --    4.91160   4.92382   4.94911   5.00831   5.04987
 Alpha virt. eigenvalues --    5.14992   5.25862   5.26595   5.51044   5.67772
 Alpha virt. eigenvalues --    5.76970  23.71022  23.75584  23.76324  23.77823
 Alpha virt. eigenvalues --   23.82745  23.85555  23.89342  23.93409  24.15333
 Alpha virt. eigenvalues --   35.52550  35.56297  35.58927  35.69570  49.82938
 Alpha virt. eigenvalues --   49.97652  50.00610
          Condensed to atoms (all electrons):
               1          2          3          4          5          6
     1  O    7.956803   0.578545  -0.089264   0.001479  -0.001280  -0.000006
     2  C    0.578545   4.612998   0.351996  -0.083260   0.002696   0.000342
     3  N   -0.089264   0.351996   6.665685   0.239697  -0.039921   0.003876
     4  C    0.001479  -0.083260   0.239697   5.497482   0.236590  -0.104446
     5  C   -0.001280   0.002696  -0.039921   0.236590   4.497315   0.340041
     6  O   -0.000006   0.000342   0.003876  -0.104446   0.340041   7.793548
     7  O   -0.000962   0.015211  -0.000885  -0.110122   0.700978  -0.070649
     8  C    0.000262  -0.005171  -0.030584   0.277482  -0.058432   0.006898
     9  C   -0.007102  -0.004387  -0.000068  -0.084278   0.002196   0.000492
    10  C    0.000160  -0.000426  -0.000842  -0.004778  -0.000081  -0.000001
    11  N   -0.000010  -0.000035  -0.000009   0.000045   0.000002   0.000000
    12  C    0.000027   0.000416   0.000551   0.000019   0.000004   0.000000
    13  N   -0.011616   0.003450  -0.001054  -0.000076  -0.000083  -0.000001
    14  C   -0.096024   0.251795  -0.080760   0.006079  -0.000729   0.000000
    15  C    0.014048  -0.047828   0.004048  -0.000497   0.000008   0.000000
    16  N    0.000212   0.008147  -0.000067   0.000003   0.000000   0.000000
    17  H    0.003740  -0.033849   0.371539  -0.040750   0.001056   0.000068
    18  H   -0.000284   0.007164  -0.022759   0.374304  -0.032021   0.003337
    19  H    0.000002  -0.000115  -0.000116   0.009849  -0.038608   0.309467
    20  H    0.001193   0.000832   0.004874  -0.041471  -0.004276   0.006964
    21  H    0.016703  -0.000660  -0.004731  -0.044909   0.000288  -0.000513
    22  H    0.000005  -0.000006  -0.000049   0.000004  -0.000030  -0.000004
    23  H   -0.000069   0.000018   0.000042   0.000001   0.000000   0.000000
    24  H    0.031329  -0.003671  -0.001957  -0.000081  -0.000102   0.000005
    25  H    0.002242  -0.037222   0.003867   0.001567  -0.000036  -0.000001
    26  H    0.000398  -0.012602  -0.003453  -0.001421   0.000435   0.000007
    27  H    0.010439  -0.004843   0.000828   0.000060  -0.000003   0.000000
    28  H    0.002570   0.000116   0.000057  -0.000041   0.000004   0.000000
    29  H    0.000018  -0.000272   0.000000   0.000000   0.000000   0.000000
    30  H    0.000002   0.000171  -0.000011   0.000000   0.000000   0.000000
               7          8          9         10         11         12
     1  O   -0.000962   0.000262  -0.007102   0.000160  -0.000010   0.000027
     2  C    0.015211  -0.005171  -0.004387  -0.000426  -0.000035   0.000416
     3  N   -0.000885  -0.030584  -0.000068  -0.000842  -0.000009   0.000551
     4  C   -0.110122   0.277482  -0.084278  -0.004778   0.000045   0.000019
     5  C    0.700978  -0.058432   0.002196  -0.000081   0.000002   0.000004
     6  O   -0.070649   0.006898   0.000492  -0.000001   0.000000   0.000000
     7  O    7.750557  -0.000475  -0.000343  -0.000001   0.000000   0.000000
     8  C   -0.000475   5.043279   0.290794  -0.044239   0.008182   0.007194
     9  C   -0.000343   0.290794   5.129099   0.548162  -0.088248  -0.124348
    10  C   -0.000001  -0.044239   0.548162   4.876368   0.502900  -0.182180
    11  N    0.000000   0.008182  -0.088248   0.502900   6.433324   0.580305
    12  C    0.000000   0.007194  -0.124348  -0.182180   0.580305   4.742042
    13  N    0.000000  -0.047917   0.389057  -0.066398  -0.090728   0.429214
    14  C   -0.001091   0.000267  -0.000509  -0.000002   0.000000   0.000072
    15  C    0.000010   0.000034   0.000002   0.000001   0.000000  -0.000026
    16  N    0.000000   0.000000   0.000000   0.000000   0.000000   0.000000
    17  H    0.003966   0.006926  -0.000413  -0.000052   0.000000   0.000068
    18  H    0.001806  -0.028335  -0.003702   0.002459  -0.000152  -0.000338
    19  H    0.004338  -0.001613  -0.000072   0.000041   0.000001  -0.000002
    20  H   -0.000272   0.382712  -0.029057   0.001279   0.000129  -0.000141
    21  H    0.001806   0.408610  -0.031551   0.001233  -0.000384   0.000265
    22  H    0.000000   0.000663  -0.057513   0.425120  -0.024688   0.008392
    23  H    0.000000  -0.000445   0.005104   0.006357  -0.023505   0.414880
    24  H    0.000009   0.000313  -0.033127   0.008343   0.005357  -0.025055
    25  H   -0.000075  -0.000193   0.000068  -0.000010   0.000001   0.000008
    26  H    0.002293   0.000000   0.000005   0.000000   0.000000  -0.000001
    27  H   -0.000007  -0.000024   0.000011   0.000000   0.000000  -0.000004
    28  H    0.000001   0.000008  -0.000020  -0.000004   0.000000   0.000063
    29  H    0.000000   0.000000   0.000000   0.000000   0.000000   0.000000
    30  H   -0.000001   0.000000   0.000000   0.000000   0.000000   0.000000
              13         14         15         16         17         18
     1  O   -0.011616  -0.096024   0.014048   0.000212   0.003740  -0.000284
     2  C    0.003450   0.251795  -0.047828   0.008147  -0.033849   0.007164
     3  N   -0.001054  -0.080760   0.004048  -0.000067   0.371539  -0.022759
     4  C   -0.000076   0.006079  -0.000497   0.000003  -0.040750   0.374304
     5  C   -0.000083  -0.000729   0.000008   0.000000   0.001056  -0.032021
     6  O   -0.000001   0.000000   0.000000   0.000000   0.000068   0.003337
     7  O    0.000000  -0.001091   0.000010   0.000000   0.003966   0.001806
     8  C   -0.047917   0.000267   0.000034   0.000000   0.006926  -0.028335
     9  C    0.389057  -0.000509   0.000002   0.000000  -0.000413  -0.003702
    10  C   -0.066398  -0.000002   0.000001   0.000000  -0.000052   0.002459
    11  N   -0.090728   0.000000   0.000000   0.000000   0.000000  -0.000152
    12  C    0.429214   0.000072  -0.000026   0.000000   0.000068  -0.000338
    13  N    6.438688   0.000040  -0.000142   0.000000   0.000076  -0.000163
    14  C    0.000040   5.276060   0.346997  -0.059348   0.001785  -0.000183
    15  C   -0.000142   0.346997   4.814258   0.336628   0.000386   0.000018
    16  N    0.000000  -0.059348   0.336628   6.450363  -0.000123   0.000000
    17  H    0.000076   0.001785   0.000386  -0.000123   0.469125  -0.009190
    18  H   -0.000163  -0.000183   0.000018   0.000000  -0.009190   0.552533
    19  H    0.000010   0.000003   0.000000   0.000000  -0.000184   0.001887
    20  H    0.003423   0.000065  -0.000002   0.000000  -0.000173  -0.005629
    21  H   -0.001991   0.001005  -0.000045   0.000000  -0.000565   0.007665
    22  H    0.004595   0.000000   0.000000   0.000000  -0.000002   0.000231
    23  H   -0.037916   0.000006  -0.000003   0.000000   0.000002  -0.000003
    24  H    0.342095  -0.002294   0.001195   0.000015  -0.000222   0.000077
    25  H    0.000204   0.381748  -0.041660   0.004701  -0.000806  -0.000015
    26  H   -0.000015   0.372325  -0.028689   0.002511   0.000685   0.000000
    27  H    0.000003  -0.044225   0.403334  -0.026970  -0.000135   0.000000
    28  H    0.000214  -0.054205   0.405651  -0.028951  -0.000015   0.000000
    29  H   -0.000001  -0.001215  -0.057630   0.376084  -0.000008   0.000000
    30  H    0.000000  -0.001107  -0.058214   0.377096  -0.000003   0.000000
              19         20         21         22         23         24
     1  O    0.000002   0.001193   0.016703   0.000005  -0.000069   0.031329
     2  C   -0.000115   0.000832  -0.000660  -0.000006   0.000018  -0.003671
     3  N   -0.000116   0.004874  -0.004731  -0.000049   0.000042  -0.001957
     4  C    0.009849  -0.041471  -0.044909   0.000004   0.000001  -0.000081
     5  C   -0.038608  -0.004276   0.000288  -0.000030   0.000000  -0.000102
     6  O    0.309467   0.006964  -0.000513  -0.000004   0.000000   0.000005
     7  O    0.004338  -0.000272   0.001806   0.000000   0.000000   0.000009
     8  C   -0.001613   0.382712   0.408610   0.000663  -0.000445   0.000313
     9  C   -0.000072  -0.029057  -0.031551  -0.057513   0.005104  -0.033127
    10  C    0.000041   0.001279   0.001233   0.425120   0.006357   0.008343
    11  N    0.000001   0.000129  -0.000384  -0.024688  -0.023505   0.005357
    12  C   -0.000002  -0.000141   0.000265   0.008392   0.414880  -0.025055
    13  N    0.000010   0.003423  -0.001991   0.004595  -0.037916   0.342095
    14  C    0.000003   0.000065   0.001005   0.000000   0.000006  -0.002294
    15  C    0.000000  -0.000002  -0.000045   0.000000  -0.000003   0.001195
    16  N    0.000000   0.000000   0.000000   0.000000   0.000000   0.000015
    17  H   -0.000184  -0.000173  -0.000565  -0.000002   0.000002  -0.000222
    18  H    0.001887  -0.005629   0.007665   0.000231  -0.000003   0.000077
    19  H    0.462074   0.004808  -0.000134   0.000014   0.000000  -0.000001
    20  H    0.004808   0.577163  -0.017211   0.001716   0.000022  -0.000167
    21  H   -0.000134  -0.017211   0.484894  -0.000050  -0.000020   0.000994
    22  H    0.000014   0.001716  -0.000050   0.555713  -0.000393  -0.000254
    23  H    0.000000   0.000022  -0.000020  -0.000393   0.533431  -0.002970
    24  H   -0.000001  -0.000167   0.000994  -0.000254  -0.002970   0.433604
    25  H    0.000001  -0.000004  -0.000029   0.000000   0.000005  -0.000398
    26  H   -0.000005   0.000000  -0.000066   0.000000   0.000000   0.000104
    27  H    0.000000  -0.000001   0.000000   0.000000  -0.000001   0.000057
    28  H    0.000000   0.000000  -0.000036   0.000000   0.000025   0.000809
    29  H    0.000000   0.000000   0.000000   0.000000   0.000000   0.000005
    30  H    0.000000   0.000000   0.000000   0.000000   0.000000   0.000002
              25         26         27         28         29         30
     1  O    0.002242   0.000398   0.010439   0.002570   0.000018   0.000002
     2  C   -0.037222  -0.012602  -0.004843   0.000116  -0.000272   0.000171
     3  N    0.003867  -0.003453   0.000828   0.000057   0.000000  -0.000011
     4  C    0.001567  -0.001421   0.000060  -0.000041   0.000000   0.000000
     5  C   -0.000036   0.000435  -0.000003   0.000004   0.000000   0.000000
     6  O   -0.000001   0.000007   0.000000   0.000000   0.000000   0.000000
     7  O   -0.000075   0.002293  -0.000007   0.000001   0.000000  -0.000001
     8  C   -0.000193   0.000000  -0.000024   0.000008   0.000000   0.000000
     9  C    0.000068   0.000005   0.000011  -0.000020   0.000000   0.000000
    10  C   -0.000010   0.000000   0.000000  -0.000004   0.000000   0.000000
    11  N    0.000001   0.000000   0.000000   0.000000   0.000000   0.000000
    12  C    0.000008  -0.000001  -0.000004   0.000063   0.000000   0.000000
    13  N    0.000204  -0.000015   0.000003   0.000214  -0.000001   0.000000
    14  C    0.381748   0.372325  -0.044225  -0.054205  -0.001215  -0.001107
    15  C   -0.041660  -0.028689   0.403334   0.405651  -0.057630  -0.058214
    16  N    0.004701   0.002511  -0.026970  -0.028951   0.376084   0.377096
    17  H   -0.000806   0.000685  -0.000135  -0.000015  -0.000008  -0.000003
    18  H   -0.000015   0.000000   0.000000   0.000000   0.000000   0.000000
    19  H    0.000001  -0.000005   0.000000   0.000000   0.000000   0.000000
    20  H   -0.000004   0.000000  -0.000001   0.000000   0.000000   0.000000
    21  H   -0.000029  -0.000066   0.000000  -0.000036   0.000000   0.000000
    22  H    0.000000   0.000000   0.000000   0.000000   0.000000   0.000000
    23  H    0.000005   0.000000  -0.000001   0.000025   0.000000   0.000000
    24  H   -0.000398   0.000104   0.000057   0.000809   0.000005   0.000002
    25  H    0.592347  -0.028543   0.009274  -0.005581   0.007545  -0.000663
    26  H   -0.028543   0.545853  -0.007267   0.008594  -0.000884   0.006869
    27  H    0.009274  -0.007267   0.552354  -0.030081   0.009599  -0.010222
    28  H   -0.005581   0.008594  -0.030081   0.586687  -0.010469   0.010357
    29  H    0.007545  -0.000884   0.009599  -0.010469   0.539450  -0.043467
    30  H   -0.000663   0.006869  -0.010222   0.010357  -0.043467   0.535198
 Mulliken charges:
               1
     1  O   -0.413558
     2  C    0.400452
     3  N   -0.370528
     4  C   -0.128529
     5  C    0.393988
     6  O   -0.289424
     7  O   -0.296091
     8  C   -0.216196
     9  C    0.099749
    10  C   -0.073410
    11  N   -0.302487
    12  C    0.148576
    13  N   -0.352967
    14  C   -0.296551
    15  C   -0.091880
    16  N   -0.440300
    17  H    0.227067
    18  H    0.151294
    19  H    0.248353
    20  H    0.113223
    21  H    0.179433
    22  H    0.086535
    23  H    0.105432
    24  H    0.245987
    25  H    0.111660
    26  H    0.142865
    27  H    0.137823
    28  H    0.114247
    29  H    0.181244
    30  H    0.183992
 Sum of Mulliken charges =   0.00000
 Mulliken charges with hydrogens summed into heavy atoms:
               1
     1  O   -0.413558
     2  C    0.400452
     3  N   -0.143461
     4  C    0.022765
     5  C    0.393988
     6  O   -0.041071
     7  O   -0.296091
     8  C    0.076460
     9  C    0.099749
    10  C    0.013125
    11  N   -0.302487
    12  C    0.254008
    13  N   -0.106980
    14  C   -0.042027
    15  C    0.160190
    16  N   -0.075063
 APT charges:
               1
     1  O   -0.320795
     2  C    0.149185
     3  N   -0.588579
     4  C   -0.522961
     5  C   -0.455502
     6  O    0.061796
     7  O    0.068649
     8  C   -0.792874
     9  C   -0.263430
    10  C   -0.597710
    11  N    0.579774
    12  C   -0.662128
    13  N   -0.496912
    14  C   -0.728933
    15  C   -0.593018
    16  N   -0.851110
    17  H    0.598893
    18  H    0.473910
    19  H    0.457973
    20  H    0.578780
    21  H    0.231181
    22  H    0.713637
    23  H    0.560552
    24  H    0.146606
    25  H    0.287211
    26  H    0.464838
    27  H    0.344802
    28  H    0.174113
    29  H    0.410206
    30  H    0.571847
 Sum of APT charges =   0.00000
 APT charges with hydrogens summed into heavy atoms:
               1
     1  O   -0.320795
     2  C    0.149185
     3  N    0.010314
     4  C   -0.049051
     5  C   -0.455502
     6  O    0.519770
     7  O    0.068649
     8  C    0.017087
     9  C   -0.263430
    10  C    0.115927
    11  N    0.579774
    12  C   -0.101575
    13  N   -0.350306
    14  C    0.023115
    15  C   -0.074104
    16  N    0.130942
 Electronic spatial extent (au):  <R**2>=           4359.4964
 Charge=              0.0000 electrons
 Dipole moment (field-independent basis, Debye):
    X=              1.8977    Y=             -0.3398    Z=              3.0984  Tot=              3.6492
 Quadrupole moment (field-independent basis, Debye-Ang):
   XX=            -98.5616   YY=           -109.5961   ZZ=            -93.8196
   XY=             15.4003   XZ=              7.2046   YZ=             -6.4386
 Traceless Quadrupole moment (field-independent basis, Debye-Ang):
   XX=              2.0975   YY=             -8.9370   ZZ=              6.8395
   XY=             15.4003   XZ=              7.2046   YZ=             -6.4386
 Octapole moment (field-independent basis, Debye-Ang**2):
  XXX=            154.2800  YYY=            102.1385  ZZZ=            -39.1707  XYY=             13.0561
  XXY=            -49.0502  XXZ=            -10.1781  XZZ=             10.5462  YZZ=            -16.4820
  YYZ=            -29.9378  XYZ=             50.1270
 Hexadecapole moment (field-independent basis, Debye-Ang**3):
 XXXX=          -2977.2939 YYYY=          -2303.6469 ZZZZ=           -726.3870 XXXY=            159.5112
 XXXZ=            524.2118 YYYX=             82.1375 YYYZ=            291.4742 ZZZX=            457.4769
 ZZZY=            247.5312 XXYY=           -923.8118 XXZZ=           -650.3479 YYZZ=           -487.7327
 XXYZ=             69.7236 YYXZ=            211.3130 ZZXY=              4.8104
 N-N= 1.133892507137D+03 E-N=-4.128977690592D+03  KE= 7.936464857706D+02
  Exact polarizability:   0.000   0.000   0.000   0.000   0.000   0.000
 Approx polarizability: 192.807  -6.223 192.484 -28.848  -8.028 186.991
 Calling FoFJK, ICntrl=    100147 FMM=F ISym2X=0 I1Cent= 0 IOpClX= 0 NMat=1 NMatS=1 NMatT=0.
 -------------------------------------------------------------------
 Center     Atomic                   Forces (Hartrees/Bohr)
 Number     Number              X              Y              Z
 -------------------------------------------------------------------
      1        8           0.007300712    0.003137462    0.008631707
      2        6          -0.001112583   -0.003890862   -0.009945849
      3        7          -0.004339281   -0.003264806    0.000289081
      4        6           0.004864680   -0.000059802    0.002148275
      5        6           0.006789233   -0.002562295   -0.001563331
      6        8           0.002112634   -0.002337897   -0.001904780
      7        8          -0.001139260    0.000961028    0.000545287
      8        6          -0.006058070    0.003555688    0.000496695
      9        6           0.003983486   -0.007986857   -0.003460193
     10        6          -0.004330533    0.007549808    0.004195915
     11        7          -0.003269105   -0.002236664    0.003903729
     12        6          -0.001335910    0.003016088    0.000647046
     13        7           0.005045387   -0.001810843   -0.005383559
     14        6          -0.001868897   -0.001980346    0.001403385
     15        6           0.001544526    0.001030979   -0.001129585
     16        7          -0.000164161    0.000391644   -0.000713626
     17        1           0.002037689    0.000897170    0.001939612
     18        1          -0.002045667    0.000918589    0.000278275
     19        1          -0.004411715    0.001414499    0.002049277
     20        1          -0.000668638    0.000223644    0.000710118
     21        1           0.000729100   -0.000077116   -0.001056318
     22        1           0.000093694    0.000291879   -0.000989066
     23        1          -0.001085812    0.003148023   -0.000310627
     24        1          -0.000426947   -0.002212921    0.000132999
     25        1           0.000477790    0.000622509   -0.000055903
     26        1          -0.002309485   -0.000076163    0.000318972
     27        1          -0.001435581    0.000163701   -0.001144296
     28        1          -0.000910032    0.000795355   -0.000888343
     29        1           0.000552570    0.001214747    0.001150167
     30        1           0.001380177   -0.000836241   -0.000295066
 -------------------------------------------------------------------
 Cartesian Forces:  Max     0.009945849 RMS     0.002996862
 FormGI is forming the generalized inverse of G from B-inverse, IUseBI=4.

 GradGradGradGradGradGradGradGradGradGradGradGradGradGradGradGradGradGrad
 Berny optimization.
 Internal  Forces:  Max     0.011434347 RMS     0.002107488
 Search for a local minimum.
 Step number   1 out of a maximum of  160
 All quantities printed in internal units (Hartrees-Bohrs-Radians)
 Mixed Optimization -- RFO/linear search
 Second derivative matrix not updated -- analytic derivatives used.
 ITU=  0
     Eigenvalues ---   -0.00015   0.00080   0.00208   0.00310   0.00314
     Eigenvalues ---    0.00363   0.00546   0.00808   0.00916   0.01026
     Eigenvalues ---    0.01167   0.02002   0.02280   0.02642   0.02952
     Eigenvalues ---    0.03353   0.04071   0.04145   0.04285   0.04357
     Eigenvalues ---    0.04448   0.04674   0.04786   0.05275   0.05430
     Eigenvalues ---    0.06031   0.06316   0.06953   0.07678   0.08147
     Eigenvalues ---    0.08643   0.10290   0.10729   0.10756   0.11623
     Eigenvalues ---    0.12255   0.12615   0.13574   0.14575   0.16139
     Eigenvalues ---    0.16591   0.17839   0.17998   0.18435   0.18707
     Eigenvalues ---    0.20245   0.21402   0.21657   0.22639   0.23160
     Eigenvalues ---    0.23489   0.24124   0.25054   0.26913   0.28252
     Eigenvalues ---    0.30095   0.32035   0.32426   0.32511   0.33068
     Eigenvalues ---    0.33216   0.33376   0.33713   0.34271   0.34400
     Eigenvalues ---    0.35771   0.36414   0.36710   0.37113   0.37511
     Eigenvalues ---    0.41139   0.41711   0.43831   0.44906   0.44953
     Eigenvalues ---    0.45691   0.46047   0.47654   0.48373   0.54059
     Eigenvalues ---    0.59171   0.61312   0.75506   0.90920
 RFO step:  Lambda=-2.84741998D-03 EMin=-1.46566630D-04
 Linear search not attempted -- first point.
 Iteration  1 RMS(Cart)=  0.15059109 RMS(Int)=  0.04057734
 Iteration  2 RMS(Cart)=  0.10742002 RMS(Int)=  0.00687165
 Iteration  3 RMS(Cart)=  0.00896011 RMS(Int)=  0.00010268
 Iteration  4 RMS(Cart)=  0.00004457 RMS(Int)=  0.00009946
 Iteration  5 RMS(Cart)=  0.00000001 RMS(Int)=  0.00009946
 Variable       Old X    -DE/DX   Delta X   Delta X   Delta X     New X
                                 (Linear)    (Quad)   (Total)
    R1        2.32855  -0.01143   0.00000  -0.01286  -0.01286   2.31569
    R2        2.57421   0.00372   0.00000   0.00568   0.00568   2.57989
    R3        2.87986  -0.00203   0.00000  -0.01200  -0.01200   2.86786
    R4        2.75100  -0.00016   0.00000  -0.00809  -0.00809   2.74291
    R5        1.90042   0.00283   0.00000   0.00452   0.00452   1.90494
    R6        2.89923   0.00347   0.00000   0.01420   0.01420   2.91343
    R7        2.90958   0.00717   0.00000   0.02643   0.02643   2.93600
    R8        2.06846   0.00089   0.00000   0.00156   0.00156   2.07002
    R9        2.55960   0.00212   0.00000   0.00294   0.00294   2.56254
   R10        2.26224  -0.00148   0.00000  -0.00283  -0.00283   2.25941
   R11        1.81394   0.00496   0.00000   0.00861   0.00861   1.82255
   R12        2.82061   0.00012   0.00000  -0.00435  -0.00435   2.81626
   R13        2.06481   0.00055   0.00000   0.00220   0.00220   2.06702
   R14        2.05280   0.00117   0.00000   0.00443   0.00443   2.05723
   R15        2.58180   0.00830   0.00000   0.01663   0.01666   2.59846
   R16        2.59815   0.00296   0.00000   0.00741   0.00746   2.60561
   R17        2.61433  -0.00262   0.00000  -0.01336  -0.01339   2.60093
   R18        2.04245  -0.00087   0.00000  -0.00179  -0.00179   2.04066
   R19        2.47933   0.00354   0.00000   0.00702   0.00697   2.48630
   R20        2.55987   0.00855   0.00000   0.01545   0.01544   2.57531
   R21        2.03252   0.00271   0.00000   0.00639   0.00639   2.03891
   R22        1.91305  -0.00019   0.00000   0.00086   0.00086   1.91392
   R23        2.88820   0.00416   0.00000   0.01816   0.01816   2.90636
   R24        2.07091   0.00035   0.00000  -0.00185  -0.00185   2.06906
   R25        2.07718  -0.00142   0.00000  -0.00371  -0.00371   2.07347
   R26        2.75949   0.00193   0.00000  -0.00125  -0.00125   2.75824
   R27        2.05883   0.00097   0.00000   0.00123   0.00123   2.06007
   R28        2.06249   0.00127   0.00000   0.00775   0.00775   2.07025
   R29        1.91577   0.00171   0.00000   0.00306   0.00306   1.91884
   R30        1.91604   0.00155   0.00000   0.00272   0.00272   1.91876
    A1        2.15337   0.00168   0.00000  -0.00115  -0.00115   2.15222
    A2        2.13920  -0.00335   0.00000  -0.01578  -0.01578   2.12342
    A3        1.99038   0.00165   0.00000   0.01690   0.01690   2.00728
    A4        2.19605   0.00317   0.00000  -0.00777  -0.00780   2.18825
    A5        2.01098  -0.00185   0.00000   0.00147   0.00143   2.01241
    A6        1.98565  -0.00108   0.00000   0.01297   0.01295   1.99860
    A7        1.92900  -0.00443   0.00000  -0.01426  -0.01427   1.91474
    A8        2.00873   0.00397   0.00000   0.00084   0.00086   2.00958
    A9        1.84153   0.00036   0.00000   0.00880   0.00879   1.85032
   A10        1.91907   0.00132   0.00000   0.01856   0.01859   1.93767
   A11        1.87106   0.00165   0.00000   0.00916   0.00929   1.88035
   A12        1.88759  -0.00300   0.00000  -0.02334  -0.02336   1.86423
   A13        2.00601   0.00021   0.00000   0.00431   0.00431   2.01033
   A14        2.17040  -0.00074   0.00000  -0.00510  -0.00510   2.16530
   A15        2.10674   0.00054   0.00000   0.00079   0.00079   2.10752
   A16        1.92916   0.00167   0.00000   0.00761   0.00761   1.93677
   A17        1.96811   0.00558   0.00000   0.02064   0.02065   1.98876
   A18        1.88468  -0.00197   0.00000  -0.00247  -0.00248   1.88220
   A19        1.90727  -0.00131   0.00000  -0.00651  -0.00646   1.90081
   A20        1.89441  -0.00161   0.00000  -0.00517  -0.00521   1.88920
   A21        1.93511  -0.00197   0.00000  -0.01090  -0.01089   1.92422
   A22        1.87101   0.00107   0.00000   0.00391   0.00387   1.87488
   A23        2.31160   0.00064   0.00000   0.00778   0.00754   2.31914
   A24        2.13722   0.00066   0.00000  -0.00206  -0.00231   2.13491
   A25        1.83346  -0.00128   0.00000  -0.00434  -0.00437   1.82909
   A26        1.92810   0.00225   0.00000   0.00568   0.00569   1.93380
   A27        2.23779  -0.00113   0.00000  -0.00608  -0.00617   2.23162
   A28        2.11728  -0.00111   0.00000   0.00051   0.00042   2.11770
   A29        1.83446   0.00014   0.00000   0.00250   0.00249   1.83695
   A30        1.95001   0.00037   0.00000  -0.00096  -0.00095   1.94906
   A31        2.21056  -0.00211   0.00000  -0.01380  -0.01381   2.19674
   A32        2.12261   0.00174   0.00000   0.01478   0.01476   2.13737
   A33        1.87874  -0.00149   0.00000  -0.00288  -0.00285   1.87589
   A34        2.16951  -0.00133   0.00000  -0.01685  -0.01697   2.15255
   A35        2.23486   0.00283   0.00000   0.01948   0.01933   2.25419
   A36        1.97166   0.00071   0.00000  -0.00951  -0.00971   1.96196
   A37        1.90576   0.00089   0.00000   0.03835   0.03850   1.94425
   A38        1.88634  -0.00208   0.00000  -0.03432  -0.03436   1.85198
   A39        1.92855  -0.00113   0.00000  -0.00700  -0.00706   1.92148
   A40        1.90901   0.00136   0.00000   0.00509   0.00466   1.91367
   A41        1.85864   0.00020   0.00000   0.00774   0.00804   1.86668
   A42        2.00690   0.00026   0.00000   0.00815   0.00812   2.01502
   A43        1.89898   0.00012   0.00000  -0.00294  -0.00303   1.89595
   A44        1.90863   0.00013   0.00000  -0.00621  -0.00621   1.90241
   A45        1.89228   0.00019   0.00000   0.01031   0.01028   1.90256
   A46        1.88906  -0.00012   0.00000  -0.00454  -0.00451   1.88455
   A47        1.86271  -0.00066   0.00000  -0.00564  -0.00566   1.85705
   A48        1.92686   0.00066   0.00000   0.00727   0.00725   1.93410
   A49        1.92423   0.00064   0.00000   0.00404   0.00401   1.92825
   A50        1.86113  -0.00028   0.00000   0.00380   0.00375   1.86488
    D1        0.34410   0.00106   0.00000  -0.00707  -0.00705   0.33705
    D2        3.01109   0.00120   0.00000   0.01312   0.01310   3.02419
    D3       -2.82089   0.00019   0.00000  -0.00857  -0.00855  -2.82944
    D4       -0.15390   0.00033   0.00000   0.01162   0.01160  -0.14230
    D5        0.32202   0.00014   0.00000   0.37675   0.37690   0.69892
    D6        2.47544  -0.00017   0.00000   0.38936   0.38953   2.86497
    D7       -1.79263  -0.00058   0.00000   0.40018   0.39987  -1.39276
    D8       -2.79639   0.00093   0.00000   0.37802   0.37816  -2.41823
    D9       -0.64297   0.00062   0.00000   0.39063   0.39080  -0.25217
   D10        1.37214   0.00021   0.00000   0.40145   0.40114   1.77328
   D11        1.39566   0.00030   0.00000  -0.03922  -0.03921   1.35645
   D12       -0.79101  -0.00091   0.00000  -0.05312  -0.05312  -0.84413
   D13       -2.87040   0.00028   0.00000  -0.03059  -0.03054  -2.90094
   D14       -1.27722   0.00036   0.00000  -0.05657  -0.05660  -1.33381
   D15        2.81930  -0.00085   0.00000  -0.07047  -0.07050   2.74879
   D16        0.73991   0.00034   0.00000  -0.04794  -0.04793   0.69198
   D17        2.87232  -0.00046   0.00000   0.11084   0.11085   2.98317
   D18       -0.26091  -0.00105   0.00000   0.11134   0.11135  -0.14957
   D19       -1.17432   0.00239   0.00000   0.11529   0.11521  -1.05911
   D20        1.97563   0.00179   0.00000   0.11579   0.11571   2.09134
   D21        0.87375   0.00046   0.00000   0.10264   0.10271   0.97646
   D22       -2.25949  -0.00013   0.00000   0.10314   0.10321  -2.15628
   D23       -0.98200  -0.00061   0.00000   0.08243   0.08244  -0.89956
   D24       -3.07499  -0.00071   0.00000   0.07782   0.07781  -2.99718
   D25        1.17853  -0.00020   0.00000   0.07802   0.07801   1.25654
   D26        3.10937   0.00118   0.00000   0.08556   0.08550  -3.08831
   D27        1.01637   0.00107   0.00000   0.08095   0.08087   1.09725
   D28       -1.01329   0.00159   0.00000   0.08114   0.08107  -0.93221
   D29        1.07162   0.00019   0.00000   0.07773   0.07781   1.14943
   D30       -1.02138   0.00009   0.00000   0.07312   0.07318  -0.94820
   D31       -3.05104   0.00060   0.00000   0.07331   0.07338  -2.97765
   D32       -0.03902   0.00008   0.00000   0.03631   0.03631  -0.00272
   D33        3.09454   0.00064   0.00000   0.03580   0.03580   3.13034
   D34       -1.60419   0.00068   0.00000   0.02469   0.02462  -1.57957
   D35        1.48457   0.00131   0.00000   0.06490   0.06494   1.54951
   D36        0.48319   0.00061   0.00000   0.03100   0.03093   0.51412
   D37       -2.71123   0.00124   0.00000   0.07121   0.07124  -2.63999
   D38        2.53392  -0.00019   0.00000   0.02635   0.02633   2.56025
   D39       -0.66050   0.00044   0.00000   0.06655   0.06664  -0.59386
   D40        3.09145   0.00062   0.00000   0.03644   0.03661   3.12806
   D41       -0.04363   0.00009   0.00000   0.01743   0.01754  -0.02609
   D42       -0.00399   0.00003   0.00000   0.00132   0.00139  -0.00259
   D43       -3.13906  -0.00050   0.00000  -0.01768  -0.01768   3.12644
   D44       -3.09756  -0.00063   0.00000  -0.03200  -0.03188  -3.12945
   D45        0.03236  -0.00008   0.00000  -0.05360  -0.05318  -0.02082
   D46        0.00367  -0.00011   0.00000  -0.00096  -0.00101   0.00266
   D47        3.13359   0.00045   0.00000  -0.02256  -0.02231   3.11128
   D48        0.00274   0.00004   0.00000  -0.00120  -0.00125   0.00149
   D49        3.13834   0.00053   0.00000   0.01624   0.01635  -3.12850
   D50       -0.00032  -0.00011   0.00000   0.00059   0.00060   0.00028
   D51       -3.13836  -0.00046   0.00000  -0.00828  -0.00804   3.13679
   D52       -0.00216   0.00013   0.00000   0.00021   0.00025  -0.00191
   D53       -3.13151  -0.00041   0.00000   0.02320   0.02353  -3.10798
   D54        3.13609   0.00045   0.00000   0.00850   0.00848  -3.13862
   D55        0.00674  -0.00009   0.00000   0.03149   0.03176   0.03850
   D56        3.11988   0.00078   0.00000   0.09584   0.09583  -3.06747
   D57       -1.03751   0.00130   0.00000   0.11263   0.11261  -0.92490
   D58        0.99093   0.00065   0.00000   0.10081   0.10082   1.09175
   D59        0.97911  -0.00005   0.00000   0.05796   0.05798   1.03709
   D60        3.10490   0.00047   0.00000   0.07475   0.07476  -3.10352
   D61       -1.14984  -0.00018   0.00000   0.06293   0.06297  -1.08688
   D62       -1.06155  -0.00044   0.00000   0.04958   0.04956  -1.01199
   D63        1.06424   0.00007   0.00000   0.06638   0.06635   1.13059
   D64        3.09268  -0.00058   0.00000   0.05456   0.05455  -3.13595
   D65       -1.01949  -0.00009   0.00000   0.02081   0.02083  -0.99867
   D66        1.03241   0.00037   0.00000   0.03239   0.03244   1.06485
   D67        3.13428  -0.00057   0.00000   0.01124   0.01119  -3.13772
   D68       -1.09700  -0.00011   0.00000   0.02282   0.02280  -1.07420
   D69        1.12001   0.00018   0.00000   0.01487   0.01487   1.13487
   D70       -3.11127   0.00063   0.00000   0.02646   0.02648  -3.08479
         Item               Value     Threshold  Converged?
 Maximum Force            0.011434     0.000450     NO 
 RMS     Force            0.002107     0.000300     NO 
 Maximum Displacement     1.190326     0.001800     NO 
 RMS     Displacement     0.240982     0.001200     NO 
 Predicted change in Energy=-2.308525D-03
 GradGradGradGradGradGradGradGradGradGradGradGradGradGradGradGradGradGrad

                          Input orientation:                          
 ---------------------------------------------------------------------
 Center     Atomic      Atomic             Coordinates (Angstroms)
 Number     Number       Type             X           Y           Z
 ---------------------------------------------------------------------
      1          8           0        0.324877   -0.430317   -1.253731
      2          6           0        0.985581   -0.277709   -0.233036
      3          7           0        0.520807   -0.583419    1.013700
      4          6           0       -0.595151   -1.465809    1.301524
      5          6           0       -0.146082   -2.934142    1.162824
      6          8           0       -1.043972   -3.855161    1.592193
      7          8           0        0.912849   -3.271798    0.722160
      8          6           0       -1.881098   -1.195645    0.472530
      9          6           0       -2.332902    0.224206    0.502391
     10          6           0       -3.187673    0.916907    1.327182
     11          7           0       -3.267791    2.237976    0.949411
     12          6           0       -2.473361    2.348452   -0.093528
     13          7           0       -1.884857    1.159676   -0.406085
     14          6           0        2.386367    0.304977   -0.270497
     15          6           0        2.510692    1.469190   -1.267759
     16          7           0        3.854154    2.016599   -1.428611
     17          1           0        1.198913   -0.510940    1.756050
     18          1           0       -0.853413   -1.293655    2.352041
     19          1           0       -1.841779   -3.429306    1.927325
     20          1           0       -2.681331   -1.818317    0.882828
     21          1           0       -1.712733   -1.515968   -0.554204
     22          1           0       -3.756062    0.536296    2.162761
     23          1           0       -2.291578    3.250473   -0.656943
     24          1           0       -1.213211    0.950630   -1.134754
     25          1           0        2.712436    0.625458    0.724377
     26          1           0        3.048979   -0.514586   -0.575764
     27          1           0        2.144236    1.136394   -2.239026
     28          1           0        1.849758    2.283082   -0.950072
     29          1           0        4.224212    2.332428   -0.537345
     30          1           0        4.489042    1.303925   -1.774986
 ---------------------------------------------------------------------
                    Distance matrix (angstroms):
                    1          2          3          4          5
     1  O    0.000000
     2  C    1.225413   0.000000
     3  N    2.281024   1.365219   0.000000
     4  C    2.906549   2.503032   1.451488   0.000000
     5  C    3.511507   3.207136   2.448035   1.541721   0.000000
     6  O    4.658604   4.499856   3.672531   2.448455   1.356038
     7  O    3.510537   3.143606   2.732411   2.423081   1.195629
     8  C    2.903797   3.091647   2.537092   1.553666   2.551306
     9  C    3.252100   3.435855   3.009543   2.552360   3.897887
    10  C    4.562251   4.612746   4.012738   3.521244   4.910078
    11  N    4.988074   5.081144   4.724180   4.580939   6.044950
    12  C    4.110689   4.345165   4.334381   4.474642   5.907660
    13  N    2.851229   3.214877   3.292627   3.387099   4.716372
    14  C    2.399405   1.517606   2.432843   3.807412   4.354262
    15  C    2.895878   2.539345   3.657582   4.986151   5.688191
    16  N    4.298113   3.862896   4.882231   6.275119   6.872209
    17  H    3.135159   2.014043   1.008050   2.082555   2.834226
    18  H    3.890413   3.331166   2.045500   1.095409   2.146101
    19  H    4.879288   4.753281   3.809933   2.408532   1.924847
    20  H    3.940650   4.130965   3.434500   2.156784   2.784053
    21  H    2.412433   2.986190   2.883864   2.166848   2.722830
    22  H    5.409327   5.374534   4.567900   3.839467   5.106444
    23  H    4.555240   4.833998   5.039771   5.381150   6.794422
    24  H    2.070480   2.675183   3.158478   3.486636   4.637790
    25  H    3.275364   2.171262   2.519589   3.955582   4.586296
    26  H    2.808464   2.105038   2.987104   4.208173   4.368679
    27  H    2.595275   2.714068   4.021630   5.177953   5.778184
    28  H    3.127300   2.796175   3.720127   5.010135   5.972197
    29  H    4.832264   4.170630   4.962169   6.405803   7.051724
    30  H    4.540877   4.141669   5.204395   6.556323   6.933709
                    6          7          8          9         10
     6  O    0.000000
     7  O    2.219553   0.000000
     8  C    3.004572   3.489823   0.000000
     9  C    4.414776   4.775483   1.490301   0.000000
    10  C    5.238160   5.892841   2.626870   1.375045   0.000000
    11  N    6.518041   6.920043   3.733642   2.264754   1.376354
    12  C    6.585562   6.612032   3.637557   2.210716   2.139620
    13  N    5.463405   5.360789   2.513865   1.378831   2.181852
    14  C    5.704699   3.993738   4.584236   4.782821   5.830691
    15  C    7.011682   5.384222   5.423816   5.305074   6.285705
    16  N    8.221585   6.422167   6.842951   6.724664   7.641403
    17  H    4.030037   2.961942   3.406276   3.819138   4.633013
    18  H    2.678618   3.112754   2.144365   2.813182   3.374269
    19  H    0.964449   3.010848   2.665935   3.952188   4.589245
    20  H    2.707929   3.880277   1.093818   2.106665   2.816964
    21  H    3.244393   3.406717   1.088640   2.128193   3.410856
    22  H    5.192868   6.194807   3.061370   2.208985   1.079872
    23  H    7.556797   7.396641   4.605667   3.240996   3.191436
    24  H    5.528157   5.079091   2.763320   2.112260   3.156068
    25  H    5.910977   4.292682   4.947767   5.066134   5.937979
    26  H    5.710668   3.721543   5.086102   5.538310   6.675792
    27  H    7.053973   5.451339   5.384632   5.328434   6.418353
    28  H    7.246711   5.876296   5.295718   4.882956   5.694561
    29  H    8.400890   6.630146   7.123340   6.965730   7.772785
    30  H    8.280598   6.321562   7.202630   7.272630   8.288858
                   11         12         13         14         15
    11  N    0.000000
    12  C    1.315692   0.000000
    13  N    2.216440   1.362797   0.000000
    14  C    6.098702   5.274852   4.358010   0.000000
    15  C    6.236805   5.195450   4.489892   1.537979   0.000000
    16  N    7.511731   6.475340   5.892040   2.534813   1.459596
    17  H    5.306472   5.008258   4.120125   2.486495   3.845140
    18  H    4.502112   4.676535   3.832750   4.464248   5.661578
    19  H    5.925192   6.153472   5.148341   6.054131   7.290256
    20  H    4.099010   4.284680   3.341274   5.614277   6.510748
    21  H    4.332569   3.965415   2.685262   4.494324   5.220886
    22  H    2.146239   3.165449   3.238669   6.610876   7.204926
    23  H    2.135068   1.078946   2.144711   5.541522   5.158281
    24  H    3.197233   2.150822   1.012802   3.757762   3.762187
    25  H    6.197900   5.525411   4.764288   1.094900   2.172831
    26  H    7.057219   6.239052   5.212935   1.097235   2.168866
    27  H    6.377276   5.233971   4.426489   2.150579   1.090140
    28  H    5.458881   4.407641   3.937679   2.159322   1.095526
    29  H    7.638683   6.712281   6.222002   2.749444   2.053007
    30  H    8.274252   7.238328   6.520835   2.771755   2.049015
                   16         17         18         19         20
    16  N    0.000000
    17  H    4.856009   0.000000
    18  H    6.885659   2.275938   0.000000
    19  H    8.565269   4.218057   2.391287   0.000000
    20  H    7.922241   4.186652   2.403152   2.095496   0.000000
    21  H    6.650853   3.850330   3.038768   3.136160   1.759164
    22  H    8.544275   5.080737   3.436556   4.409751   2.887469
    23  H    6.315691   5.670475   5.636613   7.176364   5.311821
    24  H    5.186602   4.038723   4.162213   5.381010   3.727343
    25  H    2.806092   2.155574   4.364352   6.215228   5.923670
    26  H    2.789722   2.976594   4.940410   6.219370   6.055053
    27  H    2.086949   4.423571   5.997411   7.354754   6.462383
    28  H    2.077888   3.943762   5.568136   7.385001   6.380578
    29  H    1.015404   4.743083   6.875995   8.721721   8.181205
    30  H    1.015363   5.156248   7.233367   8.728681   8.259941
                   21         22         23         24         25
    21  H    0.000000
    22  H    3.971004   0.000000
    23  H    4.802559   4.178780   0.000000
    24  H    2.582763   4.184659   2.584658   0.000000
    25  H    5.079626   6.627093   5.817122   4.355780   0.000000
    26  H    4.865916   7.410294   6.534816   4.541542   1.761626
    27  H    4.974923   7.385754   5.162244   3.539262   3.060338
    28  H    5.223106   6.645766   4.262914   3.345343   2.509126
    29  H    7.075150   8.614025   6.581234   5.641971   2.605985
    30  H    6.921280   9.169342   7.142540   5.748948   3.140616
                   26         27         28         29         30
    26  H    0.000000
    27  H    2.512118   0.000000
    28  H    3.066787   1.750147   0.000000
    29  H    3.080282   2.941517   2.410562   0.000000
[...]
 .00069464,0.00102799,-0.00034260,0.00014788,-0.00062811,0.00024436,0.0
 0011265,0.00042947,-0.00010232,-0.00009010,0.00010522,-0.00015996,-0.0
 0010724,-0.00002511,0.00004011,0.00012486,-0.00002121,-0.00041507,-0.0
 0037980,-0.00129294,-0.00002670,-0.00018847,0.00113940,0.00078632,-0.0
 0071138,-0.00027482,0.00042979,-0.08012487,0.09698384,0.00061323,-0.00
 129093,-0.00267418,-0.00167393,0.00110408,0.00141346,0.00056300,-0.000
 52883,-0.00152645,-0.00014877,0.00057537,-0.00039344,-0.00007230,0.000
 36271,0.00013792,-0.00002072,-0.00019743,-0.00002510,0.00013452,-0.000
 23518,-0.00007095,-0.00109446,0.00012888,0.00011267,0.00717869,-0.0112
 4702,-0.01166173,0.00225746,0.00338256,-0.00193946,0.00124014,0.001825
 81,0.00513550,-0.00561083,-0.00355090,-0.00006703,0.19031933,-0.076957
 02,-0.24765509,-0.00032643,0.00011969,-0.00019716,-0.00021844,0.000385
 16,0.00072198,0.00011532,-0.00000907,-0.00035660,0.00000371,-0.0000457
 8,-0.00003259,-0.00001514,-0.00001603,0.00002725,0.00001890,0.00014422
 ,-0.00000786,-0.00001135,-0.00042498,0.00020482,0.00012247,0.00017639,
 0.00014227,0.00100392,-0.00039166,0.00048150,-0.00060802,-0.00008173,-
 0.00055809,-0.19406209,0.08711344,0.25900248,-0.00746477,-0.00472262,-
 0.00027994,-0.00445487,-0.00376661,-0.02969356,0.00045294,0.00119621,0
 .00100446,0.00020781,0.00008232,0.00002847,0.00008043,-0.00003036,-0.0
 0012982,0.00003804,0.00009415,0.00002138,0.00001276,0.00004880,0.00008
 418,-0.00001777,0.00002487,-0.00017194,0.00008131,0.00001469,-0.000086
 08,-0.00001333,0.00003292,0.00003985,-0.00004194,0.00005664,0.00010976
 ,0.00003591,-0.00012346,-0.00004279,-0.00008080,0.00010664,0.00006133,
 -0.07624960,-0.02314416,-0.07084162,-0.00158610,-0.00137146,-0.0022433
 1,0.00064034,0.00082044,0.00080838,-0.00095358,-0.00163083,0.00115068,
 0.00001429,0.00002104,0.00000353,-0.00001617,0.00000012,-0.00002756,0.
 00002190,0.00000263,0.00010421,0.00014156,0.00008025,0.00005824,-0.000
 01330,0.00000144,0.00000249,-0.00000987,0.00000123,-0.00001450,0.00021
 738,-0.00022867,-0.00002895,0.08044626,-0.00606169,-0.00026639,0.00007
 524,0.00101277,-0.00479754,-0.01698067,0.00009329,0.00030623,0.0009901
 8,0.00037447,-0.00002975,-0.00000511,-0.00019671,0.00006449,-0.0000927
 7,0.00005325,-0.00002431,0.00001534,0.00017237,-0.00000272,0.00014298,
 0.00001764,0.00002051,-0.00012747,0.00006952,0.00001267,-0.00007766,0.
 00000231,0.00002495,-0.00000688,-0.00005084,0.00005440,0.00005822,0.00
 000089,-0.00013503,0.00001290,-0.00011750,0.00015860,0.00002584,-0.024
 50015,-0.06659926,-0.06197234,0.00908279,0.00648799,0.02676785,0.00151
 479,0.00227837,-0.00139817,-0.00133148,-0.00018768,0.00088277,-0.00002
 658,0.00000987,0.00000964,0.00000634,0.00002411,-0.00002610,0.00000497
 ,-0.00000208,0.00008562,0.00009899,0.00006707,0.00004494,-0.00000473,0
 .00000116,0.00000421,-0.00000788,0.00001467,0.00000460,0.00010886,-0.0
 0028957,0.00006550,0.02761514,0.07160334,0.00065992,0.00010050,0.00251
 426,0.00262903,0.00199842,-0.00059035,0.00093938,0.00110424,0.00009288
 ,-0.00022095,-0.00017751,0.00067488,-0.00000696,0.00003821,-0.00004435
 ,0.00002497,0.00003350,0.00000362,0.00005583,0.00000538,0.00008361,0.0
 0002207,0.00004983,-0.00000899,0.00004058,0.00003819,-0.00007672,-0.00
 001636,0.00001456,0.00003900,-0.00004011,0.00001944,0.00009092,0.00005
 482,-0.00009801,-0.00006891,-0.00007108,0.00002917,0.00005254,-0.07526
 511,-0.06529537,-0.25595642,-0.00747513,-0.00554019,-0.01884298,0.0006
 6872,-0.00068485,0.00231921,0.00068723,0.00003268,0.00097016,-0.000089
 49,-0.00007812,0.00002407,-0.00000539,0.00000798,-0.00001766,-0.000020
 24,0.00000680,0.00005808,0.00006348,0.00001059,0.00002150,-0.00001050,
 -0.00000192,0.00000430,0.00001212,-0.00001807,-0.00000509,0.00015994,-
 0.00000003,-0.00006520,0.08116460,0.06651591,0.28041629,0.00247075,-0.
 00326059,-0.00114548,-0.02088771,0.02070394,0.01373487,-0.00262047,-0.
 00287761,-0.00018232,0.00072851,-0.00070229,0.00046911,-0.00095654,0.0
 0042529,0.00028794,0.00017710,-0.00021820,-0.00006737,0.00052663,-0.00
 019461,-0.00021035,0.00013336,0.00002622,0.00001434,0.00004440,0.00000
 396,-0.00005549,0.00000348,-0.00000828,-0.00000413,-0.00002778,0.00003
 851,0.00002311,0.00003152,-0.00005892,-0.00002337,-0.00008240,-0.00001
 834,0.00000730,-0.16214342,0.10767625,0.06932716,-0.00293897,0.0027513
 9,0.00051883,0.00153547,-0.00110156,-0.00072025,-0.00034839,0.00019401
 ,-0.00001110,-0.00009593,-0.00013515,0.00007436,0.00005950,0.00006216,
 0.00001289,-0.00002887,-0.00000540,-0.00001206,0.00000537,0.00000966,-
 0.00003253,0.00000118,-0.00000156,0.00000437,0.00000743,-0.00000140,0.
 00000714,0.00013282,0.00003447,0.00007535,0.00807476,-0.00715431,-0.00
 446722,0.17493724,0.00091657,-0.00100460,0.00019126,-0.01236779,0.0119
 6075,0.00660262,-0.00108636,-0.00186640,0.00043010,0.00041583,-0.00093
 347,0.00035669,-0.00074588,0.00026217,0.00018464,0.00012975,-0.0001396
 7,-0.00006956,0.00040964,-0.00005062,-0.00012510,0.00011663,0.00002051
 ,-0.00002085,0.00003712,-0.00002529,-0.00002498,-0.00000104,0.00000459
 ,-0.00001949,0.00001927,0.00004443,0.00001264,-0.00001435,0.00000453,0
 .00003654,0.00001436,0.00002415,0.00001451,0.10583145,-0.14291568,-0.0
 6946691,0.01982056,-0.02064877,-0.00948053,0.00008650,0.00353115,-0.00
 127696,-0.00027362,0.00011772,0.00017462,-0.00001810,-0.00005581,0.000
 03124,0.00003813,0.00002282,0.00001165,0.00000019,0.00000463,0.0000002
 2,0.00000983,0.00001521,-0.00001305,-0.00000034,0.00000187,-0.00000616
 ,-0.00003833,0.00002365,-0.00002648,0.00003943,-0.00013602,-0.00000976
 ,0.00514651,-0.00528294,-0.00317110,-0.11691170,0.15970036,-0.00114448
 ,-0.00052219,-0.00026588,0.00327552,-0.00111429,-0.00299193,0.00126021
 ,0.00150540,0.00005542,-0.00037551,0.00046489,0.00007789,0.00082363,-0
 .00026041,-0.00015711,-0.00020166,0.00012554,0.00003093,-0.00049230,0.
 00013432,0.00009867,-0.00003797,0.00002568,-0.00001792,0.00001671,-0.0
 0000090,-0.00001214,-0.00000391,0.00001391,0.00002993,-0.00001429,0.00
 000514,0.00003753,0.00000845,-0.00002930,-0.00003257,-0.00004529,0.000
 05614,0.00000951,0.06947853,-0.07000865,-0.08814042,-0.01402927,0.0157
 8387,0.00712302,-0.00148934,-0.00188948,0.00095222,0.00017284,-0.00093
 921,0.00029661,0.00001005,0.00001838,-0.00001529,-0.00003552,-0.000038
 89,-0.00000529,0.00001939,-0.00000362,0.00001564,0.00003611,0.00000394
 ,0.00001347,-0.00000572,-0.00000058,0.00000174,0.00001140,-0.00000689,
 0.00000806,0.00009744,-0.00005736,0.00000895,0.01951949,-0.01710968,-0
 .01169384,-0.07725558,0.07096904,0.09517035,-0.00080459,-0.00031963,0.
 00031261,-0.00002480,-0.00001940,0.00082151,0.00012079,-0.00023589,-0.
 00042176,-0.00001976,-0.00003183,0.00002341,0.00003073,-0.00008744,0.0
 0000300,0.00000845,0.00004447,-0.00000176,-0.00003387,0.00004484,0.000
 00596,0.00001471,0.00001791,0.00001509,-0.00004235,-0.00010151,0.00010
 924,0.00004510,-0.00004038,-0.00004488,0.00006603,-0.00001508,-0.00012
 644,-0.00008953,0.00014568,0.00005949,0.00007808,0.00005000,-0.0000573
 4,-0.00038811,0.00062422,-0.00568339,-0.07761376,-0.02036606,-0.073088
 15,-0.01518486,-0.01643683,-0.02641789,0.00006885,0.00008164,0.0000093
 7,0.00000502,0.00001209,-0.00001002,-0.00000632,-0.00001649,0.00000438
 ,0.00001210,0.00000692,-0.00001094,-0.00001832,-0.00002627,0.00000233,
 0.00000285,-0.00000337,-0.00000787,0.00000700,0.00001691,0.00002000,-0
 .00036563,-0.00009585,0.00019368,0.00026628,0.00007693,-0.00034335,0.0
 0009499,-0.00044494,-0.00020994,0.09022688,-0.00025641,-0.00072340,-0.
 00148848,0.00133686,0.00140364,0.00241134,-0.00037355,-0.00006320,-0.0
 0058818,-0.00012300,0.00003910,-0.00004754,0.00002826,-0.00000574,0.00
 004509,-0.00001041,-0.00000438,-0.00000663,-0.00002119,-0.00001145,-0.
 00004787,-0.00003362,-0.00001426,0.00006838,-0.00002894,0.00003820,-0.
 00001905,-0.00001938,-0.00000696,0.00003750,-0.00000907,-0.00003491,0.
 00006033,0.00005220,0.00004829,-0.00008231,0.00004167,-0.00008774,0.00
 005803,0.00856663,0.00465647,0.02668746,-0.02291986,-0.06910582,-0.069
 10635,-0.00946481,-0.00879217,-0.01582512,0.00032435,0.00010539,-0.000
 30580,0.00000832,-0.00000144,-0.00000876,-0.00000326,-0.00000019,0.000
 00632,-0.00001032,-0.00000671,-0.00003040,-0.00002901,-0.00002020,-0.0
 0002091,-0.00000206,-0.00000223,0.00000485,0.00001506,-0.00004042,-0.0
 0002600,-0.00005904,0.00027341,-0.00007083,-0.00005720,-0.00427984,0.0
 0390412,0.00032029,0.00150677,-0.00064667,0.03249357,0.08018661,0.0006
 4416,-0.00110965,0.00332795,-0.00312787,-0.00159999,-0.00385368,0.0002
 8762,0.00037854,0.00063717,0.00005367,-0.00009260,-0.00004341,-0.00006
 531,0.00002938,-0.00005107,0.00003860,0.00001315,0.00001151,0.00007749
 ,-0.00001021,0.00004503,0.00000138,0.00001920,-0.00004733,0.00005589,0
 .00013781,-0.00013353,-0.00004684,0.00004698,0.00007022,-0.00008437,0.
 00001356,0.00016416,0.00011603,-0.00018399,-0.00009757,-0.00010022,-0.
 00005436,0.00008778,-0.00507194,-0.00242323,-0.01996523,-0.07828901,-0
 .06993103,-0.26049539,0.00186341,0.00218911,0.00852998,-0.00009739,-0.
 00005430,0.00030025,0.00001413,0.00001488,0.00000235,-0.00000382,0.000
 01469,-0.00001821,-0.00000557,-0.00001067,0.00004167,0.00004538,0.0000
 2266,0.00001730,-0.00001120,0.00000245,0.00001030,0.00000668,-0.000029
 61,-0.00002244,0.00045118,0.00013279,-0.00018176,-0.00024918,0.0035500
 2,-0.00080753,-0.00004878,-0.00001076,0.00121202,0.08554215,0.07124459
 ,0.27959934,0.00028164,0.00023490,0.00025009,-0.00034767,-0.00040407,-
 0.00016315,0.00044343,0.00007970,-0.00035599,-0.00007965,-0.00000773,-
 0.00001322,-0.00001448,-0.00004062,0.00000825,0.00003238,0.00004399,0.
 00000012,0.00001510,0.00000066,-0.00001169,0.00001168,0.00002079,-0.00
 000637,0.00002379,0.00000232,-0.00004979,-0.00001585,0.00004594,-0.000
 00825,-0.00000869,-0.00007056,-0.00000658,-0.00009761,0.00018906,0.000
 00599,-0.00018660,-0.00024090,0.00000801,-0.00090613,0.00425897,0.0005
 5995,-0.15607694,0.10275270,0.06316410,-0.02711119,0.01321238,0.017763
 93,-0.00001342,0.00012084,0.00001990,0.00001573,0.00001534,-0.00001235
 ,-0.00000903,-0.00000256,0.00000149,0.00000841,-0.00000054,0.00000053,
 -0.00000947,-0.00000485,-0.00000256,0.00000015,0.00000235,0.00000526,-
 0.00000009,-0.00001362,0.00000693,-0.00008466,0.00005444,0.00005380,-0
 .00013706,-0.00011937,0.00000758,0.00082459,-0.00004701,-0.00014213,0.
 00876532,-0.00668785,-0.00334116,0.17958333,-0.00142420,-0.00003269,-0
 .00047078,0.00361882,0.00044824,-0.00038384,-0.00094103,0.00018402,0.0
 0056765,0.00004823,-0.00000529,0.00010624,0.00028901,-0.00008294,-0.00
 008047,-0.00012854,-0.00002231,0.00000458,-0.00024031,0.00007426,0.000
 07974,0.00002019,-0.00009354,-0.00001001,-0.00009703,-0.00029181,0.000
 32816,0.00006641,-0.00010437,-0.00014326,0.00016564,0.00005614,-0.0002
 0000,-0.00032738,0.00062891,0.00021971,0.00053089,-0.00001700,-0.00001
 837,0.01547506,-0.01999656,-0.00900642,0.10837265,-0.15077525,-0.06805
 029,-0.01578364,0.01214275,0.01050654,0.00017273,-0.00016813,-0.000070
 94,-0.00001916,-0.00003033,0.00001655,0.00001003,-0.00003961,0.0000104
 6,-0.00000159,0.00003775,-0.00001579,0.00000630,0.00001812,0.00000283,
 0.00000290,-0.00000410,-0.00002862,-0.00004480,0.00005831,-0.00004693,
 -0.00034736,-0.00044378,-0.00028513,-0.00015663,0.00126187,0.00029283,
 -0.00002707,-0.00342549,0.00377778,0.00596861,-0.00553986,-0.00345202,
 -0.11129031,0.16584621,-0.00028967,-0.00005730,0.00027282,-0.00106335,
 -0.00035611,0.00091951,-0.00006462,-0.00044937,-0.00008738,0.00008357,
 0.00008449,-0.00004813,-0.00007429,-0.00001875,-0.00001094,0.00001410,
 -0.00000192,-0.00000130,0.00002163,0.00001507,-0.00001269,0.00000335,-
 0.00005835,0.00001129,0.00004454,-0.00011409,0.00013166,0.00004725,0.0
 0000342,-0.00012033,0.00013098,0.00007793,-0.00016343,-0.00016631,0.00
 006428,0.00024517,0.00021236,0.00007457,-0.00009268,-0.01281678,0.0158
 3808,0.00673559,0.06646080,-0.06646328,-0.09235034,0.00500885,-0.00178
 737,-0.00194387,-0.00003310,0.00011863,-0.00001482,-0.00000068,-0.0000
 0373,0.00000629,0.00000845,-0.00001490,0.00000923,-0.00001069,0.000025
 18,-0.00001490,-0.00000273,0.00000891,0.00000047,0.00000224,0.00000570
 ,-0.00002476,-0.00010751,0.00008954,-0.00004376,-0.00020687,-0.0003760
 7,-0.00005187,-0.00028695,-0.00087692,0.00107759,-0.00037271,0.0040776
 3,-0.00163210,0.01980816,-0.01756448,-0.01058444,-0.07635828,0.0660045
 6,0.09585630,0.00027860,-0.00023165,0.00075510,-0.00050224,0.00009126,
 -0.00080018,-0.00001643,0.00013005,0.00023925,0.00001040,-0.00000116,-
 0.00002212,0.00003080,-0.00002618,-0.00001641,-0.00000824,0.00000747,0
 .00000316,-0.00002559,0.00001692,0.00001377,0.00000114,-0.00001507,-0.
 00000819,0.00002490,0.00004310,-0.00005444,-0.00001811,0.00001278,0.00
 002992,-0.00000748,0.00003186,0.00006298,0.00004685,-0.00005877,-0.000
 02781,-0.00002532,-0.00002243,0.00004925,0.00113971,0.00079699,-0.0002
 0823,-0.01314954,-0.00990703,-0.03348854,-0.10970421,-0.05220670,-0.11
 313909,0.00002032,-0.00008811,0.00002043,0.00000392,-0.00000012,0.0000
 0132,-0.00000051,-0.00000564,-0.00000181,-0.00000040,0.00000096,0.0000
 0281,0.00000649,0.00000843,0.00000312,-0.00000434,0.00000147,-0.000001
 73,-0.00001910,-0.00000962,-0.00002581,0.00011219,0.00002197,-0.000077
 46,0.00027322,-0.00060290,0.00083886,0.00002178,0.00002286,0.00017551,
 -0.00573723,-0.00337877,0.00196161,0.00029926,0.00073436,-0.00018539,0
 .11608469,0.00103316,0.00022616,0.00081734,-0.00203977,-0.00036802,0.0
 0001389,0.00076993,0.00008398,-0.00046113,-0.00021832,-0.00018850,0.00
 004116,-0.00017579,-0.00019986,0.00005610,0.00016762,0.00020485,-0.000
 01155,0.00012576,0.00009010,-0.00005044,0.00000086,0.00009883,-0.00003
 227,-0.00005469,-0.00001999,0.00009032,0.00000645,0.00000854,0.0000103
 6,0.00002989,-0.00012002,-0.00004784,-0.00003976,0.00010994,-0.0000049
 8,0.00013142,-0.00005212,-0.00006883,0.00147142,0.00179111,-0.00277260
 ,-0.01173062,-0.01135474,-0.01626012,-0.03298338,-0.05164626,-0.089703
 91,-0.00008767,0.00001824,0.00014534,0.00003536,0.00004245,-0.00002817
 ,-0.00004012,-0.00002418,0.00000371,0.00005049,-0.00000887,-0.00000104
 ,-0.00002948,-0.00003291,-0.00000282,-0.00000533,0.00000171,0.00000176
 ,0.00002270,0.00000068,0.00002296,-0.00014404,0.00013627,-0.00001575,-
 0.00021447,-0.00041753,0.00090945,0.00003949,-0.00032423,0.00005752,-0
 .00215510,-0.00004883,0.00137197,0.00079915,0.00067246,0.00067287,0.05
 377586,0.07156031,-0.00001382,0.00003321,-0.00008250,0.00034129,0.0003
 5050,-0.00020256,-0.00008949,-0.00003765,0.00009040,0.00006947,0.00004
 182,-0.00004173,0.00002910,0.00006453,-0.00000774,-0.00003973,-0.00005
 975,0.00000458,-0.00001911,-0.00003415,0.00001000,-0.00000100,-0.00001
 843,0.00000897,0.00001320,0.00001902,-0.00002922,-0.00000445,0.0000003
 8,-0.00000051,-0.00002034,0.00002468,0.00001665,0.00001973,-0.00004746
 ,-0.00000518,-0.00004274,0.00000814,0.00001923,0.00162235,0.00030704,0
 .00231977,0.00398169,0.00830309,0.00399059,-0.11381101,-0.13578730,-0.
 33511476,0.00002565,0.00003560,-0.00004491,-0.00000135,-0.00000306,0.0
 0000311,0.00001101,0.00001090,-0.00000315,-0.00001319,-0.00000070,0.00
 000037,0.00000528,0.00000614,-0.00000294,0.00000204,-0.00000025,0.0000
 0193,-0.00000048,-0.00000647,-0.00000408,0.00005533,-0.00000582,-0.000
 00968,-0.00015178,-0.00063817,-0.00005528,-0.00005386,-0.00009041,-0.0
 0013482,0.00031896,0.00100055,0.00187672,-0.00050606,-0.00020352,0.000
 28601,0.11795336,0.12665666,0.34396231,0.00026213,-0.00006189,0.000044
 12,-0.00017705,0.00012181,-0.00042744,0.00033980,0.00010456,-0.0001500
 8,-0.00005088,-0.00001866,-0.00004709,-0.00003860,-0.00001391,0.000022
 47,0.00003185,0.00002823,-0.00000299,0.00003622,-0.00000192,-0.0000245
 6,-0.00001031,0.00003618,0.00000039,-0.00000466,0.00004801,-0.00003174
 ,-0.00000412,-0.00000027,0.00003221,-0.00003533,-0.00002393,0.00001310
 ,0.00003624,-0.00008430,-0.00004757,-0.00010811,-0.00000653,-0.0000147
 0,0.00198235,0.00054149,-0.00021943,-0.02539631,0.02353213,0.01376013,
 -0.22833230,0.13637476,0.11605015,-0.00001846,0.00001883,0.00001253,0.
 00001426,0.00001849,-0.00001213,-0.00000803,0.00000477,-0.00000017,0.0
 0000747,-0.00001032,0.00000410,-0.00000371,-0.00000997,-0.00000016,-0.
 00000127,-0.00000071,0.00000816,0.00003486,-0.00002228,0.00002769,0.00
 007204,0.00013815,0.00007538,0.00003399,-0.00013116,0.00000280,0.00031
 960,-0.00110516,0.00057766,0.00051596,0.00030052,-0.00061669,-0.005206
 26,-0.00465280,0.00019365,0.01086448,-0.00854104,-0.00968008,0.2448441
 6,0.00043145,0.00009883,0.00018120,-0.00079986,-0.00058443,-0.00013896
 ,0.00040791,0.00014320,-0.00020400,-0.00013976,-0.00003216,-0.00000318
 ,-0.00010526,-0.00012894,0.00002315,0.00010410,0.00012902,-0.00000493,
 0.00007581,0.00005750,-0.00003719,-0.00001005,0.00003236,-0.00000888,-
 0.00001989,0.00000530,0.00002374,-0.00000432,0.00000572,0.00001594,0.0
 0002583,-0.00003823,-0.00000738,-0.00000339,0.00002298,0.00000524,0.00
 005877,-0.00002628,-0.00001784,-0.00130641,0.00235793,0.00035434,-0.01
 880098,0.00761201,0.01404776,0.15751045,-0.16914623,-0.13445895,-0.000
 02046,-0.00000163,0.00005526,0.00002128,0.00001928,-0.00001607,-0.0000
 2394,-0.00001930,0.00000352,0.00002258,0.00000031,-0.00000527,-0.00001
 721,-0.00001312,0.00000055,-0.00000403,0.00000191,-0.00000306,-0.00001
 344,-0.00000313,-0.00000980,-0.00006437,0.00005332,-0.00002580,0.00010
 044,-0.00007565,-0.00004661,0.00039134,-0.00043632,-0.00031341,0.00081
 228,0.00053189,-0.00021937,-0.00290357,-0.00035596,0.00098178,0.010857
 79,-0.01023958,0.00007089,-0.14658309,0.17002939,-0.00054361,-0.000231
 99,-0.00052292,0.00095426,0.00057504,0.00065117,-0.00062030,-0.0002188
 0,0.00014606,0.00016330,0.00008303,0.00002580,0.00012767,0.00018342,-0
 .00001688,-0.00013082,-0.00016801,-0.00000136,-0.00008896,-0.00008619,
 0.00002274,0.00000942,-0.00004344,0.00002422,0.00002680,0.00001294,-0.
 00005853,0.00000109,-0.00000758,-0.00000773,-0.00003836,0.00005744,0.0
 0001299,0.00002362,-0.00007981,-0.00001201,-0.00013822,0.00003214,0.00
 001956,-0.00090356,-0.00189489,-0.00013354,0.00698575,0.00007930,-0.00
 304082,0.08912057,-0.09827550,-0.09899775,0.00004177,-0.00001068,-0.00
 009025,-0.00003537,-0.00003632,0.00002283,0.00003059,0.00002574,0.0000
 0191,-0.00003181,-0.00000073,0.00000343,0.00001994,0.00001642,-0.00000
 046,0.00000635,-0.00000153,0.00000479,0.00001718,-0.00000198,0.0000162
 2,0.00011686,-0.00003983,0.00008545,0.00008694,0.00006018,-0.00020960,
 0.00010581,0.00071870,-0.00004267,-0.00082559,0.00035680,0.00036783,-0
 .00087836,0.00054878,0.00164581,0.02594676,-0.02140998,-0.01685160,-0.
 11954972,0.11975732,0.11693533\\-0.00000685,-0.00000571,0.00000065,-0.
 00000366,0.00000643,0.00000047,0.00001091,-0.00000573,0.00000052,-0.00
 000449,-0.00000290,0.00000010,-0.00001111,-0.00000937,0.00000823,-0.00
 000473,0.00000021,-0.00000587,0.00000151,0.00001047,-0.00000211,-0.000
 01183,-0.00000053,0.00000940,0.00000269,0.00000083,-0.00000519,0.00000
 035,-0.00000385,-0.00000002,0.00000182,0.00000022,-0.00000211,0.000001
 23,0.00000144,-0.00000276,-0.00000047,-0.00000185,-0.00000041,0.000000
 88,0.00001190,0.00000035,0.00000427,-0.00000007,-0.00000152,0.00000232
 ,-0.00000001,0.00000007,-0.00000215,0.00000396,0.00000145,0.00000157,-
 0.00000042,-0.00000163,-0.00000060,0.00000057,0.00000193,0.00001068,-0
 .00000960,0.00000253,0.00000512,0.00000433,-0.00000584,-0.00000038,-0.
 00000055,-0.00000025,-0.00000017,-0.00000043,0.00000042,0.00000069,0.0
 0000285,0.00000222,-0.00000131,-0.00000530,-0.00000015,0.00000387,0.00
 000243,-0.00000084,-0.00000256,0.00000252,0.00000171,0.00000205,-0.000
 00202,-0.00000191,0.00000020,-0.00000045,0.,0.00000013,0.00000063,0.00
 000057\\\@


 ERWIN WITH HIS PSI CAN DO
 CALCULATIONS QUITE A FEW.
 BUT ONE THING HAS NOT BEEN SEEN
 JUST WHAT DOES PSI REALLY MEAN.
 -- WALTER HUCKEL, TRANS. BY FELIX BLOCH
 Job cpu time:       0 days  2 hours 16 minutes 29.2 seconds.
 File lengths (MBytes):  RWF=    415 Int=      0 D2E=      0 Chk=     13 Scr=      1
 Normal termination of Gaussian 09 at Sat Jul 24 02:08:37 2021.
