 Entering Gaussian System, Link 0=g09
 Input=opt_freq-conf-338.com
 Output=opt_freq-conf-338.log
 Initial command:
 /aerosol/software/g09/l1.exe "/scratch/nicole/10400/Gau-72638.inp" -scrdir="/scratch/nicole/10400/"
 Entering Link 1 = /aerosol/software/g09/l1.exe PID=     72643.
  
 Copyright (c) 1988,1990,1992,1993,1995,1998,2003,2009,2013,
            Gaussian, Inc.  All Rights Reserved.
  
 This is part of the Gaussian(R) 09 program.  It is based on
 the Gaussian(R) 03 system (copyright 2003, Gaussian, Inc.),
 the Gaussian(R) 98 system (copyright 1998, Gaussian, Inc.),
 the Gaussian(R) 94 system (copyright 1995, Gaussian, Inc.),
 the Gaussian 92(TM) system (copyright 1992, Gaussian, Inc.),
 the Gaussian 90(TM) system (copyright 1990, Gaussian, Inc.),
 the Gaussian 88(TM) system (copyright 1988, Gaussian, Inc.),
 the Gaussian 86(TM) system (copyright 1986, Carnegie Mellon
 University), and the Gaussian 82(TM) system (copyright 1983,
 Carnegie Mellon University). Gaussian is a federally registered
 trademark of Gaussian, Inc.
  
 This software contains proprietary and confidential information,
 including trade secrets, belonging to Gaussian, Inc.
  
 This software is provided under written license and may be
 used, copied, transmitted, or stored only in accord with that
 written license.
  
 The following legend is applicable only to US Government
 contracts under FAR:
  
                    RESTRICTED RIGHTS LEGEND
  
 Use, reproduction and disclosure by the US Government is
 subject to restrictions as set forth in subparagraphs (a)
 and (c) of the Commercial Computer Software - Restricted
 Rights clause in FAR 52.227-19.
  
 Gaussian, Inc.
 340 Quinnipiac St., Bldg. 40, Wallingford CT 06492
  
  
 ---------------------------------------------------------------
 Warning -- This program may not be used in any manner that
 competes with the business of Gaussian, Inc. or will provide
 assistance to any competitor of Gaussian, Inc.  The licensee
 of this program is prohibited from giving any competitor of
 Gaussian, Inc. access to this program.  By using this program,
 the user acknowledges that Gaussian, Inc. is engaged in the
 business of creating and licensing software in the field of
 computational chemistry and represents and warrants to the
 licensee that it is not a competitor of Gaussian, Inc. and that
 it will not use this program in any manner prohibited above.
 ---------------------------------------------------------------
  

 Cite this work as:
 Gaussian 09, Revision D.01,
 M. J. Frisch, G. W. Trucks, H. B. Schlegel, G. E. Scuseria, 
 M. A. Robb, J. R. Cheeseman, G. Scalmani, V. Barone, B. Mennucci, 
 G. A. Petersson, H. Nakatsuji, M. Caricato, X. Li, H. P. Hratchian, 
 A. F. Izmaylov, J. Bloino, G. Zheng, J. L. Sonnenberg, M. Hada, 
 M. Ehara, K. Toyota, R. Fukuda, J. Hasegawa, M. Ishida, T. Nakajima, 
 Y. Honda, O. Kitao, H. Nakai, T. Vreven, J. A. Montgomery, Jr., 
 J. E. Peralta, F. Ogliaro, M. Bearpark, J. J. Heyd, E. Brothers, 
 K. N. Kudin, V. N. Staroverov, T. Keith, R. Kobayashi, J. Normand, 
 K. Raghavachari, A. Rendell, J. C. Burant, S. S. Iyengar, J. Tomasi, 
 M. Cossi, N. Rega, J. M. Millam, M. Klene, J. E. Knox, J. B. Cross, 
 V. Bakken, C. Adamo, J. Jaramillo, R. Gomperts, R. E. Stratmann, 
 O. Yazyev, A. J. Austin, R. Cammi, C. Pomelli, J. W. Ochterski, 
 R. L. Martin, K. Morokuma, V. G. Zakrzewski, G. A. Voth, 
 P. Salvador, J. J. Dannenberg, S. Dapprich, A. D. Daniels, 
 O. Farkas, J. B. Foresman, J. V. Ortiz, J. Cioslowski, 
 and D. J. Fox, Gaussian, Inc., Wallingford CT, 2013.
 
 ******************************************
 Gaussian 09:  ES64L-G09RevD.01 24-Apr-2013
                24-Jul-2021 
 ******************************************
 %mem=2gb
 %nproc=4
 Will use up to    4 processors via shared memory.
 %chk=conf-338.chk
 ----------------------------------------------------------------------
 # B3LYP/6-311G(d,p) EmpiricalDispersion=GD3BJ opt=calcfc freq=noraman 
 nosymm integral(ultrafinegrid)
 ----------------------------------------------------------------------
 1/10=4,14=-1,18=20,19=15,26=4,38=1/1,3;
 2/9=110,12=2,15=1,17=6,18=5,40=1/2;
 3/5=4,6=6,7=101,11=2,16=1,25=1,30=1,71=2,74=-5,75=-5,124=41,140=1/1,2,3;
 4//1;
 5/5=2,38=5/2;
 8/6=4,10=90,11=11/1;
 11/6=1,8=1,9=11,15=111,16=1,31=1/1,2,10;
 10/6=1,13=1,31=1/2;
 6/7=2,8=2,9=2,10=2,28=1/1;
 7/10=1,18=20,25=1,30=1/1,2,3,16;
 1/10=4,14=-1,18=20,19=15,26=4/3(2);
 2/9=110,15=1/2;
 99//99;
 2/9=110,15=1/2;
 3/5=4,6=6,7=101,11=2,16=1,25=1,30=1,71=1,74=-5,75=-5,124=41/1,2,3;
 4/5=5,16=3,69=1/1;
 5/5=2,38=5/2;
 7/30=1/1,2,3,16;
 1/14=-1,18=20,19=15,26=4/3(-5);
 2/9=110,15=1/2;
 6/7=2,8=2,9=2,10=2,19=2,28=1/1;
 99/9=1/99;
 ------------------------------------------------------------
 Candidate Structure: Conf:338 OPT and FREQ calc in gas phase
 ------------------------------------------------------------
 Symbolic Z-matrix:
 Charge =  0 Multiplicity = 1
 O                     1.43892   0.43625   2.04209 
 C                     1.83455  -0.01925   0.9791 
 N                     0.99885  -0.49739   0.0318 
 C                    -0.43897  -0.48529   0.22041 
 C                    -1.00601  -1.51003  -0.73236 
 O                    -1.83722  -2.39627  -0.15191 
 O                    -0.74626  -1.52592  -1.9109 
 C                    -0.99401   0.91774  -0.09473 
 C                    -2.4693    1.03315   0.10272 
 C                    -3.51664   1.05168  -0.77677 
 N                    -4.72522   1.13183  -0.10608 
 C                    -4.40833   1.16399   1.16783 
 N                    -3.05678   1.10528   1.34778 
 C                     3.31923  -0.13885   0.65087 
 C                     3.69369   0.20522  -0.78484 
 N                     3.16474  -0.78792  -1.73454 
 H                     1.39882  -0.79892  -0.85044 
 H                    -0.65378  -0.7514    1.25501 
 H                    -2.14195  -2.97749  -0.86229 
 H                    -0.75931   1.1531   -1.13095 
 H                    -0.46054   1.62353   0.54024 
 H                    -3.46138   0.99554  -1.85631 
 H                    -5.09181   1.23027   1.99532 
 H                    -2.56877   1.11963   2.22933 
 H                     3.83552   0.51704   1.35279 
 H                     3.63828  -1.16585   0.86407 
 H                     3.27303   1.17738  -1.04483 
 H                     4.78376   0.30372  -0.85047 
 H                     3.68705  -1.65305  -1.66654 
 H                     3.26977  -0.4577   -2.6836 
 

 GradGradGradGradGradGradGradGradGradGradGradGradGradGradGradGradGradGrad
 Berny optimization.
 Initialization pass.
                           ----------------------------
                           !    Initial Parameters    !
                           ! (Angstroms and Degrees)  !
 --------------------------                            --------------------------
 ! Name  Definition              Value          Derivative Info.                !
 --------------------------------------------------------------------------------
 ! R1    R(1,2)                  1.2223         calculate D2E/DX2 analytically  !
 ! R2    R(2,3)                  1.3507         calculate D2E/DX2 analytically  !
 ! R3    R(2,14)                 1.5252         calculate D2E/DX2 analytically  !
 ! R4    R(3,4)                  1.4502         calculate D2E/DX2 analytically  !
 ! R5    R(3,17)                 1.0145         calculate D2E/DX2 analytically  !
 ! R6    R(4,5)                  1.5098         calculate D2E/DX2 analytically  !
 ! R7    R(4,8)                  1.5414         calculate D2E/DX2 analytically  !
 ! R8    R(4,18)                 1.0897         calculate D2E/DX2 analytically  !
 ! R9    R(5,6)                  1.3466         calculate D2E/DX2 analytically  !
 ! R10   R(5,7)                  1.2069         calculate D2E/DX2 analytically  !
 ! R11   R(6,19)                 0.9671         calculate D2E/DX2 analytically  !
 ! R12   R(8,9)                  1.4929         calculate D2E/DX2 analytically  !
 ! R13   R(8,20)                 1.0882         calculate D2E/DX2 analytically  !
 ! R14   R(8,21)                 1.089          calculate D2E/DX2 analytically  !
 ! R15   R(9,10)                 1.3678         calculate D2E/DX2 analytically  !
 ! R16   R(9,13)                 1.3786         calculate D2E/DX2 analytically  !
 ! R17   R(10,11)                1.3845         calculate D2E/DX2 analytically  !
 ! R18   R(10,22)                1.0824         calculate D2E/DX2 analytically  !
 ! R19   R(11,12)                1.3131         calculate D2E/DX2 analytically  !
 ! R20   R(12,13)                1.3647         calculate D2E/DX2 analytically  !
 ! R21   R(12,23)                1.0753         calculate D2E/DX2 analytically  !
 ! R22   R(13,24)                1.0077         calculate D2E/DX2 analytically  !
 ! R23   R(14,15)                1.5231         calculate D2E/DX2 analytically  !
 ! R24   R(14,25)                1.0906         calculate D2E/DX2 analytically  !
 ! R25   R(14,26)                1.0964         calculate D2E/DX2 analytically  !
 ! R26   R(15,16)                1.4724         calculate D2E/DX2 analytically  !
 ! R27   R(15,27)                1.0907         calculate D2E/DX2 analytically  !
 ! R28   R(15,28)                1.0965         calculate D2E/DX2 analytically  !
 ! R29   R(16,29)                1.0129         calculate D2E/DX2 analytically  !
 ! R30   R(16,30)                1.0103         calculate D2E/DX2 analytically  !
 ! A1    A(1,2,3)              122.7921         calculate D2E/DX2 analytically  !
 ! A2    A(1,2,14)             122.1045         calculate D2E/DX2 analytically  !
 ! A3    A(3,2,14)             115.0607         calculate D2E/DX2 analytically  !
 ! A4    A(2,3,4)              121.2835         calculate D2E/DX2 analytically  !
 ! A5    A(2,3,17)             118.1109         calculate D2E/DX2 analytically  !
 ! A6    A(4,3,17)             120.4287         calculate D2E/DX2 analytically  !
 ! A7    A(3,4,5)              106.5372         calculate D2E/DX2 analytically  !
 ! A8    A(3,4,8)              109.7564         calculate D2E/DX2 analytically  !
 ! A9    A(3,4,18)             108.4754         calculate D2E/DX2 analytically  !
 ! A10   A(5,4,8)              110.7044         calculate D2E/DX2 analytically  !
 ! A11   A(5,4,18)             111.0626         calculate D2E/DX2 analytically  !
 ! A12   A(8,4,18)             110.2083         calculate D2E/DX2 analytically  !
 ! A13   A(4,5,6)              113.9862         calculate D2E/DX2 analytically  !
 ! A14   A(4,5,7)              122.9795         calculate D2E/DX2 analytically  !
 ! A15   A(6,5,7)              123.0314         calculate D2E/DX2 analytically  !
 ! A16   A(5,6,19)             105.8669         calculate D2E/DX2 analytically  !
 ! A17   A(4,8,9)              113.5259         calculate D2E/DX2 analytically  !
 ! A18   A(4,8,20)             108.2938         calculate D2E/DX2 analytically  !
 ! A19   A(4,8,21)             107.1166         calculate D2E/DX2 analytically  !
 ! A20   A(9,8,20)             108.8048         calculate D2E/DX2 analytically  !
 ! A21   A(9,8,21)             110.9082         calculate D2E/DX2 analytically  !
 ! A22   A(20,8,21)            108.0228         calculate D2E/DX2 analytically  !
 ! A23   A(8,9,10)             132.2758         calculate D2E/DX2 analytically  !
 ! A24   A(8,9,13)             122.9981         calculate D2E/DX2 analytically  !
 ! A25   A(10,9,13)            104.6968         calculate D2E/DX2 analytically  !
 ! A26   A(9,10,11)            110.9607         calculate D2E/DX2 analytically  !
 ! A27   A(9,10,22)            126.9782         calculate D2E/DX2 analytically  !
 ! A28   A(11,10,22)           122.0526         calculate D2E/DX2 analytically  !
 ! A29   A(10,11,12)           105.1121         calculate D2E/DX2 analytically  !
 ! A30   A(11,12,13)           111.4601         calculate D2E/DX2 analytically  !
 ! A31   A(11,12,23)           126.4897         calculate D2E/DX2 analytically  !
 ! A32   A(13,12,23)           122.05           calculate D2E/DX2 analytically  !
 ! A33   A(9,13,12)            107.7701         calculate D2E/DX2 analytically  !
 ! A34   A(9,13,24)            125.7639         calculate D2E/DX2 analytically  !
 ! A35   A(12,13,24)           126.4641         calculate D2E/DX2 analytically  !
 ! A36   A(2,14,15)            115.1166         calculate D2E/DX2 analytically  !
 ! A37   A(2,14,25)            105.9704         calculate D2E/DX2 analytically  !
 ! A38   A(2,14,26)            108.3535         calculate D2E/DX2 analytically  !
 ! A39   A(15,14,25)           110.7586         calculate D2E/DX2 analytically  !
 ! A40   A(15,14,26)           108.8668         calculate D2E/DX2 analytically  !
 ! A41   A(25,14,26)           107.4837         calculate D2E/DX2 analytically  !
 ! A42   A(14,15,16)           111.5487         calculate D2E/DX2 analytically  !
 ! A43   A(14,15,27)           109.3421         calculate D2E/DX2 analytically  !
 ! A44   A(14,15,28)           108.7315         calculate D2E/DX2 analytically  !
 ! A45   A(16,15,27)           107.9923         calculate D2E/DX2 analytically  !
 ! A46   A(16,15,28)           112.2796         calculate D2E/DX2 analytically  !
 ! A47   A(27,15,28)           106.8031         calculate D2E/DX2 analytically  !
 ! A48   A(15,16,29)           110.3388         calculate D2E/DX2 analytically  !
 ! A49   A(15,16,30)           110.3696         calculate D2E/DX2 analytically  !
 ! A50   A(29,16,30)           106.7753         calculate D2E/DX2 analytically  !
 ! D1    D(1,2,3,4)              0.606          calculate D2E/DX2 analytically  !
 ! D2    D(1,2,3,17)           175.791          calculate D2E/DX2 analytically  !
 ! D3    D(14,2,3,4)           178.2743         calculate D2E/DX2 analytically  !
 ! D4    D(14,2,3,17)           -6.5407         calculate D2E/DX2 analytically  !
 ! D5    D(1,2,14,15)         -140.2381         calculate D2E/DX2 analytically  !
 ! D6    D(1,2,14,25)          -17.4646         calculate D2E/DX2 analytically  !
 ! D7    D(1,2,14,26)           97.6346         calculate D2E/DX2 analytically  !
 ! D8    D(3,2,14,15)           42.0759         calculate D2E/DX2 analytically  !
 ! D9    D(3,2,14,25)          164.8494         calculate D2E/DX2 analytically  !
 ! D10   D(3,2,14,26)          -80.0514         calculate D2E/DX2 analytically  !
 ! D11   D(2,3,4,5)           -159.5128         calculate D2E/DX2 analytically  !
 ! D12   D(2,3,4,8)             80.5857         calculate D2E/DX2 analytically  !
 ! D13   D(2,3,4,18)           -39.8777         calculate D2E/DX2 analytically  !
 ! D14   D(17,3,4,5)            25.4129         calculate D2E/DX2 analytically  !
 ! D15   D(17,3,4,8)           -94.4887         calculate D2E/DX2 analytically  !
 ! D16   D(17,3,4,18)          145.048          calculate D2E/DX2 analytically  !
 ! D17   D(3,4,5,6)            128.6376         calculate D2E/DX2 analytically  !
 ! D18   D(3,4,5,7)            -51.9702         calculate D2E/DX2 analytically  !
 ! D19   D(8,4,5,6)           -112.0759         calculate D2E/DX2 analytically  !
 ! D20   D(8,4,5,7)             67.3163         calculate D2E/DX2 analytically  !
 ! D21   D(18,4,5,6)            10.6949         calculate D2E/DX2 analytically  !
 ! D22   D(18,4,5,7)          -169.9129         calculate D2E/DX2 analytically  !
 ! D23   D(3,4,8,9)           -178.6995         calculate D2E/DX2 analytically  !
 ! D24   D(3,4,8,20)            60.356          calculate D2E/DX2 analytically  !
 ! D25   D(3,4,8,21)           -55.9252         calculate D2E/DX2 analytically  !
 ! D26   D(5,4,8,9)             63.9734         calculate D2E/DX2 analytically  !
 ! D27   D(5,4,8,20)           -56.9711         calculate D2E/DX2 analytically  !
 ! D28   D(5,4,8,21)          -173.2523         calculate D2E/DX2 analytically  !
 ! D29   D(18,4,8,9)           -59.2926         calculate D2E/DX2 analytically  !
 ! D30   D(18,4,8,20)          179.763          calculate D2E/DX2 analytically  !
 ! D31   D(18,4,8,21)           63.4818         calculate D2E/DX2 analytically  !
 ! D32   D(4,5,6,19)           178.8374         calculate D2E/DX2 analytically  !
 ! D33   D(7,5,6,19)            -0.5545         calculate D2E/DX2 analytically  !
 ! D34   D(4,8,9,10)          -102.8617         calculate D2E/DX2 analytically  !
 ! D35   D(4,8,9,13)            74.8506         calculate D2E/DX2 analytically  !
 ! D36   D(20,8,9,10)           17.7951         calculate D2E/DX2 analytically  !
 ! D37   D(20,8,9,13)         -164.4926         calculate D2E/DX2 analytically  !
 ! D38   D(21,8,9,10)          136.4784         calculate D2E/DX2 analytically  !
 ! D39   D(21,8,9,13)          -45.8092         calculate D2E/DX2 analytically  !
 ! D40   D(8,9,10,11)          177.9683         calculate D2E/DX2 analytically  !
 ! D41   D(8,9,10,22)           -0.9796         calculate D2E/DX2 analytically  !
 ! D42   D(13,9,10,11)          -0.0483         calculate D2E/DX2 analytically  !
 ! D43   D(13,9,10,22)        -178.9962         calculate D2E/DX2 analytically  !
 ! D44   D(8,9,13,12)         -178.2889         calculate D2E/DX2 analytically  !
 ! D45   D(8,9,13,24)            2.1849         calculate D2E/DX2 analytically  !
 ! D46   D(10,9,13,12)          -0.0387         calculate D2E/DX2 analytically  !
 ! D47   D(10,9,13,24)        -179.5648         calculate D2E/DX2 analytically  !
 ! D48   D(9,10,11,12)           0.1183         calculate D2E/DX2 analytically  !
 ! D49   D(22,10,11,12)        179.1267         calculate D2E/DX2 analytically  !
 ! D50   D(10,11,12,13)         -0.1432         calculate D2E/DX2 analytically  !
 ! D51   D(10,11,12,23)        179.7012         calculate D2E/DX2 analytically  !
 ! D52   D(11,12,13,9)           0.1185         calculate D2E/DX2 analytically  !
 ! D53   D(11,12,13,24)        179.6404         calculate D2E/DX2 analytically  !
 ! D54   D(23,12,13,9)        -179.7339         calculate D2E/DX2 analytically  !
 ! D55   D(23,12,13,24)         -0.2119         calculate D2E/DX2 analytically  !
 ! D56   D(2,14,15,16)         -68.1162         calculate D2E/DX2 analytically  !
 ! D57   D(2,14,15,27)          51.2626         calculate D2E/DX2 analytically  !
 ! D58   D(2,14,15,28)         167.5287         calculate D2E/DX2 analytically  !
 ! D59   D(25,14,15,16)        171.7078         calculate D2E/DX2 analytically  !
 ! D60   D(25,14,15,27)        -68.9134         calculate D2E/DX2 analytically  !
 ! D61   D(25,14,15,28)         47.3527         calculate D2E/DX2 analytically  !
 ! D62   D(26,14,15,16)         53.7343         calculate D2E/DX2 analytically  !
 ! D63   D(26,14,15,27)        173.1131         calculate D2E/DX2 analytically  !
 ! D64   D(26,14,15,28)        -70.6208         calculate D2E/DX2 analytically  !
 ! D65   D(14,15,16,29)        -72.8542         calculate D2E/DX2 analytically  !
 ! D66   D(14,15,16,30)        169.3726         calculate D2E/DX2 analytically  !
 ! D67   D(27,15,16,29)        166.9699         calculate D2E/DX2 analytically  !
 ! D68   D(27,15,16,30)         49.1967         calculate D2E/DX2 analytically  !
 ! D69   D(28,15,16,29)         49.4839         calculate D2E/DX2 analytically  !
 ! D70   D(28,15,16,30)        -68.2893         calculate D2E/DX2 analytically  !
 --------------------------------------------------------------------------------
 Trust Radius=3.00D-01 FncErr=1.00D-07 GrdErr=1.00D-06
 Number of steps in this run=    160 maximum allowed number of steps=    180.
 GradGradGradGradGradGradGradGradGradGradGradGradGradGradGradGradGradGrad

                          Input orientation:                          
 ---------------------------------------------------------------------
 Center     Atomic      Atomic             Coordinates (Angstroms)
 Number     Number       Type             X           Y           Z
 ---------------------------------------------------------------------
      1          8           0        1.438917    0.436248    2.042087
      2          6           0        1.834550   -0.019245    0.979103
      3          7           0        0.998849   -0.497389    0.031803
      4          6           0       -0.438970   -0.485290    0.220409
      5          6           0       -1.006007   -1.510026   -0.732363
      6          8           0       -1.837219   -2.396269   -0.151910
      7          8           0       -0.746262   -1.525921   -1.910900
      8          6           0       -0.994009    0.917744   -0.094734
      9          6           0       -2.469296    1.033152    0.102718
     10          6           0       -3.516640    1.051681   -0.776767
     11          7           0       -4.725223    1.131834   -0.106082
     12          6           0       -4.408332    1.163990    1.167832
     13          7           0       -3.056777    1.105284    1.347775
     14          6           0        3.319231   -0.138846    0.650866
     15          6           0        3.693694    0.205216   -0.784841
     16          7           0        3.164743   -0.787920   -1.734535
     17          1           0        1.398821   -0.798920   -0.850438
     18          1           0       -0.653775   -0.751404    1.255008
     19          1           0       -2.141948   -2.977487   -0.862290
     20          1           0       -0.759313    1.153105   -1.130955
     21          1           0       -0.460540    1.623525    0.540239
     22          1           0       -3.461381    0.995541   -1.856306
     23          1           0       -5.091809    1.230273    1.995318
     24          1           0       -2.568773    1.119626    2.229332
     25          1           0        3.835516    0.517044    1.352785
     26          1           0        3.638281   -1.165852    0.864072
     27          1           0        3.273030    1.177383   -1.044828
     28          1           0        4.783761    0.303721   -0.850471
     29          1           0        3.687047   -1.653052   -1.666544
     30          1           0        3.269772   -0.457701   -2.683603
 ---------------------------------------------------------------------
                    Distance matrix (angstroms):
                    1          2          3          4          5
     1  O    0.000000
     2  C    1.222266   0.000000
     3  N    2.259775   1.350702   0.000000
     4  C    2.773843   2.441661   1.450187   0.000000
     5  C    4.178901   3.635974   2.372515   1.509765   0.000000
     6  O    4.854878   4.517889   3.418007   2.396990   1.346575
     7  O    4.924553   4.157256   2.806667   2.391614   1.206926
     8  C    3.273679   3.167306   2.447468   1.541392   2.510136
     9  C    4.403587   4.516490   3.791519   2.538059   3.050628
    10  C    5.734304   5.732818   4.841802   3.581717   3.587143
    11  N    6.564685   6.747832   5.953014   4.592783   4.604804
    12  C    5.956866   6.356827   5.769606   4.401542   4.726195
    13  N    4.597929   5.032452   4.555047   3.264016   3.920776
    14  C    2.408695   1.525228   2.428161   3.798604   4.743537
    15  C    3.623385   2.572605   2.902198   4.308856   5.003199
    16  N    4.328965   3.118350   2.809886   4.110978   4.349821
    17  H    3.145465   2.035920   1.014518   2.150012   2.510540
    18  H    2.531674   2.608437   2.071695   1.089657   2.156205
    19  H    5.736862   5.287198   4.100596   3.206776   1.860291
    20  H    3.926104   3.543285   2.677175   2.147823   2.704071
    21  H    2.696871   2.856350   2.624233   2.133040   3.425813
    22  H    6.286747   6.092308   5.068278   3.954816   3.683745
    23  H    6.578985   7.111149   6.628448   5.267103   5.625235
    24  H    4.069846   4.716922   4.491303   3.338801   4.257811
    25  H    2.495065   2.105020   3.289491   4.534113   5.647761
    26  H    2.965071   2.140417   2.847125   4.183473   4.923055
    27  H    3.666374   2.756345   3.022565   4.259607   5.062604
    28  H    4.424074   3.485612   3.968090   5.389456   6.068363
    29  H    4.813856   3.619464   3.383245   4.684898   4.787265
    30  H    5.146195   3.958222   3.540070   4.710501   4.816328
                    6          7          8          9         10
     6  O    0.000000
     7  O    2.245382   0.000000
     8  C    3.420081   3.054723   0.000000
     9  C    3.496468   3.684069   1.492909   0.000000
    10  C    3.885777   3.950353   2.616634   1.367760   0.000000
    11  N    4.559625   5.114016   3.737368   2.267717   1.384527
    12  C    4.585606   5.488622   3.648604   2.216178   2.142240
    13  N    3.999657   4.783376   2.524088   1.378588   2.174403
    14  C    5.685893   5.001485   4.502926   5.931365   7.084111
    15  C    6.144862   4.896739   4.791504   6.281376   7.259855
    16  N    5.487360   3.983931   4.784711   6.199533   6.995880
    17  H    3.675788   2.500898   3.040339   4.384898   5.252801
    18  H    2.466888   3.260583   2.173389   2.794375   3.946546
    19  H    0.967116   2.270368   4.132763   4.138070   4.258085
    20  H    3.836465   2.790280   1.088223   2.111961   2.781832
    21  H    4.305004   4.001091   1.088994   2.138941   3.376575
    22  H    4.128830   3.705755   3.032673   2.196229   1.082409
    23  H    5.324918   6.460567   4.610635   3.240118   3.193354
    24  H    4.308945   5.240419   2.814591   2.130695   3.152730
    25  H    6.552207   5.984817   5.057686   6.448231   7.673007
    26  H    5.703266   5.201379   5.169023   6.535884   7.668293
    27  H    6.299439   4.920634   4.379237   5.857642   6.796122
    28  H    7.184379   5.920578   5.859248   7.351699   8.334358
    29  H    5.776158   4.441857   5.567034   6.945973   7.745992
    30  H    6.020704   4.226901   5.174352   6.551575   7.208998
                   11         12         13         14         15
    11  N    0.000000
    12  C    1.313130   0.000000
    13  N    2.213169   1.364744   0.000000
    14  C    8.179293   7.853653   6.533531   0.000000
    15  C    8.496912   8.388982   7.136319   1.523107   0.000000
    16  N    8.281841   8.341772   7.196679   2.476954   1.472423
    17  H    6.464194   6.453639   5.320761   2.525388   2.505800
    18  H    4.687839   4.215808   3.038144   4.065094   4.896590
    19  H    4.912400   5.139039   4.731841   6.338138   6.647580
    20  H    4.096250   4.312758   3.380050   4.634494   4.565913
    21  H    4.341315   4.023694   2.767877   4.171913   4.585313
    22  H    2.163136   3.173405   3.231390   7.317748   7.277895
    23  H    2.135406   1.075299   2.139226   8.627145   9.271737
    24  H    3.178771   2.124319   1.007719   6.224459   7.009984
    25  H    8.705889   8.271262   6.917352   1.090612   2.164901
    26  H    8.727472   8.382626   7.086313   1.096354   2.145184
    27  H    8.053283   7.993708   6.767290   2.147085   1.090715
    28  H    9.573957   9.450301   8.182226   2.143531   1.096474
    29  H    8.997606   9.027988   7.885030   2.792579   2.056844
    30  H    8.549280   8.741666   7.662908   3.350044   2.055351
                   16         17         18         19         20
    16  N    0.000000
    17  H    1.974900   0.000000
    18  H    4.849720   2.940801   0.000000
    19  H    5.806547   4.157324   3.413656   0.000000
    20  H    4.419287   2.923463   3.054687   4.364132   0.000000
    21  H    4.912468   3.355510   2.487675   5.095442   1.761661
    22  H    6.863023   5.277635   4.540346   4.302780   2.802166
    23  H    9.282003   7.371854   4.916427   5.879868   5.343226
    24  H    7.226630   5.376580   2.849084   5.150402   3.816647
    25  H    3.418248   3.538847   4.666075   7.269689   5.261747
    26  H    2.668302   2.844181   4.329705   6.298682   5.356914
    27  H    2.085626   2.730608   4.942597   6.827756   4.033335
    28  H    2.143470   3.560004   5.925633   7.663674   5.614783
    29  H    1.012856   2.575179   5.309536   6.031429   5.285024
    30  H    1.010349   2.641474   5.567148   6.241251   4.608572
                   21         22         23         24         25
    21  H    0.000000
    22  H    3.891380   0.000000
    23  H    4.870376   4.189081   0.000000
    24  H    2.748017   4.183848   2.536280   0.000000
    25  H    4.510058   7.985733   8.978790   6.492022   0.000000
    26  H    4.968483   7.904257   9.123355   6.753878   1.763486
    27  H    4.080566   6.785562   8.900327   6.697023   2.549704
    28  H    5.583784   8.335027  10.319103   8.013154   2.408115
    29  H    5.727855   7.625685   9.939372   7.874063   3.721251
    30  H    5.351625   6.935759   9.729214   7.791887   4.190779
                   26         27         28         29         30
    26  H    0.000000
    27  H    3.044349   0.000000
    28  H    2.532080   1.755952   0.000000
    29  H    2.577550   2.927337   2.386989   0.000000
    30  H    3.636383   2.314972   2.496457   1.624005   0.000000
 Symmetry turned off by external request.
 Stoichiometry    C9H14N4O3
 Framework group  C1[X(C9H14N4O3)]
 Deg. of freedom    84
 Full point group                 C1      NOp   1
 Rotational constants (GHZ):      0.9635637      0.2824545      0.2508772
 Standard basis: 6-311G(d,p) (5D, 7F)
   372 basis functions,   624 primitive gaussians,   388 cartesian basis functions
    60 alpha electrons       60 beta electrons
       nuclear repulsion energy      1127.8646177760 Hartrees.
 NAtoms=   30 NActive=   30 NUniq=   30 SFac= 1.00D+00 NAtFMM=   60 NAOKFM=F Big=F
 Integral buffers will be    131072 words long.
 Raffenetti 2 integral format.
 Two-electron integral symmetry is turned off.
 Nuclear repulsion after empirical dispersion term =     1127.8101966719 Hartrees.
 One-electron integrals computed using PRISM.
 NBasis=   372 RedAO= T EigKep=  5.18D-04  NBF=   372
 NBsUse=   372 1.00D-06 EigRej= -1.00D+00 NBFU=   372
 ExpMin= 1.03D-01 ExpMax= 8.59D+03 ExpMxC= 1.30D+03 IAcc=3 IRadAn=         5 AccDes= 0.00D+00
 Harris functional with IExCor=  402 and IRadAn=       5 diagonalized for initial guess.
 HarFok:  IExCor=  402 AccDes= 0.00D+00 IRadAn=         5 IDoV= 1 UseB2=F ITyADJ=14
 ICtDFT=  3500011 ScaDFX=  1.000000  1.000000  1.000000  1.000000
 FoFCou: FMM=F IPFlag=           0 FMFlag=      100000 FMFlg1=           0
         NFxFlg=           0 DoJE=T BraDBF=F KetDBF=T FulRan=T
         wScrn=  0.000000 ICntrl=     500 IOpCl=  0 I1Cent=   200000004 NGrid=           0
         NMat0=    1 NMatS0=      1 NMatT0=    0 NMatD0=    1 NMtDS0=    0 NMtDT0=    0
 Symmetry not used in FoFCou.
 Requested convergence on RMS density matrix=1.00D-08 within 128 cycles.
 Requested convergence on MAX density matrix=1.00D-06.
 Requested convergence on             energy=1.00D-06.
 No special actions if energy rises.
 Integral accuracy reduced to 1.0D-05 until final iterations.
 Initial convergence to 1.0D-05 achieved.  Increase integral accuracy.
 SCF Done:  E(RB3LYP) =  -796.369463463     A.U. after   14 cycles
            NFock= 14  Conv=0.50D-08     -V/T= 2.0034
 DoSCS=F DFT=T ScalE2(SS,OS)=  1.000000  1.000000
 Range of M.O.s used for correlation:     1   372
 NBasis=   372 NAE=    60 NBE=    60 NFC=     0 NFV=     0
 NROrb=    372 NOA=    60 NOB=    60 NVA=   312 NVB=   312
 Symmetrizing basis deriv contribution to polar:
 IMax=3 JMax=2 DiffMx= 0.00D+00
 G2DrvN: will do    31 centers at a time, making    1 passes.
 Calling FoFCou, ICntrl=  3107 FMM=F I1Cent=   0 AccDes= 0.00D+00.
 End of G2Drv F.D. properties file   721 does not exist.
 End of G2Drv F.D. properties file   722 does not exist.
 End of G2Drv F.D. properties file   788 does not exist.
          IDoAtm=111111111111111111111111111111
          Differentiating once with respect to nuclear coordinates.
          There are    93 degrees of freedom in the 1st order CPHF.  IDoFFX=6 NUNeed=     0.
     87 vectors produced by pass  0 Test12= 2.01D-14 1.08D-09 XBig12= 1.78D-01 9.87D-02.
 AX will form    87 AO Fock derivatives at one time.
     87 vectors produced by pass  1 Test12= 2.01D-14 1.08D-09 XBig12= 1.46D-02 3.29D-02.
     87 vectors produced by pass  2 Test12= 2.01D-14 1.08D-09 XBig12= 2.08D-04 2.15D-03.
     87 vectors produced by pass  3 Test12= 2.01D-14 1.08D-09 XBig12= 8.92D-07 1.15D-04.
     87 vectors produced by pass  4 Test12= 2.01D-14 1.08D-09 XBig12= 1.70D-09 4.01D-06.
     76 vectors produced by pass  5 Test12= 2.01D-14 1.08D-09 XBig12= 2.27D-12 2.23D-07.
     25 vectors produced by pass  6 Test12= 2.01D-14 1.08D-09 XBig12= 2.20D-15 5.86D-09.
 InvSVY:  IOpt=1 It=  1 EMax= 5.00D-16
 Solved reduced A of dimension   536 with    93 vectors.
 End of Minotr F.D. properties file   721 does not exist.
 End of Minotr F.D. properties file   722 does not exist.
 End of Minotr F.D. properties file   788 does not exist.

 **********************************************************************

            Population analysis using the SCF density.

 **********************************************************************

 Alpha  occ. eigenvalues --  -19.17862 -19.11978 -19.07748 -14.36221 -14.32607
 Alpha  occ. eigenvalues --  -14.31824 -14.28197 -10.31372 -10.26591 -10.22963
 Alpha  occ. eigenvalues --  -10.21642 -10.21635 -10.19946 -10.18828 -10.18447
 Alpha  occ. eigenvalues --  -10.17332  -1.12477  -1.03836  -1.03302  -1.01254
 Alpha  occ. eigenvalues --   -0.93209  -0.90959  -0.86696  -0.80804  -0.77165
 Alpha  occ. eigenvalues --   -0.73859  -0.68493  -0.65046  -0.61749  -0.61059
 Alpha  occ. eigenvalues --   -0.58956  -0.58307  -0.53899  -0.53589  -0.52002
 Alpha  occ. eigenvalues --   -0.50361  -0.48943  -0.47736  -0.46956  -0.46374
 Alpha  occ. eigenvalues --   -0.44897  -0.44545  -0.43272  -0.41893  -0.41638
 Alpha  occ. eigenvalues --   -0.40980  -0.40446  -0.39563  -0.39112  -0.38346
 Alpha  occ. eigenvalues --   -0.37678  -0.35473  -0.33503  -0.29546  -0.27891
 Alpha  occ. eigenvalues --   -0.27414  -0.26576  -0.25972  -0.25245  -0.22375
 Alpha virt. eigenvalues --   -0.01246   0.01308   0.02329   0.03058   0.03777
 Alpha virt. eigenvalues --    0.04043   0.05677   0.06287   0.06631   0.07931
 Alpha virt. eigenvalues --    0.08483   0.09409   0.10687   0.11810   0.12231
 Alpha virt. eigenvalues --    0.12649   0.13079   0.15287   0.17972   0.18473
 Alpha virt. eigenvalues --    0.19495   0.20445   0.20801   0.21806   0.22856
 Alpha virt. eigenvalues --    0.23444   0.25724   0.25783   0.27431   0.29782
 Alpha virt. eigenvalues --    0.30777   0.32297   0.32800   0.33247   0.34115
 Alpha virt. eigenvalues --    0.35533   0.35674   0.36517   0.37150   0.38412
 Alpha virt. eigenvalues --    0.39474   0.40043   0.41796   0.42748   0.43478
 Alpha virt. eigenvalues --    0.44251   0.44607   0.45699   0.46501   0.47328
 Alpha virt. eigenvalues --    0.48094   0.50327   0.51397   0.52085   0.53568
 Alpha virt. eigenvalues --    0.54080   0.55373   0.55796   0.56499   0.56946
 Alpha virt. eigenvalues --    0.57449   0.58277   0.58713   0.59214   0.59836
 Alpha virt. eigenvalues --    0.60019   0.60975   0.61542   0.62778   0.63675
 Alpha virt. eigenvalues --    0.64445   0.65685   0.66458   0.67303   0.68505
 Alpha virt. eigenvalues --    0.69433   0.70189   0.71159   0.71862   0.72452
 Alpha virt. eigenvalues --    0.73299   0.75527   0.76154   0.77711   0.78448
 Alpha virt. eigenvalues --    0.79134   0.79797   0.81700   0.83096   0.84558
 Alpha virt. eigenvalues --    0.85325   0.88098   0.91367   0.91846   0.93769
 Alpha virt. eigenvalues --    0.95388   0.96602   0.98177   0.98648   0.99162
 Alpha virt. eigenvalues --    1.02047   1.02440   1.05060   1.06352   1.08415
 Alpha virt. eigenvalues --    1.10282   1.11395   1.12615   1.14192   1.15463
 Alpha virt. eigenvalues --    1.19226   1.19961   1.22074   1.22836   1.24517
 Alpha virt. eigenvalues --    1.26291   1.28549   1.30110   1.30617   1.32374
 Alpha virt. eigenvalues --    1.32957   1.34750   1.37922   1.38766   1.40340
 Alpha virt. eigenvalues --    1.43067   1.44817   1.46294   1.47127   1.47765
 Alpha virt. eigenvalues --    1.48815   1.50497   1.51761   1.53232   1.53543
 Alpha virt. eigenvalues --    1.55246   1.56238   1.57102   1.57558   1.59024
 Alpha virt. eigenvalues --    1.60339   1.62216   1.62357   1.63719   1.63823
 Alpha virt. eigenvalues --    1.65587   1.65657   1.67284   1.68285   1.68774
 Alpha virt. eigenvalues --    1.70302   1.71767   1.72419   1.73307   1.74665
 Alpha virt. eigenvalues --    1.75022   1.75586   1.76823   1.78839   1.80077
 Alpha virt. eigenvalues --    1.80427   1.82598   1.83583   1.85688   1.86670
 Alpha virt. eigenvalues --    1.88293   1.90378   1.91586   1.93238   1.95054
 Alpha virt. eigenvalues --    1.96912   1.97518   2.00421   2.01296   2.04787
 Alpha virt. eigenvalues --    2.05627   2.06893   2.10263   2.12086   2.14095
 Alpha virt. eigenvalues --    2.16564   2.17133   2.20011   2.21235   2.22690
 Alpha virt. eigenvalues --    2.24121   2.24590   2.25179   2.29282   2.29538
 Alpha virt. eigenvalues --    2.31847   2.34698   2.38051   2.40306   2.42954
 Alpha virt. eigenvalues --    2.43265   2.44553   2.45696   2.45973   2.47417
 Alpha virt. eigenvalues --    2.49453   2.50098   2.51631   2.53545   2.53644
 Alpha virt. eigenvalues --    2.55307   2.56287   2.57192   2.58555   2.59521
 Alpha virt. eigenvalues --    2.62338   2.63352   2.63847   2.66622   2.67411
 Alpha virt. eigenvalues --    2.68266   2.69431   2.71294   2.72249   2.73684
 Alpha virt. eigenvalues --    2.74079   2.76147   2.79551   2.79801   2.80414
 Alpha virt. eigenvalues --    2.82621   2.83554   2.84155   2.84635   2.86675
 Alpha virt. eigenvalues --    2.88226   2.89722   2.92413   2.92957   2.93954
 Alpha virt. eigenvalues --    2.94686   2.96194   2.97403   2.99848   3.03047
 Alpha virt. eigenvalues --    3.04430   3.07043   3.08745   3.12308   3.14279
 Alpha virt. eigenvalues --    3.15622   3.16911   3.23613   3.24594   3.30502
 Alpha virt. eigenvalues --    3.35724   3.36654   3.38496   3.38893   3.44892
 Alpha virt. eigenvalues --    3.47827   3.53732   3.57110   3.58237   3.59876
 Alpha virt. eigenvalues --    3.64459   3.66229   3.67370   3.72495   3.75136
 Alpha virt. eigenvalues --    3.78075   3.80241   3.80791   3.84371   3.85301
 Alpha virt. eigenvalues --    3.86207   3.89087   3.92997   3.99892   4.10728
 Alpha virt. eigenvalues --    4.11372   4.20703   4.29071   4.31153   4.42186
 Alpha virt. eigenvalues --    4.70699   4.75936   4.81126   4.81875   4.87165
 Alpha virt. eigenvalues --    4.92481   4.92535   4.94791   4.96809   5.03747
 Alpha virt. eigenvalues --    5.09136   5.24267   5.25768   5.55829   5.66791
 Alpha virt. eigenvalues --    5.75739  23.71587  23.74913  23.78882  23.81154
 Alpha virt. eigenvalues --   23.85860  23.87952  23.90674  23.93674  24.14847
 Alpha virt. eigenvalues --   35.52237  35.55653  35.61972  35.68794  49.83253
 Alpha virt. eigenvalues --   50.00718  50.01584
          Condensed to atoms (all electrons):
               1          2          3          4          5          6
     1  O    7.877863   0.657566  -0.118257   0.009058   0.000799   0.000002
     2  C    0.657566   4.513309   0.338055  -0.062432   0.009416  -0.000196
     3  N   -0.118257   0.338055   6.847829   0.236132  -0.026911   0.000643
     4  C    0.009058  -0.062432   0.236132   5.240856   0.247858  -0.081094
     5  C    0.000799   0.009416  -0.026911   0.247858   4.549141   0.359724
     6  O    0.000002  -0.000196   0.000643  -0.081094   0.359724   7.789028
     7  O   -0.000004  -0.000410  -0.004741  -0.098905   0.618665  -0.077705
     8  C   -0.007155  -0.007960  -0.047108   0.314658  -0.058975  -0.001187
     9  C   -0.000871   0.000262   0.008111  -0.077608  -0.005216   0.002945
    10  C   -0.000007  -0.000020  -0.000048  -0.007465   0.004545  -0.000390
    11  N    0.000000   0.000000   0.000000  -0.000264  -0.000013  -0.000045
    12  C   -0.000001   0.000001   0.000004   0.000477  -0.000087   0.000225
    13  N    0.000019  -0.000005  -0.000003   0.002821  -0.000743  -0.000326
    14  C   -0.070841   0.348900  -0.105815   0.011564  -0.000006   0.000001
    15  C    0.001913  -0.049522   0.017537  -0.001335  -0.000035   0.000000
    16  N   -0.000035  -0.011591  -0.033798   0.001378  -0.000167   0.000000
    17  H    0.001915  -0.017332   0.332251  -0.037055  -0.008931   0.001033
    18  H    0.018703  -0.006712  -0.035299   0.392837  -0.031400   0.009528
    19  H    0.000002   0.000051  -0.000645   0.018572  -0.035273   0.304221
    20  H   -0.000125  -0.000040   0.004895  -0.038331  -0.007528   0.000451
    21  H    0.013644   0.002393  -0.012388  -0.044204   0.008085  -0.000214
    22  H    0.000000   0.000000  -0.000015   0.000007   0.000597  -0.000068
    23  H    0.000000   0.000000   0.000000   0.000008   0.000001   0.000009
    24  H    0.000317   0.000019  -0.000092   0.000159   0.000087  -0.000047
    25  H    0.011519  -0.035439   0.008628  -0.000365   0.000001   0.000000
    26  H    0.001073  -0.029120   0.002333  -0.000662  -0.000007   0.000000
    27  H    0.000424  -0.004114   0.004318  -0.000877   0.000011   0.000000
    28  H   -0.000349   0.006491  -0.000397   0.000077  -0.000001   0.000000
    29  H    0.000011  -0.000032   0.001394  -0.000111   0.000035  -0.000001
    30  H    0.000008   0.000187   0.000869  -0.000021   0.000008   0.000001
               7          8          9         10         11         12
     1  O   -0.000004  -0.007155  -0.000871  -0.000007   0.000000  -0.000001
     2  C   -0.000410  -0.007960   0.000262  -0.000020   0.000000   0.000001
     3  N   -0.004741  -0.047108   0.008111  -0.000048   0.000000   0.000004
     4  C   -0.098905   0.314658  -0.077608  -0.007465  -0.000264   0.000477
     5  C    0.618665  -0.058975  -0.005216   0.004545  -0.000013  -0.000087
     6  O   -0.077705  -0.001187   0.002945  -0.000390  -0.000045   0.000225
     7  O    7.857731   0.006624  -0.004374   0.000719   0.000004  -0.000003
     8  C    0.006624   4.998518   0.276827  -0.031104   0.008002   0.004527
     9  C   -0.004374   0.276827   5.169071   0.565025  -0.093016  -0.120953
    10  C    0.000719  -0.031104   0.565025   4.846645   0.498583  -0.177722
    11  N    0.000004   0.008002  -0.093016   0.498583   6.436348   0.580833
    12  C   -0.000003   0.004527  -0.120953  -0.177722   0.580833   4.742809
    13  N    0.000001  -0.051969   0.372471  -0.074528  -0.087137   0.419436
    14  C   -0.000016  -0.001219  -0.000030   0.000000   0.000000   0.000000
    15  C   -0.000035   0.000214   0.000015   0.000000   0.000000   0.000000
    16  N   -0.000394  -0.000172  -0.000003   0.000000   0.000000   0.000000
    17  H    0.021922   0.002186  -0.000362  -0.000004   0.000000   0.000000
    18  H    0.004259  -0.041468  -0.002244  -0.000287   0.000028   0.000015
    19  H    0.009733  -0.001609   0.000886   0.000452  -0.000012  -0.000046
    20  H    0.010071   0.397839  -0.035310  -0.003217   0.000330  -0.000234
    21  H   -0.000161   0.409254  -0.029908   0.001936  -0.000301  -0.000056
    22  H    0.000572   0.000030  -0.049636   0.421600  -0.024885   0.008035
    23  H    0.000000  -0.000392   0.004449   0.006364  -0.023218   0.413895
    24  H   -0.000004   0.002669  -0.035658   0.007135   0.006740  -0.023242
    25  H    0.000001   0.000091  -0.000003   0.000000   0.000000   0.000000
    26  H   -0.000002   0.000045   0.000001   0.000000   0.000000   0.000000
    27  H   -0.000019   0.000320   0.000017   0.000000   0.000000   0.000000
    28  H   -0.000002  -0.000023   0.000000   0.000000   0.000000   0.000000
    29  H   -0.000040   0.000014   0.000000   0.000000   0.000000   0.000000
    30  H    0.000143   0.000007   0.000001   0.000000   0.000000   0.000000
              13         14         15         16         17         18
     1  O    0.000019  -0.070841   0.001913  -0.000035   0.001915   0.018703
     2  C   -0.000005   0.348900  -0.049522  -0.011591  -0.017332  -0.006712
     3  N   -0.000003  -0.105815   0.017537  -0.033798   0.332251  -0.035299
     4  C    0.002821   0.011564  -0.001335   0.001378  -0.037055   0.392837
     5  C   -0.000743  -0.000006  -0.000035  -0.000167  -0.008931  -0.031400
     6  O   -0.000326   0.000001   0.000000   0.000000   0.001033   0.009528
     7  O    0.000001  -0.000016  -0.000035  -0.000394   0.021922   0.004259
     8  C   -0.051969  -0.001219   0.000214  -0.000172   0.002186  -0.041468
     9  C    0.372471  -0.000030   0.000015  -0.000003  -0.000362  -0.002244
    10  C   -0.074528   0.000000   0.000000   0.000000  -0.000004  -0.000287
    11  N   -0.087137   0.000000   0.000000   0.000000   0.000000   0.000028
    12  C    0.419436   0.000000   0.000000   0.000000   0.000000   0.000015
    13  N    6.459615   0.000000   0.000000   0.000000  -0.000004   0.004419
    14  C    0.000000   5.127795   0.295348  -0.046956  -0.011039   0.001382
    15  C    0.000000   0.295348   4.940132   0.269286  -0.019087   0.000060
    16  N    0.000000  -0.046956   0.269286   6.572563   0.075075  -0.000161
    17  H   -0.000004  -0.011039  -0.019087   0.075075   0.407498   0.003680
    18  H    0.004419   0.001382   0.000060  -0.000161   0.003680   0.530869
    19  H    0.000017  -0.000003   0.000002   0.000003  -0.000464  -0.001281
    20  H    0.004070  -0.000168   0.000183  -0.000139   0.002523   0.008485
    21  H   -0.002212   0.001055  -0.000450   0.000038  -0.000658  -0.006646
    22  H    0.004345   0.000000   0.000000   0.000000  -0.000006  -0.000019
    23  H   -0.037717   0.000000   0.000000   0.000000   0.000000   0.000012
    24  H    0.351720   0.000003   0.000000   0.000000   0.000003   0.001022
    25  H    0.000000   0.382230  -0.026087   0.004831   0.000875  -0.000201
    26  H    0.000000   0.384107  -0.037433  -0.005181  -0.000539  -0.000226
    27  H    0.000000  -0.044624   0.409474  -0.036968  -0.003227  -0.000007
    28  H    0.000000  -0.041153   0.407300  -0.033855   0.002719   0.000013
    29  H    0.000000  -0.004716  -0.039562   0.358898  -0.004099   0.000001
    30  H    0.000000   0.008517  -0.032436   0.364657  -0.002836   0.000005
              19         20         21         22         23         24
     1  O    0.000002  -0.000125   0.013644   0.000000   0.000000   0.000317
     2  C    0.000051  -0.000040   0.002393   0.000000   0.000000   0.000019
     3  N   -0.000645   0.004895  -0.012388  -0.000015   0.000000  -0.000092
     4  C    0.018572  -0.038331  -0.044204   0.000007   0.000008   0.000159
     5  C   -0.035273  -0.007528   0.008085   0.000597   0.000001   0.000087
     6  O    0.304221   0.000451  -0.000214  -0.000068   0.000009  -0.000047
     7  O    0.009733   0.010071  -0.000161   0.000572   0.000000  -0.000004
     8  C   -0.001609   0.397839   0.409254   0.000030  -0.000392   0.002669
     9  C    0.000886  -0.035310  -0.029908  -0.049636   0.004449  -0.035658
    10  C    0.000452  -0.003217   0.001936   0.421600   0.006364   0.007135
    11  N   -0.000012   0.000330  -0.000301  -0.024885  -0.023218   0.006740
    12  C   -0.000046  -0.000234  -0.000056   0.008035   0.413895  -0.023242
    13  N    0.000017   0.004070  -0.002212   0.004345  -0.037717   0.351720
    14  C   -0.000003  -0.000168   0.001055   0.000000   0.000000   0.000003
    15  C    0.000002   0.000183  -0.000450   0.000000   0.000000   0.000000
    16  N    0.000003  -0.000139   0.000038   0.000000   0.000000   0.000000
    17  H   -0.000464   0.002523  -0.000658  -0.000006   0.000000   0.000003
    18  H   -0.001281   0.008485  -0.006646  -0.000019   0.000012   0.001022
    19  H    0.453070  -0.000135   0.000059   0.000060   0.000001   0.000005
    20  H   -0.000135   0.543682  -0.022244   0.001417   0.000016  -0.000026
    21  H    0.000059  -0.022244   0.531124   0.000081  -0.000013   0.001892
    22  H    0.000060   0.001417   0.000081   0.540719  -0.000363  -0.000333
    23  H    0.000001   0.000016  -0.000013  -0.000363   0.532004  -0.002098
    24  H    0.000005  -0.000026   0.001892  -0.000333  -0.002098   0.456013
    25  H    0.000000  -0.000027   0.000029   0.000000   0.000000   0.000000
    26  H    0.000001   0.000005   0.000004   0.000000   0.000000   0.000000
    27  H    0.000000   0.000198  -0.000047   0.000000   0.000000   0.000000
    28  H    0.000000   0.000005   0.000008   0.000000   0.000000   0.000000
    29  H    0.000000  -0.000007   0.000003   0.000000   0.000000   0.000000
    30  H   -0.000001   0.000041  -0.000009   0.000000   0.000000   0.000000
              25         26         27         28         29         30
     1  O    0.011519   0.001073   0.000424  -0.000349   0.000011   0.000008
     2  C   -0.035439  -0.029120  -0.004114   0.006491  -0.000032   0.000187
     3  N    0.008628   0.002333   0.004318  -0.000397   0.001394   0.000869
     4  C   -0.000365  -0.000662  -0.000877   0.000077  -0.000111  -0.000021
     5  C    0.000001  -0.000007   0.000011  -0.000001   0.000035   0.000008
     6  O    0.000000   0.000000   0.000000   0.000000  -0.000001   0.000001
     7  O    0.000001  -0.000002  -0.000019  -0.000002  -0.000040   0.000143
     8  C    0.000091   0.000045   0.000320  -0.000023   0.000014   0.000007
     9  C   -0.000003   0.000001   0.000017   0.000000   0.000000   0.000001
    10  C    0.000000   0.000000   0.000000   0.000000   0.000000   0.000000
    11  N    0.000000   0.000000   0.000000   0.000000   0.000000   0.000000
    12  C    0.000000   0.000000   0.000000   0.000000   0.000000   0.000000
    13  N    0.000000   0.000000   0.000000   0.000000   0.000000   0.000000
    14  C    0.382230   0.384107  -0.044624  -0.041153  -0.004716   0.008517
    15  C   -0.026087  -0.037433   0.409474   0.407300  -0.039562  -0.032436
    16  N    0.004831  -0.005181  -0.036968  -0.033855   0.358898   0.364657
    17  H    0.000875  -0.000539  -0.003227   0.002719  -0.004099  -0.002836
    18  H   -0.000201  -0.000226  -0.000007   0.000013   0.000001   0.000005
    19  H    0.000000   0.000001   0.000000   0.000000   0.000000  -0.000001
    20  H   -0.000027   0.000005   0.000198   0.000005  -0.000007   0.000041
    21  H    0.000029   0.000004  -0.000047   0.000008   0.000003  -0.000009
    22  H    0.000000   0.000000   0.000000   0.000000   0.000000   0.000000
    23  H    0.000000   0.000000   0.000000   0.000000   0.000000   0.000000
    24  H    0.000000   0.000000   0.000000   0.000000   0.000000   0.000000
    25  H    0.541130  -0.016654  -0.001878  -0.005334  -0.000333  -0.000547
    26  H   -0.016654   0.567335   0.009205  -0.007668   0.006049  -0.000289
    27  H   -0.001878   0.009205   0.577653  -0.039563   0.010123  -0.009315
    28  H   -0.005334  -0.007668  -0.039563   0.610217  -0.010176  -0.002027
    29  H   -0.000333   0.006049   0.010123  -0.010176   0.513204  -0.034163
    30  H   -0.000547  -0.000289  -0.009315  -0.002027  -0.034163   0.495415
 Mulliken charges:
               1
     1  O   -0.397192
     2  C    0.348274
     3  N   -0.417483
     4  C   -0.025734
     5  C    0.376319
     6  O   -0.306537
     7  O   -0.343629
     8  C   -0.171482
     9  C    0.055112
    10  C   -0.058213
    11  N   -0.301977
    12  C    0.152087
    13  N   -0.364290
    14  C   -0.234314
    15  C   -0.135481
    16  N   -0.477309
    17  H    0.253966
    18  H    0.150636
    19  H    0.252333
    20  H    0.133321
    21  H    0.149905
    22  H    0.097862
    23  H    0.107042
    24  H    0.233715
    25  H    0.137535
    26  H    0.127625
    27  H    0.128895
    28  H    0.113719
    29  H    0.203511
    30  H    0.211786
 Sum of Mulliken charges =   0.00000
 Mulliken charges with hydrogens summed into heavy atoms:
               1
     1  O   -0.397192
     2  C    0.348274
     3  N   -0.163517
     4  C    0.124902
     5  C    0.376319
     6  O   -0.054204
     7  O   -0.343629
     8  C    0.111744
     9  C    0.055112
    10  C    0.039649
    11  N   -0.301977
    12  C    0.259129
    13  N   -0.130575
    14  C    0.030846
    15  C    0.107133
    16  N   -0.062013
 APT charges:
               1
     1  O   -0.080478
     2  C   -0.049499
     3  N   -0.498738
     4  C   -0.278397
     5  C   -0.365673
     6  O   -0.537582
     7  O    0.075337
     8  C   -0.607651
     9  C   -0.455038
    10  C   -0.455738
    11  N    0.606696
    12  C   -0.840109
    13  N   -0.574210
    14  C   -0.854983
    15  C   -0.882406
    16  N   -1.558762
    17  H    0.460066
    18  H    0.343577
    19  H    0.847093
    20  H    0.285222
    21  H    0.304063
    22  H    0.372319
    23  H    0.981977
    24  H    0.353275
    25  H    0.561535
    26  H    0.449903
    27  H    0.130519
    28  H    0.792699
    29  H    0.772100
    30  H    0.702882
 Sum of APT charges =   0.00000
 APT charges with hydrogens summed into heavy atoms:
               1
     1  O   -0.080478
     2  C   -0.049499
     3  N   -0.038672
     4  C    0.065180
     5  C   -0.365673
     6  O    0.309511
     7  O    0.075337
     8  C   -0.018366
     9  C   -0.455038
    10  C   -0.083420
    11  N    0.606696
    12  C    0.141868
    13  N   -0.220935
    14  C    0.156454
    15  C    0.040812
    16  N   -0.083780
 Electronic spatial extent (au):  <R**2>=           4508.3024
 Charge=              0.0000 electrons
 Dipole moment (field-independent basis, Debye):
    X=              4.8262    Y=             -1.6159    Z=             -0.5991  Tot=              5.1246
 Quadrupole moment (field-independent basis, Debye-Ang):
   XX=            -95.9832   YY=            -89.7229   ZZ=            -93.8835
   XY=              2.5807   XZ=            -17.5203   YZ=              2.1278
 Traceless Quadrupole moment (field-independent basis, Debye-Ang):
   XX=             -2.7867   YY=              3.4736   ZZ=             -0.6869
   XY=              2.5807   XZ=            -17.5203   YZ=              2.1278
 Octapole moment (field-independent basis, Debye-Ang**2):
  XXX=            301.1863  YYY=            -27.0658  ZZZ=             -3.5918  XYY=             45.3262
  XXY=            -44.2667  XXZ=             12.4363  XZZ=             20.9310  YZZ=             10.0833
  YYZ=             -5.9242  XYZ=            -17.5436
 Hexadecapole moment (field-independent basis, Debye-Ang**3):
 XXXX=          -4797.1803 YYYY=           -702.4861 ZZZZ=           -748.8662 XXXY=            384.9742
 XXXZ=           -148.1638 YYYX=            348.2963 YYYZ=           -100.9687 ZZZX=             -1.9541
 ZZZY=           -151.4830 XXYY=           -840.2645 XXZZ=           -707.0645 YYZZ=           -250.2275
 XXYZ=             45.5992 YYXZ=             43.1859 ZZXY=             47.2701
 N-N= 1.127810196672D+03 E-N=-4.118006624802D+03  KE= 7.936925436668D+02
  Exact polarizability:   0.000   0.000   0.000   0.000   0.000   0.000
 Approx polarizability: 207.838   2.447 146.250  -2.301  11.806 217.958
 Calling FoFJK, ICntrl=    100147 FMM=F ISym2X=0 I1Cent= 0 IOpClX= 0 NMat=1 NMatS=1 NMatT=0.
 -------------------------------------------------------------------
 Center     Atomic                   Forces (Hartrees/Bohr)
 Number     Number              X              Y              Z
 -------------------------------------------------------------------
      1        8          -0.000661674    0.002586726    0.003906980
      2        6           0.001226262   -0.002932438    0.003482288
      3        7          -0.002034279   -0.002742845    0.001406505
      4        6           0.007456021    0.001751607    0.002336275
      5        6          -0.004754644   -0.001962362   -0.005089236
      6        8           0.003401217    0.004194758    0.001934859
      7        8          -0.000142976   -0.001319688    0.001020705
      8        6          -0.009617977    0.001231971    0.000133834
      9        6           0.006550182    0.000617019   -0.000532789
     10        6          -0.006165413   -0.001422914   -0.003289016
     11        7           0.002847304    0.000097849   -0.001168134
     12        6          -0.000267340   -0.000354869   -0.003548010
     13        7           0.001175673   -0.000263678    0.004775070
     14        6          -0.001471792    0.000025461    0.002522724
     15        6           0.004414370    0.000640293   -0.003251984
     16        7          -0.000930577    0.001523747    0.001962588
     17        1           0.001801374   -0.001626343   -0.006011196
     18        1          -0.001252876   -0.000249507   -0.000278485
     19        1          -0.002389570   -0.001779826   -0.001352737
     20        1           0.001144085   -0.000239986   -0.001925473
     21        1           0.001691795    0.000805793    0.001540713
     22        1          -0.001063657    0.000769438    0.002233889
     23        1          -0.002450166    0.000189759    0.001500613
     24        1           0.000658922    0.000191961    0.000115920
     25        1           0.000773564   -0.000332757   -0.000544104
     26        1          -0.000202265   -0.000085558    0.001652857
     27        1          -0.001152209    0.001384884   -0.001146135
     28        1           0.001341051    0.000859787    0.000244663
     29        1           0.000825374   -0.002379781    0.000814541
     30        1          -0.000749779    0.000821498   -0.003447725
 -------------------------------------------------------------------
 Cartesian Forces:  Max     0.009617977 RMS     0.002589385
 FormGI is forming the generalized inverse of G from B-inverse, IUseBI=4.

 GradGradGradGradGradGradGradGradGradGradGradGradGradGradGradGradGradGrad
 Berny optimization.
 Internal  Forces:  Max     0.007203307 RMS     0.001923085
 Search for a local minimum.
 Step number   1 out of a maximum of  160
 All quantities printed in internal units (Hartrees-Bohrs-Radians)
 Mixed Optimization -- RFO/linear search
 Second derivative matrix not updated -- analytic derivatives used.
 ITU=  0
     Eigenvalues ---    0.00015   0.00087   0.00184   0.00221   0.00309
     Eigenvalues ---    0.00391   0.00471   0.00544   0.00883   0.01211
     Eigenvalues ---    0.01969   0.02144   0.02448   0.02868   0.03320
     Eigenvalues ---    0.03695   0.03735   0.04221   0.04246   0.04427
     Eigenvalues ---    0.04565   0.04607   0.05069   0.05184   0.05349
     Eigenvalues ---    0.05630   0.05777   0.06218   0.07809   0.07823
     Eigenvalues ---    0.08394   0.10034   0.10660   0.10862   0.11233
     Eigenvalues ---    0.11511   0.12782   0.13460   0.14481   0.14909
     Eigenvalues ---    0.15131   0.15643   0.16099   0.16854   0.18992
     Eigenvalues ---    0.19801   0.21010   0.21964   0.22748   0.22916
     Eigenvalues ---    0.24238   0.24556   0.25083   0.27004   0.27415
     Eigenvalues ---    0.30606   0.31412   0.32129   0.32830   0.33193
     Eigenvalues ---    0.33468   0.33688   0.34159   0.34192   0.34242
     Eigenvalues ---    0.34886   0.35457   0.36291   0.37549   0.37923
     Eigenvalues ---    0.40733   0.40934   0.42267   0.44844   0.45291
     Eigenvalues ---    0.46150   0.47192   0.47799   0.48444   0.52010
     Eigenvalues ---    0.58402   0.59914   0.81570   0.87105
 RFO step:  Lambda=-3.28629137D-03 EMin= 1.47455442D-04
 Linear search not attempted -- first point.
 Iteration  1 RMS(Cart)=  0.09716464 RMS(Int)=  0.00455733
 Iteration  2 RMS(Cart)=  0.00753098 RMS(Int)=  0.00021486
 Iteration  3 RMS(Cart)=  0.00003683 RMS(Int)=  0.00021361
 Iteration  4 RMS(Cart)=  0.00000000 RMS(Int)=  0.00021361
 Variable       Old X    -DE/DX   Delta X   Delta X   Delta X     New X
                                 (Linear)    (Quad)   (Total)
    R1        2.30975   0.00458   0.00000   0.00494   0.00494   2.31469
    R2        2.55246   0.00720   0.00000   0.01342   0.01342   2.56588
    R3        2.88226   0.00284   0.00000   0.00342   0.00342   2.88568
    R4        2.74046   0.00296   0.00000  -0.00814  -0.00814   2.73232
    R5        1.91716   0.00642   0.00000   0.01405   0.01405   1.93121
    R6        2.85304   0.00425   0.00000   0.01139   0.01139   2.86443
    R7        2.91281   0.00349   0.00000   0.02524   0.02524   2.93805
    R8        2.05915   0.00004   0.00000  -0.00054  -0.00054   2.05861
    R9        2.54466  -0.00196   0.00000  -0.00435  -0.00435   2.54031
   R10        2.28076  -0.00101   0.00000  -0.00285  -0.00285   2.27791
   R11        1.82758   0.00282   0.00000   0.00499   0.00499   1.83257
   R12        2.82119  -0.00127   0.00000  -0.00958  -0.00958   2.81161
   R13        2.05644   0.00203   0.00000   0.00648   0.00648   2.06292
   R14        2.05790   0.00225   0.00000   0.00705   0.00705   2.06495
   R15        2.58469   0.00499   0.00000   0.01019   0.01021   2.59491
   R16        2.60515   0.00340   0.00000   0.00865   0.00867   2.61382
   R17        2.61638  -0.00337   0.00000  -0.01122  -0.01122   2.60515
   R18        2.04546  -0.00232   0.00000  -0.00607  -0.00607   2.03939
   R19        2.48146  -0.00042   0.00000  -0.00178  -0.00180   2.47965
   R20        2.57899   0.00301   0.00000   0.00559   0.00558   2.58457
   R21        2.03202   0.00272   0.00000   0.00700   0.00700   2.03902
   R22        1.90431   0.00042   0.00000   0.00090   0.00090   1.90521
   R23        2.87826   0.00611   0.00000   0.01884   0.01884   2.89709
   R24        2.06096  -0.00018   0.00000  -0.00028  -0.00028   2.06068
   R25        2.07181   0.00034   0.00000   0.00118   0.00118   2.07298
   R26        2.78248   0.00076   0.00000  -0.00143  -0.00143   2.78105
   R27        2.06115   0.00195   0.00000   0.00564   0.00564   2.06679
   R28        2.07204   0.00140   0.00000   0.00361   0.00361   2.07564
   R29        1.91402   0.00251   0.00000   0.00489   0.00489   1.91891
   R30        1.90928   0.00343   0.00000   0.00667   0.00667   1.91595
    A1        2.14313  -0.00055   0.00000  -0.00054  -0.00061   2.14252
    A2        2.13113  -0.00258   0.00000  -0.00605  -0.00613   2.12500
    A3        2.00819   0.00317   0.00000   0.00739   0.00732   2.01550
    A4        2.11680  -0.00430   0.00000  -0.02312  -0.02351   2.09328
    A5        2.06142   0.00290   0.00000   0.01047   0.01007   2.07150
    A6        2.10188   0.00135   0.00000   0.00892   0.00853   2.11041
    A7        1.85943   0.00319   0.00000   0.04271   0.04301   1.90243
    A8        1.91561   0.00327   0.00000   0.02944   0.02976   1.94537
    A9        1.89325  -0.00175   0.00000   0.00563   0.00606   1.89932
   A10        1.93216  -0.00413   0.00000  -0.03013  -0.03137   1.90079
   A11        1.93841  -0.00015   0.00000  -0.02046  -0.02162   1.91679
   A12        1.92350  -0.00021   0.00000  -0.02351  -0.02439   1.89911
   A13        1.98943  -0.00537   0.00000  -0.03117  -0.03128   1.95816
   A14        2.14640   0.00384   0.00000   0.02040   0.02029   2.16669
   A15        2.14730   0.00153   0.00000   0.01050   0.01039   2.15770
   A16        1.84773   0.00246   0.00000   0.02013   0.02013   1.86786
   A17        1.98140  -0.00107   0.00000  -0.00774  -0.00775   1.97365
   A18        1.89008  -0.00039   0.00000  -0.00144  -0.00141   1.88867
   A19        1.86954  -0.00033   0.00000  -0.01151  -0.01153   1.85800
   A20        1.89900   0.00112   0.00000   0.01591   0.01590   1.91490
   A21        1.93571   0.00063   0.00000   0.00392   0.00381   1.93952
   A22        1.88535   0.00004   0.00000   0.00072   0.00064   1.88599
   A23        2.30865   0.00123   0.00000   0.01052   0.01039   2.31904
   A24        2.14672  -0.00032   0.00000  -0.00847  -0.00858   2.13815
   A25        1.82730  -0.00092   0.00000  -0.00279  -0.00282   1.82448
   A26        1.93663   0.00031   0.00000   0.00100   0.00100   1.93763
   A27        2.21619   0.00085   0.00000   0.00685   0.00679   2.22298
   A28        2.13022  -0.00116   0.00000  -0.00758  -0.00764   2.12258
   A29        1.83455   0.00150   0.00000   0.00479   0.00479   1.83934
   A30        1.94535   0.00074   0.00000   0.00069   0.00068   1.94603
   A31        2.20766  -0.00132   0.00000  -0.00723  -0.00723   2.20044
   A32        2.13017   0.00058   0.00000   0.00653   0.00653   2.13671
   A33        1.88094  -0.00164   0.00000  -0.00367  -0.00365   1.87730
   A34        2.19499   0.00033   0.00000  -0.00409  -0.00411   2.19089
   A35        2.20721   0.00130   0.00000   0.00775   0.00774   2.21495
   A36        2.00916   0.00347   0.00000   0.00969   0.00966   2.01882
   A37        1.84953  -0.00042   0.00000   0.00288   0.00290   1.85243
   A38        1.89113  -0.00191   0.00000  -0.00394  -0.00402   1.88710
   A39        1.93310  -0.00191   0.00000  -0.00964  -0.00964   1.92347
   A40        1.90008   0.00059   0.00000   0.00893   0.00890   1.90899
   A41        1.87594  -0.00005   0.00000  -0.00942  -0.00940   1.86654
   A42        1.94689  -0.00135   0.00000  -0.00791  -0.00793   1.93896
   A43        1.90838   0.00079   0.00000  -0.00083  -0.00089   1.90749
   A44        1.89772   0.00018   0.00000  -0.00025  -0.00023   1.89749
   A45        1.88482  -0.00036   0.00000  -0.00657  -0.00661   1.87821
   A46        1.95965   0.00105   0.00000   0.01377   0.01379   1.97344
   A47        1.86407  -0.00025   0.00000   0.00192   0.00194   1.86600
   A48        1.92578  -0.00015   0.00000   0.00491   0.00483   1.93061
   A49        1.92631   0.00156   0.00000   0.01390   0.01382   1.94013
   A50        1.86358   0.00008   0.00000   0.00832   0.00816   1.87174
    D1        0.01058   0.00031   0.00000   0.03134   0.03131   0.04189
    D2        3.06813  -0.00026   0.00000  -0.01892  -0.01894   3.04920
    D3        3.11147   0.00134   0.00000   0.05300   0.05302  -3.11869
    D4       -0.11416   0.00077   0.00000   0.00275   0.00277  -0.11138
    D5       -2.44762   0.00130   0.00000   0.01033   0.01030  -2.43732
    D6       -0.30482   0.00077   0.00000   0.00637   0.00636  -0.29845
    D7        1.70405  -0.00039   0.00000  -0.00492  -0.00492   1.69912
    D8        0.73436   0.00023   0.00000  -0.01130  -0.01131   0.72306
    D9        2.87716  -0.00030   0.00000  -0.01527  -0.01524   2.86192
   D10       -1.39716  -0.00147   0.00000  -0.02655  -0.02653  -1.42369
   D11       -2.78402  -0.00069   0.00000  -0.01842  -0.01803  -2.80205
   D12        1.40649   0.00060   0.00000  -0.02354  -0.02393   1.38255
   D13       -0.69600  -0.00003   0.00000  -0.01595  -0.01590  -0.71190
   D14        0.44354  -0.00017   0.00000   0.03297   0.03333   0.47687
   D15       -1.64914   0.00111   0.00000   0.02785   0.02743  -1.62171
   D16        2.53156   0.00048   0.00000   0.03544   0.03546   2.56703
   D17        2.24515  -0.00070   0.00000   0.15508   0.15519   2.40035
   D18       -0.90705  -0.00098   0.00000   0.12833   0.12840  -0.77865
   D19       -1.95609   0.00287   0.00000   0.19948   0.19909  -1.75701
   D20        1.17489   0.00258   0.00000   0.17273   0.17229   1.34718
   D21        0.18666  -0.00041   0.00000   0.13403   0.13438   0.32104
   D22       -2.96554  -0.00069   0.00000   0.10728   0.10758  -2.85795
   D23       -3.11890   0.00156   0.00000   0.04165   0.04154  -3.07735
   D24        1.05341   0.00110   0.00000   0.02749   0.02742   1.08083
   D25       -0.97608   0.00143   0.00000   0.03337   0.03332  -0.94276
   D26        1.11655  -0.00187   0.00000  -0.01063  -0.01026   1.10628
   D27       -0.99433  -0.00232   0.00000  -0.02478  -0.02439  -1.01872
   D28       -3.02382  -0.00200   0.00000  -0.01890  -0.01848  -3.04231
   D29       -1.03485   0.00132   0.00000   0.05242   0.05207  -0.98278
   D30        3.13746   0.00086   0.00000   0.03826   0.03795  -3.10778
   D31        1.10797   0.00119   0.00000   0.04415   0.04385   1.15182
   D32        3.12130  -0.00100   0.00000  -0.07324  -0.07317   3.04813
   D33       -0.00968  -0.00073   0.00000  -0.04654  -0.04661  -0.05628
   D34       -1.79528   0.00006   0.00000  -0.00679  -0.00679  -1.80207
   D35        1.30639  -0.00024   0.00000  -0.03587  -0.03587   1.27052
   D36        0.31058  -0.00034   0.00000  -0.00242  -0.00245   0.30813
   D37       -2.87094  -0.00064   0.00000  -0.03149  -0.03154  -2.90247
   D38        2.38200   0.00079   0.00000   0.01070   0.01074   2.39274
   D39       -0.79952   0.00049   0.00000  -0.01838  -0.01834  -0.81786
   D40        3.10613  -0.00011   0.00000  -0.02136  -0.02151   3.08463
   D41       -0.01710  -0.00052   0.00000  -0.03863  -0.03876  -0.05586
   D42       -0.00084   0.00015   0.00000   0.00401   0.00399   0.00315
   D43       -3.12407  -0.00026   0.00000  -0.01326  -0.01327  -3.13734
   D44       -3.11173   0.00014   0.00000   0.01991   0.01971  -3.09202
   D45        0.03813   0.00019   0.00000   0.02190   0.02174   0.05987
   D46       -0.00067  -0.00005   0.00000  -0.00201  -0.00198  -0.00266
   D47       -3.13400   0.00001   0.00000  -0.00002   0.00004  -3.13395
   D48        0.00207  -0.00019   0.00000  -0.00447  -0.00446  -0.00240
   D49        3.12635   0.00022   0.00000   0.01198   0.01182   3.13817
   D50       -0.00250   0.00015   0.00000   0.00311   0.00312   0.00062
   D51        3.13638   0.00003   0.00000   0.00016   0.00016   3.13653
   D52        0.00207  -0.00007   0.00000  -0.00074  -0.00074   0.00132
   D53        3.13532  -0.00013   0.00000  -0.00282  -0.00288   3.13244
   D54       -3.13695   0.00005   0.00000   0.00208   0.00211  -3.13483
   D55       -0.00370  -0.00001   0.00000   0.00001  -0.00002  -0.00372
   D56       -1.18885   0.00039   0.00000   0.01177   0.01173  -1.17712
   D57        0.89470  -0.00039   0.00000  -0.00189  -0.00192   0.89278
   D58        2.92393  -0.00015   0.00000  -0.00019  -0.00023   2.92370
   D59        2.99687  -0.00007   0.00000   0.00846   0.00846   3.00532
   D60       -1.20276  -0.00085   0.00000  -0.00520  -0.00519  -1.20796
   D61        0.82646  -0.00061   0.00000  -0.00350  -0.00350   0.82296
   D62        0.93784   0.00076   0.00000   0.02017   0.02020   0.95804
   D63        3.02139  -0.00002   0.00000   0.00651   0.00655   3.02794
   D64       -1.23257   0.00021   0.00000   0.00821   0.00824  -1.22433
   D65       -1.27155   0.00045   0.00000   0.01665   0.01672  -1.25483
   D66        2.95611  -0.00052   0.00000  -0.00515  -0.00517   2.95094
   D67        2.91417   0.00053   0.00000   0.02671   0.02673   2.94090
   D68        0.85864  -0.00044   0.00000   0.00490   0.00484   0.86348
   D69        0.86366   0.00045   0.00000   0.02052   0.02056   0.88421
   D70       -1.19187  -0.00051   0.00000  -0.00129  -0.00133  -1.19320
         Item               Value     Threshold  Converged?
 Maximum Force            0.007203     0.000450     NO 
 RMS     Force            0.001923     0.000300     NO 
 Maximum Displacement     0.589664     0.001800     NO 
 RMS     Displacement     0.097870     0.001200     NO 
 Predicted change in Energy=-1.951214D-03
 GradGradGradGradGradGradGradGradGradGradGradGradGradGradGradGradGradGrad

                          Input orientation:                          
 ---------------------------------------------------------------------
 Center     Atomic      Atomic             Coordinates (Angstroms)
 Number     Number       Type             X           Y           Z
 ---------------------------------------------------------------------
      1          8           0        1.392915    0.426269    2.016277
      2          6           0        1.823201   -0.038035    0.967654
      3          7           0        1.014276   -0.543858    0.001518
      4          6           0       -0.421448   -0.501022    0.167133
      5          6           0       -1.055919   -1.517156   -0.761599
      6          8           0       -2.048216   -2.200248   -0.165103
      7          8           0       -0.739067   -1.670489   -1.914478
      8          6           0       -0.990392    0.907672   -0.163213
      9          6           0       -2.454313    1.016998    0.078974
     10          6           0       -3.542234    1.019575   -0.758882
     11          7           0       -4.718409    1.074167   -0.041849
     12          6           0       -4.356478    1.101632    1.219125
     13          7           0       -2.995555    1.067973    1.350835
     14          6           0        3.320129   -0.107855    0.674100
     15          6           0        3.731820    0.234099   -0.762528
     16          7           0        3.248590   -0.784325   -1.708629
     17          1           0        1.432232   -0.840269   -0.882702
     18          1           0       -0.663383   -0.743932    1.201149
     19          1           0       -2.453985   -2.761890   -0.843582
     20          1           0       -0.773008    1.126469   -1.210386
     21          1           0       -0.434981    1.618296    0.453699
     22          1           0       -3.538353    0.984090   -1.837490
     23          1           0       -5.018995    1.150134    2.069402
     24          1           0       -2.469881    1.086398    2.210943
     25          1           0        3.798818    0.575801    1.375943
     26          1           0        3.669806   -1.117532    0.922365
     27          1           0        3.284645    1.190314   -1.048651
     28          1           0        4.821466    0.368628   -0.794399
     29          1           0        3.775518   -1.646271   -1.606072
     30          1           0        3.361138   -0.475589   -2.667776
 ---------------------------------------------------------------------
                    Distance matrix (angstroms):
                    1          2          3          4          5
     1  O    0.000000
     2  C    1.224882   0.000000
     3  N    2.267988   1.357805   0.000000
     4  C    2.751567   2.427682   1.445880   0.000000
     5  C    4.182139   3.669802   2.411507   1.515792   0.000000
     6  O    4.847514   4.576698   3.485721   2.375737   1.344275
     7  O    4.938884   4.187696   2.830998   2.408659   1.205419
     8  C    3.265284   3.176401   2.480478   1.554749   2.498429
     9  C    4.347789   4.494437   3.804390   2.538640   3.013968
    10  C    5.692909   5.734749   4.876916   3.592912   3.552009
    11  N    6.481045   6.711837   5.956809   4.581350   4.543878
    12  C    5.843552   6.288920   5.747627   4.377174   4.655643
    13  N    4.484782   4.958880   4.527406   3.238660   3.861018
    14  C    2.408502   1.527037   2.441193   3.796182   4.816343
    15  C    3.637191   2.590446   2.928144   4.319063   5.097974
    16  N    4.334051   3.122687   2.823931   4.131335   4.467965
    17  H    3.163818   2.054325   1.021954   2.157167   2.581422
    18  H    2.502432   2.595363   2.072121   1.089370   2.145773
    19  H    5.756891   5.384633   4.202700   3.203790   1.873678
    20  H    3.948780   3.583326   2.730035   2.160990   2.696331
    21  H    2.683986   2.847273   2.641917   2.138647   3.419587
    22  H    6.283319   6.136760   5.142277   3.992388   3.684596
    23  H    6.452859   7.031446   6.598948   5.242363   5.552924
    24  H    3.923629   4.608760   4.436062   3.300476   4.196878
    25  H    2.494144   2.108687   3.300963   4.520113   5.702458
    26  H    2.960438   2.139466   2.868606   4.205808   5.032684
    27  H    3.681873   2.776715   3.043811   4.251338   5.123797
    28  H    4.433754   3.501399   3.995098   5.400831   6.172594
    29  H    4.805583   3.608605   3.379958   4.697912   4.906383
    30  H    5.160194   3.971531   3.554934   4.727083   4.922273
                    6          7          8          9         10
     6  O    0.000000
     7  O    2.248295   0.000000
     8  C    3.283011   3.126820   0.000000
     9  C    3.251948   3.760120   1.487841   0.000000
    10  C    3.598878   4.053343   2.622830   1.373165   0.000000
    11  N    4.226928   5.184114   3.733706   2.268039   1.378589
    12  C    4.259880   5.530804   3.644039   2.219312   2.140617
    13  N    3.725156   4.822155   2.517681   1.383175   2.179933
    14  C    5.822499   5.061583   4.506992   5.913006   7.100462
    15  C    6.300141   4.994324   4.807511   6.292002   7.316340
    16  N    5.695917   4.090119   4.818728   6.242066   7.090230
    17  H    3.804998   2.543298   3.072795   4.413557   5.312218
    18  H    2.430075   3.251364   2.167075   2.750924   3.903775
    19  H    0.969755   2.297589   4.008826   3.889872   3.935853
    20  H    3.712926   2.884418   1.091650   2.121607   2.807827
    21  H    4.191268   4.064091   1.092726   2.140019   3.388782
    22  H    3.893250   3.858590   3.049778   2.202058   1.079198
    23  H    5.004357   6.491917   4.612266   3.249173   3.193284
    24  H    4.077430   5.255020   2.803114   2.133155   3.158206
    25  H    6.653501   6.038633   5.041396   6.401440   7.658032
    26  H    5.920358   5.271774   5.195900   6.540058   7.707615
    27  H    6.380908   5.012396   4.374909   5.851257   6.835159
    28  H    7.361227   6.027611   5.870831   7.356637   8.389068
    29  H    6.024878   4.525171   5.596281   6.981631   7.834153
    30  H    6.204751   4.336695   5.207885   6.602417   7.316825
                   11         12         13         14         15
    11  N    0.000000
    12  C    1.312176   0.000000
    13  N    2.215363   1.367696   0.000000
    14  C    8.156461   7.790392   6.459753   0.000000
    15  C    8.522410   8.372582   7.100649   1.533075   0.000000
    16  N    8.348966   8.364547   7.195879   2.477928   1.471667
    17  H    6.496344   6.457385   5.313696   2.554254   2.541026
    18  H    4.614517   4.128606   2.957099   4.068260   4.912268
    19  H    4.526116   4.775044   4.447091   6.533578   6.873623
    20  H    4.115144   4.329481   3.391606   4.672110   4.614149
    21  H    4.346195   4.028767   2.768438   4.138722   4.556033
    22  H    2.150575   3.166392   3.235287   7.385066   7.387384
    23  H    2.133894   1.079004   2.148813   8.548122   9.243143
    24  H    3.182939   2.131474   1.008196   6.108383   6.930299
    25  H    8.648796   8.173735   6.812222   1.090465   2.166635
    26  H    8.723268   8.332706   7.027592   1.096976   2.160929
    27  H    8.066971   7.971038   6.724092   2.157399   1.093700
    28  H    9.595485   9.424767   8.136149   2.153494   1.098382
    29  H    9.055074   9.036707   7.871331   2.788061   2.061375
    30  H    8.635758   8.783919   7.677198   3.362298   2.066648
                   16         17         18         19         20
    16  N    0.000000
    17  H    1.996108   0.000000
    18  H    4.875651   2.956910   0.000000
    19  H    6.097412   4.335532   3.385164   0.000000
    20  H    4.480249   2.972965   3.053837   4.252007   0.000000
    21  H    4.900709   3.364074   2.488166   4.994532   1.767863
    22  H    7.014735   5.380207   4.526018   4.024434   2.839131
    23  H    9.293471   7.368510   4.828323   5.510778   5.365256
    24  H    7.180778   5.339398   2.762830   4.913217   3.819225
    25  H    3.415740   3.564753   4.656553   7.427248   5.281470
    26  H    2.685252   2.888231   4.358190   6.582043   5.415050
    27  H    2.082324   2.753588   4.938606   6.970929   4.061377
    28  H    2.153847   3.599463   5.941680   7.920527   5.660875
    29  H    1.015442   2.581452   5.329028   6.374378   5.341698
    30  H    1.013878   2.653331   5.589039   6.509263   4.667091
                   21         22         23         24         25
    21  H    0.000000
    22  H    3.909308   0.000000
    23  H    4.882915   4.181348   0.000000
    24  H    2.740737   4.188306   2.553835   0.000000
    25  H    4.456723   8.020407   8.863665   6.344645   0.000000
    26  H    4.955166   7.999448   9.052803   6.649323   1.757769
    27  H    4.034333   6.871543   8.869854   6.614403   2.553557
    28  H    5.545236   8.447094  10.278461   7.919028   2.408134
    29  H    5.712123   7.775928   9.933400   7.812944   3.718946
    30  H    5.342142   7.100917   9.762707   7.761604   4.201030
                   26         27         28         29         30
    26  H    0.000000
    27  H    3.059315   0.000000
    28  H    2.546031   1.761144   0.000000
    29  H    2.585292   2.932216   2.410942   0.000000
    30  H    3.660121   2.324361   2.520874   1.633837   0.000000
 Symmetry turned off by external request.
[...]
 779386,0.00655181,0.04847437,-0.02283880,0.00461560,-0.00069884,0.0007
 2465,0.00062343,-0.00018102,0.00013511,-0.00026269,-0.00018679,-0.0000
 5857,0.00012695,0.00033909,0.00001551,-0.00017433,-0.00007155,-0.00121
 453,-0.00051109,-0.00004251,0.00001185,-0.00003439,0.00004838,-0.00030
 894,0.00006191,-0.00025757,0.00003197,0.00035045,-0.00024148,0.0017759
 0,-0.00038900,-0.00038748,-0.00116943,0.00013186,-0.03947333,0.0298376
 0,-0.00344875,0.00154945,-0.00474444,0.00223422,-0.00052301,-0.0001205
 6,-0.00003836,-0.00009366,-0.00059180,0.00066627,-0.00048640,-0.000085
 12,-0.00014106,-0.00050200,-0.00042624,0.00016824,0.00022578,0.0000847
 2,-0.00011805,0.00026777,0.00029103,0.00028893,0.00031328,0.00064207,-
 0.02771110,0.00698396,-0.00270347,-0.00161980,-0.00211729,-0.00716448,
 0.00753163,-0.00282443,-0.00008582,0.00981059,0.00369028,0.01753064,-0
 .12924259,0.00150902,-0.13353494,-0.00005377,-0.00042676,0.00031225,-0
 .00007170,-0.00001241,0.00001721,-0.00010105,-0.00001176,-0.00002408,0
 .00007102,-0.00003088,-0.00011863,0.00003823,-0.00050004,0.00002643,-0
 .00003095,-0.00004044,0.00000115,-0.00002218,0.00028791,0.00035280,0.0
 0039774,0.00011329,-0.00056348,-0.00117847,-0.00018138,0.00048566,-0.0
 0017566,0.00017500,-0.00065220,0.14275317,-0.00738479,0.13106517,0.003
 13835,0.00226320,0.00069765,-0.00848566,-0.02977078,-0.02417256,-0.006
 82517,0.00082037,0.00098414,0.00022423,-0.00008565,-0.00153903,-0.0003
 8591,0.00036764,0.00029071,-0.00012168,-0.00022730,-0.00017375,0.00008
 585,-0.00011570,-0.00014998,-0.00014897,-0.00016953,-0.00005518,-0.000
 03773,0.00001853,-0.00016067,0.00005605,0.00001060,0.00001228,0.000043
 45,0.00001049,0.00008910,-0.00011971,0.00003276,0.00006479,0.00017118,
 -0.00004505,0.00000147,-0.05524800,-0.03729902,-0.02731605,0.00275140,
 0.01381254,0.00812531,-0.00105822,-0.00118458,0.00416124,-0.00043223,0
 .00004553,0.00079478,0.00004495,-0.00004118,-0.00000228,-0.00002998,-0
 .00002837,0.00000162,-0.00004660,0.00007106,-0.00000762,-0.00000301,0.
 00000651,-0.00000585,0.00000954,-0.00000369,0.00000371,-0.00000823,-0.
 00000013,0.00000604,-0.00024469,0.00005301,-0.00005699,0.06426563,0.00
 049848,0.00127309,0.00177527,0.00221396,-0.00303530,-0.00240140,-0.000
 86055,0.00063578,0.00009987,0.00046400,0.00039488,-0.00011903,0.000125
 73,0.00006034,0.00006596,-0.00009210,-0.00005152,-0.00002939,-0.000076
 92,-0.00000990,-0.00003571,-0.00011186,-0.00004539,-0.00005121,-0.0000
 0371,0.00000754,-0.00005382,0.00002345,0.00000400,0.00001518,-0.000018
 95,0.00000976,0.00004219,-0.00002364,0.00000330,0.00000445,0.00000195,
 -0.00001181,-0.00001119,-0.04084179,-0.20463385,-0.12635826,0.00152139
 ,0.00479790,0.00434623,-0.00042415,0.00089007,0.00101985,0.00007618,-0
 .00012571,0.00041499,-0.00003690,-0.00002516,0.00001392,0.00001346,0.0
 0001082,0.00000924,-0.00003660,0.00002795,-0.00000758,-0.00001518,-0.0
 0002813,0.00001120,0.00000398,-0.00000071,0.00000031,-0.00000481,0.000
 00378,0.00000362,-0.00001832,0.00001373,-0.00003523,0.04238758,0.21912
 820,0.00219201,0.00147560,0.00051790,-0.00230222,-0.00397156,-0.005006
 89,-0.00100454,-0.00000742,0.00141562,0.00014921,-0.00029289,-0.000049
 71,0.00002310,-0.00002138,-0.00005848,-0.00007674,-0.00003072,-0.00002
 201,-0.00008499,0.00001232,0.00006608,0.00001256,-0.00004064,0.0000083
 6,-0.00001315,-0.00000148,-0.00004311,0.00000889,0.00000175,-0.0000091
 6,0.00003347,0.00000124,0.00001443,-0.00004391,0.00001341,0.00003301,0
 .00006787,-0.00000609,0.00001196,-0.03013920,-0.12583996,-0.14822989,-
 0.00675791,-0.02167411,-0.01410405,0.00238934,0.00189813,-0.00557596,0
 .00077075,0.00030904,-0.00022285,-0.00004390,0.00000727,0.00003592,0.0
 0000024,-0.00000467,-0.00000263,0.00001029,0.00000596,0.00000627,0.000
 00850,0.00000470,-0.00002565,0.00000287,-0.00000275,0.00000173,0.00000
 067,-0.00000352,0.00000056,-0.00009618,0.00003176,0.00002018,0.0313290
 2,0.13753915,0.16072325,-0.00207222,-0.00383029,0.00251358,-0.01107308
 ,0.03099319,-0.01516618,-0.00088474,-0.00190076,0.00037126,-0.00007089
 ,-0.00130160,0.00043438,-0.00024970,0.00031210,0.00039433,-0.00011046,
 -0.00018815,-0.00016593,0.00006704,-0.00020051,-0.00014596,0.00025149,
 -0.00014299,0.00002540,0.00003423,0.00000820,0.00005260,0.00001025,0.0
 0001019,0.00001239,-0.00008676,0.00000978,0.00001911,0.00005592,-0.000
 00957,-0.00002749,-0.00012191,0.00004034,-0.00010665,-0.07530626,0.073
 62309,-0.03986767,0.00612854,-0.01511825,0.00890818,0.00048968,-0.0004
 8390,-0.00143454,-0.00053031,0.00061788,-0.00037371,-0.00023290,-0.000
 03541,-0.00018668,-0.00002339,0.00001100,-0.00002545,-0.00002899,-0.00
 000168,-0.00001042,0.00005507,-0.00001278,0.00003753,-0.00000223,-0.00
 000100,-0.00000293,-0.00000227,0.00000455,0.00000389,0.00025166,-0.000
 19406,0.00005904,0.00183082,-0.00523838,0.00325314,0.08179840,0.000915
 66,0.00072855,0.00008694,-0.00058188,0.00252638,-0.00250952,-0.0003847
 3,-0.00021546,-0.00061856,0.00021702,-0.00023083,0.00024593,-0.0000718
 0,-0.00003386,0.00003219,0.00001859,0.00001068,-0.00002101,0.00001865,
 0.00001380,-0.00000437,-0.00003869,-0.00004045,0.00000868,-0.00002367,
 -0.00000186,-0.00005770,0.00001082,0.00000271,0.00000253,0.00003771,-0
 .00000048,0.00000768,-0.00004079,0.00001485,0.00003401,0.00009280,-0.0
 0000585,-0.00000230,0.06954604,-0.21859691,0.09354537,0.00142450,-0.00
 455191,0.00192813,-0.00052409,0.00178458,-0.00099757,-0.00019134,0.000
 01362,0.00003650,-0.00007125,-0.00003746,-0.00001336,-0.00000913,-0.00
 001011,-0.00000290,-0.00001020,0.00000778,-0.00000254,0.00001725,-0.00
 000772,-0.00000698,0.00000119,-0.00000194,0.00000167,0.00000043,-0.000
 00534,-0.00000036,-0.00013795,0.00000845,0.00003235,0.00827702,-0.0205
 9633,0.01171313,-0.07691899,0.23769363,0.00093558,0.00052622,-0.000399
 85,-0.00201844,0.00269110,-0.00292041,-0.00078938,-0.00083927,0.000338
 12,-0.00005945,-0.00031806,-0.00001744,-0.00020183,0.00007873,0.000119
 86,0.00004124,-0.00002853,-0.00004469,0.00010318,-0.00007616,-0.000016
 91,0.00005847,-0.00001743,-0.00000252,-0.00001047,-0.00001796,-0.00003
 631,0.00001430,-0.00000438,0.00000295,0.00002147,-0.00000038,0.0000173
 4,-0.00003847,0.00001458,0.00002496,0.00003267,-0.00000401,0.00000181,
 -0.03791012,0.09297136,-0.09298798,-0.00901321,0.02575802,-0.01694760,
 -0.00083623,0.00049550,0.00289022,-0.00040086,0.00047421,-0.00021759,-
 0.00004891,-0.00001887,-0.00002537,-0.00001983,-0.00000140,-0.00001261
 ,0.00000146,0.00000734,0.00000008,0.00001748,-0.00001279,-0.00000928,0
 .00000236,0.00000118,0.00000014,0.00000015,-0.00000047,-0.00000003,-0.
 00011045,0.00001610,-0.00000153,0.00718438,-0.01613345,0.00980039,0.03
 934866,-0.10438510,0.10402238,0.00038481,0.00009675,-0.00021304,0.0009
 5703,-0.00104504,0.00043428,0.00012789,0.00019211,-0.00015013,-0.00016
 332,0.00008446,-0.00012435,-0.00006366,-0.00011242,-0.00010642,0.00008
 368,0.00006424,0.00004564,0.00003074,0.00006979,0.00005817,-0.00007633
 ,-0.00006250,0.00002962,0.00000113,0.00000327,-0.00001910,-0.00002026,
 0.00000545,-0.00000756,0.00004803,-0.00002178,-0.00002902,-0.00000983,
 0.00000403,0.00001327,0.00007035,-0.00000955,0.00002434,0.00616999,-0.
 01412629,0.00940291,-0.09265346,0.08030686,-0.05321809,0.00206530,-0.0
 0253050,0.00306918,0.00007538,-0.00041868,0.00010369,0.00007713,0.0000
 1772,0.00002018,-0.00001095,-0.00000941,-0.00000385,0.00002085,0.00000
 541,0.00000502,-0.00000922,0.00006779,-0.00000119,0.00000018,0.0000028
 1,0.00000225,0.00000206,0.00000030,-0.00000387,-0.00009179,0.00002975,
 0.00002546,0.00033936,0.00035859,-0.00076992,-0.00115413,-0.00110044,0
 .00337954,0.09525759,-0.00031920,-0.00008947,-0.00008614,0.00092255,0.
 00034752,0.00073958,-0.00068516,0.00050815,-0.00068287,-0.00015829,-0.
 00005739,0.00004169,0.00008004,-0.00013948,-0.00012222,-0.00002564,0.0
 0003420,0.00002955,-0.00010722,0.00012208,0.00003320,-0.00007317,-0.00
 007212,0.00003496,-0.00000194,0.00003741,0.00000858,-0.00001649,0.0000
 1123,-0.00000630,0.00001244,-0.00001339,-0.00003331,0.00002021,-0.0000
 0617,-0.00001383,-0.00000331,0.00001505,0.00000772,0.00024277,-0.00209
 396,0.00328977,0.07573477,-0.19785444,0.09405673,0.01050227,-0.0288040
 0,0.01070161,0.00084561,-0.00076674,-0.00002627,0.00003306,0.00001588,
 -0.00000487,0.00000348,-0.00001344,0.00000780,-0.00000891,-0.00000455,
 -0.00000239,-0.00002446,0.00007128,0.00001248,-0.00000328,-0.00000194,
 0.00000104,0.00000161,-0.00000275,-0.00000225,0.00001704,-0.00002137,0
 .00002497,-0.00025170,0.00025072,0.00039150,-0.00008751,0.00113039,0.0
 0032689,-0.08502792,0.22401957,0.00048583,-0.00027782,-0.00010173,-0.0
 0220607,-0.00012771,0.00041512,0.00043595,-0.00015976,0.00078737,0.000
 03540,0.00014531,0.00004915,0.00003806,-0.00000789,-0.00001235,-0.0000
 0269,0.00000163,0.00001536,-0.00001542,0.00000796,-0.00000530,0.000054
 73,0.00004762,-0.00004136,0.00000073,-0.00001713,-0.00000607,0.0000099
 9,-0.00000756,0.00000367,0.00000396,0.00000107,0.00001687,-0.00001404,
 0.00000226,0.00000792,0.00002028,-0.00003621,0.00000476,-0.00946208,0.
 02269211,-0.01593609,-0.05310751,0.10176082,-0.11278579,0.00886179,-0.
 02202864,0.01006614,0.00026606,0.00016521,-0.00016863,-0.00002422,0.00
 000020,0.00001086,0.00000382,0.00000614,-0.00000082,-0.00000934,-0.000
 01256,0.00000206,0.00000833,-0.00001162,0.00003241,0.00000180,0.000002
 12,-0.00000038,-0.00000039,0.00000536,-0.00000066,-0.00006207,0.000072
 24,-0.00003317,-0.00036656,-0.00042745,0.00042381,0.00341528,0.0000520
 7,-0.00451456,0.05400077,-0.10209528,0.12496264,-0.00195093,0.00062395
 ,0.00042610,0.00250688,-0.00054731,0.00319989,0.00005456,-0.00016141,-
 0.00003421,0.00040003,0.00021204,-0.00004233,0.00028805,0.00021710,0.0
 0010115,-0.00024279,-0.00013777,-0.00007577,-0.00017399,-0.00012791,-0
 .00006888,-0.00002313,-0.00008054,-0.00003315,0.00003666,0.00003099,0.
 00004608,0.00000817,0.00001092,0.00001333,-0.00013302,0.00003074,0.000
 02931,0.00007607,-0.00002777,-0.00006022,-0.00021397,0.00006490,-0.000
 02752,-0.01711311,-0.00232371,-0.00195420,-0.27298891,-0.04201072,-0.0
 4434758,0.00449174,-0.00502402,-0.00352068,0.00054667,0.00014429,-0.00
 019786,-0.00003593,0.00000875,0.00003128,0.00003284,0.00002334,0.00001
 262,-0.00004060,0.00001938,-0.00002273,0.00001049,-0.00005165,0.000027
 73,-0.00000120,-0.00000521,-0.00000500,-0.00000347,-0.00000056,0.00000
 831,0.00031916,-0.00013141,-0.00005232,0.00014461,0.00053638,0.0003768
 5,0.00074289,-0.00053369,-0.00017558,-0.01266564,-0.00136773,-0.002529
 46,0.29418394,-0.00062419,0.00020390,0.00017527,0.00024717,0.00076701,
 0.00123021,-0.00013654,0.00062628,0.00017752,-0.00011293,0.00003372,0.
 00016557,0.00046857,-0.00018597,-0.00029941,-0.00025272,-0.00000640,0.
 00005064,-0.00039495,0.00007647,0.00016389,-0.00003233,-0.00003768,0.0
 0004207,0.00000795,0.00002620,-0.00000101,-0.00000068,0.00000805,-0.00
 000363,-0.00001400,0.00000104,0.00000192,0.00001013,-0.00000428,-0.000
 00996,-0.00002801,0.00001956,0.00000020,-0.00626669,-0.00031852,0.0003
 4199,-0.04173613,-0.05936175,-0.00523164,-0.02802657,-0.01573608,-0.01
 574524,0.00183384,-0.00085535,-0.00109608,-0.00001415,0.00001353,-0.00
 000422,0.00003891,0.00001732,0.00001136,0.00000688,-0.00000920,0.00000
 172,-0.00002526,0.00002422,-0.00000560,0.00000083,-0.00000331,0.000000
 86,-0.00000116,-0.00000068,0.00000161,0.00004161,-0.00003329,0.0000015
 1,0.00042529,0.00045481,-0.00002285,-0.00013714,-0.00003380,-0.0006932
 7,0.02369094,0.00612065,0.00458200,0.05168168,0.06633135,0.00298760,-0
 .00092368,-0.00011356,-0.00224313,0.00092907,-0.00665475,0.00000751,0.
 00072007,0.00193842,-0.00018141,0.00004707,0.00026359,0.00045201,-0.00
 029455,-0.00038256,-0.00020076,0.00004508,0.00008705,-0.00036644,0.000
 14448,0.00024638,0.00008605,0.00003202,0.00001875,-0.00002457,-0.00002
 325,-0.00008385,0.00004238,-0.00001077,-0.00000562,0.00008505,0.000004
 11,0.00005314,-0.00010515,0.00003701,0.00008346,0.00022498,-0.00007382
 ,-0.00000686,0.03136110,0.00582618,0.00391969,-0.04547062,-0.00563351,
 -0.05840865,-0.02028439,-0.01379433,-0.00791269,0.00208085,-0.00051642
 ,-0.00112757,-0.00003589,-0.00002795,-0.00002671,0.00003671,0.00001505
 ,0.00000769,0.00004060,-0.00001658,0.00002479,0.00000285,0.00001641,-0
 .00002951,0.00000926,-0.00000147,0.00000477,-0.00000118,-0.00000055,-0
 .00000061,-0.00035830,0.00012441,0.00001599,-0.00041331,-0.00046500,0.
 00104278,-0.00081269,0.00010981,0.00116562,-0.01641351,-0.00255147,-0.
 00248994,0.04948201,0.01516102,0.06760367,0.00003280,0.00002428,-0.000
 01241,-0.00030553,0.00033096,-0.00001151,-0.00136561,-0.00105764,0.001
 34701,-0.00007175,-0.00005166,0.00021467,-0.00057132,0.00034775,0.0003
 6366,0.00030710,0.00001761,-0.00007932,0.00052513,-0.00046222,-0.00002
 907,0.00003297,0.00005405,-0.00001385,-0.00000320,-0.00004276,0.000003
 89,-0.00000584,-0.00000968,-0.00000129,0.00002368,-0.00000839,-0.00000
 430,-0.00001685,0.00000511,0.00000723,0.00002711,-0.00001804,0.0000119
 3,-0.00046864,0.00098212,-0.00011399,-0.00051282,-0.01023843,-0.000426
 90,-0.13111923,0.18775807,-0.08379461,0.00049813,0.00317926,-0.0022386
 2,-0.00015020,-0.00001062,-0.00000067,-0.00005953,-0.00000117,-0.00003
 744,0.00002052,0.00000750,0.00000277,0.00001801,-0.00004263,-0.0000159
 8,-0.00000054,0.00000666,-0.00000071,0.00000016,0.00000415,-0.00000188
 ,-0.00003775,0.00003965,-0.00000141,0.00006112,-0.00042372,0.00018955,
 0.00020837,0.00006965,0.00064183,0.00078128,-0.00081970,-0.00021350,0.
 00138722,-0.00075158,0.00107758,0.12713922,-0.00033346,0.00011530,0.00
 017831,0.00028856,-0.00003980,0.00004932,-0.00072957,-0.00029274,0.000
 64828,0.00010305,0.00005232,0.00005968,-0.00013328,0.00021556,0.000184
 28,0.00005314,-0.00003822,-0.00005495,0.00014891,-0.00027770,-0.000049
 92,-0.00003080,-0.00001104,-0.00000599,0.00000767,0.00000182,0.0000117
 9,-0.00000390,0.00000017,0.00000352,-0.00002293,-0.00000048,-0.0000019
 7,0.00001807,-0.00000545,-0.00001104,-0.00004105,0.00000707,-0.0000073
 8,-0.00038049,0.00121069,0.00007603,0.01772418,-0.02647124,0.01215977,
 0.14378643,-0.25676657,0.10067431,0.00118738,0.00077930,-0.00111301,-0
 .00006276,-0.00000099,0.00001346,-0.00002029,0.00001079,-0.00001323,-0
 .00000456,0.00001215,-0.00000677,0.00000399,-0.00002333,0.00000117,-0.
 00000115,0.00000222,-0.00000206,0.00000049,0.00000166,0.00000021,0.000
 06853,-0.00001875,0.00000039,-0.00024083,0.00014001,0.00003930,0.00045
 476,0.00025204,-0.00076002,-0.00120449,-0.00338243,-0.00478685,-0.0006
 9947,0.00170091,0.00122239,-0.16495028,0.28795470,-0.00025998,0.000016
 49,0.00006684,0.00046242,0.00004412,-0.00000968,0.00001570,0.00003448,
 -0.00029757,0.00016895,-0.00003138,0.00000700,-0.00005911,0.00016698,0
 .00017606,0.00001857,-0.00004022,-0.00006094,0.00010255,-0.00018035,-0
 .00010688,-0.00002390,-0.00001273,-0.00001076,0.00001085,0.00000669,0.
 00001477,-0.00000021,0.00000268,0.00000543,-0.00003482,0.00000596,-0.0
 0000142,0.00002749,-0.00000667,-0.00001168,-0.00005302,0.00001499,-0.0
 0001680,0.00022919,-0.00098883,0.00211476,0.01265315,-0.02002187,0.009
 68357,-0.06473959,0.10505597,-0.11531422,-0.00023172,-0.00006933,0.000
 10739,-0.00001260,-0.00000750,-0.00001190,-0.00000712,0.00000570,0.000
 00578,-0.00000813,0.00001243,-0.00000826,-0.00000232,-0.00001891,0.000
 00070,-0.00000129,-0.00000041,-0.00000244,0.00000098,-0.00000152,0.000
 00074,0.00007691,-0.00003605,0.00000699,-0.00026918,0.00042278,-0.0000
 9004,-0.00030883,0.00086009,-0.00075164,0.00016462,-0.00429480,-0.0020
 0710,-0.00006793,0.00006133,0.00051173,0.07518837,-0.11038768,0.118780
 35,-0.00035746,0.00008621,-0.00003876,0.00106775,-0.00036784,-0.000119
 87,-0.00263031,0.00058844,-0.00038153,0.00029329,0.00026697,0.00029624
 ,-0.00083029,0.00050912,0.00081904,0.00044554,-0.00006575,-0.00014728,
 0.00070888,-0.00007941,-0.00078449,-0.00018119,-0.00008057,-0.00000907
 ,-0.00001450,0.00006388,0.00001553,-0.00002276,0.00001289,0.00000850,-
 0.00002307,-0.00001706,-0.00004463,0.00004903,-0.00001919,-0.00003534,
 -0.00005595,0.00001373,-0.00002011,0.00011287,0.00088963,0.00074580,-0
 .00313232,-0.00311293,-0.00804730,-0.06971392,-0.02000164,0.15744927,0
 .00193660,-0.00092168,0.00268534,-0.00009105,-0.00003237,-0.00004136,-
 0.00007860,-0.00005904,0.00000124,-0.00009547,0.00002805,-0.00003479,0
 .00002505,0.00001283,0.00005456,-0.00001053,0.00000305,-0.00000415,0.0
 0000439,-0.00000126,-0.00000449,0.00013003,-0.00003314,0.00001968,0.00
 002926,0.00000247,0.00051434,0.00002586,-0.00000869,-0.00014954,0.0004
 2581,0.00056577,0.00037056,0.00035668,0.00010124,-0.00106518,0.0036259
 9,0.00501416,-0.02304001,0.06800038,0.00025200,0.00010136,0.00029621,-
 0.00066273,-0.00046154,-0.00058152,-0.00026725,0.00036505,0.00030771,0
 .00012466,0.00010864,0.00010075,-0.00018983,0.00021738,0.00027358,0.00
 014759,-0.00003302,-0.00004903,0.00024737,-0.00013628,-0.00027787,-0.0
 0002523,0.00003897,-0.00001797,-0.00000580,-0.00001515,-0.00001154,0.0
 0000650,-0.00000622,0.00000609,-0.00000111,0.00000091,0.00001219,-0.00
 001041,0.00000379,0.00000612,0.00001207,-0.00001264,-0.00000538,-0.001
 34356,-0.00547732,-0.00280821,0.01173663,0.00644008,-0.03176060,-0.014
 19006,-0.07378067,0.07563561,0.00068285,-0.00035004,0.00047422,-0.0000
 3352,-0.00002162,-0.00001026,-0.00002520,-0.00000104,0.00000045,-0.000
 00175,0.00001584,-0.00000322,-0.00000708,-0.00002987,-0.00001291,0.000
 00148,0.00000402,-0.00000123,-0.00000044,0.00000172,0.00000004,-0.0000
 2549,0.00001574,-0.00000449,0.00086139,0.00045714,-0.00152421,-0.00028
 210,0.00018287,-0.00004967,0.00066876,0.00063954,0.00045236,-0.0003735
 7,0.00016131,-0.00010082,-0.01393828,-0.00512794,0.02938755,0.01664213
 ,0.07669900,0.00004705,0.00018510,0.00020079,-0.00021667,-0.00034120,-
 0.00027822,-0.00082152,0.00033074,0.00040298,0.00008098,0.00012075,0.0
 0011978,-0.00004090,0.00009313,0.00012571,0.00003139,-0.00002247,-0.00
 002823,0.00004207,-0.00002624,-0.00017888,-0.00002834,-0.00001228,-0.0
 0000751,-0.00000366,0.00001128,-0.00000198,0.00000233,0.00000199,0.000
 00464,-0.00000744,-0.00000015,-0.00000041,0.00000323,-0.00000189,-0.00
 000381,-0.00000774,-0.00000067,-0.00000959,-0.00172663,-0.00482341,-0.
 00111431,0.00947239,0.00588170,-0.01738806,0.11237840,0.06534020,-0.36
 302164,0.00143182,-0.00028602,-0.00012112,-0.00003490,-0.00001088,0.00
 000210,-0.00000804,-0.00000911,0.00001045,-0.00002220,0.00000630,-0.00
 000790,0.00000704,-0.00000439,0.00000840,-0.00000198,0.00000015,-0.000
 00097,0.00000027,-0.00000011,-0.00000050,0.00001527,-0.00000316,-0.000
 00232,0.00094278,0.00034452,-0.00068182,-0.00021367,-0.00007481,0.0005
 2247,0.00028111,0.00021392,0.00130581,-0.00053924,0.00094226,0.0002553
 5,0.00794898,0.00187867,-0.01278075,-0.12901221,-0.06973395,0.39266954
 \\0.00000004,0.00000090,-0.00000001,0.00000005,0.00000012,0.00000249,0
 .00000030,-0.00000070,-0.00000002,0.00000276,-0.00000158,0.00000353,0.
 00000011,-0.00000317,-0.00000113,-0.00000067,-0.00000063,-0.00000147,-
 0.00000140,-0.00000007,-0.00000013,-0.00000242,0.00000377,0.00000147,-
 0.00000197,0.00000234,-0.00000387,-0.00000023,0.00000016,-0.00000085,0
 .00000054,-0.00000005,-0.00000082,-0.00000026,0.00000007,0.00000206,0.
 00000273,-0.00000137,-0.00000069,-0.00000012,0.,0.00000039,0.00000130,
 0.00000012,-0.00000017,0.00000076,0.00000060,-0.00000070,0.00000061,0.
 00000008,-0.00000121,0.00000011,0.00000009,-0.00000014,0.00000047,-0.0
 0000073,-0.00000056,-0.00000065,0.00000011,0.00000030,-0.00000066,0.00
 000015,0.,0.00000054,-0.00000046,0.00000037,-0.00000011,0.00000008,0.0
 0000022,-0.00000237,0.00000047,0.00000101,-0.00000033,0.00000014,-0.00
 000011,0.00000018,0.00000002,0.00000007,-0.00000018,0.00000005,-0.0000
 0012,0.00000016,0.00000010,-0.00000018,0.00000020,-0.00000067,0.000000
 65,0.00000051,0.00000010,-0.00000036\\\@


 ASKING DUMB QUESTIONS IS EASIER THAN CORECTING DUMB MISTAKES.
 Job cpu time:       0 days  2 hours  9 minutes  8.4 seconds.
 File lengths (MBytes):  RWF=    415 Int=      0 D2E=      0 Chk=     13 Scr=      1
 Normal termination of Gaussian 09 at Sat Jul 24 02:46:39 2021.
