 Entering Gaussian System, Link 0=g09
 Input=opt_freq-conf-640.com
 Output=opt_freq-conf-640.log
 Initial command:
 /aerosol/software/g09/l1.exe "/scratch/nicole/10403/Gau-72741.inp" -scrdir="/scratch/nicole/10403/"
 Entering Link 1 = /aerosol/software/g09/l1.exe PID=     72745.
  
 Copyright (c) 1988,1990,1992,1993,1995,1998,2003,2009,2013,
            Gaussian, Inc.  All Rights Reserved.
  
 This is part of the Gaussian(R) 09 program.  It is based on
 the Gaussian(R) 03 system (copyright 2003, Gaussian, Inc.),
 the Gaussian(R) 98 system (copyright 1998, Gaussian, Inc.),
 the Gaussian(R) 94 system (copyright 1995, Gaussian, Inc.),
 the Gaussian 92(TM) system (copyright 1992, Gaussian, Inc.),
 the Gaussian 90(TM) system (copyright 1990, Gaussian, Inc.),
 the Gaussian 88(TM) system (copyright 1988, Gaussian, Inc.),
 the Gaussian 86(TM) system (copyright 1986, Carnegie Mellon
 University), and the Gaussian 82(TM) system (copyright 1983,
 Carnegie Mellon University). Gaussian is a federally registered
 trademark of Gaussian, Inc.
  
 This software contains proprietary and confidential information,
 including trade secrets, belonging to Gaussian, Inc.
  
 This software is provided under written license and may be
 used, copied, transmitted, or stored only in accord with that
 written license.
  
 The following legend is applicable only to US Government
 contracts under FAR:
  
                    RESTRICTED RIGHTS LEGEND
  
 Use, reproduction and disclosure by the US Government is
 subject to restrictions as set forth in subparagraphs (a)
 and (c) of the Commercial Computer Software - Restricted
 Rights clause in FAR 52.227-19.
  
 Gaussian, Inc.
 340 Quinnipiac St., Bldg. 40, Wallingford CT 06492
  
  
 ---------------------------------------------------------------
 Warning -- This program may not be used in any manner that
 competes with the business of Gaussian, Inc. or will provide
 assistance to any competitor of Gaussian, Inc.  The licensee
 of this program is prohibited from giving any competitor of
 Gaussian, Inc. access to this program.  By using this program,
 the user acknowledges that Gaussian, Inc. is engaged in the
 business of creating and licensing software in the field of
 computational chemistry and represents and warrants to the
 licensee that it is not a competitor of Gaussian, Inc. and that
 it will not use this program in any manner prohibited above.
 ---------------------------------------------------------------
  

 Cite this work as:
 Gaussian 09, Revision D.01,
 M. J. Frisch, G. W. Trucks, H. B. Schlegel, G. E. Scuseria, 
 M. A. Robb, J. R. Cheeseman, G. Scalmani, V. Barone, B. Mennucci, 
 G. A. Petersson, H. Nakatsuji, M. Caricato, X. Li, H. P. Hratchian, 
 A. F. Izmaylov, J. Bloino, G. Zheng, J. L. Sonnenberg, M. Hada, 
 M. Ehara, K. Toyota, R. Fukuda, J. Hasegawa, M. Ishida, T. Nakajima, 
 Y. Honda, O. Kitao, H. Nakai, T. Vreven, J. A. Montgomery, Jr., 
 J. E. Peralta, F. Ogliaro, M. Bearpark, J. J. Heyd, E. Brothers, 
 K. N. Kudin, V. N. Staroverov, T. Keith, R. Kobayashi, J. Normand, 
 K. Raghavachari, A. Rendell, J. C. Burant, S. S. Iyengar, J. Tomasi, 
 M. Cossi, N. Rega, J. M. Millam, M. Klene, J. E. Knox, J. B. Cross, 
 V. Bakken, C. Adamo, J. Jaramillo, R. Gomperts, R. E. Stratmann, 
 O. Yazyev, A. J. Austin, R. Cammi, C. Pomelli, J. W. Ochterski, 
 R. L. Martin, K. Morokuma, V. G. Zakrzewski, G. A. Voth, 
 P. Salvador, J. J. Dannenberg, S. Dapprich, A. D. Daniels, 
 O. Farkas, J. B. Foresman, J. V. Ortiz, J. Cioslowski, 
 and D. J. Fox, Gaussian, Inc., Wallingford CT, 2013.
 
 ******************************************
 Gaussian 09:  ES64L-G09RevD.01 24-Apr-2013
                24-Jul-2021 
 ******************************************
 %mem=2gb
 %nproc=4
 Will use up to    4 processors via shared memory.
 %chk=conf-640.chk
 ----------------------------------------------------------------------
 # B3LYP/6-311G(d,p) EmpiricalDispersion=GD3BJ opt=calcfc freq=noraman 
 nosymm integral(ultrafinegrid)
 ----------------------------------------------------------------------
 1/10=4,14=-1,18=20,19=15,26=4,38=1/1,3;
 2/9=110,12=2,15=1,17=6,18=5,40=1/2;
 3/5=4,6=6,7=101,11=2,16=1,25=1,30=1,71=2,74=-5,75=-5,124=41,140=1/1,2,3;
 4//1;
 5/5=2,38=5/2;
 8/6=4,10=90,11=11/1;
 11/6=1,8=1,9=11,15=111,16=1,31=1/1,2,10;
 10/6=1,13=1,31=1/2;
 6/7=2,8=2,9=2,10=2,28=1/1;
 7/10=1,18=20,25=1,30=1/1,2,3,16;
 1/10=4,14=-1,18=20,19=15,26=4/3(2);
 2/9=110,15=1/2;
 99//99;
 2/9=110,15=1/2;
 3/5=4,6=6,7=101,11=2,16=1,25=1,30=1,71=1,74=-5,75=-5,124=41/1,2,3;
 4/5=5,16=3,69=1/1;
 5/5=2,38=5/2;
 7/30=1/1,2,3,16;
 1/14=-1,18=20,19=15,26=4/3(-5);
 2/9=110,15=1/2;
 6/7=2,8=2,9=2,10=2,19=2,28=1/1;
 99/9=1/99;
 ------------------------------------------------------------
 Candidate Structure: Conf:640 OPT and FREQ calc in gas phase
 ------------------------------------------------------------
 Symbolic Z-matrix:
 Charge =  0 Multiplicity = 1
 O                     0.92904  -1.24196  -0.873 
 C                     1.14845  -0.10723  -0.44526 
 N                     0.2273    0.87891  -0.54866 
 C                    -0.97462   0.70331  -1.33263 
 C                    -1.08429   1.83216  -2.33354 
 O                    -1.97773   1.54387  -3.30167 
 O                    -0.49299   2.87836  -2.27439 
 C                    -2.26049   0.68855  -0.4937 
 C                    -2.33041  -0.37329   0.56466 
 C                    -3.14952  -0.49021   1.64953 
 N                    -2.89099  -1.66012   2.3362 
 C                    -1.92679  -2.23652   1.662 
 N                    -1.55644  -1.50578   0.58175 
 C                     2.45641   0.27932   0.21253 
 C                     3.08644  -0.86428   1.00797 
 N                     4.40372  -0.56311   1.56443 
 H                     0.49677   1.83106  -0.35097 
 H                    -0.88867  -0.23908  -1.87118 
 H                    -2.00681   2.31839  -3.87722 
 H                    -3.09639   0.5662   -1.18687 
 H                    -2.4066    1.65964  -0.01709 
 H                    -3.91554   0.19426   1.98446 
 H                    -1.45505  -3.17397   1.89963 
 H                    -0.77922  -1.70241  -0.03841 
 H                     2.29431   1.15407   0.84898 
 H                     3.14994   0.58266  -0.5804 
 H                     2.43604  -1.14432   1.83845 
 H                     3.16991  -1.73687   0.3616 
 H                     4.3486    0.23292   2.18976 
 H                     5.04569  -0.30467   0.82302 
 

 GradGradGradGradGradGradGradGradGradGradGradGradGradGradGradGradGradGrad
 Berny optimization.
 Initialization pass.
                           ----------------------------
                           !    Initial Parameters    !
                           ! (Angstroms and Degrees)  !
 --------------------------                            --------------------------
 ! Name  Definition              Value          Derivative Info.                !
 --------------------------------------------------------------------------------
 ! R1    R(1,2)                  1.2324         calculate D2E/DX2 analytically  !
 ! R2    R(2,3)                  1.3534         calculate D2E/DX2 analytically  !
 ! R3    R(2,14)                 1.5142         calculate D2E/DX2 analytically  !
 ! R4    R(3,4)                  1.4457         calculate D2E/DX2 analytically  !
 ! R5    R(3,17)                 1.0091         calculate D2E/DX2 analytically  !
 ! R6    R(4,5)                  1.5127         calculate D2E/DX2 analytically  !
 ! R7    R(4,8)                  1.5354         calculate D2E/DX2 analytically  !
 ! R8    R(4,18)                 1.0888         calculate D2E/DX2 analytically  !
 ! R9    R(5,6)                  1.3486         calculate D2E/DX2 analytically  !
 ! R10   R(5,7)                  1.2032         calculate D2E/DX2 analytically  !
 ! R11   R(6,19)                 0.9654         calculate D2E/DX2 analytically  !
 ! R12   R(8,9)                  1.5008         calculate D2E/DX2 analytically  !
 ! R13   R(8,20)                 1.0928         calculate D2E/DX2 analytically  !
 ! R14   R(8,21)                 1.0916         calculate D2E/DX2 analytically  !
 ! R15   R(9,10)                 1.3644         calculate D2E/DX2 analytically  !
 ! R16   R(9,13)                 1.3718         calculate D2E/DX2 analytically  !
 ! R17   R(10,11)                1.381          calculate D2E/DX2 analytically  !
 ! R18   R(10,22)                1.0805         calculate D2E/DX2 analytically  !
 ! R19   R(11,12)                1.3101         calculate D2E/DX2 analytically  !
 ! R20   R(12,13)                1.3558         calculate D2E/DX2 analytically  !
 ! R21   R(12,23)                1.076          calculate D2E/DX2 analytically  !
 ! R22   R(13,24)                1.0136         calculate D2E/DX2 analytically  !
 ! R23   R(14,15)                1.5289         calculate D2E/DX2 analytically  !
 ! R24   R(14,25)                1.0939         calculate D2E/DX2 analytically  !
 ! R25   R(14,26)                1.0962         calculate D2E/DX2 analytically  !
 ! R26   R(15,16)                1.4614         calculate D2E/DX2 analytically  !
 ! R27   R(15,27)                1.0914         calculate D2E/DX2 analytically  !
 ! R28   R(15,28)                1.0891         calculate D2E/DX2 analytically  !
 ! R29   R(16,29)                1.0138         calculate D2E/DX2 analytically  !
 ! R30   R(16,30)                1.0142         calculate D2E/DX2 analytically  !
 ! A1    A(1,2,3)              121.5484         calculate D2E/DX2 analytically  !
 ! A2    A(1,2,14)             122.6579         calculate D2E/DX2 analytically  !
 ! A3    A(3,2,14)             115.7913         calculate D2E/DX2 analytically  !
 ! A4    A(2,3,4)              121.2506         calculate D2E/DX2 analytically  !
 ! A5    A(2,3,17)             119.3924         calculate D2E/DX2 analytically  !
 ! A6    A(4,3,17)             116.2863         calculate D2E/DX2 analytically  !
 ! A7    A(3,4,5)              109.175          calculate D2E/DX2 analytically  !
 ! A8    A(3,4,8)              113.6491         calculate D2E/DX2 analytically  !
 ! A9    A(3,4,18)             107.922          calculate D2E/DX2 analytically  !
 ! A10   A(5,4,8)              107.9384         calculate D2E/DX2 analytically  !
 ! A11   A(5,4,18)             108.9258         calculate D2E/DX2 analytically  !
 ! A12   A(8,4,18)             109.1496         calculate D2E/DX2 analytically  !
 ! A13   A(4,5,6)              111.317          calculate D2E/DX2 analytically  !
 ! A14   A(4,5,7)              125.5017         calculate D2E/DX2 analytically  !
 ! A15   A(6,5,7)              123.1454         calculate D2E/DX2 analytically  !
 ! A16   A(5,6,19)             106.0485         calculate D2E/DX2 analytically  !
 ! A17   A(4,8,9)              115.5387         calculate D2E/DX2 analytically  !
 ! A18   A(4,8,20)             107.1636         calculate D2E/DX2 analytically  !
 ! A19   A(4,8,21)             110.0055         calculate D2E/DX2 analytically  !
 ! A20   A(9,8,20)             109.4183         calculate D2E/DX2 analytically  !
 ! A21   A(9,8,21)             108.3769         calculate D2E/DX2 analytically  !
 ! A22   A(20,8,21)            105.9131         calculate D2E/DX2 analytically  !
 ! A23   A(8,9,10)             130.4895         calculate D2E/DX2 analytically  !
 ! A24   A(8,9,13)             124.5113         calculate D2E/DX2 analytically  !
 ! A25   A(10,9,13)            104.9555         calculate D2E/DX2 analytically  !
 ! A26   A(9,10,11)            110.8288         calculate D2E/DX2 analytically  !
 ! A27   A(9,10,22)            128.1563         calculate D2E/DX2 analytically  !
 ! A28   A(11,10,22)           121.0148         calculate D2E/DX2 analytically  !
 ! A29   A(10,11,12)           104.7504         calculate D2E/DX2 analytically  !
 ! A30   A(11,12,13)           111.9587         calculate D2E/DX2 analytically  !
 ! A31   A(11,12,23)           126.3198         calculate D2E/DX2 analytically  !
 ! A32   A(13,12,23)           121.7214         calculate D2E/DX2 analytically  !
 ! A33   A(9,13,12)            107.5037         calculate D2E/DX2 analytically  !
 ! A34   A(9,13,24)            125.8148         calculate D2E/DX2 analytically  !
 ! A35   A(12,13,24)           126.3288         calculate D2E/DX2 analytically  !
 ! A36   A(2,14,15)            113.0179         calculate D2E/DX2 analytically  !
 ! A37   A(2,14,25)            109.2018         calculate D2E/DX2 analytically  !
 ! A38   A(2,14,26)            107.6311         calculate D2E/DX2 analytically  !
 ! A39   A(15,14,25)           110.8868         calculate D2E/DX2 analytically  !
 ! A40   A(15,14,26)           108.8199         calculate D2E/DX2 analytically  !
 ! A41   A(25,14,26)           107.0571         calculate D2E/DX2 analytically  !
 ! A42   A(14,15,16)           114.5457         calculate D2E/DX2 analytically  !
 ! A43   A(14,15,27)           110.0138         calculate D2E/DX2 analytically  !
 ! A44   A(14,15,28)           108.7903         calculate D2E/DX2 analytically  !
 ! A45   A(16,15,27)           107.476          calculate D2E/DX2 analytically  !
 ! A46   A(16,15,28)           108.7849         calculate D2E/DX2 analytically  !
 ! A47   A(27,15,28)           106.9591         calculate D2E/DX2 analytically  !
 ! A48   A(15,16,29)           110.346          calculate D2E/DX2 analytically  !
 ! A49   A(15,16,30)           110.1652         calculate D2E/DX2 analytically  !
 ! A50   A(29,16,30)           106.5732         calculate D2E/DX2 analytically  !
 ! D1    D(1,2,3,4)             -9.0351         calculate D2E/DX2 analytically  !
 ! D2    D(1,2,3,17)          -168.4865         calculate D2E/DX2 analytically  !
 ! D3    D(14,2,3,4)           170.4087         calculate D2E/DX2 analytically  !
 ! D4    D(14,2,3,17)           10.9574         calculate D2E/DX2 analytically  !
 ! D5    D(1,2,14,15)          -33.549          calculate D2E/DX2 analytically  !
 ! D6    D(1,2,14,25)         -157.4765         calculate D2E/DX2 analytically  !
 ! D7    D(1,2,14,26)           86.6363         calculate D2E/DX2 analytically  !
 ! D8    D(3,2,14,15)          147.014          calculate D2E/DX2 analytically  !
 ! D9    D(3,2,14,25)           23.0865         calculate D2E/DX2 analytically  !
 ! D10   D(3,2,14,26)          -92.8008         calculate D2E/DX2 analytically  !
 ! D11   D(2,3,4,5)           -125.8807         calculate D2E/DX2 analytically  !
 ! D12   D(2,3,4,8)            113.5711         calculate D2E/DX2 analytically  !
 ! D13   D(2,3,4,18)            -7.6271         calculate D2E/DX2 analytically  !
 ! D14   D(17,3,4,5)            34.1759         calculate D2E/DX2 analytically  !
 ! D15   D(17,3,4,8)           -86.3724         calculate D2E/DX2 analytically  !
 ! D16   D(17,3,4,18)          152.4295         calculate D2E/DX2 analytically  !
 ! D17   D(3,4,5,6)            164.2008         calculate D2E/DX2 analytically  !
 ! D18   D(3,4,5,7)            -17.9287         calculate D2E/DX2 analytically  !
 ! D19   D(8,4,5,6)            -71.8144         calculate D2E/DX2 analytically  !
 ! D20   D(8,4,5,7)            106.0562         calculate D2E/DX2 analytically  !
 ! D21   D(18,4,5,6)            46.5777         calculate D2E/DX2 analytically  !
 ! D22   D(18,4,5,7)          -135.5517         calculate D2E/DX2 analytically  !
 ! D23   D(3,4,8,9)            -58.5958         calculate D2E/DX2 analytically  !
 ! D24   D(3,4,8,20)           179.1816         calculate D2E/DX2 analytically  !
 ! D25   D(3,4,8,21)            64.4837         calculate D2E/DX2 analytically  !
 ! D26   D(5,4,8,9)           -179.8379         calculate D2E/DX2 analytically  !
 ! D27   D(5,4,8,20)            57.9396         calculate D2E/DX2 analytically  !
 ! D28   D(5,4,8,21)           -56.7584         calculate D2E/DX2 analytically  !
 ! D29   D(18,4,8,9)            61.9133         calculate D2E/DX2 analytically  !
 ! D30   D(18,4,8,20)          -60.3092         calculate D2E/DX2 analytically  !
 ! D31   D(18,4,8,21)         -175.0072         calculate D2E/DX2 analytically  !
 ! D32   D(4,5,6,19)           178.314          calculate D2E/DX2 analytically  !
 ! D33   D(7,5,6,19)             0.3845         calculate D2E/DX2 analytically  !
 ! D34   D(4,8,9,10)           163.5485         calculate D2E/DX2 analytically  !
 ! D35   D(4,8,9,13)           -19.2303         calculate D2E/DX2 analytically  !
 ! D36   D(20,8,9,10)          -75.4396         calculate D2E/DX2 analytically  !
 ! D37   D(20,8,9,13)          101.7816         calculate D2E/DX2 analytically  !
 ! D38   D(21,8,9,10)           39.6128         calculate D2E/DX2 analytically  !
 ! D39   D(21,8,9,13)         -143.166          calculate D2E/DX2 analytically  !
 ! D40   D(8,9,10,11)          178.0604         calculate D2E/DX2 analytically  !
 ! D41   D(8,9,10,22)           -1.8368         calculate D2E/DX2 analytically  !
 ! D42   D(13,9,10,11)           0.4303         calculate D2E/DX2 analytically  !
 ! D43   D(13,9,10,22)        -179.4669         calculate D2E/DX2 analytically  !
 ! D44   D(8,9,13,12)         -178.3463         calculate D2E/DX2 analytically  !
 ! D45   D(8,9,13,24)            8.1382         calculate D2E/DX2 analytically  !
 ! D46   D(10,9,13,12)          -0.5334         calculate D2E/DX2 analytically  !
 ! D47   D(10,9,13,24)        -174.049          calculate D2E/DX2 analytically  !
 ! D48   D(9,10,11,12)          -0.1528         calculate D2E/DX2 analytically  !
 ! D49   D(22,10,11,12)        179.7528         calculate D2E/DX2 analytically  !
 ! D50   D(10,11,12,13)         -0.201          calculate D2E/DX2 analytically  !
 ! D51   D(10,11,12,23)        179.7219         calculate D2E/DX2 analytically  !
 ! D52   D(11,12,13,9)           0.4761         calculate D2E/DX2 analytically  !
 ! D53   D(11,12,13,24)        173.949          calculate D2E/DX2 analytically  !
 ! D54   D(23,12,13,9)        -179.4508         calculate D2E/DX2 analytically  !
 ! D55   D(23,12,13,24)         -5.978          calculate D2E/DX2 analytically  !
 ! D56   D(2,14,15,16)         175.1479         calculate D2E/DX2 analytically  !
 ! D57   D(2,14,15,27)         -63.6736         calculate D2E/DX2 analytically  !
 ! D58   D(2,14,15,28)          53.1883         calculate D2E/DX2 analytically  !
 ! D59   D(25,14,15,16)        -61.8547         calculate D2E/DX2 analytically  !
 ! D60   D(25,14,15,27)         59.3238         calculate D2E/DX2 analytically  !
 ! D61   D(25,14,15,28)        176.1857         calculate D2E/DX2 analytically  !
 ! D62   D(26,14,15,16)         55.645          calculate D2E/DX2 analytically  !
 ! D63   D(26,14,15,27)        176.8234         calculate D2E/DX2 analytically  !
 ! D64   D(26,14,15,28)        -66.3147         calculate D2E/DX2 analytically  !
 ! D65   D(14,15,16,29)         59.4691         calculate D2E/DX2 analytically  !
 ! D66   D(14,15,16,30)        -57.9352         calculate D2E/DX2 analytically  !
 ! D67   D(27,15,16,29)        -63.0946         calculate D2E/DX2 analytically  !
 ! D68   D(27,15,16,30)        179.5011         calculate D2E/DX2 analytically  !
 ! D69   D(28,15,16,29)       -178.5683         calculate D2E/DX2 analytically  !
 ! D70   D(28,15,16,30)         64.0274         calculate D2E/DX2 analytically  !
 --------------------------------------------------------------------------------
 Trust Radius=3.00D-01 FncErr=1.00D-07 GrdErr=1.00D-06
 Number of steps in this run=    160 maximum allowed number of steps=    180.
 GradGradGradGradGradGradGradGradGradGradGradGradGradGradGradGradGradGrad

                          Input orientation:                          
 ---------------------------------------------------------------------
 Center     Atomic      Atomic             Coordinates (Angstroms)
 Number     Number       Type             X           Y           Z
 ---------------------------------------------------------------------
      1          8           0        0.929043   -1.241963   -0.873004
      2          6           0        1.148453   -0.107229   -0.445265
      3          7           0        0.227295    0.878910   -0.548664
      4          6           0       -0.974618    0.703315   -1.332629
      5          6           0       -1.084293    1.832158   -2.333541
      6          8           0       -1.977728    1.543869   -3.301668
      7          8           0       -0.492986    2.878356   -2.274390
      8          6           0       -2.260494    0.688548   -0.493701
      9          6           0       -2.330413   -0.373288    0.564662
     10          6           0       -3.149524   -0.490207    1.649530
     11          7           0       -2.890995   -1.660122    2.336198
     12          6           0       -1.926786   -2.236516    1.661995
     13          7           0       -1.556443   -1.505777    0.581748
     14          6           0        2.456413    0.279321    0.212533
     15          6           0        3.086444   -0.864276    1.007965
     16          7           0        4.403718   -0.563113    1.564429
     17          1           0        0.496774    1.831061   -0.350975
     18          1           0       -0.888672   -0.239080   -1.871181
     19          1           0       -2.006809    2.318387   -3.877224
     20          1           0       -3.096390    0.566200   -1.186873
     21          1           0       -2.406602    1.659641   -0.017086
     22          1           0       -3.915536    0.194263    1.984460
     23          1           0       -1.455054   -3.173967    1.899627
     24          1           0       -0.779216   -1.702408   -0.038411
     25          1           0        2.294314    1.154066    0.848976
     26          1           0        3.149944    0.582658   -0.580398
     27          1           0        2.436040   -1.144321    1.838451
     28          1           0        3.169914   -1.736868    0.361604
     29          1           0        4.348596    0.232922    2.189758
     30          1           0        5.045691   -0.304669    0.823024
 ---------------------------------------------------------------------
                    Distance matrix (angstroms):
                    1          2          3          4          5
     1  O    0.000000
     2  C    1.232365   0.000000
     3  N    2.257377   1.353401   0.000000
     4  C    2.760306   2.439637   1.445694   0.000000
     5  C    3.954354   3.508841   2.411375   1.512660   0.000000
     6  O    4.701977   4.545126   3.589335   2.364291   1.348557
     7  O    4.578546   3.867007   2.737648   2.418612   1.203193
     8  C    3.747518   3.500932   2.495667   1.535413   2.465016
     9  C    3.666815   3.632251   3.057673   2.568456   3.849206
    10  C    4.854176   4.796607   4.255520   3.879173   5.052070
    11  N    5.006648   5.144429   4.949025   4.766406   6.104642
    12  C    3.946025   4.293192   4.385540   4.303139   5.764391
    13  N    2.891979   3.213588   3.185324   2.980511   4.456865
    14  C    2.413619   1.514225   2.430616   3.786723   4.629298
    15  C    2.887053   2.537875   3.692767   4.942464   5.985940
    16  N    4.298288   3.852720   4.897663   6.238853   7.144912
    17  H    3.146880   2.047082   1.009104   2.097726   2.535812
    18  H    2.303523   2.490080   2.060178   1.088821   2.131213
    19  H    5.506419   5.255248   4.259416   3.185724   1.862904
    20  H    4.424034   4.361442   3.398820   2.131187   2.639323
    21  H    4.503158   3.992941   2.798130   2.166978   2.672869
    22  H    5.804979   5.624805   4.903928   4.462198   5.416989
    23  H    4.135703   4.656355   5.024962   5.070662   6.566465
    24  H    1.956197   2.534963   2.817203   2.738739   4.225382
    25  H    3.251175   2.139842   2.510314   3.955818   4.690758
    26  H    2.889163   2.121361   2.937796   4.194332   4.750108
    27  H    3.103637   2.819361   3.830188   5.010200   6.217531
    28  H    2.605895   2.719019   4.041025   5.099222   6.172522
    29  H    4.821737   4.159323   4.990128   6.400398   7.248040
    30  H    4.549926   4.103170   5.147749   6.473561   7.218493
                    6          7          8          9         10
     6  O    0.000000
     7  O    2.245131   0.000000
     8  C    2.948933   3.330194   0.000000
     9  C    4.329940   4.691432   1.500838   0.000000
    10  C    5.479500   5.813911   2.602552   1.364387   0.000000
    11  N    6.548675   6.899692   3.731235   2.260207   1.380960
    12  C    6.239539   6.611567   3.648888   2.199698   2.131862
    13  N    4.955677   5.339390   2.543097   1.371806   2.170126
    14  C    5.797439   4.651745   4.787007   4.843923   5.838121
    15  C    7.072336   6.131352   5.766802   5.457099   6.280034
    16  N    8.297055   7.110412   7.086203   6.810586   7.554073
    17  H    3.861636   2.403327   2.988015   3.700072   4.762961
    18  H    2.532043   3.168209   2.154028   2.833718   4.191649
    19  H    0.965395   2.274709   3.764167   5.203862   6.303888
    20  H    2.584491   3.647803   1.092785   2.130078   3.027210
    21  H    3.314486   3.200408   1.091573   2.115901   2.819821
    22  H    5.789618   6.087364   3.020722   2.202397   1.080487
    23  H    7.041635   7.414756   4.614734   3.223692   3.183762
    24  H    4.756426   5.105383   2.849236   2.129899   3.152290
    25  H    5.969098   4.527432   4.771348   4.878703   5.742811
    26  H    5.884068   4.627178   5.412168   5.679727   6.768080
    27  H    7.288932   6.455741   5.554797   4.993606   5.626906
    28  H    7.119060   6.454889   6.008620   5.670465   6.568730
    29  H    8.479193   7.097032   7.147630   6.900550   7.552256
    30  H    8.352161   7.099476   7.490032   7.380946   8.238876
                   11         12         13         14         15
    11  N    0.000000
    12  C    1.310143   0.000000
    13  N    2.209738   1.355753   0.000000
    14  C    6.071751   5.257642   4.407482   0.000000
    15  C    6.174735   5.238633   4.706334   1.528877   0.000000
    16  N    7.417000   6.548670   6.113738   2.515813   1.461356
    17  H    5.557539   5.144986   4.027426   2.562347   3.977179
    18  H    4.871416   4.189363   2.840299   3.974946   4.947919
    19  H    7.430809   7.171923   5.891476   6.387821   7.741812
    20  H    4.172617   4.164041   3.129305   5.733607   6.714984
    21  H    4.097976   4.269610   3.331853   5.060328   6.131431
    22  H    2.147591   3.157181   3.228475   6.614278   7.148550
    23  H    2.131724   1.076018   2.128366   5.483707   5.172517
    24  H    3.178075   2.119804   1.013579   3.802567   4.091540
    25  H    6.084316   5.474918   4.687696   1.093853   2.174041
    26  H    7.073156   6.224890   5.278467   1.096239   2.149546
    27  H    5.375044   4.500919   4.201175   2.161199   1.091402
    28  H    6.374914   5.283656   4.737121   2.143903   1.089113
    29  H    7.484433   6.764398   6.362252   2.737139   2.047805
    30  H    8.192553   7.283635   6.714837   2.723620   2.045974
                   16         17         18         19         20
    16  N    0.000000
    17  H    4.966392   0.000000
    18  H    6.318054   2.918214   0.000000
    19  H    8.888728   4.351994   3.437306   0.000000
    20  H    8.068248   3.899926   2.447605   3.390476   0.000000
    21  H    7.336367   2.927535   3.057273   3.936299   1.743509
    22  H    8.364211   5.253745   4.920940   6.520312   3.296466
    23  H    6.422937   5.824530   4.811792   7.990143   5.119504
    24  H    5.543455   3.769782   2.347841   5.693001   3.440181
    25  H    2.812501   2.264808   4.412653   6.495558   5.792232
    26  H    2.735877   2.941166   4.318772   6.361912   6.275728
    27  H    2.069939   4.172198   5.063056   8.024848   6.533471
    28  H    2.084889   4.514816   4.868348   7.823759   6.853354
    29  H    1.013779   4.883227   6.644019   9.030427   8.181719
    30  H    1.014201   5.160645   6.517646   8.871894   8.431582
                   21         22         23         24         25
    21  H    0.000000
    22  H    2.903515   0.000000
    23  H    5.286114   4.172067   0.000000
    24  H    3.735267   4.186390   2.525516   0.000000
    25  H    4.806691   6.385356   5.821811   4.288763   0.000000
    26  H    5.687918   7.526642   6.439624   4.577508   1.761170
    27  H    5.895456   6.492737   4.389056   3.764564   2.506338
    28  H    6.540429   7.521072   5.081446   3.969487   3.059690
    29  H    7.248337   8.266772   6.735980   5.916477   2.620358
    30  H    7.752481   9.049942   7.186906   6.051883   3.114266
                   26         27         28         29         30
    26  H    0.000000
    27  H    3.056623   0.000000
    28  H    2.503591   1.752359   0.000000
    29  H    3.038559   2.382874   2.934538   0.000000
    30  H    2.520079   2.923421   2.404713   1.625701   0.000000
 Symmetry turned off by external request.
 Stoichiometry    C9H14N4O3
 Framework group  C1[X(C9H14N4O3)]
 Deg. of freedom    84
 Full point group                 C1      NOp   1
 Rotational constants (GHZ):      0.5050640      0.4053310      0.2477507
 Standard basis: 6-311G(d,p) (5D, 7F)
   372 basis functions,   624 primitive gaussians,   388 cartesian basis functions
    60 alpha electrons       60 beta electrons
       nuclear repulsion energy      1124.8072977319 Hartrees.
 NAtoms=   30 NActive=   30 NUniq=   30 SFac= 1.00D+00 NAtFMM=   60 NAOKFM=F Big=F
 Integral buffers will be    131072 words long.
 Raffenetti 2 integral format.
 Two-electron integral symmetry is turned off.
 Nuclear repulsion after empirical dispersion term =     1124.7532306770 Hartrees.
 One-electron integrals computed using PRISM.
 NBasis=   372 RedAO= T EigKep=  4.68D-04  NBF=   372
 NBsUse=   372 1.00D-06 EigRej= -1.00D+00 NBFU=   372
 ExpMin= 1.03D-01 ExpMax= 8.59D+03 ExpMxC= 1.30D+03 IAcc=3 IRadAn=         5 AccDes= 0.00D+00
 Harris functional with IExCor=  402 and IRadAn=       5 diagonalized for initial guess.
 HarFok:  IExCor=  402 AccDes= 0.00D+00 IRadAn=         5 IDoV= 1 UseB2=F ITyADJ=14
 ICtDFT=  3500011 ScaDFX=  1.000000  1.000000  1.000000  1.000000
 FoFCou: FMM=F IPFlag=           0 FMFlag=      100000 FMFlg1=           0
         NFxFlg=           0 DoJE=T BraDBF=F KetDBF=T FulRan=T
         wScrn=  0.000000 ICntrl=     500 IOpCl=  0 I1Cent=   200000004 NGrid=           0
         NMat0=    1 NMatS0=      1 NMatT0=    0 NMatD0=    1 NMtDS0=    0 NMtDT0=    0
 Symmetry not used in FoFCou.
 Requested convergence on RMS density matrix=1.00D-08 within 128 cycles.
 Requested convergence on MAX density matrix=1.00D-06.
 Requested convergence on             energy=1.00D-06.
 No special actions if energy rises.
 Integral accuracy reduced to 1.0D-05 until final iterations.
 Initial convergence to 1.0D-05 achieved.  Increase integral accuracy.
 SCF Done:  E(RB3LYP) =  -796.368014403     A.U. after   14 cycles
            NFock= 14  Conv=0.55D-08     -V/T= 2.0033
 DoSCS=F DFT=T ScalE2(SS,OS)=  1.000000  1.000000
 Range of M.O.s used for correlation:     1   372
 NBasis=   372 NAE=    60 NBE=    60 NFC=     0 NFV=     0
 NROrb=    372 NOA=    60 NOB=    60 NVA=   312 NVB=   312
 Symmetrizing basis deriv contribution to polar:
 IMax=3 JMax=2 DiffMx= 0.00D+00
 G2DrvN: will do    31 centers at a time, making    1 passes.
 Calling FoFCou, ICntrl=  3107 FMM=F I1Cent=   0 AccDes= 0.00D+00.
 End of G2Drv F.D. properties file   721 does not exist.
 End of G2Drv F.D. properties file   722 does not exist.
 End of G2Drv F.D. properties file   788 does not exist.
          IDoAtm=111111111111111111111111111111
          Differentiating once with respect to nuclear coordinates.
          There are    93 degrees of freedom in the 1st order CPHF.  IDoFFX=6 NUNeed=     0.
     87 vectors produced by pass  0 Test12= 2.01D-14 1.08D-09 XBig12= 1.50D-01 8.33D-02.
 AX will form    87 AO Fock derivatives at one time.
     87 vectors produced by pass  1 Test12= 2.01D-14 1.08D-09 XBig12= 2.88D-02 4.75D-02.
     87 vectors produced by pass  2 Test12= 2.01D-14 1.08D-09 XBig12= 1.97D-04 2.21D-03.
     87 vectors produced by pass  3 Test12= 2.01D-14 1.08D-09 XBig12= 1.01D-06 1.14D-04.
     87 vectors produced by pass  4 Test12= 2.01D-14 1.08D-09 XBig12= 2.27D-09 4.67D-06.
     80 vectors produced by pass  5 Test12= 2.01D-14 1.08D-09 XBig12= 2.53D-12 2.11D-07.
     25 vectors produced by pass  6 Test12= 2.01D-14 1.08D-09 XBig12= 2.31D-15 5.35D-09.
 InvSVY:  IOpt=1 It=  1 EMax= 6.11D-16
 Solved reduced A of dimension   540 with    93 vectors.
 End of Minotr F.D. properties file   721 does not exist.
 End of Minotr F.D. properties file   722 does not exist.
 End of Minotr F.D. properties file   788 does not exist.

 **********************************************************************

            Population analysis using the SCF density.

 **********************************************************************

 Alpha  occ. eigenvalues --  -19.19614 -19.14272 -19.11037 -14.36365 -14.35065
 Alpha  occ. eigenvalues --  -14.29551 -14.27588 -10.33411 -10.29706 -10.25165
 Alpha  occ. eigenvalues --  -10.20745 -10.20459 -10.20263 -10.19850 -10.19569
 Alpha  occ. eigenvalues --  -10.16843  -1.14530  -1.06789  -1.05583  -1.00979
 Alpha  occ. eigenvalues --   -0.95969  -0.89517  -0.86288  -0.82514  -0.77585
 Alpha  occ. eigenvalues --   -0.74975  -0.68661  -0.66395  -0.62540  -0.61968
 Alpha  occ. eigenvalues --   -0.60138  -0.58538  -0.55403  -0.52891  -0.52565
 Alpha  occ. eigenvalues --   -0.51806  -0.50702  -0.49738  -0.48759  -0.47037
 Alpha  occ. eigenvalues --   -0.45404  -0.44915  -0.43940  -0.42918  -0.42777
 Alpha  occ. eigenvalues --   -0.41995  -0.40731  -0.40102  -0.39813  -0.39242
 Alpha  occ. eigenvalues --   -0.38102  -0.35812  -0.35663  -0.31835  -0.29497
 Alpha  occ. eigenvalues --   -0.28755  -0.27358  -0.25901  -0.24849  -0.22062
 Alpha virt. eigenvalues --   -0.02520  -0.01077   0.01626   0.02500   0.03392
 Alpha virt. eigenvalues --    0.04195   0.05506   0.06227   0.06519   0.07084
 Alpha virt. eigenvalues --    0.08122   0.09709   0.10355   0.11586   0.11834
 Alpha virt. eigenvalues --    0.13324   0.13835   0.14802   0.16375   0.16516
 Alpha virt. eigenvalues --    0.18088   0.20228   0.20902   0.22427   0.23170
 Alpha virt. eigenvalues --    0.24275   0.25377   0.26441   0.28274   0.28921
 Alpha virt. eigenvalues --    0.30088   0.30766   0.31844   0.33375   0.33794
 Alpha virt. eigenvalues --    0.34592   0.35823   0.36357   0.36989   0.38286
 Alpha virt. eigenvalues --    0.38727   0.38947   0.40321   0.40816   0.41622
 Alpha virt. eigenvalues --    0.42171   0.43995   0.46136   0.46381   0.47723
 Alpha virt. eigenvalues --    0.49414   0.50044   0.50286   0.51433   0.52869
 Alpha virt. eigenvalues --    0.53542   0.53916   0.54756   0.55381   0.56185
 Alpha virt. eigenvalues --    0.56877   0.57462   0.57577   0.58479   0.59361
 Alpha virt. eigenvalues --    0.60030   0.60723   0.61127   0.61947   0.63070
 Alpha virt. eigenvalues --    0.63334   0.64330   0.65008   0.65782   0.67470
 Alpha virt. eigenvalues --    0.68805   0.70234   0.71192   0.71512   0.72546
 Alpha virt. eigenvalues --    0.73316   0.74326   0.75535   0.76517   0.77972
 Alpha virt. eigenvalues --    0.79829   0.80359   0.81419   0.82685   0.85058
 Alpha virt. eigenvalues --    0.85355   0.87527   0.88952   0.90285   0.91362
 Alpha virt. eigenvalues --    0.94135   0.94961   0.98115   0.98754   0.99729
 Alpha virt. eigenvalues --    1.01424   1.03000   1.05117   1.05887   1.07231
 Alpha virt. eigenvalues --    1.08728   1.12763   1.13297   1.14881   1.16091
 Alpha virt. eigenvalues --    1.19631   1.20266   1.22497   1.23624   1.24758
 Alpha virt. eigenvalues --    1.24982   1.27330   1.29517   1.30486   1.31828
 Alpha virt. eigenvalues --    1.32342   1.34991   1.38171   1.38731   1.38916
 Alpha virt. eigenvalues --    1.40808   1.42821   1.43198   1.44478   1.45836
 Alpha virt. eigenvalues --    1.47798   1.49603   1.50654   1.51777   1.53412
 Alpha virt. eigenvalues --    1.54205   1.54979   1.55581   1.56596   1.56823
 Alpha virt. eigenvalues --    1.57746   1.60062   1.61119   1.62208   1.62800
 Alpha virt. eigenvalues --    1.63931   1.64834   1.67244   1.67706   1.68639
 Alpha virt. eigenvalues --    1.69731   1.70327   1.71090   1.72269   1.73723
 Alpha virt. eigenvalues --    1.75028   1.75302   1.75776   1.77714   1.78620
 Alpha virt. eigenvalues --    1.81896   1.82705   1.84332   1.86303   1.87441
 Alpha virt. eigenvalues --    1.88380   1.90761   1.91948   1.93630   1.95188
 Alpha virt. eigenvalues --    1.97607   1.98233   1.99274   2.01870   2.03672
 Alpha virt. eigenvalues --    2.05975   2.07381   2.08611   2.09359   2.11888
 Alpha virt. eigenvalues --    2.13188   2.15652   2.17379   2.18392   2.21170
 Alpha virt. eigenvalues --    2.24126   2.25315   2.26692   2.27425   2.28346
 Alpha virt. eigenvalues --    2.33902   2.36341   2.36873   2.38863   2.41746
 Alpha virt. eigenvalues --    2.42823   2.43792   2.44165   2.45657   2.46715
 Alpha virt. eigenvalues --    2.47223   2.48101   2.51392   2.53908   2.55060
 Alpha virt. eigenvalues --    2.57084   2.57930   2.58977   2.59914   2.60651
 Alpha virt. eigenvalues --    2.61182   2.62750   2.63899   2.64638   2.65203
 Alpha virt. eigenvalues --    2.67225   2.68324   2.70063   2.71827   2.73600
 Alpha virt. eigenvalues --    2.74127   2.75816   2.76369   2.79694   2.79829
 Alpha virt. eigenvalues --    2.81900   2.82814   2.84102   2.84925   2.85364
 Alpha virt. eigenvalues --    2.86091   2.87670   2.88808   2.90214   2.91978
 Alpha virt. eigenvalues --    2.93246   2.96213   2.97858   3.01711   3.02163
 Alpha virt. eigenvalues --    3.04512   3.05317   3.07622   3.10233   3.11996
 Alpha virt. eigenvalues --    3.13168   3.15082   3.22418   3.26648   3.29626
 Alpha virt. eigenvalues --    3.32521   3.33375   3.35193   3.40723   3.46262
 Alpha virt. eigenvalues --    3.48202   3.50529   3.53559   3.57452   3.58491
 Alpha virt. eigenvalues --    3.64877   3.66183   3.68433   3.69760   3.77232
 Alpha virt. eigenvalues --    3.78633   3.79626   3.82255   3.83379   3.84392
 Alpha virt. eigenvalues --    3.86625   3.89970   3.93325   3.99920   4.04877
 Alpha virt. eigenvalues --    4.06084   4.13691   4.21885   4.34982   4.43149
 Alpha virt. eigenvalues --    4.71906   4.77260   4.79062   4.81600   4.84904
 Alpha virt. eigenvalues --    4.90085   4.93437   4.95688   4.98402   5.03546
 Alpha virt. eigenvalues --    5.12608   5.24604   5.26390   5.54372   5.68168
 Alpha virt. eigenvalues --    5.70970  23.70897  23.75749  23.77884  23.79309
 Alpha virt. eigenvalues --   23.82951  23.86849  23.88002  23.93943  24.16119
 Alpha virt. eigenvalues --   35.53297  35.56991  35.59123  35.70745  49.82855
 Alpha virt. eigenvalues --   49.96793  49.99443
          Condensed to atoms (all electrons):
               1          2          3          4          5          6
     1  O    7.963867   0.568398  -0.105645   0.000061   0.000172   0.000000
     2  C    0.568398   4.645000   0.349312  -0.066585   0.005884  -0.000114
     3  N   -0.105645   0.349312   6.730556   0.225705  -0.035974   0.002207
     4  C    0.000061  -0.066585   0.225705   5.361337   0.272127  -0.109216
     5  C    0.000172   0.005884  -0.035974   0.272127   4.494714   0.354314
     6  O    0.000000  -0.000114   0.002207  -0.109216   0.354314   7.817552
     7  O   -0.000005   0.000361  -0.004222  -0.096217   0.657308  -0.077512
     8  C   -0.002048  -0.000116  -0.053249   0.309151  -0.058149   0.004140
     9  C   -0.001485   0.001407  -0.001104  -0.046848   0.000240  -0.000195
    10  C    0.000057  -0.000229  -0.001153   0.002300  -0.000165  -0.000005
    11  N   -0.000009  -0.000043   0.000006  -0.000175   0.000006   0.000000
    12  C   -0.000213   0.000460   0.000177  -0.000010   0.000015   0.000000
    13  N   -0.019230   0.003360   0.001544  -0.005665   0.000098   0.000002
    14  C   -0.085556   0.248819  -0.063351   0.009858  -0.000343  -0.000001
    15  C    0.007185  -0.043627   0.001641  -0.000431  -0.000003   0.000000
    16  N    0.000143   0.008479  -0.000072   0.000004   0.000000   0.000000
    17  H    0.002920  -0.024240   0.359967  -0.048651  -0.004736   0.001157
    18  H    0.027409  -0.014372  -0.044352   0.387135  -0.017433   0.006805
    19  H    0.000003   0.000022  -0.000542   0.018342  -0.030427   0.303168
    20  H   -0.000136   0.000213   0.006270  -0.044994  -0.003339   0.010943
    21  H   -0.000063  -0.000921  -0.000496  -0.032100  -0.000799  -0.000986
    22  H    0.000003   0.000003  -0.000047   0.000053  -0.000015   0.000000
    23  H    0.000012   0.000058   0.000005  -0.000002  -0.000001   0.000000
    24  H    0.049887  -0.009930  -0.005901   0.003613  -0.000093  -0.000015
    25  H    0.003220  -0.040284   0.004917   0.000812  -0.000134  -0.000002
    26  H    0.000926  -0.017056  -0.002443  -0.000781   0.000188  -0.000001
    27  H    0.000624   0.000350   0.000181  -0.000067   0.000002   0.000000
    28  H    0.015241  -0.006043   0.001252   0.000016  -0.000002   0.000000
    29  H    0.000013  -0.000223   0.000004   0.000001   0.000000   0.000000
    30  H   -0.000005   0.000161  -0.000019  -0.000001   0.000000   0.000000
               7          8          9         10         11         12
     1  O   -0.000005  -0.002048  -0.001485   0.000057  -0.000009  -0.000213
     2  C    0.000361  -0.000116   0.001407  -0.000229  -0.000043   0.000460
     3  N   -0.004222  -0.053249  -0.001104  -0.001153   0.000006   0.000177
     4  C   -0.096217   0.309151  -0.046848   0.002300  -0.000175  -0.000010
     5  C    0.657308  -0.058149   0.000240  -0.000165   0.000006   0.000015
     6  O   -0.077512   0.004140  -0.000195  -0.000005   0.000000   0.000000
     7  O    7.812015  -0.001683  -0.000319  -0.000003   0.000000   0.000000
     8  C   -0.001683   4.922703   0.309956  -0.037559   0.007501   0.007557
     9  C   -0.000319   0.309956   5.079157   0.572373  -0.088972  -0.123507
    10  C   -0.000003  -0.037559   0.572373   4.857577   0.506692  -0.184751
    11  N    0.000000   0.007501  -0.088972   0.506692   6.429339   0.584292
    12  C    0.000000   0.007557  -0.123507  -0.184751   0.584292   4.743057
    13  N    0.000001  -0.051056   0.394289  -0.064332  -0.093179   0.430205
    14  C   -0.000192  -0.000882  -0.000032  -0.000007  -0.000001  -0.000035
    15  C    0.000000   0.000052  -0.000010   0.000004   0.000000  -0.000035
    16  N    0.000000   0.000000   0.000000   0.000000   0.000000   0.000000
    17  H    0.026155   0.001520  -0.000635  -0.000002  -0.000005   0.000008
    18  H    0.002390  -0.034876  -0.012419  -0.000635  -0.000012  -0.000004
    19  H    0.010153  -0.001259   0.000092   0.000000   0.000000   0.000000
    20  H    0.000131   0.399812  -0.030971  -0.005161   0.000100   0.000321
    21  H    0.003214   0.402613  -0.049887  -0.004500   0.000253  -0.000061
    22  H   -0.000001  -0.000126  -0.055532   0.425481  -0.025594   0.008435
    23  H    0.000000  -0.000428   0.004849   0.006526  -0.024171   0.415489
    24  H   -0.000007  -0.001938  -0.033984   0.007797   0.004876  -0.023660
    25  H   -0.000194  -0.000025   0.000068  -0.000005   0.000001  -0.000008
    26  H    0.000057  -0.000016   0.000002   0.000000   0.000000   0.000000
    27  H    0.000000   0.000000  -0.000044  -0.000030  -0.000005   0.000395
    28  H    0.000000   0.000005   0.000005   0.000000   0.000000  -0.000012
    29  H    0.000000   0.000000   0.000000   0.000000   0.000000   0.000000
    30  H    0.000000   0.000000   0.000000   0.000000   0.000000   0.000000
              13         14         15         16         17         18
     1  O   -0.019230  -0.085556   0.007185   0.000143   0.002920   0.027409
     2  C    0.003360   0.248819  -0.043627   0.008479  -0.024240  -0.014372
     3  N    0.001544  -0.063351   0.001641  -0.000072   0.359967  -0.044352
     4  C   -0.005665   0.009858  -0.000431   0.000004  -0.048651   0.387135
     5  C    0.000098  -0.000343  -0.000003   0.000000  -0.004736  -0.017433
     6  O    0.000002  -0.000001   0.000000   0.000000   0.001157   0.006805
     7  O    0.000001  -0.000192   0.000000   0.000000   0.026155   0.002390
     8  C   -0.051056  -0.000882   0.000052   0.000000   0.001520  -0.034876
     9  C    0.394289  -0.000032  -0.000010   0.000000  -0.000635  -0.012419
    10  C   -0.064332  -0.000007   0.000004   0.000000  -0.000002  -0.000635
    11  N   -0.093179  -0.000001   0.000000   0.000000  -0.000005  -0.000012
    12  C    0.430205  -0.000035  -0.000035   0.000000   0.000008  -0.000004
    13  N    6.460130  -0.000442  -0.000040   0.000000   0.000154   0.003022
    14  C   -0.000442   5.202269   0.343698  -0.059782  -0.001225   0.003424
    15  C   -0.000040   0.343698   4.840725   0.339369   0.000174  -0.000236
    16  N    0.000000  -0.059782   0.339369   6.445598  -0.000082   0.000000
    17  H    0.000154  -0.001225   0.000174  -0.000082   0.442566   0.006425
    18  H    0.003022   0.003424  -0.000236   0.000000   0.006425   0.508782
    19  H    0.000000   0.000001   0.000000   0.000000  -0.000296  -0.000993
    20  H    0.000382   0.000009  -0.000001   0.000000  -0.000297  -0.005486
    21  H    0.003017  -0.000004  -0.000007   0.000000   0.002713   0.009143
    22  H    0.004617   0.000000   0.000000   0.000000  -0.000002  -0.000010
    23  H   -0.037699  -0.000017   0.000018   0.000000   0.000001   0.000003
    24  H    0.338426   0.000388   0.000575   0.000011  -0.000334  -0.000780
    25  H    0.000084   0.384566  -0.040138   0.004827  -0.000543  -0.000159
    26  H   -0.000005   0.378930  -0.033950   0.001317   0.000258  -0.000159
    27  H    0.000493  -0.048708   0.402451  -0.028442  -0.000007  -0.000020
    28  H    0.000037  -0.048257   0.401534  -0.026322  -0.000092  -0.000091
    29  H    0.000000  -0.000654  -0.057080   0.376019  -0.000003   0.000000
    30  H    0.000000  -0.001749  -0.059592   0.378024  -0.000002   0.000000
              19         20         21         22         23         24
     1  O    0.000003  -0.000136  -0.000063   0.000003   0.000012   0.049887
     2  C    0.000022   0.000213  -0.000921   0.000003   0.000058  -0.009930
     3  N   -0.000542   0.006270  -0.000496  -0.000047   0.000005  -0.005901
     4  C    0.018342  -0.044994  -0.032100   0.000053  -0.000002   0.003613
     5  C   -0.030427  -0.003339  -0.000799  -0.000015  -0.000001  -0.000093
     6  O    0.303168   0.010943  -0.000986   0.000000   0.000000  -0.000015
     7  O    0.010153   0.000131   0.003214  -0.000001   0.000000  -0.000007
     8  C   -0.001259   0.399812   0.402613  -0.000126  -0.000428  -0.001938
     9  C    0.000092  -0.030971  -0.049887  -0.055532   0.004849  -0.033984
    10  C    0.000000  -0.005161  -0.004500   0.425481   0.006526   0.007797
    11  N    0.000000   0.000100   0.000253  -0.025594  -0.024171   0.004876
    12  C    0.000000   0.000321  -0.000061   0.008435   0.415489  -0.023660
    13  N    0.000000   0.000382   0.003017   0.004617  -0.037699   0.338426
    14  C    0.000001   0.000009  -0.000004   0.000000  -0.000017   0.000388
    15  C    0.000000  -0.000001  -0.000007   0.000000   0.000018   0.000575
    16  N    0.000000   0.000000   0.000000   0.000000   0.000000   0.000011
    17  H   -0.000296  -0.000297   0.002713  -0.000002   0.000001  -0.000334
    18  H   -0.000993  -0.005486   0.009143  -0.000010   0.000003  -0.000780
    19  H    0.441613  -0.000036  -0.000276   0.000000   0.000000  -0.000003
    20  H   -0.000036   0.550315  -0.029008   0.000181   0.000014  -0.000200
    21  H   -0.000276  -0.029008   0.572061   0.000740   0.000017  -0.000338
    22  H    0.000000   0.000181   0.000740   0.554522  -0.000397  -0.000232
    23  H    0.000000   0.000014   0.000017  -0.000397   0.535151  -0.003240
    24  H   -0.000003  -0.000200  -0.000338  -0.000232  -0.003240   0.428884
    25  H    0.000001   0.000009   0.000014  -0.000001   0.000001  -0.000387
    26  H    0.000001   0.000001   0.000005   0.000000   0.000000   0.000031
    27  H    0.000000   0.000000   0.000002   0.000000   0.000052  -0.000043
    28  H    0.000000   0.000000   0.000000   0.000000   0.000004   0.000026
    29  H    0.000000   0.000000   0.000000   0.000000   0.000000   0.000002
    30  H    0.000000   0.000000   0.000000   0.000000   0.000000   0.000001
              25         26         27         28         29         30
     1  O    0.003220   0.000926   0.000624   0.015241   0.000013  -0.000005
     2  C   -0.040284  -0.017056   0.000350  -0.006043  -0.000223   0.000161
     3  N    0.004917  -0.002443   0.000181   0.001252   0.000004  -0.000019
     4  C    0.000812  -0.000781  -0.000067   0.000016   0.000001  -0.000001
     5  C   -0.000134   0.000188   0.000002  -0.000002   0.000000   0.000000
     6  O   -0.000002  -0.000001   0.000000   0.000000   0.000000   0.000000
     7  O   -0.000194   0.000057   0.000000   0.000000   0.000000   0.000000
     8  C   -0.000025  -0.000016   0.000000   0.000005   0.000000   0.000000
     9  C    0.000068   0.000002  -0.000044   0.000005   0.000000   0.000000
    10  C   -0.000005   0.000000  -0.000030   0.000000   0.000000   0.000000
    11  N    0.000001   0.000000  -0.000005   0.000000   0.000000   0.000000
    12  C   -0.000008   0.000000   0.000395  -0.000012   0.000000   0.000000
    13  N    0.000084  -0.000005   0.000493   0.000037   0.000000   0.000000
    14  C    0.384566   0.378930  -0.048708  -0.048257  -0.000654  -0.001749
    15  C   -0.040138  -0.033950   0.402451   0.401534  -0.057080  -0.059592
    16  N    0.004827   0.001317  -0.028442  -0.026322   0.376019   0.378024
    17  H   -0.000543   0.000258  -0.000007  -0.000092  -0.000003  -0.000002
    18  H   -0.000159  -0.000159  -0.000020  -0.000091   0.000000   0.000000
    19  H    0.000001   0.000001   0.000000   0.000000   0.000000   0.000000
    20  H    0.000009   0.000001   0.000000   0.000000   0.000000   0.000000
    21  H    0.000014   0.000005   0.000002   0.000000   0.000000   0.000000
    22  H   -0.000001   0.000000   0.000000   0.000000   0.000000   0.000000
    23  H    0.000001   0.000000   0.000052   0.000004   0.000000   0.000000
    24  H   -0.000387   0.000031  -0.000043   0.000026   0.000002   0.000001
    25  H    0.590624  -0.026668  -0.006265   0.009069   0.006802  -0.000664
    26  H   -0.026668   0.554569   0.008518  -0.005290  -0.000993   0.007958
    27  H   -0.006265   0.008518   0.575507  -0.028904  -0.010907   0.010229
    28  H    0.009069  -0.005290  -0.028904   0.549651   0.009374  -0.009600
    29  H    0.006802  -0.000993  -0.010907   0.009374   0.538529  -0.043447
    30  H   -0.000664   0.007958   0.010229  -0.009600  -0.043447   0.536258
 Mulliken charges:
               1
     1  O   -0.425747
     2  C    0.391497
     3  N   -0.365174
     4  C   -0.138771
     5  C    0.366546
     6  O   -0.312241
     7  O   -0.331431
     8  C   -0.121599
     9  C    0.083508
    10  C   -0.080271
    11  N   -0.300899
    12  C    0.141883
    13  N   -0.368210
    14  C   -0.260723
    15  C   -0.102276
    16  N   -0.439089
    17  H    0.237134
    18  H    0.177497
    19  H    0.260435
    20  H    0.150927
    21  H    0.125652
    22  H    0.087922
    23  H    0.103756
    24  H    0.246569
    25  H    0.110461
    26  H    0.134599
    27  H    0.124637
    28  H    0.138397
    29  H    0.182562
    30  H    0.182448
 Sum of Mulliken charges =   0.00000
 Mulliken charges with hydrogens summed into heavy atoms:
               1
     1  O   -0.425747
     2  C    0.391497
     3  N   -0.128040
     4  C    0.038727
     5  C    0.366546
     6  O   -0.051806
     7  O   -0.331431
     8  C    0.154981
     9  C    0.083508
    10  C    0.007652
    11  N   -0.300899
    12  C    0.245638
    13  N   -0.121642
    14  C   -0.015663
    15  C    0.160759
    16  N   -0.074079
 APT charges:
               1
     1  O   -0.242137
     2  C    0.092144
     3  N   -0.497234
     4  C   -0.382394
     5  C   -0.527232
     6  O   -0.712553
     7  O    0.237050
     8  C   -0.918164
     9  C   -0.209284
    10  C   -0.633992
    11  N    0.557530
    12  C   -0.659582
    13  N   -0.501592
    14  C   -0.695075
    15  C   -0.610885
    16  N   -0.840276
    17  H    0.528947
    18  H    0.311342
    19  H    1.080867
    20  H    0.584313
    21  H    0.386267
    22  H    0.708493
    23  H    0.549472
    24  H    0.147048
    25  H    0.231257
    26  H    0.505238
    27  H    0.175632
    28  H    0.362080
    29  H    0.391471
    30  H    0.581250
 Sum of APT charges =   0.00000
 APT charges with hydrogens summed into heavy atoms:
               1
     1  O   -0.242137
     2  C    0.092144
     3  N    0.031713
     4  C   -0.071052
     5  C   -0.527232
     6  O    0.368314
     7  O    0.237050
     8  C    0.052416
     9  C   -0.209284
    10  C    0.074501
    11  N    0.557530
    12  C   -0.110111
    13  N   -0.354544
    14  C    0.041421
    15  C   -0.073173
    16  N    0.132445
 Electronic spatial extent (au):  <R**2>=           4428.6539
 Charge=              0.0000 electrons
 Dipole moment (field-independent basis, Debye):
    X=              1.7975    Y=              4.1275    Z=             -3.5488  Tot=              5.7325
 Quadrupole moment (field-independent basis, Debye-Ang):
   XX=            -98.5523   YY=            -97.9997   ZZ=            -97.7165
   XY=             -3.1649   XZ=             11.2587   YZ=              3.4130
 Traceless Quadrupole moment (field-independent basis, Debye-Ang):
   XX=             -0.4628   YY=              0.0898   ZZ=              0.3730
   XY=             -3.1649   XZ=             11.2587   YZ=              3.4130
 Octapole moment (field-independent basis, Debye-Ang**2):
  XXX=            118.1646  YYY=            -12.0185  ZZZ=            -42.9319  XYY=             20.5904
  XXY=             73.5096  XXZ=            -49.1775  XZZ=             32.0038  YZZ=             45.8988
  YYZ=              4.9503  XYZ=              8.7306
 Hexadecapole moment (field-independent basis, Debye-Ang**3):
 XXXX=          -3131.4537 YYYY=          -1166.9277 ZZZZ=          -1412.0439 XXXY=             30.8763
 XXXZ=           -122.3463 YYYX=             -5.8573 YYYZ=            482.7983 ZZZX=             61.5404
 ZZZY=            414.7820 XXYY=           -751.0533 XXZZ=           -853.4404 YYZZ=           -419.6123
 XXYZ=            265.8171 YYXZ=             31.3354 ZZXY=            -87.1753
 N-N= 1.124753230677D+03 E-N=-4.110840094415D+03  KE= 7.937398565668D+02
  Exact polarizability:   0.000   0.000   0.000   0.000   0.000   0.000
 Approx polarizability: 183.420  -9.077 206.466  -7.527 -10.579 178.103
 Calling FoFJK, ICntrl=    100147 FMM=F ISym2X=0 I1Cent= 0 IOpClX= 0 NMat=1 NMatS=1 NMatT=0.
 -------------------------------------------------------------------
 Center     Atomic                   Forces (Hartrees/Bohr)
 Number     Number              X              Y              Z
 -------------------------------------------------------------------
      1        8           0.001604966    0.001340073    0.004884317
      2        6           0.003048092   -0.005876209   -0.005425256
      3        7          -0.001700847    0.002881350   -0.000703537
      4        6          -0.001422409    0.001935302    0.001438298
      5        6          -0.002180456   -0.000714027   -0.005132605
      6        8           0.002363652   -0.001368132    0.003007118
      7        8           0.002770652    0.001247664    0.001869220
      8        6          -0.008526630   -0.004596434    0.003738256
      9        6           0.003272675    0.008331160   -0.007674188
     10        6          -0.006494393   -0.000781738    0.010622372
     11        7          -0.004070886    0.002923166    0.000545494
     12        6           0.000986208   -0.005618329    0.004051528
     13        7           0.005134137   -0.001950997   -0.007034180
     14        6          -0.003172112    0.002129658   -0.001349132
     15        6           0.003828855   -0.000817087    0.003031937
     16        7          -0.000012805   -0.001098916   -0.000235949
     17        1           0.000027354    0.000919974    0.000873948
     18        1           0.001225701   -0.000691977   -0.000858877
     19        1          -0.001854676    0.002687471   -0.003314868
     20        1          -0.000444318   -0.000066037   -0.001762965
     21        1           0.001745253    0.002304393    0.000456284
     22        1           0.000736151   -0.000004788   -0.000564568
     23        1           0.000720976   -0.001994076    0.001347121
     24        1           0.002516704   -0.001086934   -0.001886394
     25        1           0.001575830    0.000611947    0.000942187
     26        1          -0.000440812    0.000336108   -0.000893196
     27        1          -0.002261908   -0.000824928   -0.000142423
     28        1          -0.000635484   -0.001180203   -0.000374803
     29        1           0.000190178    0.001099806    0.001273277
     30        1           0.001470353   -0.000077258   -0.000728417
 -------------------------------------------------------------------
 Cartesian Forces:  Max     0.010622372 RMS     0.003081794
 FormGI is forming the generalized inverse of G from B-inverse, IUseBI=4.
 GSVD:  received Info=                   1 from GESDD.

 GradGradGradGradGradGradGradGradGradGradGradGradGradGradGradGradGradGrad
 Berny optimization.
 Internal  Forces:  Max     0.010137532 RMS     0.002164245
 Search for a local minimum.
 Step number   1 out of a maximum of  160
 All quantities printed in internal units (Hartrees-Bohrs-Radians)
 Mixed Optimization -- RFO/linear search
 Second derivative matrix not updated -- analytic derivatives used.
 ITU=  0
     Eigenvalues ---   -0.00003   0.00057   0.00234   0.00254   0.00320
     Eigenvalues ---    0.00530   0.00542   0.00850   0.00970   0.01561
     Eigenvalues ---    0.01944   0.02058   0.02188   0.02824   0.02973
     Eigenvalues ---    0.03560   0.03733   0.04138   0.04193   0.04355
     Eigenvalues ---    0.04425   0.04660   0.04855   0.05319   0.05419
     Eigenvalues ---    0.05819   0.06141   0.06311   0.07712   0.08394
     Eigenvalues ---    0.08509   0.10629   0.10772   0.11416   0.11641
     Eigenvalues ---    0.11899   0.12915   0.13604   0.14587   0.15491
     Eigenvalues ---    0.16097   0.17412   0.18213   0.18462   0.18871
     Eigenvalues ---    0.20815   0.21285   0.22403   0.23148   0.23363
     Eigenvalues ---    0.24572   0.24806   0.25555   0.27675   0.28454
     Eigenvalues ---    0.30544   0.32588   0.32974   0.33214   0.33450
     Eigenvalues ---    0.33743   0.34064   0.34230   0.34395   0.34710
     Eigenvalues ---    0.35967   0.36829   0.37119   0.37423   0.37865
     Eigenvalues ---    0.41328   0.42059   0.43523   0.44834   0.44950
     Eigenvalues ---    0.46152   0.46743   0.47824   0.48598   0.52633
     Eigenvalues ---    0.59728   0.67444   0.78138   0.88813
 RFO step:  Lambda=-3.00016115D-03 EMin=-3.44366805D-05
 Linear search not attempted -- first point.
 Iteration  1 RMS(Cart)=  0.09904506 RMS(Int)=  0.00419647
 Iteration  2 RMS(Cart)=  0.00618999 RMS(Int)=  0.00013157
 Iteration  3 RMS(Cart)=  0.00002418 RMS(Int)=  0.00013117
 Iteration  4 RMS(Cart)=  0.00000000 RMS(Int)=  0.00013117
 Variable       Old X    -DE/DX   Delta X   Delta X   Delta X     New X
                                 (Linear)    (Quad)   (Total)
    R1        2.32883  -0.00322   0.00000  -0.00505  -0.00505   2.32378
    R2        2.55756   0.00679   0.00000   0.01010   0.01010   2.56765
    R3        2.86147   0.00118   0.00000   0.00276   0.00276   2.86423
    R4        2.73197   0.00349   0.00000   0.00646   0.00646   2.73842
    R5        1.90693   0.00105   0.00000   0.00177   0.00177   1.90870
    R6        2.85851   0.00367   0.00000   0.01360   0.01360   2.87211
    R7        2.90151   0.00473   0.00000   0.02218   0.02218   2.92369
    R8        2.05757   0.00112   0.00000   0.00496   0.00496   2.06253
    R9        2.54840  -0.00040   0.00000  -0.00762  -0.00762   2.54078
   R10        2.27370   0.00254   0.00000   0.00327   0.00327   2.27698
   R11        1.82433   0.00419   0.00000   0.00746   0.00746   1.83179
   R12        2.83617  -0.00042   0.00000  -0.00678  -0.00678   2.82940
   R13        2.06506   0.00147   0.00000   0.00381   0.00381   2.06887
   R14        2.06277   0.00202   0.00000   0.00556   0.00556   2.06833
   R15        2.57832   0.01014   0.00000   0.02012   0.02008   2.59839
   R16        2.59234   0.00899   0.00000   0.01694   0.01708   2.60942
   R17        2.60964  -0.00051   0.00000  -0.00895  -0.00911   2.60053
   R18        2.04182  -0.00070   0.00000  -0.00166  -0.00166   2.04016
   R19        2.47581   0.00568   0.00000   0.00818   0.00812   2.48394
   R20        2.56200   0.00909   0.00000   0.01774   0.01786   2.57986
   R21        2.03338   0.00235   0.00000   0.00554   0.00554   2.03892
   R22        1.91539   0.00330   0.00000   0.00831   0.00831   1.92370
   R23        2.88916   0.00470   0.00000   0.02176   0.02176   2.91092
   R24        2.06708   0.00080   0.00000   0.00160   0.00160   2.06869
   R25        2.07159   0.00046   0.00000   0.00082   0.00082   2.07241
   R26        2.76156   0.00159   0.00000  -0.00414  -0.00414   2.75743
   R27        2.06245   0.00145   0.00000   0.00482   0.00482   2.06727
   R28        2.05813   0.00112   0.00000   0.00308   0.00308   2.06120
   R29        1.91576   0.00164   0.00000   0.00286   0.00286   1.91863
   R30        1.91656   0.00144   0.00000   0.00220   0.00220   1.91876
    A1        2.12142   0.00285   0.00000   0.01058   0.01048   2.13190
    A2        2.14078  -0.00306   0.00000  -0.01373  -0.01383   2.12696
    A3        2.02094   0.00022   0.00000   0.00337   0.00327   2.02421
    A4        2.11622   0.00404   0.00000   0.01683   0.01667   2.13289
    A5        2.08379  -0.00135   0.00000  -0.00377  -0.00393   2.07986
    A6        2.02958  -0.00230   0.00000  -0.00330  -0.00347   2.02611
    A7        1.90546  -0.00271   0.00000  -0.01643  -0.01652   1.88895
    A8        1.98355  -0.00063   0.00000   0.00657   0.00665   1.99020
    A9        1.88359   0.00076   0.00000  -0.00618  -0.00625   1.87734
   A10        1.88388   0.00382   0.00000   0.01643   0.01645   1.90034
   A11        1.90111  -0.00043   0.00000  -0.00237  -0.00250   1.89861
   A12        1.90502  -0.00086   0.00000   0.00157   0.00157   1.90659
   A13        1.94285   0.00183   0.00000   0.00642   0.00642   1.94927
   A14        2.19042  -0.00369   0.00000  -0.01612  -0.01612   2.17430
   A15        2.14929   0.00186   0.00000   0.00974   0.00974   2.15903
   A16        1.85090   0.00356   0.00000   0.02130   0.02130   1.87219
   A17        2.01653  -0.00411   0.00000  -0.00795  -0.00805   2.00849
   A18        1.87036   0.00122   0.00000  -0.00379  -0.00375   1.86661
   A19        1.91996  -0.00103   0.00000  -0.02319  -0.02331   1.89665
   A20        1.90971   0.00160   0.00000   0.02202   0.02200   1.93171
   A21        1.89153   0.00251   0.00000   0.00175   0.00141   1.89295
   A22        1.84853   0.00013   0.00000   0.01344   0.01329   1.86183
   A23        2.27747   0.00037   0.00000  -0.00318  -0.00336   2.27412
   A24        2.17313  -0.00005   0.00000   0.00457   0.00439   2.17752
   A25        1.83182  -0.00033   0.00000  -0.00211  -0.00194   1.82988
   A26        1.93433   0.00003   0.00000   0.00160   0.00157   1.93590
   A27        2.23675  -0.00061   0.00000  -0.00932  -0.00931   2.22744
   A28        2.11211   0.00058   0.00000   0.00771   0.00772   2.11983
   A29        1.82824   0.00281   0.00000   0.00658   0.00650   1.83474
   A30        1.95405  -0.00042   0.00000  -0.00085  -0.00066   1.95339
   A31        2.20470  -0.00065   0.00000  -0.00557  -0.00567   2.19902
   A32        2.12444   0.00106   0.00000   0.00641   0.00630   2.13074
   A33        1.87629  -0.00210   0.00000  -0.00528  -0.00559   1.87071
   A34        2.19588   0.00144   0.00000  -0.00025  -0.00114   2.19474
   A35        2.20485   0.00065   0.00000  -0.00161  -0.00248   2.20237
   A36        1.97253  -0.00153   0.00000  -0.01676  -0.01675   1.95578
   A37        1.90593   0.00199   0.00000   0.02367   0.02361   1.92955
   A38        1.87852  -0.00054   0.00000  -0.00380  -0.00382   1.87470
   A39        1.93534  -0.00090   0.00000  -0.01068  -0.01058   1.92476
   A40        1.89926   0.00141   0.00000   0.00807   0.00804   1.90730
   A41        1.86850  -0.00037   0.00000   0.00041   0.00040   1.86890
   A42        1.99920   0.00207   0.00000   0.01382   0.01382   2.01302
   A43        1.92010  -0.00170   0.00000  -0.01712  -0.01724   1.90287
   A44        1.89875  -0.00044   0.00000  -0.00542  -0.00553   1.89321
   A45        1.87581   0.00063   0.00000   0.01292   0.01300   1.88881
   A46        1.89866  -0.00050   0.00000   0.00362   0.00363   1.90229
   A47        1.86679  -0.00018   0.00000  -0.00905  -0.00922   1.85757
   A48        1.92590   0.00052   0.00000   0.00852   0.00845   1.93436
   A49        1.92274   0.00097   0.00000   0.00834   0.00828   1.93102
   A50        1.86005  -0.00024   0.00000   0.00613   0.00601   1.86607
    D1       -0.15769  -0.00186   0.00000  -0.01483  -0.01495  -0.17264
    D2       -2.94064  -0.00263   0.00000  -0.04558  -0.04570  -2.98635
    D3        2.97419  -0.00007   0.00000   0.01105   0.01117   2.98536
    D4        0.19124  -0.00083   0.00000  -0.01971  -0.01959   0.17165
    D5       -0.58554   0.00033   0.00000  -0.07804  -0.07820  -0.66374
    D6       -2.74848   0.00109   0.00000  -0.07005  -0.07005  -2.81853
    D7        1.51209   0.00079   0.00000  -0.08084  -0.08091   1.43118
    D8        2.56588  -0.00152   0.00000  -0.10438  -0.10439   2.46149
    D9        0.40293  -0.00077   0.00000  -0.09639  -0.09624   0.30670
   D10       -1.61968  -0.00107   0.00000  -0.10718  -0.10709  -1.72677
   D11       -2.19703  -0.00009   0.00000  -0.04507  -0.04514  -2.24217
   D12        1.98219  -0.00262   0.00000  -0.05867  -0.05867   1.92352
   D13       -0.13312  -0.00166   0.00000  -0.06051  -0.06048  -0.19360
   D14        0.59648   0.00078   0.00000  -0.01548  -0.01552   0.58096
   D15       -1.50748  -0.00175   0.00000  -0.02908  -0.02905  -1.53654
   D16        2.66040  -0.00079   0.00000  -0.03092  -0.03087   2.62953
   D17        2.86584  -0.00017   0.00000   0.01895   0.01901   2.88485
   D18       -0.31291  -0.00008   0.00000   0.02048   0.02053  -0.29238
   D19       -1.25340  -0.00020   0.00000   0.02723   0.02720  -1.22620
   D20        1.85103  -0.00010   0.00000   0.02877   0.02872   1.87975
   D21        0.81293   0.00070   0.00000   0.03707   0.03706   0.84999
   D22       -2.36582   0.00079   0.00000   0.03861   0.03858  -2.32724
   D23       -1.02269  -0.00036   0.00000   0.03078   0.03073  -0.99196
   D24        3.12731  -0.00062   0.00000   0.01049   0.01052   3.13783
   D25        1.12545  -0.00092   0.00000   0.00847   0.00857   1.13402
   D26       -3.13876   0.00076   0.00000   0.03574   0.03564  -3.10313
   D27        1.01124   0.00050   0.00000   0.01544   0.01543   1.02666
   D28       -0.99062   0.00021   0.00000   0.01342   0.01348  -0.97714
   D29        1.08059  -0.00042   0.00000   0.02836   0.02827   1.10886
   D30       -1.05259  -0.00068   0.00000   0.00806   0.00806  -1.04453
   D31       -3.05445  -0.00097   0.00000   0.00604   0.00611  -3.04834
   D32        3.11217  -0.00050   0.00000  -0.01755  -0.01754   3.09463
   D33        0.00671  -0.00045   0.00000  -0.01839  -0.01840  -0.01169
   D34        2.85446  -0.00125   0.00000  -0.07240  -0.07241   2.78205
   D35       -0.33563  -0.00148   0.00000  -0.09559  -0.09559  -0.43123
   D36       -1.31667  -0.00130   0.00000  -0.06598  -0.06606  -1.38272
   D37        1.77642  -0.00152   0.00000  -0.08917  -0.08924   1.68718
   D38        0.69137   0.00108   0.00000  -0.03739  -0.03731   0.65407
   D39       -2.49872   0.00085   0.00000  -0.06057  -0.06049  -2.55921
   D40        3.10774  -0.00041   0.00000  -0.02088  -0.02082   3.08692
   D41       -0.03206  -0.00017   0.00000  -0.01543  -0.01540  -0.04746
   D42        0.00751  -0.00022   0.00000  -0.00127  -0.00127   0.00624
   D43       -3.13229   0.00002   0.00000   0.00419   0.00415  -3.12814
   D44       -3.11273   0.00017   0.00000   0.01354   0.01361  -3.09912
   D45        0.14204   0.00022   0.00000   0.07900   0.07902   0.22106
   D46       -0.00931   0.00001   0.00000  -0.00478  -0.00476  -0.01407
   D47       -3.03773   0.00005   0.00000   0.06068   0.06065  -2.97708
   D48       -0.00267   0.00037   0.00000   0.00699   0.00701   0.00434
   D49        3.13728   0.00015   0.00000   0.00196   0.00195   3.13923
   D50       -0.00351  -0.00037   0.00000  -0.01021  -0.01023  -0.01374
   D51        3.13674  -0.00023   0.00000  -0.01692  -0.01689   3.11985
   D52        0.00831   0.00024   0.00000   0.00978   0.00973   0.01804
   D53        3.03598   0.00026   0.00000  -0.05601  -0.05594   2.98004
   D54       -3.13201   0.00011   0.00000   0.01614   0.01610  -3.11591
   D55       -0.10434   0.00013   0.00000  -0.04964  -0.04957  -0.15391
   D56        3.05691  -0.00063   0.00000   0.00671   0.00669   3.06360
   D57       -1.11131   0.00037   0.00000   0.02035   0.02022  -1.09109
   D58        0.92831  -0.00107   0.00000  -0.00339  -0.00338   0.92493
   D59       -1.07957   0.00018   0.00000   0.01740   0.01746  -1.06210
   D60        1.03539   0.00118   0.00000   0.03104   0.03099   1.06639
   D61        3.07502  -0.00026   0.00000   0.00730   0.00739   3.08241
   D62        0.97119   0.00006   0.00000   0.01658   0.01661   0.98780
   D63        3.08615   0.00106   0.00000   0.03023   0.03014   3.11629
   D64       -1.15741  -0.00038   0.00000   0.00648   0.00654  -1.15087
   D65        1.03793  -0.00004   0.00000  -0.00581  -0.00575   1.03218
   D66       -1.01116  -0.00065   0.00000  -0.02356  -0.02357  -1.03473
   D67       -1.10121   0.00029   0.00000  -0.00261  -0.00263  -1.10384
   D68        3.13288  -0.00032   0.00000  -0.02036  -0.02045   3.11244
   D69       -3.11660   0.00043   0.00000  -0.00064  -0.00058  -3.11718
   D70        1.11749  -0.00019   0.00000  -0.01839  -0.01839   1.09909
         Item               Value     Threshold  Converged?
 Maximum Force            0.010138     0.000450     NO 
 RMS     Force            0.002164     0.000300     NO 
 Maximum Displacement     0.343878     0.001800     NO 
 RMS     Displacement     0.100389     0.001200     NO 
 Predicted change in Energy=-1.702155D-03
 GradGradGradGradGradGradGradGradGradGradGradGradGradGradGradGradGradGrad

                          Input orientation:                          
 ---------------------------------------------------------------------
 Center     Atomic      Atomic             Coordinates (Angstroms)
 Number     Number       Type             X           Y           Z
 ---------------------------------------------------------------------
      1          8           0        0.920795   -1.261855   -0.849782
      2          6           0        1.149406   -0.110284   -0.484050
      3          7           0        0.231837    0.883905   -0.609905
      4          6           0       -0.991898    0.714126   -1.367247
      5          6           0       -1.107110    1.868203   -2.349488
      6          8           0       -2.031154    1.625128   -3.295428
      7          8           0       -0.480318    2.894581   -2.275183
      8          6           0       -2.270187    0.667927   -0.496889
      9          6           0       -2.280547   -0.392897    0.559666
     10          6           0       -3.025213   -0.493926    1.711151
     11          7           0       -2.763377   -1.677048    2.363395
     12          6           0       -1.866111   -2.286606    1.621026
     13          7           0       -1.546889   -1.561624    0.509144
     14          6           0        2.467075    0.279434    0.155612
     15          6           0        3.001434   -0.818582    1.094560
     16          7           0        4.317261   -0.561697    1.670563
     17          1           0        0.509598    1.836741   -0.422453
     18          1           0       -0.905176   -0.217833   -1.928657
     19          1           0       -2.082107    2.413424   -3.857223
     20          1           0       -3.116740    0.541910   -1.179573
     21          1           0       -2.399550    1.640813   -0.012413
     22          1           0       -3.737847    0.217907    2.099740
     23          1           0       -1.408376   -3.240065    1.834393
     24          1           0       -0.789444   -1.760721   -0.141175
     25          1           0        2.366590    1.225665    0.696836
     26          1           0        3.188102    0.446269   -0.653693
     27          1           0        2.291581   -0.963419    1.914233
     28          1           0        3.032648   -1.759411    0.543576
     29          1           0        4.313523    0.298323    2.210166
     30          1           0        5.012272   -0.448518    0.939049
 ---------------------------------------------------------------------
                    Distance matrix (angstroms):
                    1          2          3          4          5
     1  O    0.000000
     2  C    1.229690   0.000000
     3  N    2.266383   1.358744   0.000000
     4  C    2.798333   2.458632   1.449111   0.000000
     5  C    4.019799   3.533573   2.405779   1.519857   0.000000
     6  O    4.798943   4.586007   3.589230   2.372311   1.344524
     7  O    4.612033   3.859193   2.706129   2.416702   1.204924
     8  C    3.745792   3.507049   2.513870   1.547152   2.495102
     9  C    3.604195   3.596358   3.051261   2.568873   3.866873
    10  C    4.766453   4.732181   4.230142   3.882048   5.074206
    11  N    4.906120   5.086508   4.936629   4.772163   6.125626
    12  C    3.862881   4.273297   4.408013   4.324166   5.796853
    13  N    2.833020   3.219135   3.224399   3.001316   4.486524
    14  C    2.403616   1.515684   2.438788   3.804280   4.644837
    15  C    2.882015   2.534502   3.670739   4.935219   5.996700
    16  N    4.286996   3.857646   4.897038   6.248455   7.175586
    17  H    3.154836   2.050379   1.010042   2.099378   2.515591
    18  H    2.363921   2.513914   2.060518   1.091444   2.137620
    19  H    5.618701   5.309433   4.270696   3.205644   1.876473
    20  H    4.434413   4.371397   3.413862   2.140054   2.677007
    21  H    4.489027   3.985458   2.802518   2.162362   2.680304
    22  H    5.708968   5.537953   4.852228   4.450445   5.425853
    23  H    4.067327   4.659717   5.066757   5.104859   6.609843
    24  H    1.917266   2.569172   2.873460   2.769315   4.259888
    25  H    3.266512   2.158886   2.526171   3.975117   4.664712
    26  H    2.845490   2.120096   2.988803   4.248918   4.831818
    27  H    3.099660   2.790011   3.745186   4.935940   6.143981
    28  H    2.578552   2.705963   4.020221   5.095743   6.218279
    29  H    4.827841   4.175811   4.995585   6.412353   7.255222
    30  H    4.538900   4.130538   5.198766   6.536115   7.323149
                    6          7          8          9         10
     6  O    0.000000
     7  O    2.248889   0.000000
     8  C    2.967354   3.365108   0.000000
     9  C    4.358483   4.699437   1.497252   0.000000
    10  C    5.526697   5.818018   2.606800   1.375010   0.000000
    11  N    6.592631   6.901345   3.731403   2.266187   1.376139
    12  C    6.284936   6.629146   3.657609   2.210062   2.136667
    13  N    4.986448   5.361699   2.550717   1.380843   2.184089
    14  C    5.827060   4.629782   4.797742   4.811985   5.760470
    15  C    7.111304   6.104534   5.703718   5.326034   6.066800
    16  N    8.351385   7.108554   7.043031   6.692806   7.342899
    17  H    3.841118   2.351929   3.016433   3.704153   4.741219
    18  H    2.555855   3.160333   2.167438   2.848516   4.221255
    19  H    0.969341   2.302193   3.791304   5.236767   6.352081
    20  H    2.613178   3.699479   1.094801   2.144303   3.072071
    21  H    3.303657   3.221105   1.094513   2.115991   2.814114
    22  H    5.831029   6.075856   3.016458   2.206498   1.079608
    23  H    7.097395   7.442029   4.631414   3.239132   3.189143
    24  H    4.791151   5.130438   2.866612   2.141380   3.167735
    25  H    5.952973   4.441066   4.820347   4.922848   5.749553
    26  H    5.967336   4.699018   5.465037   5.664146   6.714293
    27  H    7.247563   6.333940   5.411517   4.802572   5.341345
    28  H    7.199663   6.476571   5.924069   5.486133   6.297806
    29  H    8.504523   7.059733   7.128113   6.832547   7.398225
    30  H    8.475886   7.188612   7.506169   7.302892   8.074613
                   11         12         13         14         15
    11  N    0.000000
    12  C    1.314443   0.000000
    13  N    2.220678   1.365204   0.000000
    14  C    6.004977   5.244854   4.430167   0.000000
    15  C    5.964893   5.111287   4.645650   1.540390   0.000000
    16  N    7.201351   6.419646   6.061105   2.534910   1.459168
    17  H    5.551578   5.178975   4.079937   2.567310   3.944783
    18  H    4.899381   4.219416   2.856649   3.995438   4.976177
    19  H    7.476107   7.221368   5.928965   6.430538   7.797975
    20  H    4.195385   4.172281   3.121066   5.747225   6.667433
    21  H    4.096955   4.286876   3.354796   5.056246   6.036940
    22  H    2.147081   3.163091   3.239911   6.502651   6.892213
    23  H    2.135157   1.078949   2.143044   5.497663   5.085013
    24  H    3.190029   2.130990   1.017977   3.854248   4.097001
    25  H    6.125334   5.577269   4.808276   1.094702   2.177190
    26  H    7.002242   6.179645   5.272945   1.096671   2.165889
    27  H    5.124804   4.373007   4.131098   2.160608   1.093953
    28  H    6.075560   5.043478   4.583935   2.151111   1.090741
    29  H    7.349020   6.724346   6.379444   2.762413   2.052714
    30  H    7.999923   7.152329   6.666814   2.760746   2.050512
                   16         17         18         19         20
    16  N    0.000000
    17  H    4.963015   0.000000
    18  H    6.351887   2.914019   0.000000
    19  H    8.964356   4.341330   3.468148   0.000000
    20  H    8.037760   3.924301   2.455474   3.426783   0.000000
    21  H    7.266293   2.944429   3.059365   3.934497   1.756192
    22  H    8.104118   5.198351   4.943872   6.561035   3.353303
    23  H    6.323244   5.877579   4.852592   8.050488   5.128921
    24  H    5.549638   3.835147   2.364105   5.736156   3.434630
    25  H    2.819207   2.252696   4.436367   6.476198   5.835695
    26  H    2.773654   3.026759   4.338373   6.473594   6.327458
    27  H    2.079455   4.059120   5.054004   7.990114   6.409959
    28  H    2.086827   4.497922   4.898454   7.933493   6.788246
    29  H    1.015294   4.875168   6.680651   9.065923   8.170586
    30  H    1.015363   5.229739   6.579752   9.029128   8.458743
                   21         22         23         24         25
    21  H    0.000000
    22  H    2.876958   0.000000
    23  H    5.311882   4.177848   0.000000
    24  H    3.765562   4.198779   2.544485   0.000000
    25  H    4.836473   6.344120   5.957109   4.425077   0.000000
    26  H    5.749785   7.456695   6.395876   4.577592   1.762461
    27  H    5.700939   6.146864   4.345017   3.788549   2.505947
    28  H    6.432684   7.222951   4.856052   3.882946   3.062319
    29  H    7.197742   8.052529   6.738066   5.984041   2.634517
    30  H    7.759233   8.851887   7.058264   6.045549   3.140253
                   26         27         28         29         30
    26  H    0.000000
    27  H    3.063529   0.000000
    28  H    2.514486   1.749709   0.000000
    29  H    3.080609   2.401629   2.941502   0.000000
    30  H    2.581679   2.935688   2.407021   1.631491   0.000000
[...]
 ,0.00050783,-0.00028743,0.00023079,-0.00024542,0.00033852,0.00001477,-
 0.00004389,-0.00025373,0.00008828,-0.00031434,0.00091668,0.00004018,-0
 .00000183,0.00003719,-0.00016500,0.00016046,-0.00001156,-0.00019840,0.
 00008874,0.00002934,0.00056651,0.00059713,-0.00113639,-0.00012391,-0.0
 0066986,-0.00039741,-0.07167772,0.07793605,-0.00220679,-0.00653031,-0.
 00362755,-0.00140365,0.00841783,0.00295555,0.00212046,-0.00307554,-0.0
 0069667,-0.00071875,0.00040090,0.00066449,-0.00004211,0.00013370,-0.00
 058359,0.00024702,-0.00014838,0.00014883,0.00006760,-0.00021595,0.0002
 6407,-0.00113116,-0.00086771,0.00057819,-0.00311573,-0.00559872,0.0033
 6288,-0.00026054,0.00215552,0.00361076,0.00062705,0.00583704,-0.002348
 57,0.01128136,-0.01207050,-0.01360665,0.17979917,-0.04855941,-0.260765
 46,-0.00014364,-0.00073619,-0.00101647,-0.00040597,-0.00060245,0.00072
 018,-0.00000279,0.00030349,-0.00053180,0.00004022,-0.00008244,0.000309
 74,-0.00015559,0.00116993,-0.00090599,-0.00004161,0.00002317,0.0000200
 7,-0.00005425,0.00043677,-0.00040853,0.00009731,0.00010287,-0.00022821
 ,0.00064008,0.00040329,0.00086350,-0.00115120,-0.00013509,0.00001815,-
 0.18396468,0.05948335,0.27146443,-0.00632152,-0.00274101,-0.00503362,0
 .00276578,-0.02880270,-0.00317985,0.00000289,0.00094880,0.00045703,0.0
 0030673,0.00021687,0.00026813,-0.00009529,-0.00018197,-0.00005781,0.00
 009607,0.00003475,0.00008756,0.00007648,0.00014041,0.00004930,0.000052
 19,-0.00001380,0.00001975,0.00010015,-0.00012595,-0.00002920,-0.000007
 32,0.00001898,0.00007220,-0.00003780,0.00006529,0.00010016,-0.00000590
 ,0.00008101,-0.00016688,-0.00015220,-0.00003958,0.00020526,-0.05370672
 ,-0.01616258,-0.00368685,-0.00025889,0.00178263,-0.00002556,0.00030964
 ,0.00041586,0.00086119,-0.00158720,0.00050259,-0.00110242,0.00031982,-
 0.00022226,0.00009584,-0.00001036,-0.00000328,-0.00000968,0.00002602,0
 .00000373,-0.00001700,-0.00002699,0.00001356,0.00000237,-0.00001598,0.
 00000050,0.00000879,-0.00000282,-0.00000053,-0.00000423,0.00032673,0.0
 0009757,-0.00031120,0.05403545,-0.00227063,0.00151546,-0.00077241,0.00
 429687,-0.00765846,0.00031536,0.00094815,0.00084856,0.00103158,-0.0005
 3622,0.00061268,-0.00021998,-0.00021325,-0.00029760,0.00001145,0.00006
 274,0.00007182,0.00002413,0.00013609,0.00019729,0.00000932,0.00001897,
 -0.00001374,-0.00001530,0.00009003,-0.00009759,-0.00001297,0.00001074,
 0.00001965,0.00004384,-0.00005801,0.00005124,0.00006895,-0.00000690,0.
 00004181,-0.00015108,-0.00014287,-0.00004234,0.00014995,-0.02081282,-0
 .28528820,-0.06221833,-0.00239146,-0.01930333,-0.00450519,0.00016885,0
 .00265250,-0.00061211,-0.00030315,0.00113180,-0.00015920,0.00017246,0.
 00010416,0.00016490,-0.00001168,-0.00000582,-0.00000990,0.00000011,0.0
 0000005,-0.00001719,-0.00002528,0.00001937,0.00000520,-0.00002030,0.00
 000764,0.00000842,0.00002917,0.00003733,-0.00000771,0.00026275,0.00005
 334,-0.00011869,0.02073293,0.31229501,-0.00603959,-0.00167952,-0.00078
 371,0.00430559,-0.01681693,-0.00504875,0.00031914,0.00099189,0.0001223
 4,0.00015058,0.00025462,-0.00002205,-0.00019551,-0.00035343,0.00001288
 ,0.00007271,0.00008807,0.00004715,0.00020843,0.00021262,-0.00002314,0.
 00005077,0.00002458,0.00002273,0.00007029,-0.00014054,-0.00002218,-0.0
 0001797,-0.00001753,0.00005118,-0.00004526,0.00005618,0.00010392,-0.00
 001881,0.00011554,-0.00014892,-0.00017422,-0.00003284,0.00021672,-0.00
 586404,-0.05911100,-0.06075123,0.00187781,0.02929323,0.00540891,0.0018
 1247,-0.00105371,0.00256183,-0.00121872,0.00029106,0.00036963,0.000179
 90,-0.00009081,0.00007828,-0.00001887,-0.00000010,-0.00000334,0.000008
 86,-0.00000807,-0.00001727,-0.00001609,0.00000145,0.00001178,0.0000029
 7,0.00000019,0.00000890,-0.00001817,-0.00002352,-0.00000078,0.00033929
 ,0.00013442,-0.00035290,0.00799321,0.06381418,0.06633307,0.00363521,-0
 .00005939,-0.00242375,-0.02345704,0.01000688,0.01997167,-0.00375587,-0
 .00151450,-0.00317991,0.00044506,0.00120816,-0.00071423,-0.00034890,-0
 .00062463,0.00012667,-0.00014538,0.00024874,-0.00028200,0.00006144,0.0
 0020856,-0.00013142,0.00012959,0.00003279,0.00000131,-0.00003205,0.000
 02142,-0.00000569,0.00001200,-0.00001430,-0.00006334,0.00001682,-0.000
 06159,0.00002397,0.00001184,-0.00000707,0.00002065,0.00003363,0.000047
 34,-0.00008842,-0.19621198,0.04817766,0.11825977,0.00040431,-0.0009179
 9,-0.00080720,0.00208108,-0.00041415,-0.00061801,-0.00018465,-0.000448
 47,0.00042859,-0.00008735,0.00001793,-0.00004394,-0.00003551,0.0000025
 0,-0.00001387,-0.00003343,-0.00001209,0.00002314,-0.00000528,-0.000001
 79,0.00001922,0.00000289,0.00000203,-0.00000361,0.00000020,-0.00000172
 ,0.00000581,-0.00009452,0.00002132,0.00015413,0.00317837,-0.00067392,-
 0.00256013,0.21323044,-0.00039005,-0.00038959,-0.00103133,-0.00216399,
 0.00015034,0.00467114,0.00029495,0.00021681,0.00031379,-0.00008643,0.0
 0031077,0.00019827,-0.00001507,0.00006077,-0.00008653,0.00001741,-0.00
 001204,0.00003430,-0.00001714,-0.00002457,0.00008254,-0.00000034,-0.00
 003971,-0.00001055,0.00002947,-0.00003310,0.00000417,0.00001283,-0.000
 00315,0.00002108,-0.00001029,0.00000857,0.00001078,-0.00002997,0.00004
 544,-0.00004415,-0.00004797,-0.00003869,0.00003164,0.04930600,-0.06411
 299,-0.04467946,-0.01496897,0.00358274,0.01489871,-0.00116954,0.000321
 03,-0.00203714,-0.00028320,0.00045068,-0.00064069,0.00016008,-0.000018
 95,0.00007512,0.00000756,-0.00000445,-0.00001186,0.00000841,0.00000544
 ,-0.00000790,-0.00001249,0.00000980,-0.00000746,-0.00000778,0.00000009
 ,0.00000355,0.00000119,0.00000649,0.00000651,0.00009724,0.00005554,-0.
 00000631,0.02368460,-0.00720903,-0.01762774,-0.05517965,0.06687006,0.0
 0118103,0.00112970,-0.00050481,-0.01487543,0.00360827,0.01103810,-0.00
 178775,-0.00020500,-0.00181937,-0.00003904,0.00077880,-0.00078757,-0.0
 0028443,-0.00027110,-0.00000939,-0.00003609,0.00011800,-0.00010314,0.0
 0006335,0.00007693,-0.00002037,0.00013197,0.00002597,0.00003651,-0.000
 01030,-0.00001247,-0.00002540,-0.00000478,0.00001909,0.00000596,0.0000
 3163,0.00001510,0.00005450,0.00002472,-0.00004018,-0.00001804,0.000023
 51,0.00003507,0.00000103,0.11911519,-0.04456947,-0.13632539,0.02256107
 ,-0.00505313,-0.02085255,0.00045646,-0.00106399,0.00362468,-0.00029161
 ,-0.00005874,0.00014291,0.00001832,0.00000238,0.00000469,-0.00002242,0
 .00000725,-0.00002906,0.00000934,-0.00000233,0.00000934,-0.00001151,-0
 .00000027,0.00000473,-0.00000807,-0.00000460,-0.00000229,-0.00001472,-
 0.00002218,-0.00000604,0.00000503,0.00000821,0.00000529,0.00481032,-0.
 00149710,-0.00438686,-0.12815213,0.04299385,0.15286470,0.00017039,0.00
 013638,0.00024652,0.00008896,-0.00022681,-0.00019266,0.00053878,-0.000
 17806,0.00009535,-0.00005370,-0.00005267,-0.00001719,0.00000980,0.0000
 5241,-0.00000653,0.00001508,-0.00002162,0.00001629,0.00000487,-0.00002
 581,0.00000289,0.00000425,-0.00000518,0.00004905,0.00000102,-0.0000237
 9,-0.00005517,-0.00001695,0.00004452,0.00003070,0.00001662,0.00003385,
 -0.00002217,0.00001528,-0.00007488,-0.00005536,-0.00015563,-0.00008293
 ,-0.00006081,0.00251492,-0.00061263,0.00020747,-0.19272572,0.04418719,
 0.11525794,-0.03040779,0.00993715,0.01224619,0.00001335,0.00001868,0.0
 0008412,-0.00000083,-0.00000146,0.00000326,-0.00000008,0.00000113,0.00
 000459,0.00001544,0.00000254,-0.00001443,0.00000637,-0.00000235,-0.000
 00269,0.00001343,0.00000065,0.00000395,0.00002408,0.00003970,0.0000134
 3,-0.00004695,-0.00000312,0.00008300,0.00001644,-0.00025688,0.00010211
 ,0.00082923,0.00048561,-0.00116341,0.21966167,-0.00016256,0.00025721,-
 0.00013473,-0.00136319,0.00044894,-0.00039206,0.00001226,-0.00008000,-
 0.00043248,0.00008393,-0.00007006,0.00007560,0.00000881,0.00007824,0.0
 0000392,-0.00001971,-0.00001045,-0.00000474,-0.00001997,-0.00006397,-0
 .00002320,0.00003692,0.00008009,-0.00007741,-0.00012103,-0.00005961,0.
 00001003,-0.00013539,-0.00003776,-0.00003701,0.00009523,0.00020310,0.0
 0014626,0.00023664,-0.00017613,0.00002887,0.00013358,0.00021205,-0.000
 06556,-0.01337925,0.00339429,0.01518206,0.04709784,-0.06666484,-0.0395
 3905,-0.00359506,0.00228529,0.00202090,-0.00000002,-0.00006998,0.00019
 341,-0.00002346,0.00000020,-0.00002487,-0.00000182,0.00000376,-0.00000
 454,-0.00001633,-0.00002293,0.00004677,0.00001283,-0.00002586,0.000011
 45,0.00003977,-0.00001775,-0.00000103,-0.00007903,-0.00013333,-0.00004
 230,-0.00000094,-0.00003677,-0.00020402,-0.00051237,0.00089439,-0.0008
 6538,0.00013002,-0.00130946,0.00382343,-0.05074846,0.06586998,-0.00115
 584,-0.00053990,-0.00009391,0.00375261,0.00007738,0.00019229,-0.001192
 40,0.00033176,0.00053780,-0.00007407,0.00006701,-0.00010135,0.00000390
 ,0.00011872,-0.00005254,0.00000143,-0.00002510,0.00003267,-0.00004564,
 -0.00007894,0.00004290,-0.00000882,0.00004058,-0.00008273,-0.00009603,
 0.00018150,-0.00011499,-0.00000868,-0.00002768,0.00012259,0.00000634,0
 .00003175,-0.00004260,-0.00008367,-0.00019007,0.00022379,0.00024256,0.
 00005742,-0.00001912,0.01794791,-0.00546075,-0.01977816,0.12134454,-0.
 03984328,-0.14374831,-0.01903663,0.00662249,0.01177549,0.00018046,0.00
 009428,-0.00027888,0.00004410,0.00000244,0.00001094,0.00000765,-0.0000
 0257,-0.00001495,0.00000530,-0.00001357,0.00003608,-0.00001680,-0.0000
 0550,0.00000679,-0.00000144,-0.00000983,-0.00000445,-0.00002622,-0.000
 04913,-0.00000566,0.00000634,-0.00006477,-0.00025514,-0.00028696,0.000
 22458,0.00128693,-0.00085454,0.00356331,-0.00369268,-0.12265622,0.0375
 2991,0.15846674,-0.00059716,-0.00072884,0.00002742,0.00022516,0.001861
 11,0.00039678,0.00010989,-0.00036212,-0.00033227,0.00004579,-0.0000264
 9,-0.00003051,-0.00001009,0.00010699,-0.00005663,0.00000469,-0.0000221
 7,0.00002261,-0.00001886,-0.00007238,0.00001662,0.00003026,0.00003900,
 -0.00000380,-0.00006863,0.00005615,-0.00002215,-0.00003093,-0.00008098
 ,-0.00002074,0.00006483,0.00000338,-0.00004411,-0.00002315,-0.00004162
 ,0.00024879,0.00015525,0.00010089,-0.00010202,0.00094422,-0.00052397,0
 .00122526,-0.05193314,-0.01589248,-0.00114168,-0.00689626,-0.03073209,
 -0.01551034,0.00006841,-0.00002504,0.00010352,-0.00004221,0.00002758,-
 0.00002826,-0.00000105,0.00000136,-0.00000779,0.00000356,-0.00000909,0
 .00001575,0.00000761,-0.00001765,0.00000572,0.00001852,-0.00001432,-0.
 00000493,-0.00007296,-0.00010716,0.00001223,-0.00019740,0.00001278,-0.
 00017388,0.00048413,-0.00010730,-0.00072978,0.00018611,-0.00049613,-0.
 00046906,0.00328398,0.02407915,0.00599635,0.05915306,-0.00016921,0.002
 94205,-0.00061641,-0.00172190,-0.00382370,-0.00170480,0.00018092,0.000
 53955,0.00031755,-0.00005468,0.00006134,-0.00011893,-0.00007128,-0.000
 12018,0.00000292,0.00004742,0.00002436,0.00003331,0.00007618,0.0001012
 1,0.00000474,0.00000700,-0.00003948,0.00004608,0.00007604,-0.00006662,
 0.00000958,0.00001573,0.00005940,0.00002522,-0.00005608,0.00001035,0.0
 0002165,-0.00001792,0.00002124,-0.00017587,-0.00013067,-0.00007716,0.0
 0008270,0.00067615,-0.02011580,-0.00108273,-0.02107393,-0.29092577,-0.
 06573090,-0.00259403,0.00013476,-0.00258059,-0.00019996,0.00015646,-0.
 00000470,0.00006848,-0.00000991,0.00004197,-0.00000513,-0.00000205,-0.
 00000103,0.00001425,0.00001053,-0.00002930,-0.00000859,0.00001453,-0.0
 0000498,-0.00001641,0.00001095,0.00000562,0.00005232,0.00009164,-0.000
 00597,0.00016967,-0.00000331,0.00011122,0.00000835,-0.00057621,0.00325
 270,-0.00032510,0.00103661,-0.00013691,0.00028177,-0.00612714,-0.00182
 958,0.02550867,0.31470222,0.00039186,-0.00168352,-0.00032904,0.0008938
 3,0.00316460,0.00172936,-0.00024853,-0.00062631,-0.00006865,-0.0000165
 8,-0.00008087,0.00005105,0.00005742,0.00005973,-0.00001059,-0.00002428
 ,-0.00001431,-0.00002332,-0.00004763,-0.00004092,0.00001022,-0.0000518
 1,-0.00003691,-0.00001100,-0.00002204,0.00014139,0.00003020,0.00003975
 ,0.00006377,-0.00006178,0.00000072,-0.00005963,-0.00007185,-0.00005596
 ,-0.00012154,0.00004281,-0.00000163,-0.00007569,-0.00001624,0.00096050
 ,0.02883410,0.00307728,-0.00337425,-0.06527789,-0.06401872,-0.00507399
 ,-0.01875108,-0.00872191,0.00036271,-0.00011183,-0.00005736,-0.0000917
 9,0.00002846,-0.00003993,0.00000347,-0.00000017,0.00000457,-0.00001299
 ,0.00000678,-0.00000824,0.00000297,0.00000821,-0.00001126,-0.00001298,
 0.00001174,-0.00000390,0.00007439,0.00009554,0.00002251,-0.00018556,-0
 .00004102,0.00015445,-0.00086568,0.00359262,-0.00450932,0.00040843,-0.
 00055872,0.00153416,-0.00169774,-0.01818633,-0.00462430,0.01211655,0.0
 6934351,0.07554558,0.00008003,0.00070715,-0.00010485,-0.00018564,-0.00
 073802,-0.00002995,-0.00008008,0.00015795,0.00015348,-0.00001687,0.000
 01092,-0.00001796,-0.00002774,-0.00001273,-0.00003218,0.00002112,0.000
 00272,0.00002522,0.00000966,0.00001393,0.00002451,0.00000276,-0.000009
 25,-0.00000677,0.00003052,-0.00002677,-0.00001742,0.00001216,0.0000453
 6,0.00000910,0.00000943,0.00001384,0.00004557,0.00001647,-0.00002115,-
 0.00007655,-0.00005031,0.00000101,0.00005505,0.00070283,-0.00048316,0.
 00060440,-0.00392269,-0.03574320,-0.01087904,-0.06675551,-0.03660525,-
 0.01344450,-0.00001503,0.00002743,-0.00011092,0.00001732,0.00000250,0.
 00000952,-0.00000115,-0.00000038,-0.00000771,0.00000226,0.00000339,0.0
 0000252,-0.00000907,0.00000802,-0.00000381,-0.00002031,0.00000164,-0.0
 0000158,0.00001533,0.00002481,-0.00000901,0.00005328,-0.00002068,0.000
 02579,0.00012930,0.00082993,-0.00041259,-0.00002033,0.00019487,0.00004
 928,0.00048167,-0.00012072,0.00075800,-0.00567263,-0.00026378,-0.00371
 646,0.07071151,0.00003642,0.00013193,0.00001084,0.00030518,-0.00030211
 ,0.00038484,-0.00013109,0.00010351,0.00000063,0.00007526,0.00000575,0.
 00002453,0.00004168,-0.00001943,0.00005113,-0.00003970,0.00001131,-0.0
 0004041,-0.00002703,0.00001135,-0.00002678,-0.00000041,0.00000231,-0.0
 0001534,0.00001046,-0.00002622,-0.00000915,-0.00000067,0.00002001,-0.0
 0000792,-0.00000696,0.00000211,0.00004559,0.00001675,-0.00000937,-0.00
 006065,-0.00005266,0.00000137,0.00005233,0.00122782,0.00247622,0.00042
 393,0.00147293,-0.00532174,0.00532493,-0.03624201,-0.38220414,-0.13991
 352,0.00003569,-0.00002541,0.00000514,-0.00000247,-0.00000446,-0.00000
 189,0.00000649,-0.00000266,0.00000527,-0.00000964,-0.00000316,0.000004
 28,0.00000117,0.00000289,0.00000178,-0.00000421,0.00000475,-0.00000169
 ,0.00001633,0.00001679,-0.00000691,0.00005734,0.00000151,0.00000513,-0
 .00008781,0.00012920,-0.00075712,-0.00001673,-0.00009911,-0.00007702,-
 0.00043107,0.00017185,0.00004104,-0.00188701,0.00196758,-0.00013274,0.
 03944354,0.39390537,0.00077454,0.00102193,0.00028392,-0.00194565,-0.00
 043377,-0.00030030,0.00091434,-0.00023272,0.00003640,-0.00024462,-0.00
 008989,-0.00019992,-0.00014201,0.00007188,-0.00019261,0.00014560,-0.00
 004500,0.00014675,0.00011099,-0.00004340,0.00008695,0.00000585,-0.0000
 2364,0.00012069,-0.00001675,0.00009020,0.00005950,0.00000293,-0.000017
 30,0.00001332,-0.00000553,0.00000309,-0.00016529,-0.00002668,-0.000023
 86,0.00014242,0.00015486,-0.00003354,-0.00017788,0.00197630,-0.0023715
 6,0.00184381,-0.00686596,-0.01945743,-0.01152496,-0.00727750,-0.090658
 71,-0.04756065,-0.00014319,0.00012553,0.00005053,-0.00000904,0.0000369
 6,0.00000824,-0.00002459,0.00000954,-0.00001093,0.00005072,0.00002126,
 -0.00004285,-0.00000070,-0.00000517,-0.00001202,0.00001188,-0.00000559
 ,0.00000562,-0.00000327,0.00000256,0.00000964,-0.00019915,-0.00008191,
 0.00012922,-0.00036983,0.00085546,-0.00046363,0.00002731,0.00008394,-0
 .00029070,0.00060670,0.00089181,0.00070492,-0.00239417,0.00073925,-0.0
 0008740,0.01698853,0.13168568,0.06710785,0.00034304,0.00024689,0.00002
 576,-0.00029480,-0.00061551,0.00010933,0.00059816,-0.00005751,0.000071
 24,-0.00005911,-0.00009216,-0.00003376,-0.00002494,0.00002509,-0.00005
 591,0.00004621,-0.00001874,0.00004728,0.00003449,-0.00000778,0.0000266
 4,-0.00000004,-0.00002413,0.00005906,0.00001164,0.00000167,0.00004069,
 0.00001374,-0.00001371,-0.00001290,-0.00001910,-0.00002028,-0.00006055
 ,-0.00002251,0.00004762,0.00001312,-0.00000713,-0.00004565,-0.00005657
 ,0.00212539,0.00038756,0.00112469,-0.02912479,0.00700151,0.02180029,-0
 .27931642,0.07303663,0.15388939,-0.00004487,0.00002133,0.00004430,-0.0
 0001179,0.00001058,0.00000233,-0.00000665,0.00000300,-0.00000017,0.000
 01694,0.00001145,-0.00002416,0.00000292,0.00000119,-0.00000598,0.00000
 151,0.00000186,0.00000161,0.00000968,0.00001831,0.00000582,-0.00006550
 ,-0.00000759,0.00010036,0.00000280,0.00007088,-0.00016436,0.00015407,0
 .00057881,-0.00131048,-0.00431796,-0.00166765,-0.00475355,0.00077901,-
 0.00047427,0.00018729,0.00448171,-0.00380758,-0.00210191,0.30469431,-0
 .00034241,-0.00062072,-0.00025442,0.00074248,0.00076560,0.00052307,-0.
 00052477,-0.00006520,-0.00013349,0.00012786,0.00009794,0.00008727,0.00
 010033,-0.00005366,0.00014072,-0.00010630,0.00003038,-0.00011679,-0.00
 007717,0.00002282,-0.00006395,0.00000532,0.00001077,-0.00004955,0.0000
 0698,-0.00006388,-0.00001217,0.00000643,-0.00001960,-0.00001630,-0.000
 01336,-0.00004641,0.00005443,-0.00001763,0.00009673,-0.00007003,-0.000
 10928,-0.00002107,0.00006580,-0.00029671,-0.00021379,-0.00182177,-0.00
 082760,0.00106794,0.00675027,0.04604167,-0.05848916,-0.05972152,0.0000
 6472,-0.00008488,-0.00001331,0.00000536,-0.00001376,-0.00000196,0.0000
 1586,-0.00000373,0.00001195,-0.00002996,-0.00000965,0.00001634,0.00000
 302,0.00000025,0.00000936,0.00000522,0.00000319,0.00000027,-0.00000314
 ,0.00000503,0.00000317,0.00010980,0.00009255,-0.00003251,0.00014542,-0
 .00019095,0.00004752,0.00014773,0.00016367,0.00037241,-0.00247386,0.00
 100667,-0.00084351,-0.00065023,0.00000255,0.00044901,0.03255609,-0.010
 94798,-0.02211560,-0.07461185,0.06747833,0.00042107,0.00030366,0.00014
 486,-0.00082556,-0.00035840,-0.00050696,0.00051486,-0.00006735,0.00006
 232,-0.00011661,-0.00009305,-0.00003333,-0.00007695,0.00006873,-0.0001
 2434,0.00009001,-0.00003347,0.00009893,0.00005908,-0.00003701,0.000060
 19,-0.00000583,-0.00001653,0.00004142,0.00000051,0.00003633,0.00001876
 ,0.00000379,0.00001141,0.00000423,0.00001609,0.00002017,-0.00004677,0.
 00000646,-0.00003659,0.00004547,0.00006130,-0.00000129,-0.00006066,-0.
 00139381,0.00007554,0.00261091,-0.02254152,0.00881875,0.00713973,0.184
 43632,-0.08824697,-0.15858258,-0.00004896,0.00005845,0.00000501,-0.000
 01197,0.00001289,0.00000063,-0.00001412,0.00000533,-0.00001034,0.00002
 279,0.00001022,-0.00001362,-0.00000144,-0.00000018,-0.00001015,-0.0000
 0718,-0.00000324,-0.00000138,-0.00000067,-0.00000277,0.00000142,-0.000
 10161,-0.00005326,0.00005775,0.00011568,-0.00000279,-0.00010219,0.0004
 7153,-0.00024288,-0.00045293,-0.00310917,0.00007027,-0.00053016,0.0008
 8451,-0.00001534,0.00047260,0.01012034,0.00298408,-0.00972065,-0.16896
 893,0.07673528,0.15943184\\-0.00000199,-0.00000215,0.00000161,-0.00000
 023,-0.00000025,-0.00000096,-0.00000032,0.00000013,0.00000273,0.000002
 84,0.00000056,0.00000030,0.00000131,-0.00000005,-0.00000057,0.00000057
 ,-0.00000077,-0.00000101,0.00000078,-0.00000073,-0.00000120,-0.0000007
 1,-0.00000052,0.00000042,-0.00000083,0.00000085,0.00000091,-0.00000011
 ,0.00000076,-0.00000059,-0.00000103,0.00000163,0.00000006,0.00000016,0
 .00000038,0.00000108,0.00000043,-0.00000017,-0.00000250,-0.00000111,0.
 00000111,-0.00000059,-0.00000253,-0.00000021,0.00000135,-0.00000052,0.
 00000013,-0.00000021,0.00000066,-0.00000125,-0.00000210,0.00000102,-0.
 00000079,-0.00000030,0.00000090,-0.00000070,-0.00000122,0.00000043,-0.
 00000046,-0.00000023,-0.00000021,0.00000018,-0.00000117,-0.00000037,0.
 00000115,-0.00000056,-0.00000084,0.00000059,0.00000075,0.00000062,0.00
 000073,0.00000008,0.00000150,-0.00000030,0.00000108,0.00000027,-0.0000
 0043,0.00000080,-0.00000039,0.00000105,-0.00000025,0.00000040,-0.00000
 052,0.00000070,-0.00000046,0.00000017,0.00000059,-0.00000025,-0.000000
 14,0.00000099\\\@


 FOR THE NATURE OF THE CHEMICAL BOND
 IS THE PROBLEM AT THE HEART OF ALL CHEMISTRY.

                     -- BRYCE CRAWFORD, JR., 1953
 Job cpu time:       0 days  2 hours 14 minutes 41.8 seconds.
 File lengths (MBytes):  RWF=    415 Int=      0 D2E=      0 Chk=     13 Scr=      1
 Normal termination of Gaussian 09 at Sat Jul 24 02:08:40 2021.
