 Entering Gaussian System, Link 0=g09
 Input=opt_freq-conf-422.com
 Output=opt_freq-conf-422.log
 Initial command:
 /aerosol/software/g09/l1.exe "/scratch/nicole/10398/Gau-72637.inp" -scrdir="/scratch/nicole/10398/"
 Entering Link 1 = /aerosol/software/g09/l1.exe PID=     72644.
  
 Copyright (c) 1988,1990,1992,1993,1995,1998,2003,2009,2013,
            Gaussian, Inc.  All Rights Reserved.
  
 This is part of the Gaussian(R) 09 program.  It is based on
 the Gaussian(R) 03 system (copyright 2003, Gaussian, Inc.),
 the Gaussian(R) 98 system (copyright 1998, Gaussian, Inc.),
 the Gaussian(R) 94 system (copyright 1995, Gaussian, Inc.),
 the Gaussian 92(TM) system (copyright 1992, Gaussian, Inc.),
 the Gaussian 90(TM) system (copyright 1990, Gaussian, Inc.),
 the Gaussian 88(TM) system (copyright 1988, Gaussian, Inc.),
 the Gaussian 86(TM) system (copyright 1986, Carnegie Mellon
 University), and the Gaussian 82(TM) system (copyright 1983,
 Carnegie Mellon University). Gaussian is a federally registered
 trademark of Gaussian, Inc.
  
 This software contains proprietary and confidential information,
 including trade secrets, belonging to Gaussian, Inc.
  
 This software is provided under written license and may be
 used, copied, transmitted, or stored only in accord with that
 written license.
  
 The following legend is applicable only to US Government
 contracts under FAR:
  
                    RESTRICTED RIGHTS LEGEND
  
 Use, reproduction and disclosure by the US Government is
 subject to restrictions as set forth in subparagraphs (a)
 and (c) of the Commercial Computer Software - Restricted
 Rights clause in FAR 52.227-19.
  
 Gaussian, Inc.
 340 Quinnipiac St., Bldg. 40, Wallingford CT 06492
  
  
 ---------------------------------------------------------------
 Warning -- This program may not be used in any manner that
 competes with the business of Gaussian, Inc. or will provide
 assistance to any competitor of Gaussian, Inc.  The licensee
 of this program is prohibited from giving any competitor of
 Gaussian, Inc. access to this program.  By using this program,
 the user acknowledges that Gaussian, Inc. is engaged in the
 business of creating and licensing software in the field of
 computational chemistry and represents and warrants to the
 licensee that it is not a competitor of Gaussian, Inc. and that
 it will not use this program in any manner prohibited above.
 ---------------------------------------------------------------
  

 Cite this work as:
 Gaussian 09, Revision D.01,
 M. J. Frisch, G. W. Trucks, H. B. Schlegel, G. E. Scuseria, 
 M. A. Robb, J. R. Cheeseman, G. Scalmani, V. Barone, B. Mennucci, 
 G. A. Petersson, H. Nakatsuji, M. Caricato, X. Li, H. P. Hratchian, 
 A. F. Izmaylov, J. Bloino, G. Zheng, J. L. Sonnenberg, M. Hada, 
 M. Ehara, K. Toyota, R. Fukuda, J. Hasegawa, M. Ishida, T. Nakajima, 
 Y. Honda, O. Kitao, H. Nakai, T. Vreven, J. A. Montgomery, Jr., 
 J. E. Peralta, F. Ogliaro, M. Bearpark, J. J. Heyd, E. Brothers, 
 K. N. Kudin, V. N. Staroverov, T. Keith, R. Kobayashi, J. Normand, 
 K. Raghavachari, A. Rendell, J. C. Burant, S. S. Iyengar, J. Tomasi, 
 M. Cossi, N. Rega, J. M. Millam, M. Klene, J. E. Knox, J. B. Cross, 
 V. Bakken, C. Adamo, J. Jaramillo, R. Gomperts, R. E. Stratmann, 
 O. Yazyev, A. J. Austin, R. Cammi, C. Pomelli, J. W. Ochterski, 
 R. L. Martin, K. Morokuma, V. G. Zakrzewski, G. A. Voth, 
 P. Salvador, J. J. Dannenberg, S. Dapprich, A. D. Daniels, 
 O. Farkas, J. B. Foresman, J. V. Ortiz, J. Cioslowski, 
 and D. J. Fox, Gaussian, Inc., Wallingford CT, 2013.
 
 ******************************************
 Gaussian 09:  ES64L-G09RevD.01 24-Apr-2013
                24-Jul-2021 
 ******************************************
 %mem=2gb
 %nproc=4
 Will use up to    4 processors via shared memory.
 %chk=conf-422.chk
 ----------------------------------------------------------------------
 # B3LYP/6-311G(d,p) EmpiricalDispersion=GD3BJ opt=calcfc freq=noraman 
 nosymm integral(ultrafinegrid)
 ----------------------------------------------------------------------
 1/10=4,14=-1,18=20,19=15,26=4,38=1/1,3;
 2/9=110,12=2,15=1,17=6,18=5,40=1/2;
 3/5=4,6=6,7=101,11=2,16=1,25=1,30=1,71=2,74=-5,75=-5,124=41,140=1/1,2,3;
 4//1;
 5/5=2,38=5/2;
 8/6=4,10=90,11=11/1;
 11/6=1,8=1,9=11,15=111,16=1,31=1/1,2,10;
 10/6=1,13=1,31=1/2;
 6/7=2,8=2,9=2,10=2,28=1/1;
 7/10=1,18=20,25=1,30=1/1,2,3,16;
 1/10=4,14=-1,18=20,19=15,26=4/3(2);
 2/9=110,15=1/2;
 99//99;
 2/9=110,15=1/2;
 3/5=4,6=6,7=101,11=2,16=1,25=1,30=1,71=1,74=-5,75=-5,124=41/1,2,3;
 4/5=5,16=3,69=1/1;
 5/5=2,38=5/2;
 7/30=1/1,2,3,16;
 1/14=-1,18=20,19=15,26=4/3(-5);
 2/9=110,15=1/2;
 6/7=2,8=2,9=2,10=2,19=2,28=1/1;
 99/9=1/99;
 ------------------------------------------------------------
 Candidate Structure: Conf:422 OPT and FREQ calc in gas phase
 ------------------------------------------------------------
 Symbolic Z-matrix:
 Charge =  0 Multiplicity = 1
 O                     0.78587   0.73522   1.52987 
 C                     1.13924   0.16266   0.50415 
 N                     0.30312  -0.6476   -0.20788 
 C                    -0.93596  -1.13451   0.35649 
 C                    -0.81707  -2.6235    0.61379 
 O                    -1.7968   -3.06349   1.42956 
 O                     0.01444  -3.34827   0.13314 
 C                    -2.14447  -0.88748  -0.55894 
 C                    -2.4521    0.57028  -0.73406 
 C                    -1.92298   1.70746  -0.19576 
 N                    -2.57575   2.83084  -0.66942 
 C                    -3.49191   2.37231  -1.48728 
 N                    -3.46244   1.01624  -1.56355 
 C                     2.50615   0.36515  -0.11942 
 C                     3.56376   0.75402   0.90212 
 N                     4.8435    0.9524    0.2166 
 H                     0.71291  -1.23242  -0.92015 
 H                    -1.09373  -0.61786   1.30258 
 H                    -1.66124  -4.01486   1.51849 
 H                    -3.01463  -1.38629  -0.12674 
 H                    -1.97303  -1.34889  -1.5332 
 H                    -1.09974   1.7603    0.50126 
 H                    -4.19675   2.96499  -2.04443 
 H                    -4.06566   0.4341   -2.11923 
 H                     2.80637  -0.54103  -0.65153 
 H                     2.42751   1.16022  -0.8652 
 H                     3.59987  -0.00614   1.69242 
 H                     3.26508   1.69306   1.37245 
 H                     5.20434   0.0605   -0.10256 
 H                     5.53209   1.31249   0.86643 
 

 GradGradGradGradGradGradGradGradGradGradGradGradGradGradGradGradGradGrad
 Berny optimization.
 Initialization pass.
                           ----------------------------
                           !    Initial Parameters    !
                           ! (Angstroms and Degrees)  !
 --------------------------                            --------------------------
 ! Name  Definition              Value          Derivative Info.                !
 --------------------------------------------------------------------------------
 ! R1    R(1,2)                  1.2267         calculate D2E/DX2 analytically  !
 ! R2    R(2,3)                  1.3648         calculate D2E/DX2 analytically  !
 ! R3    R(2,14)                 1.516          calculate D2E/DX2 analytically  !
 ! R4    R(3,4)                  1.446          calculate D2E/DX2 analytically  !
 ! R5    R(3,17)                 1.0086         calculate D2E/DX2 analytically  !
 ! R6    R(4,5)                  1.5157         calculate D2E/DX2 analytically  !
 ! R7    R(4,8)                  1.5361         calculate D2E/DX2 analytically  !
 ! R8    R(4,18)                 1.0894         calculate D2E/DX2 analytically  !
 ! R9    R(5,6)                  1.3487         calculate D2E/DX2 analytically  !
 ! R10   R(5,7)                  1.2032         calculate D2E/DX2 analytically  !
 ! R11   R(6,19)                 0.9651         calculate D2E/DX2 analytically  !
 ! R12   R(8,9)                  1.5001         calculate D2E/DX2 analytically  !
 ! R13   R(8,20)                 1.0921         calculate D2E/DX2 analytically  !
 ! R14   R(8,21)                 1.0915         calculate D2E/DX2 analytically  !
 ! R15   R(9,10)                 1.3649         calculate D2E/DX2 analytically  !
 ! R16   R(9,13)                 1.3812         calculate D2E/DX2 analytically  !
 ! R17   R(10,11)                1.3829         calculate D2E/DX2 analytically  !
 ! R18   R(10,22)                1.08           calculate D2E/DX2 analytically  !
 ! R19   R(11,12)                1.3109         calculate D2E/DX2 analytically  !
 ! R20   R(12,13)                1.3585         calculate D2E/DX2 analytically  !
 ! R21   R(12,23)                1.0763         calculate D2E/DX2 analytically  !
 ! R22   R(13,24)                1.0058         calculate D2E/DX2 analytically  !
 ! R23   R(14,15)                1.521          calculate D2E/DX2 analytically  !
 ! R24   R(14,25)                1.0929         calculate D2E/DX2 analytically  !
 ! R25   R(14,26)                1.0929         calculate D2E/DX2 analytically  !
 ! R26   R(15,16)                1.4653         calculate D2E/DX2 analytically  !
 ! R27   R(15,27)                1.0971         calculate D2E/DX2 analytically  !
 ! R28   R(15,28)                1.0919         calculate D2E/DX2 analytically  !
 ! R29   R(16,29)                1.0137         calculate D2E/DX2 analytically  !
 ! R30   R(16,30)                1.013          calculate D2E/DX2 analytically  !
 ! A1    A(1,2,3)              122.4707         calculate D2E/DX2 analytically  !
 ! A2    A(1,2,14)             122.7738         calculate D2E/DX2 analytically  !
 ! A3    A(3,2,14)             114.6511         calculate D2E/DX2 analytically  !
 ! A4    A(2,3,4)              121.4169         calculate D2E/DX2 analytically  !
 ! A5    A(2,3,17)             117.6301         calculate D2E/DX2 analytically  !
 ! A6    A(4,3,17)             115.3752         calculate D2E/DX2 analytically  !
 ! A7    A(3,4,5)              109.2586         calculate D2E/DX2 analytically  !
 ! A8    A(3,4,8)              112.7937         calculate D2E/DX2 analytically  !
 ! A9    A(3,4,18)             107.659          calculate D2E/DX2 analytically  !
 ! A10   A(5,4,8)              108.7149         calculate D2E/DX2 analytically  !
 ! A11   A(5,4,18)             109.2572         calculate D2E/DX2 analytically  !
 ! A12   A(8,4,18)             109.1064         calculate D2E/DX2 analytically  !
 ! A13   A(4,5,6)              111.4804         calculate D2E/DX2 analytically  !
 ! A14   A(4,5,7)              125.3192         calculate D2E/DX2 analytically  !
 ! A15   A(6,5,7)              123.1704         calculate D2E/DX2 analytically  !
 ! A16   A(5,6,19)             105.9801         calculate D2E/DX2 analytically  !
 ! A17   A(4,8,9)              112.7792         calculate D2E/DX2 analytically  !
 ! A18   A(4,8,20)             108.5143         calculate D2E/DX2 analytically  !
 ! A19   A(4,8,21)             109.8992         calculate D2E/DX2 analytically  !
 ! A20   A(9,8,20)             109.065          calculate D2E/DX2 analytically  !
 ! A21   A(9,8,21)             109.8033         calculate D2E/DX2 analytically  !
 ! A22   A(20,8,21)            106.5766         calculate D2E/DX2 analytically  !
 ! A23   A(8,9,10)             133.1654         calculate D2E/DX2 analytically  !
 ! A24   A(8,9,13)             122.2672         calculate D2E/DX2 analytically  !
 ! A25   A(10,9,13)            104.5614         calculate D2E/DX2 analytically  !
 ! A26   A(9,10,11)            111.0225         calculate D2E/DX2 analytically  !
 ! A27   A(9,10,22)            126.2145         calculate D2E/DX2 analytically  !
 ! A28   A(11,10,22)           122.7606         calculate D2E/DX2 analytically  !
 ! A29   A(10,11,12)           105.0368         calculate D2E/DX2 analytically  !
 ! A30   A(11,12,13)           111.6547         calculate D2E/DX2 analytically  !
 ! A31   A(11,12,23)           126.0151         calculate D2E/DX2 analytically  !
 ! A32   A(13,12,23)           122.3301         calculate D2E/DX2 analytically  !
 ! A33   A(9,13,12)            107.7245         calculate D2E/DX2 analytically  !
 ! A34   A(9,13,24)            125.7077         calculate D2E/DX2 analytically  !
 ! A35   A(12,13,24)           126.5676         calculate D2E/DX2 analytically  !
 ! A36   A(2,14,15)            112.635          calculate D2E/DX2 analytically  !
 ! A37   A(2,14,25)            109.7065         calculate D2E/DX2 analytically  !
 ! A38   A(2,14,26)            108.2383         calculate D2E/DX2 analytically  !
 ! A39   A(15,14,25)           110.3638         calculate D2E/DX2 analytically  !
 ! A40   A(15,14,26)           108.8048         calculate D2E/DX2 analytically  !
 ! A41   A(25,14,26)           106.9003         calculate D2E/DX2 analytically  !
 ! A42   A(14,15,16)           109.1295         calculate D2E/DX2 analytically  !
 ! A43   A(14,15,27)           109.2413         calculate D2E/DX2 analytically  !
 ! A44   A(14,15,28)           108.6012         calculate D2E/DX2 analytically  !
 ! A45   A(16,15,27)           113.7074         calculate D2E/DX2 analytically  !
 ! A46   A(16,15,28)           108.9045         calculate D2E/DX2 analytically  !
 ! A47   A(27,15,28)           107.1327         calculate D2E/DX2 analytically  !
 ! A48   A(15,16,29)           109.8205         calculate D2E/DX2 analytically  !
 ! A49   A(15,16,30)           109.9805         calculate D2E/DX2 analytically  !
 ! A50   A(29,16,30)           105.8294         calculate D2E/DX2 analytically  !
 ! D1    D(1,2,3,4)            -14.8681         calculate D2E/DX2 analytically  !
 ! D2    D(1,2,3,17)          -167.3086         calculate D2E/DX2 analytically  !
 ! D3    D(14,2,3,4)           168.753          calculate D2E/DX2 analytically  !
 ! D4    D(14,2,3,17)           16.3125         calculate D2E/DX2 analytically  !
 ! D5    D(1,2,14,15)           27.4052         calculate D2E/DX2 analytically  !
 ! D6    D(1,2,14,25)          150.7604         calculate D2E/DX2 analytically  !
 ! D7    D(1,2,14,26)          -92.9343         calculate D2E/DX2 analytically  !
 ! D8    D(3,2,14,15)         -156.2282         calculate D2E/DX2 analytically  !
 ! D9    D(3,2,14,25)          -32.8731         calculate D2E/DX2 analytically  !
 ! D10   D(3,2,14,26)           83.4323         calculate D2E/DX2 analytically  !
 ! D11   D(2,3,4,5)           -109.934          calculate D2E/DX2 analytically  !
 ! D12   D(2,3,4,8)            129.0356         calculate D2E/DX2 analytically  !
 ! D13   D(2,3,4,18)             8.6119         calculate D2E/DX2 analytically  !
 ! D14   D(17,3,4,5)            43.0861         calculate D2E/DX2 analytically  !
 ! D15   D(17,3,4,8)           -77.9442         calculate D2E/DX2 analytically  !
 ! D16   D(17,3,4,18)          161.6321         calculate D2E/DX2 analytically  !
 ! D17   D(3,4,5,6)            164.7753         calculate D2E/DX2 analytically  !
 ! D18   D(3,4,5,7)            -17.1721         calculate D2E/DX2 analytically  !
 ! D19   D(8,4,5,6)            -71.7445         calculate D2E/DX2 analytically  !
 ! D20   D(8,4,5,7)            106.3081         calculate D2E/DX2 analytically  !
 ! D21   D(18,4,5,6)            47.2307         calculate D2E/DX2 analytically  !
 ! D22   D(18,4,5,7)          -134.7167         calculate D2E/DX2 analytically  !
 ! D23   D(3,4,8,9)            -65.9015         calculate D2E/DX2 analytically  !
 ! D24   D(3,4,8,20)           173.1523         calculate D2E/DX2 analytically  !
 ! D25   D(3,4,8,21)            56.9725         calculate D2E/DX2 analytically  !
 ! D26   D(5,4,8,9)            172.7591         calculate D2E/DX2 analytically  !
 ! D27   D(5,4,8,20)            51.8129         calculate D2E/DX2 analytically  !
 ! D28   D(5,4,8,21)           -64.3669         calculate D2E/DX2 analytically  !
 ! D29   D(18,4,8,9)            53.6893         calculate D2E/DX2 analytically  !
 ! D30   D(18,4,8,20)          -67.2569         calculate D2E/DX2 analytically  !
 ! D31   D(18,4,8,21)          176.5633         calculate D2E/DX2 analytically  !
 ! D32   D(4,5,6,19)           178.4285         calculate D2E/DX2 analytically  !
 ! D33   D(7,5,6,19)             0.3268         calculate D2E/DX2 analytically  !
 ! D34   D(4,8,9,10)            -3.9207         calculate D2E/DX2 analytically  !
 ! D35   D(4,8,9,13)           177.1137         calculate D2E/DX2 analytically  !
 ! D36   D(20,8,9,10)          116.711          calculate D2E/DX2 analytically  !
 ! D37   D(20,8,9,13)          -62.2546         calculate D2E/DX2 analytically  !
 ! D38   D(21,8,9,10)         -126.8482         calculate D2E/DX2 analytically  !
 ! D39   D(21,8,9,13)           54.1862         calculate D2E/DX2 analytically  !
 ! D40   D(8,9,10,11)         -179.1307         calculate D2E/DX2 analytically  !
 ! D41   D(8,9,10,22)            1.423          calculate D2E/DX2 analytically  !
 ! D42   D(13,9,10,11)          -0.0344         calculate D2E/DX2 analytically  !
 ! D43   D(13,9,10,22)        -179.4807         calculate D2E/DX2 analytically  !
 ! D44   D(8,9,13,12)          179.2645         calculate D2E/DX2 analytically  !
 ! D45   D(8,9,13,24)           -0.5735         calculate D2E/DX2 analytically  !
 ! D46   D(10,9,13,12)           0.044          calculate D2E/DX2 analytically  !
 ! D47   D(10,9,13,24)        -179.794          calculate D2E/DX2 analytically  !
 ! D48   D(9,10,11,12)           0.0111         calculate D2E/DX2 analytically  !
 ! D49   D(22,10,11,12)        179.4798         calculate D2E/DX2 analytically  !
 ! D50   D(10,11,12,13)          0.0182         calculate D2E/DX2 analytically  !
 ! D51   D(10,11,12,23)        179.9527         calculate D2E/DX2 analytically  !
 ! D52   D(11,12,13,9)          -0.0403         calculate D2E/DX2 analytically  !
 ! D53   D(11,12,13,24)        179.7959         calculate D2E/DX2 analytically  !
 ! D54   D(23,12,13,9)        -179.9776         calculate D2E/DX2 analytically  !
 ! D55   D(23,12,13,24)         -0.1414         calculate D2E/DX2 analytically  !
 ! D56   D(2,14,15,16)        -179.0201         calculate D2E/DX2 analytically  !
 ! D57   D(2,14,15,27)          56.1032         calculate D2E/DX2 analytically  !
 ! D58   D(2,14,15,28)         -60.4282         calculate D2E/DX2 analytically  !
 ! D59   D(25,14,15,16)         57.9915         calculate D2E/DX2 analytically  !
 ! D60   D(25,14,15,27)        -66.8853         calculate D2E/DX2 analytically  !
 ! D61   D(25,14,15,28)        176.5834         calculate D2E/DX2 analytically  !
 ! D62   D(26,14,15,16)        -59.007          calculate D2E/DX2 analytically  !
 ! D63   D(26,14,15,27)        176.1163         calculate D2E/DX2 analytically  !
 ! D64   D(26,14,15,28)         59.5849         calculate D2E/DX2 analytically  !
 ! D65   D(14,15,16,29)        -70.2728         calculate D2E/DX2 analytically  !
 ! D66   D(14,15,16,30)        173.651          calculate D2E/DX2 analytically  !
 ! D67   D(27,15,16,29)         51.9538         calculate D2E/DX2 analytically  !
 ! D68   D(27,15,16,30)        -64.1224         calculate D2E/DX2 analytically  !
 ! D69   D(28,15,16,29)        171.325          calculate D2E/DX2 analytically  !
 ! D70   D(28,15,16,30)         55.2488         calculate D2E/DX2 analytically  !
 --------------------------------------------------------------------------------
 Trust Radius=3.00D-01 FncErr=1.00D-07 GrdErr=1.00D-06
 Number of steps in this run=    160 maximum allowed number of steps=    180.
 GradGradGradGradGradGradGradGradGradGradGradGradGradGradGradGradGradGrad

                          Input orientation:                          
 ---------------------------------------------------------------------
 Center     Atomic      Atomic             Coordinates (Angstroms)
 Number     Number       Type             X           Y           Z
 ---------------------------------------------------------------------
      1          8           0        0.785871    0.735223    1.529867
      2          6           0        1.139240    0.162661    0.504155
      3          7           0        0.303118   -0.647601   -0.207881
      4          6           0       -0.935956   -1.134511    0.356493
      5          6           0       -0.817066   -2.623497    0.613794
      6          8           0       -1.796797   -3.063489    1.429557
      7          8           0        0.014438   -3.348268    0.133141
      8          6           0       -2.144474   -0.887478   -0.558942
      9          6           0       -2.452097    0.570279   -0.734056
     10          6           0       -1.922975    1.707460   -0.195764
     11          7           0       -2.575751    2.830835   -0.669422
     12          6           0       -3.491909    2.372307   -1.487278
     13          7           0       -3.462438    1.016238   -1.563554
     14          6           0        2.506147    0.365153   -0.119418
     15          6           0        3.563763    0.754017    0.902119
     16          7           0        4.843498    0.952401    0.216596
     17          1           0        0.712914   -1.232417   -0.920148
     18          1           0       -1.093734   -0.617860    1.302577
     19          1           0       -1.661238   -4.014865    1.518489
     20          1           0       -3.014626   -1.386288   -0.126735
     21          1           0       -1.973031   -1.348886   -1.533202
     22          1           0       -1.099736    1.760297    0.501259
     23          1           0       -4.196751    2.964992   -2.044427
     24          1           0       -4.065659    0.434098   -2.119228
     25          1           0        2.806372   -0.541031   -0.651533
     26          1           0        2.427514    1.160219   -0.865199
     27          1           0        3.599871   -0.006139    1.692423
     28          1           0        3.265084    1.693065    1.372450
     29          1           0        5.204337    0.060503   -0.102565
     30          1           0        5.532093    1.312491    0.866431
 ---------------------------------------------------------------------
                    Distance matrix (angstroms):
                    1          2          3          4          5
     1  O    0.000000
     2  C    1.226696   0.000000
     3  N    2.272667   1.364778   0.000000
     4  C    2.799535   2.451713   1.445995   0.000000
     5  C    3.832700   3.406146   2.415394   1.515724   0.000000
     6  O    4.594611   4.459230   3.595464   2.369277   1.348679
     7  O    4.384158   3.705327   2.737377   2.419474   1.203212
     8  C    3.947557   3.607734   2.484248   1.536086   2.480138
     9  C    3.954364   3.820605   3.057990   2.528693   3.832784
    10  C    3.355726   3.500493   3.240671   3.058757   4.542643
    11  N    4.530890   4.722033   4.538768   4.411961   5.872764
    12  C    5.484762   5.504170   5.015868   4.714887   6.043786
    13  N    5.262733   5.116587   4.334238   3.833460   4.998651
    14  C    2.411730   1.516008   2.426280   3.784648   4.529169
    15  C    2.848000   2.527131   3.718661   4.910368   5.539169
    16  N    4.270384   3.798408   4.832725   6.146288   6.707219
    17  H    3.143167   2.038782   1.008597   2.087623   2.574669
    18  H    2.327103   2.496571   2.057562   1.089449   2.138585
    19  H    5.343389   5.130621   4.263510   3.189468   1.861989
    20  H    4.657136   4.477931   3.399951   2.148900   2.628372
    21  H    4.619246   4.015199   2.725643   2.166201   2.751450
    22  H    2.379984   2.750539   2.875560   2.903049   4.394339
    23  H    6.524873   6.543786   6.055786   5.762215   7.051214
    24  H    6.078150   5.834962   4.889737   4.287746   5.231792
    25  H    3.235700   2.147120   2.544497   3.920887   4.366580
    26  H    2.934613   2.128356   2.865892   4.251029   5.199156
    27  H    2.914556   2.737732   3.858913   4.861240   5.246268
    28  H    2.662468   2.759580   4.092604   5.164890   5.989341
    29  H    4.758458   4.111393   4.953227   6.272319   6.631313
    30  H    4.827008   4.555273   5.686677   6.934228   7.474466
                    6          7          8          9         10
     6  O    0.000000
     7  O    2.245521   0.000000
     8  C    2.968170   3.345947   0.000000
     9  C    4.279593   4.710715   1.500118   0.000000
    10  C    5.041780   5.424217   2.629575   1.364884   0.000000
    11  N    6.305200   6.747925   3.744872   2.264858   1.382910
    12  C    6.397595   6.902551   3.647409   2.212658   2.138126
    13  N    5.327030   5.832354   2.523967   1.381208   2.172230
    14  C    5.715789   4.479050   4.836377   5.000405   4.628687
    15  C    6.602057   5.478848   6.116631   6.237099   5.676152
    16  N    7.854436   6.467034   7.267624   7.367188   6.820946
    17  H    3.895201   2.464571   2.900710   3.647141   4.014414
    18  H    2.547847   3.170292   2.154531   2.721158   2.887868
    19  H    0.965091   2.274078   3.785470   5.169426   5.979312
    20  H    2.591941   3.618305   1.092144   2.124484   3.281424
    21  H    3.427661   3.274791   1.091546   2.133386   3.336540
    22  H    4.961506   5.241595   3.037469   2.184268   1.079979
    23  H    7.360091   7.895135   4.610861   3.239682   3.188887
    24  H    5.474918   6.002220   2.805709   2.130922   3.148374
    25  H    5.646494   4.036234   4.963817   5.375251   5.256440
    26  H    6.399252   5.210189   5.018957   4.916892   4.435580
    27  H    6.208101   5.143589   6.232407   6.545714   6.083050
    28  H    6.946273   6.125163   6.297047   6.195496   5.419913
    29  H    7.818095   6.213721   7.423744   7.699327   7.315718
    30  H    8.554469   7.259814   8.111796   8.176780   7.540710
                   11         12         13         14         15
    11  N    0.000000
    12  C    1.310909   0.000000
    13  N    2.208721   1.358532   0.000000
    14  C    5.675190   6.471197   6.175229   0.000000
    15  C    6.669074   7.623031   7.450893   1.520955   0.000000
    16  N    7.704465   8.625447   8.494797   2.433305   1.465270
    17  H    5.233373   5.567424   4.785811   2.531617   3.923508
    18  H    4.240125   4.740848   4.061496   3.993436   4.871826
    19  H    7.244784   7.292596   6.168898   6.263737   7.100900
    20  H    4.274488   4.025657   2.834980   5.791937   6.993901
    21  H    4.310390   4.019500   2.795187   4.999975   6.403833
    22  H    2.166833   3.170383   3.224816   3.915873   4.787642
    23  H    2.129854   1.076333   2.137311   7.442692   8.590467
    24  H    3.172714   2.117830   1.005751   6.869689   8.212123
    25  H    6.351145   6.989589   6.523408   1.092909   2.159774
    26  H    5.278441   6.074184   5.932956   1.092933   2.139971
    27  H    7.194792   8.127783   7.843650   2.148687   1.097142
    28  H    6.291193   7.368607   7.371416   2.136588   1.091894
    29  H    8.278033   9.104206   8.840866   2.715386   2.044953
    30  H    8.390551   9.385935   9.321706   3.320497   2.046336
                   16         17         18         19         20
    16  N    0.000000
    17  H    4.809089   0.000000
    18  H    6.236649   2.929533   0.000000
    19  H    8.287354   4.396085   3.450843   0.000000
    20  H    8.205940   3.814149   2.514606   3.383465   0.000000
    21  H    7.404240   2.757480   3.057647   4.064169   1.750562
    22  H    6.004644   3.776563   2.509537   5.890886   3.736600
    23  H    9.533564   6.556451   5.802412   8.236601   4.899857
    24  H    9.224846   5.200944   4.652709   6.229566   2.896291
    25  H    2.670930   2.220976   4.362944   6.061028   5.905412
    26  H    2.655268   2.944075   4.501111   7.012942   6.053669
    27  H    2.154871   4.082132   4.749327   6.616601   6.997551
    28  H    2.091883   4.508660   4.934019   7.541249   7.152952
    29  H    1.013682   4.744783   6.488474   8.146936   8.345367
    30  H    1.012973   5.735234   6.915061   8.974961   9.017550
                   21         22         23         24         25
    21  H    0.000000
    22  H    3.816896   0.000000
    23  H    4.880147   4.186085   0.000000
    24  H    2.810970   4.174021   2.535391   0.000000
    25  H    4.926729   4.677897   7.954626   7.094350   0.000000
    26  H    5.109465   3.829985   6.966252   6.652904   1.755972
    27  H    6.577603   5.159988   9.142154   8.572213   2.531774
    28  H    6.718193   4.451420   8.304928   8.216848   3.049280
    29  H    7.453034   6.557075  10.029324   9.494173   2.532478
    30  H    8.316733   6.656954  10.288550  10.089726   3.628955
                   26         27         28         29         30
    26  H    0.000000
    27  H    3.045692   0.000000
    28  H    2.447963   1.761181   0.000000
    29  H    3.082488   2.408471   2.932854   0.000000
    30  H    3.558110   2.480832   2.353768   1.616741   0.000000
 Symmetry turned off by external request.
 Stoichiometry    C9H14N4O3
 Framework group  C1[X(C9H14N4O3)]
 Deg. of freedom    84
 Full point group                 C1      NOp   1
 Rotational constants (GHZ):      0.5777314      0.3337382      0.2304002
 Standard basis: 6-311G(d,p) (5D, 7F)
   372 basis functions,   624 primitive gaussians,   388 cartesian basis functions
    60 alpha electrons       60 beta electrons
       nuclear repulsion energy      1109.2545423011 Hartrees.
 NAtoms=   30 NActive=   30 NUniq=   30 SFac= 1.00D+00 NAtFMM=   60 NAOKFM=F Big=F
 Integral buffers will be    131072 words long.
 Raffenetti 2 integral format.
 Two-electron integral symmetry is turned off.
 Nuclear repulsion after empirical dispersion term =     1109.2013106689 Hartrees.
 One-electron integrals computed using PRISM.
 NBasis=   372 RedAO= T EigKep=  4.90D-04  NBF=   372
 NBsUse=   372 1.00D-06 EigRej= -1.00D+00 NBFU=   372
 ExpMin= 1.03D-01 ExpMax= 8.59D+03 ExpMxC= 1.30D+03 IAcc=3 IRadAn=         5 AccDes= 0.00D+00
 Harris functional with IExCor=  402 and IRadAn=       5 diagonalized for initial guess.
 HarFok:  IExCor=  402 AccDes= 0.00D+00 IRadAn=         5 IDoV= 1 UseB2=F ITyADJ=14
 ICtDFT=  3500011 ScaDFX=  1.000000  1.000000  1.000000  1.000000
 FoFCou: FMM=F IPFlag=           0 FMFlag=      100000 FMFlg1=           0
         NFxFlg=           0 DoJE=T BraDBF=F KetDBF=T FulRan=T
         wScrn=  0.000000 ICntrl=     500 IOpCl=  0 I1Cent=   200000004 NGrid=           0
         NMat0=    1 NMatS0=      1 NMatT0=    0 NMatD0=    1 NMtDS0=    0 NMtDT0=    0
 Symmetry not used in FoFCou.
 Requested convergence on RMS density matrix=1.00D-08 within 128 cycles.
 Requested convergence on MAX density matrix=1.00D-06.
 Requested convergence on             energy=1.00D-06.
 No special actions if energy rises.
 Integral accuracy reduced to 1.0D-05 until final iterations.
 Initial convergence to 1.0D-05 achieved.  Increase integral accuracy.
 SCF Done:  E(RB3LYP) =  -796.359583864     A.U. after   14 cycles
            NFock= 14  Conv=0.61D-08     -V/T= 2.0034
 DoSCS=F DFT=T ScalE2(SS,OS)=  1.000000  1.000000
 Range of M.O.s used for correlation:     1   372
 NBasis=   372 NAE=    60 NBE=    60 NFC=     0 NFV=     0
 NROrb=    372 NOA=    60 NOB=    60 NVA=   312 NVB=   312
 Symmetrizing basis deriv contribution to polar:
 IMax=3 JMax=2 DiffMx= 0.00D+00
 G2DrvN: will do    31 centers at a time, making    1 passes.
 Calling FoFCou, ICntrl=  3107 FMM=F I1Cent=   0 AccDes= 0.00D+00.
 End of G2Drv F.D. properties file   721 does not exist.
 End of G2Drv F.D. properties file   722 does not exist.
 End of G2Drv F.D. properties file   788 does not exist.
          IDoAtm=111111111111111111111111111111
          Differentiating once with respect to nuclear coordinates.
          There are    93 degrees of freedom in the 1st order CPHF.  IDoFFX=6 NUNeed=     0.
     87 vectors produced by pass  0 Test12= 2.01D-14 1.08D-09 XBig12= 1.75D-01 7.13D-02.
 AX will form    87 AO Fock derivatives at one time.
     87 vectors produced by pass  1 Test12= 2.01D-14 1.08D-09 XBig12= 2.36D-02 2.89D-02.
     87 vectors produced by pass  2 Test12= 2.01D-14 1.08D-09 XBig12= 2.23D-04 2.12D-03.
     87 vectors produced by pass  3 Test12= 2.01D-14 1.08D-09 XBig12= 9.29D-07 1.20D-04.
     87 vectors produced by pass  4 Test12= 2.01D-14 1.08D-09 XBig12= 1.68D-09 5.04D-06.
     80 vectors produced by pass  5 Test12= 2.01D-14 1.08D-09 XBig12= 2.30D-12 1.72D-07.
     24 vectors produced by pass  6 Test12= 2.01D-14 1.08D-09 XBig12= 2.33D-15 5.81D-09.
 InvSVY:  IOpt=1 It=  1 EMax= 6.11D-16
 Solved reduced A of dimension   539 with    93 vectors.
 End of Minotr F.D. properties file   721 does not exist.
 End of Minotr F.D. properties file   722 does not exist.
 End of Minotr F.D. properties file   788 does not exist.

 **********************************************************************

            Population analysis using the SCF density.

 **********************************************************************

 Alpha  occ. eigenvalues --  -19.18872 -19.13375 -19.08925 -14.36470 -14.34424
 Alpha  occ. eigenvalues --  -14.28593 -14.28072 -10.32436 -10.27635 -10.24106
 Alpha  occ. eigenvalues --  -10.21656 -10.20553 -10.20190 -10.19091 -10.17799
 Alpha  occ. eigenvalues --  -10.16865  -1.13716  -1.04937  -1.04334  -1.01556
 Alpha  occ. eigenvalues --   -0.94265  -0.88432  -0.86853  -0.81942  -0.76541
 Alpha  occ. eigenvalues --   -0.74339  -0.68723  -0.65193  -0.61565  -0.61078
 Alpha  occ. eigenvalues --   -0.59733  -0.58392  -0.54979  -0.52655  -0.51623
 Alpha  occ. eigenvalues --   -0.50555  -0.48969  -0.48772  -0.48078  -0.45719
 Alpha  occ. eigenvalues --   -0.45267  -0.44244  -0.43614  -0.42507  -0.41982
 Alpha  occ. eigenvalues --   -0.41097  -0.40372  -0.39892  -0.38929  -0.38446
 Alpha  occ. eigenvalues --   -0.36060  -0.34927  -0.34862  -0.30781  -0.27931
 Alpha  occ. eigenvalues --   -0.27548  -0.26371  -0.26097  -0.24093  -0.22525
 Alpha virt. eigenvalues --   -0.01716   0.00679   0.02310   0.02426   0.03016
 Alpha virt. eigenvalues --    0.03665   0.04628   0.06690   0.06923   0.08471
 Alpha virt. eigenvalues --    0.09078   0.09362   0.10062   0.11021   0.11878
 Alpha virt. eigenvalues --    0.14683   0.15195   0.16162   0.16607   0.17330
 Alpha virt. eigenvalues --    0.19686   0.20639   0.21105   0.22054   0.23091
 Alpha virt. eigenvalues --    0.24383   0.25687   0.26736   0.27885   0.29273
 Alpha virt. eigenvalues --    0.30373   0.32663   0.33444   0.33811   0.34536
 Alpha virt. eigenvalues --    0.35547   0.36450   0.37268   0.37760   0.38254
 Alpha virt. eigenvalues --    0.39370   0.40397   0.41542   0.41986   0.42723
 Alpha virt. eigenvalues --    0.44678   0.44918   0.46214   0.47009   0.48012
 Alpha virt. eigenvalues --    0.48601   0.50342   0.52375   0.53047   0.54007
 Alpha virt. eigenvalues --    0.54642   0.54741   0.55364   0.56021   0.56803
 Alpha virt. eigenvalues --    0.57762   0.58534   0.59211   0.59311   0.60367
 Alpha virt. eigenvalues --    0.60883   0.61737   0.62093   0.62883   0.63462
 Alpha virt. eigenvalues --    0.64341   0.66128   0.66917   0.67696   0.68784
 Alpha virt. eigenvalues --    0.69152   0.70446   0.70822   0.71420   0.72682
 Alpha virt. eigenvalues --    0.74253   0.75954   0.76973   0.77506   0.78688
 Alpha virt. eigenvalues --    0.79851   0.80262   0.81139   0.82673   0.84067
 Alpha virt. eigenvalues --    0.85719   0.88690   0.89652   0.91976   0.93948
 Alpha virt. eigenvalues --    0.94192   0.95111   0.98813   0.98935   1.00100
 Alpha virt. eigenvalues --    1.03113   1.04127   1.05584   1.07906   1.08244
 Alpha virt. eigenvalues --    1.10144   1.10845   1.14448   1.14671   1.15863
 Alpha virt. eigenvalues --    1.17290   1.19321   1.23272   1.24012   1.25110
 Alpha virt. eigenvalues --    1.25918   1.28060   1.29664   1.31219   1.32118
 Alpha virt. eigenvalues --    1.34327   1.34689   1.36586   1.38437   1.39998
 Alpha virt. eigenvalues --    1.40522   1.41695   1.42518   1.44648   1.45133
 Alpha virt. eigenvalues --    1.48338   1.48755   1.50462   1.51976   1.52227
 Alpha virt. eigenvalues --    1.53153   1.55018   1.55242   1.56282   1.57201
 Alpha virt. eigenvalues --    1.58528   1.61348   1.62315   1.64187   1.64719
 Alpha virt. eigenvalues --    1.65608   1.66510   1.66846   1.67623   1.69843
 Alpha virt. eigenvalues --    1.70717   1.71532   1.72255   1.72727   1.73707
 Alpha virt. eigenvalues --    1.76054   1.77085   1.78517   1.79070   1.80970
 Alpha virt. eigenvalues --    1.82525   1.83101   1.84023   1.85618   1.87200
 Alpha virt. eigenvalues --    1.89061   1.91506   1.92473   1.93312   1.94808
 Alpha virt. eigenvalues --    1.97801   1.99318   2.00479   2.01351   2.04360
 Alpha virt. eigenvalues --    2.04941   2.06494   2.09309   2.09835   2.11840
 Alpha virt. eigenvalues --    2.14104   2.18161   2.20117   2.20874   2.22336
 Alpha virt. eigenvalues --    2.23714   2.24825   2.26228   2.27024   2.30554
 Alpha virt. eigenvalues --    2.33038   2.35428   2.37610   2.39015   2.41748
 Alpha virt. eigenvalues --    2.43207   2.45286   2.46041   2.47695   2.48482
 Alpha virt. eigenvalues --    2.49592   2.50682   2.52400   2.52769   2.53859
 Alpha virt. eigenvalues --    2.55511   2.56278   2.57507   2.58635   2.60392
 Alpha virt. eigenvalues --    2.61686   2.62323   2.62986   2.64162   2.66140
 Alpha virt. eigenvalues --    2.68077   2.69546   2.70907   2.72445   2.74541
 Alpha virt. eigenvalues --    2.75590   2.77038   2.78014   2.79742   2.81904
 Alpha virt. eigenvalues --    2.82574   2.83906   2.84911   2.85887   2.87395
 Alpha virt. eigenvalues --    2.89105   2.90048   2.90297   2.90721   2.93766
 Alpha virt. eigenvalues --    2.94426   2.94884   2.96409   2.99994   3.01854
 Alpha virt. eigenvalues --    3.02979   3.05066   3.07398   3.11932   3.12333
 Alpha virt. eigenvalues --    3.14064   3.15936   3.23496   3.24337   3.27627
 Alpha virt. eigenvalues --    3.33526   3.35243   3.36639   3.37966   3.46751
 Alpha virt. eigenvalues --    3.47187   3.52804   3.54720   3.57264   3.59396
 Alpha virt. eigenvalues --    3.66141   3.66422   3.67419   3.70346   3.76048
 Alpha virt. eigenvalues --    3.76929   3.78443   3.79303   3.81381   3.84597
 Alpha virt. eigenvalues --    3.85462   3.89387   3.93903   4.00770   4.04278
 Alpha virt. eigenvalues --    4.07572   4.16806   4.27581   4.33158   4.44024
 Alpha virt. eigenvalues --    4.72546   4.77594   4.78693   4.81748   4.85387
 Alpha virt. eigenvalues --    4.90884   4.92956   4.94140   4.97314   5.04243
 Alpha virt. eigenvalues --    5.13317   5.25317   5.25634   5.55022   5.67039
 Alpha virt. eigenvalues --    5.71613  23.71720  23.75733  23.78892  23.80268
 Alpha virt. eigenvalues --   23.84180  23.88007  23.88861  23.92942  24.15576
 Alpha virt. eigenvalues --   35.53014  35.57789  35.60152  35.69425  49.83611
 Alpha virt. eigenvalues --   49.97622  50.01461
          Condensed to atoms (all electrons):
               1          2          3          4          5          6
     1  O    7.912670   0.589045  -0.100128  -0.001834  -0.000582  -0.000003
     2  C    0.589045   4.607564   0.355560  -0.063733   0.002894  -0.000053
     3  N   -0.100128   0.355560   6.726115   0.239840  -0.042962   0.002451
     4  C   -0.001834  -0.063733   0.239840   5.287693   0.277978  -0.105777
     5  C   -0.000582   0.002894  -0.042962   0.277978   4.506522   0.348264
     6  O   -0.000003  -0.000053   0.002451  -0.105777   0.348264   7.826136
     7  O   -0.000004   0.002123  -0.003341  -0.095379   0.660550  -0.078712
     8  C   -0.000357   0.004925  -0.053174   0.339629  -0.059521   0.002223
     9  C   -0.001304   0.000821  -0.004565  -0.042160   0.001817  -0.000190
    10  C   -0.009589   0.001303   0.004164  -0.005643   0.000173  -0.000008
    11  N    0.000054  -0.000005  -0.000029  -0.000500  -0.000003   0.000000
    12  C   -0.000011  -0.000024   0.000072  -0.000268   0.000011   0.000000
    13  N   -0.000001  -0.000016  -0.000214   0.002578  -0.000097   0.000000
    14  C   -0.082907   0.236982  -0.077738   0.011466  -0.000766  -0.000002
    15  C    0.008685  -0.037108   0.003728  -0.000361   0.000048   0.000000
    16  N    0.000193   0.005098  -0.000013   0.000001   0.000000   0.000000
    17  H    0.003269  -0.025126   0.360289  -0.047507  -0.004445   0.000826
    18  H    0.030757  -0.013678  -0.039340   0.386871  -0.023626   0.006986
    19  H    0.000004  -0.000023  -0.000620   0.017984  -0.029822   0.300869
    20  H   -0.000059   0.000038   0.005868  -0.040548  -0.001638   0.011469
    21  H   -0.000022  -0.000975  -0.001581  -0.026088  -0.001808  -0.000564
    22  H    0.027472  -0.002609  -0.008536   0.004464  -0.000138  -0.000001
    23  H    0.000000   0.000000   0.000000   0.000012   0.000000   0.000000
    24  H    0.000000  -0.000002  -0.000015  -0.000071  -0.000015  -0.000003
    25  H    0.003427  -0.041865   0.003262  -0.000991   0.000191   0.000000
    26  H   -0.001015  -0.010581  -0.001732  -0.000364  -0.000011   0.000000
    27  H    0.001694   0.010959  -0.000008   0.000058   0.000008   0.000000
    28  H    0.013367  -0.009605   0.000988  -0.000011   0.000001   0.000000
    29  H    0.000015  -0.000772   0.000000   0.000000   0.000000   0.000000
    30  H    0.000027  -0.000766   0.000009  -0.000001   0.000000   0.000000
               7          8          9         10         11         12
     1  O   -0.000004  -0.000357  -0.001304  -0.009589   0.000054  -0.000011
     2  C    0.002123   0.004925   0.000821   0.001303  -0.000005  -0.000024
     3  N   -0.003341  -0.053174  -0.004565   0.004164  -0.000029   0.000072
     4  C   -0.095379   0.339629  -0.042160  -0.005643  -0.000500  -0.000268
     5  C    0.660550  -0.059521   0.001817   0.000173  -0.000003   0.000011
     6  O   -0.078712   0.002223  -0.000190  -0.000008   0.000000   0.000000
     7  O    7.814032  -0.001247  -0.000191  -0.000006   0.000000   0.000000
     8  C   -0.001247   4.921933   0.286430  -0.043688   0.011232   0.007126
     9  C   -0.000191   0.286430   5.097188   0.583407  -0.090365  -0.119123
    10  C   -0.000006  -0.043688   0.583407   4.870075   0.491126  -0.185136
    11  N    0.000000   0.011232  -0.090365   0.491126   6.430112   0.586508
    12  C    0.000000   0.007126  -0.119123  -0.185136   0.586508   4.755097
    13  N    0.000000  -0.039039   0.376212  -0.065373  -0.091456   0.412740
    14  C   -0.000356  -0.000572  -0.000195  -0.000509   0.000002  -0.000001
    15  C    0.000000   0.000000   0.000001   0.000019   0.000000   0.000000
    16  N    0.000000   0.000000   0.000000   0.000000   0.000000   0.000000
    17  H    0.020502  -0.001453  -0.000281   0.000430   0.000002  -0.000007
    18  H    0.002221  -0.031130  -0.008381   0.002062  -0.000046  -0.000163
    19  H    0.010866  -0.001232   0.000085   0.000003   0.000000   0.000000
    20  H    0.000110   0.400597  -0.034103  -0.000222  -0.000191   0.000398
    21  H    0.002311   0.385229  -0.043958   0.000188  -0.000221   0.000348
    22  H   -0.000006  -0.003125  -0.044363   0.406145  -0.017066   0.005846
    23  H    0.000000  -0.000365   0.004142   0.006691  -0.022972   0.414246
    24  H    0.000000   0.004798  -0.039705   0.006764   0.007282  -0.023793
    25  H    0.000183   0.000081  -0.000004  -0.000026   0.000000   0.000000
    26  H   -0.000007   0.000068   0.000132   0.000524  -0.000003  -0.000003
    27  H    0.000003   0.000002   0.000000   0.000004   0.000000   0.000000
    28  H    0.000000   0.000000   0.000001  -0.000024   0.000000   0.000000
    29  H    0.000000   0.000000   0.000000   0.000000   0.000000   0.000000
    30  H    0.000000   0.000000   0.000000   0.000000   0.000000   0.000000
              13         14         15         16         17         18
     1  O   -0.000001  -0.082907   0.008685   0.000193   0.003269   0.030757
     2  C   -0.000016   0.236982  -0.037108   0.005098  -0.025126  -0.013678
     3  N   -0.000214  -0.077738   0.003728  -0.000013   0.360289  -0.039340
     4  C    0.002578   0.011466  -0.000361   0.000001  -0.047507   0.386871
     5  C   -0.000097  -0.000766   0.000048   0.000000  -0.004445  -0.023626
     6  O    0.000000  -0.000002   0.000000   0.000000   0.000826   0.006986
     7  O    0.000000  -0.000356   0.000000   0.000000   0.020502   0.002221
     8  C   -0.039039  -0.000572   0.000000   0.000000  -0.001453  -0.031130
     9  C    0.376212  -0.000195   0.000001   0.000000  -0.000281  -0.008381
    10  C   -0.065373  -0.000509   0.000019   0.000000   0.000430   0.002062
    11  N   -0.091456   0.000002   0.000000   0.000000   0.000002  -0.000046
    12  C    0.412740  -0.000001   0.000000   0.000000  -0.000007  -0.000163
    13  N    6.463513   0.000000   0.000000   0.000000  -0.000026  -0.000017
    14  C    0.000000   5.235490   0.315497  -0.058070  -0.002337   0.003707
    15  C    0.000000   0.315497   4.812061   0.332738  -0.000048  -0.000112
    16  N    0.000000  -0.058070   0.332738   6.512156  -0.000049   0.000000
    17  H   -0.000026  -0.002337  -0.000048  -0.000049   0.459651   0.006813
    18  H   -0.000017   0.003707  -0.000112   0.000000   0.006813   0.489646
    19  H   -0.000001   0.000001   0.000000   0.000000  -0.000216  -0.001125
    20  H   -0.001279   0.000012   0.000000   0.000000  -0.000085  -0.005090
    21  H   -0.001102   0.000018   0.000002   0.000000   0.003407   0.008772
    22  H    0.004142   0.001134  -0.000121   0.000000  -0.000372  -0.000654
    23  H   -0.038370   0.000000   0.000000   0.000000   0.000000   0.000001
    24  H    0.351783   0.000000   0.000000   0.000000  -0.000001   0.000004
    25  H    0.000000   0.393002  -0.041643  -0.002602   0.001866  -0.000532
    26  H   -0.000002   0.364944  -0.023108   0.011718   0.000264  -0.000099
    27  H    0.000000  -0.071323   0.421114  -0.044145  -0.000045  -0.000006
    28  H    0.000000  -0.022265   0.395383  -0.029432  -0.000080  -0.000100
    29  H    0.000000  -0.005848  -0.046150   0.363133   0.000001   0.000000
    30  H    0.000000   0.010275  -0.043166   0.368755   0.000004   0.000000
              19         20         21         22         23         24
     1  O    0.000004  -0.000059  -0.000022   0.027472   0.000000   0.000000
     2  C   -0.000023   0.000038  -0.000975  -0.002609   0.000000  -0.000002
     3  N   -0.000620   0.005868  -0.001581  -0.008536   0.000000  -0.000015
     4  C    0.017984  -0.040548  -0.026088   0.004464   0.000012  -0.000071
     5  C   -0.029822  -0.001638  -0.001808  -0.000138   0.000000  -0.000015
     6  O    0.300869   0.011469  -0.000564  -0.000001   0.000000  -0.000003
     7  O    0.010866   0.000110   0.002311  -0.000006   0.000000   0.000000
     8  C   -0.001232   0.400597   0.385229  -0.003125  -0.000365   0.004798
     9  C    0.000085  -0.034103  -0.043958  -0.044363   0.004142  -0.039705
    10  C    0.000003  -0.000222   0.000188   0.406145   0.006691   0.006764
    11  N    0.000000  -0.000191  -0.000221  -0.017066  -0.022972   0.007282
    12  C    0.000000   0.000398   0.000348   0.005846   0.414246  -0.023793
    13  N   -0.000001  -0.001279  -0.001102   0.004142  -0.038370   0.351783
    14  C    0.000001   0.000012   0.000018   0.001134   0.000000   0.000000
    15  C    0.000000   0.000000   0.000002  -0.000121   0.000000   0.000000
    16  N    0.000000   0.000000   0.000000   0.000000   0.000000   0.000000
    17  H   -0.000216  -0.000085   0.003407  -0.000372   0.000000  -0.000001
    18  H   -0.001125  -0.005090   0.008772  -0.000654   0.000001   0.000004
    19  H    0.446769  -0.000226  -0.000173  -0.000003   0.000000   0.000000
    20  H   -0.000226   0.556725  -0.035090  -0.000249  -0.000001   0.000905
    21  H   -0.000173  -0.035090   0.591149  -0.000357  -0.000004   0.001134
    22  H   -0.000003  -0.000249  -0.000357   0.503500  -0.000301  -0.000346
    23  H    0.000000  -0.000001  -0.000004  -0.000301   0.533514  -0.002047
    24  H    0.000000   0.000905   0.001134  -0.000346  -0.002047   0.472253
    25  H   -0.000002   0.000000  -0.000025   0.000029   0.000000   0.000000
    26  H    0.000000   0.000000  -0.000027  -0.000395   0.000000   0.000000
    27  H    0.000000   0.000000   0.000000  -0.000017   0.000000   0.000000
    28  H    0.000000   0.000000   0.000000   0.000126   0.000000   0.000000
    29  H    0.000000   0.000000   0.000000   0.000000   0.000000   0.000000
    30  H    0.000000   0.000000   0.000000   0.000000   0.000000   0.000000
              25         26         27         28         29         30
     1  O    0.003427  -0.001015   0.001694   0.013367   0.000015   0.000027
     2  C   -0.041865  -0.010581   0.010959  -0.009605  -0.000772  -0.000766
     3  N    0.003262  -0.001732  -0.000008   0.000988   0.000000   0.000009
     4  C   -0.000991  -0.000364   0.000058  -0.000011   0.000000  -0.000001
     5  C    0.000191  -0.000011   0.000008   0.000001   0.000000   0.000000
     6  O    0.000000   0.000000   0.000000   0.000000   0.000000   0.000000
     7  O    0.000183  -0.000007   0.000003   0.000000   0.000000   0.000000
     8  C    0.000081   0.000068   0.000002   0.000000   0.000000   0.000000
     9  C   -0.000004   0.000132   0.000000   0.000001   0.000000   0.000000
    10  C   -0.000026   0.000524   0.000004  -0.000024   0.000000   0.000000
    11  N    0.000000  -0.000003   0.000000   0.000000   0.000000   0.000000
    12  C    0.000000  -0.000003   0.000000   0.000000   0.000000   0.000000
    13  N    0.000000  -0.000002   0.000000   0.000000   0.000000   0.000000
    14  C    0.393002   0.364944  -0.071323  -0.022265  -0.005848   0.010275
    15  C   -0.041643  -0.023108   0.421114   0.395383  -0.046150  -0.043166
    16  N   -0.002602   0.011718  -0.044145  -0.029432   0.363133   0.368755
    17  H    0.001866   0.000264  -0.000045  -0.000080   0.000001   0.000004
    18  H   -0.000532  -0.000099  -0.000006  -0.000100   0.000000   0.000000
    19  H   -0.000002   0.000000   0.000000   0.000000   0.000000   0.000000
    20  H    0.000000   0.000000   0.000000   0.000000   0.000000   0.000000
    21  H   -0.000025  -0.000027   0.000000   0.000000   0.000000   0.000000
    22  H    0.000029  -0.000395  -0.000017   0.000126   0.000000   0.000000
    23  H    0.000000   0.000000   0.000000   0.000000   0.000000   0.000000
    24  H    0.000000   0.000000   0.000000   0.000000   0.000000   0.000000
    25  H    0.604563  -0.029840  -0.009007   0.009449   0.006198  -0.000388
    26  H   -0.029840   0.538624   0.011472  -0.010874  -0.002264  -0.000144
    27  H   -0.009007   0.011472   0.634317  -0.041104  -0.009371  -0.002136
    28  H    0.009449  -0.010874  -0.041104   0.561320   0.009675  -0.008841
    29  H    0.006198  -0.002264  -0.009371   0.009675   0.544619  -0.040180
    30  H   -0.000388  -0.000144  -0.002136  -0.008841  -0.040180   0.525775
 Mulliken charges:
               1
     1  O   -0.392864
     2  C    0.389628
     3  N   -0.368348
     4  C   -0.137339
     5  C    0.366976
     6  O   -0.313913
     7  O   -0.333652
     8  C   -0.129374
     9  C    0.078653
    10  C   -0.062854
    11  N   -0.303460
    12  C    0.146136
    13  N   -0.373977
    14  C   -0.249641
    15  C   -0.097459
    16  N   -0.459482
    17  H    0.224755
    18  H    0.186257
    19  H    0.256862
    20  H    0.142658
    21  H    0.119433
    22  H    0.125802
    23  H    0.105454
    24  H    0.221075
    25  H    0.104671
    26  H    0.152723
    27  H    0.097530
    28  H    0.132026
    29  H    0.180944
    30  H    0.190779
 Sum of Mulliken charges =   0.00000
 Mulliken charges with hydrogens summed into heavy atoms:
               1
     1  O   -0.392864
     2  C    0.389628
     3  N   -0.143594
     4  C    0.048919
     5  C    0.366976
     6  O   -0.057051
     7  O   -0.333652
     8  C    0.132718
     9  C    0.078653
    10  C    0.062948
    11  N   -0.303460
    12  C    0.251590
    13  N   -0.152902
    14  C    0.007753
    15  C    0.132097
    16  N   -0.087759
 APT charges:
               1
     1  O   -0.176742
     2  C    0.060470
     3  N   -0.493258
     4  C   -0.373009
     5  C   -0.455017
     6  O   -0.671639
     7  O    0.170060
     8  C   -0.892470
     9  C   -0.074653
    10  C   -0.375836
    11  N   -0.108667
    12  C   -0.610101
    13  N   -0.719569
    14  C   -0.540469
    15  C   -0.517185
    16  N   -1.589690
    17  H    0.497315
    18  H    0.298795
    19  H    1.002537
    20  H    0.556760
    21  H    0.350524
    22  H   -0.024037
    23  H    1.077256
    24  H    0.862341
    25  H    0.313772
    26  H    0.312801
    27  H    0.312344
    28  H    0.300952
    29  H    0.501647
    30  H    1.004765
 Sum of APT charges =   0.00000
 APT charges with hydrogens summed into heavy atoms:
               1
     1  O   -0.176742
     2  C    0.060470
     3  N    0.004057
     4  C   -0.074214
     5  C   -0.455017
     6  O    0.330899
     7  O    0.170060
     8  C    0.014814
     9  C   -0.074653
    10  C   -0.399872
    11  N   -0.108667
    12  C    0.467155
    13  N    0.142772
    14  C    0.086104
    15  C    0.096112
    16  N   -0.083277
 Electronic spatial extent (au):  <R**2>=           4712.1520
 Charge=              0.0000 electrons
 Dipole moment (field-independent basis, Debye):
    X=             -1.4611    Y=             -5.4141    Z=             -2.2828  Tot=              6.0546
 Quadrupole moment (field-independent basis, Debye-Ang):
   XX=            -72.8833   YY=           -102.8555   ZZ=            -91.2230
   XY=              7.1582   XZ=             12.5588   YZ=             -3.6686
 Traceless Quadrupole moment (field-independent basis, Debye-Ang):
   XX=             16.1040   YY=            -13.8682   ZZ=             -2.2358
   XY=              7.1582   XZ=             12.5588   YZ=             -3.6686
 Octapole moment (field-independent basis, Debye-Ang**2):
  XXX=             78.4354  YYY=            -61.8083  ZZZ=            -17.6314  XYY=             18.5748
  XXY=            -22.9216  XXZ=            -20.4944  XZZ=              6.3755  YZZ=             -8.2259
  YYZ=             22.2735  XYZ=             21.5291
 Hexadecapole moment (field-independent basis, Debye-Ang**3):
 XXXX=          -3033.9226 YYYY=          -1851.7470 ZZZZ=           -558.3861 XXXY=            -35.0084
 XXXZ=             31.3406 YYYX=            248.5461 YYYZ=             94.1521 ZZZX=           -286.5650
 ZZZY=            179.4172 XXYY=           -918.8650 XXZZ=           -590.2835 YYZZ=           -352.1163
 XXYZ=             67.1526 YYXZ=           -106.2759 ZZXY=              0.3999
 N-N= 1.109201310669D+03 E-N=-4.080545985059D+03  KE= 7.936879126617D+02
  Exact polarizability:   0.000   0.000   0.000   0.000   0.000   0.000
 Approx polarizability: 186.875  -0.387 204.741  11.822  16.666 173.631
 Calling FoFJK, ICntrl=    100147 FMM=F ISym2X=0 I1Cent= 0 IOpClX= 0 NMat=1 NMatS=1 NMatT=0.
 -------------------------------------------------------------------
 Center     Atomic                   Forces (Hartrees/Bohr)
 Number     Number              X              Y              Z
 -------------------------------------------------------------------
      1        8           0.002885844   -0.005184494   -0.006063993
      2        6          -0.000981905    0.009176978    0.006795331
      3        7          -0.002076190   -0.004610988    0.000398950
      4        6           0.000148515    0.001896763   -0.003450576
      5        6          -0.001882765   -0.000909283    0.002624119
      6        8           0.000878159    0.002435359   -0.001043992
      7        8           0.001945342   -0.000589930   -0.001028513
      8        6          -0.006918972    0.008549950   -0.000172227
      9        6           0.001135169   -0.006546984   -0.000272957
     10        6           0.005897399    0.004579491    0.005045721
     11        7           0.001053128   -0.002037059    0.000745022
     12        6          -0.000037546    0.008024883    0.000802300
     13        7          -0.001906035   -0.008940354   -0.002965873
     14        6          -0.002077545    0.000189343    0.000663129
     15        6           0.001447438    0.001064096   -0.000074273
     16        7           0.000282352    0.001958431   -0.000474657
     17        1           0.000665928   -0.000598040   -0.000357260
     18        1           0.000984124    0.000221072    0.001007289
     19        1          -0.001047671   -0.004475973    0.001451531
     20        1          -0.000504967   -0.002348816    0.001532114
     21        1           0.002567711   -0.002624243   -0.002685871
     22        1          -0.001401606    0.003116891   -0.000011318
     23        1          -0.001416558    0.001319249   -0.001084534
     24        1          -0.001275068   -0.000428436   -0.001082087
     25        1           0.000974578   -0.001416988   -0.001285371
     26        1          -0.000051669    0.000579384   -0.001358838
     27        1          -0.000776451   -0.000828787    0.002063426
     28        1           0.000095223   -0.000977701    0.000333403
     29        1           0.000521815   -0.001980947   -0.001196030
     30        1           0.000872225    0.001387129    0.001146037
 -------------------------------------------------------------------
 Cartesian Forces:  Max     0.009176978 RMS     0.002959533
 FormGI is forming the generalized inverse of G from B-inverse, IUseBI=4.

 GradGradGradGradGradGradGradGradGradGradGradGradGradGradGradGradGradGrad
 Berny optimization.
 Internal  Forces:  Max     0.009063933 RMS     0.001817676
 Search for a local minimum.
 Step number   1 out of a maximum of  160
 All quantities printed in internal units (Hartrees-Bohrs-Radians)
 Mixed Optimization -- RFO/linear search
 Second derivative matrix not updated -- analytic derivatives used.
 ITU=  0
     Eigenvalues ---   -0.00015   0.00111   0.00186   0.00211   0.00254
     Eigenvalues ---    0.00367   0.00460   0.00569   0.00695   0.00900
     Eigenvalues ---    0.01563   0.02071   0.02090   0.02755   0.03200
     Eigenvalues ---    0.03397   0.03896   0.04073   0.04166   0.04355
     Eigenvalues ---    0.04457   0.04552   0.05114   0.05152   0.05266
     Eigenvalues ---    0.05481   0.05741   0.06241   0.07626   0.08059
     Eigenvalues ---    0.08217   0.10322   0.10744   0.11084   0.11739
     Eigenvalues ---    0.11808   0.12280   0.13476   0.15007   0.15300
     Eigenvalues ---    0.15680   0.16725   0.17891   0.18204   0.18644
     Eigenvalues ---    0.20188   0.21230   0.21819   0.22990   0.23291
     Eigenvalues ---    0.24255   0.24385   0.24708   0.26710   0.29526
     Eigenvalues ---    0.30010   0.31422   0.32851   0.32993   0.33286
     Eigenvalues ---    0.33730   0.33817   0.33922   0.34179   0.34273
     Eigenvalues ---    0.35232   0.36085   0.37016   0.37343   0.37600
     Eigenvalues ---    0.40312   0.41191   0.42796   0.44854   0.45203
     Eigenvalues ---    0.45322   0.46547   0.46971   0.48189   0.48698
     Eigenvalues ---    0.52702   0.59046   0.78638   0.88757
 RFO step:  Lambda=-2.49202365D-03 EMin=-1.46771611D-04
 Linear search not attempted -- first point.
 Iteration  1 RMS(Cart)=  0.18970221 RMS(Int)=  0.02594764
 Iteration  2 RMS(Cart)=  0.07152151 RMS(Int)=  0.00249771
 Iteration  3 RMS(Cart)=  0.00357798 RMS(Int)=  0.00013928
 Iteration  4 RMS(Cart)=  0.00000826 RMS(Int)=  0.00013923
 Iteration  5 RMS(Cart)=  0.00000000 RMS(Int)=  0.00013923
 Variable       Old X    -DE/DX   Delta X   Delta X   Delta X     New X
                                 (Linear)    (Quad)   (Total)
    R1        2.31812  -0.00832   0.00000  -0.01224  -0.01224   2.30588
    R2        2.57906   0.00460   0.00000   0.01045   0.01045   2.58951
    R3        2.86484   0.00123   0.00000   0.00515   0.00515   2.86999
    R4        2.73253   0.00088   0.00000  -0.00371  -0.00371   2.72883
    R5        1.90597   0.00087   0.00000   0.00167   0.00167   1.90764
    R6        2.86430   0.00381   0.00000   0.01200   0.01200   2.87630
    R7        2.90278   0.00273   0.00000   0.01391   0.01391   2.91669
    R8        2.05876   0.00084   0.00000   0.00355   0.00355   2.06231
    R9        2.54863   0.00104   0.00000  -0.00124  -0.00124   2.54739
   R10        2.27374   0.00211   0.00000   0.00216   0.00216   2.27590
   R11        1.82376   0.00440   0.00000   0.00758   0.00758   1.83134
   R12        2.83481  -0.00144   0.00000  -0.01120  -0.01120   2.82361
   R13        2.06385   0.00208   0.00000   0.00571   0.00571   2.06957
   R14        2.06272   0.00391   0.00000   0.01191   0.01191   2.07463
   R15        2.57926   0.00906   0.00000   0.01646   0.01645   2.59571
   R16        2.61010   0.00392   0.00000   0.00660   0.00660   2.61670
   R17        2.61332  -0.00046   0.00000  -0.00308  -0.00308   2.61024
   R18        2.04086  -0.00092   0.00000  -0.00290  -0.00290   2.03797
   R19        2.47726   0.00131   0.00000  -0.00183  -0.00182   2.47544
   R20        2.56725   0.00828   0.00000   0.01962   0.01962   2.58687
   R21        2.03397   0.00222   0.00000   0.00550   0.00550   2.03947
   R22        1.90059   0.00161   0.00000   0.00299   0.00299   1.90359
   R23        2.87419   0.00306   0.00000   0.00504   0.00504   2.87923
   R24        2.06530   0.00207   0.00000   0.00792   0.00792   2.07322
   R25        2.06534   0.00135   0.00000   0.00475   0.00475   2.07009
   R26        2.76896   0.00189   0.00000   0.00435   0.00435   2.77331
   R27        2.07330   0.00203   0.00000   0.00422   0.00422   2.07752
   R28        2.06338  -0.00072   0.00000  -0.00138  -0.00138   2.06200
   R29        1.91558   0.00231   0.00000   0.00468   0.00468   1.92026
   R30        1.91424   0.00182   0.00000   0.00330   0.00330   1.91754
    A1        2.13752  -0.00109   0.00000  -0.00052  -0.00053   2.13699
    A2        2.14281  -0.00100   0.00000   0.00712   0.00711   2.14992
    A3        2.00104   0.00212   0.00000  -0.00616  -0.00617   1.99487
    A4        2.11912   0.00068   0.00000   0.00938   0.00849   2.12761
    A5        2.05303  -0.00053   0.00000   0.00875   0.00778   2.06082
    A6        2.01368   0.00024   0.00000   0.01391   0.01301   2.02668
    A7        1.90692  -0.00039   0.00000  -0.00007  -0.00010   1.90682
    A8        1.96862  -0.00014   0.00000   0.00204   0.00203   1.97066
    A9        1.87900  -0.00009   0.00000  -0.00682  -0.00683   1.87217
   A10        1.89743   0.00088   0.00000   0.00702   0.00701   1.90444
   A11        1.90690  -0.00046   0.00000  -0.00769  -0.00771   1.89918
   A12        1.90427   0.00018   0.00000   0.00500   0.00502   1.90929
   A13        1.94570   0.00130   0.00000   0.00354   0.00354   1.94924
   A14        2.18723  -0.00158   0.00000  -0.00713  -0.00713   2.18010
   A15        2.14973   0.00028   0.00000   0.00364   0.00364   2.15337
   A16        1.84970   0.00358   0.00000   0.01886   0.01886   1.86856
   A17        1.96837   0.00162   0.00000   0.00575   0.00573   1.97410
   A18        1.89393  -0.00102   0.00000  -0.00752  -0.00772   1.88621
   A19        1.91810  -0.00282   0.00000  -0.03119  -0.03126   1.88684
   A20        1.90354   0.00056   0.00000   0.02282   0.02277   1.92632
   A21        1.91643   0.00099   0.00000   0.00674   0.00666   1.92309
   A22        1.86011   0.00062   0.00000   0.00362   0.00325   1.86336
   A23        2.32418   0.00256   0.00000   0.01176   0.01176   2.33594
   A24        2.13396  -0.00305   0.00000  -0.01457  -0.01457   2.11940
   A25        1.82494   0.00049   0.00000   0.00273   0.00272   1.82766
   A26        1.93771  -0.00163   0.00000  -0.00617  -0.00617   1.93154
   A27        2.20286   0.00410   0.00000   0.02593   0.02593   2.22879
   A28        2.14258  -0.00246   0.00000  -0.01978  -0.01978   2.12280
   A29        1.83324   0.00338   0.00000   0.01154   0.01155   1.84479
   A30        1.94874  -0.00057   0.00000  -0.00423  -0.00422   1.94452
   A31        2.19938   0.00016   0.00000   0.00353   0.00353   2.20291
   A32        2.13506   0.00041   0.00000   0.00070   0.00070   2.13576
   A33        1.88015  -0.00166   0.00000  -0.00387  -0.00387   1.87627
   A34        2.19401   0.00142   0.00000   0.00518   0.00518   2.19919
   A35        2.20902   0.00024   0.00000  -0.00131  -0.00130   2.20772
   A36        1.96585  -0.00113   0.00000   0.00722   0.00719   1.97305
   A37        1.91474   0.00099   0.00000  -0.00758  -0.00760   1.90714
   A38        1.88911  -0.00001   0.00000   0.00099   0.00093   1.89005
   A39        1.92621   0.00011   0.00000   0.00502   0.00504   1.93125
   A40        1.89900   0.00049   0.00000   0.00506   0.00504   1.90404
   A41        1.86576  -0.00043   0.00000  -0.01168  -0.01170   1.85407
   A42        1.90467   0.00120   0.00000   0.00590   0.00585   1.91052
   A43        1.90662  -0.00052   0.00000   0.00045   0.00034   1.90696
   A44        1.89545  -0.00031   0.00000  -0.00085  -0.00084   1.89460
   A45        1.98457   0.00052   0.00000   0.01283   0.01279   1.99736
   A46        1.90074  -0.00062   0.00000  -0.00618  -0.00616   1.89459
   A47        1.86982  -0.00035   0.00000  -0.01300  -0.01298   1.85684
   A48        1.91673   0.00016   0.00000   0.00384   0.00384   1.92056
   A49        1.91952  -0.00020   0.00000  -0.00174  -0.00175   1.91778
   A50        1.84707   0.00047   0.00000   0.00711   0.00710   1.85417
    D1       -0.25950   0.00163   0.00000   0.09718   0.09718  -0.16232
    D2       -2.92009   0.00067   0.00000   0.01934   0.01932  -2.90076
    D3        2.94530   0.00116   0.00000   0.08936   0.08937   3.03467
    D4        0.28471   0.00020   0.00000   0.01152   0.01152   0.29623
    D5        0.47831  -0.00039   0.00000  -0.31188  -0.31187   0.16644
    D6        2.63126  -0.00031   0.00000  -0.30589  -0.30592   2.32535
    D7       -1.62201  -0.00029   0.00000  -0.32340  -0.32340  -1.94541
    D8       -2.72670   0.00008   0.00000  -0.30434  -0.30432  -3.03102
    D9       -0.57374   0.00016   0.00000  -0.29835  -0.29836  -0.87211
   D10        1.45617   0.00018   0.00000  -0.31586  -0.31585   1.14032
   D11       -1.91871  -0.00009   0.00000  -0.09736  -0.09747  -2.01618
   D12        2.25210  -0.00085   0.00000  -0.10757  -0.10768   2.14442
   D13        0.15031  -0.00092   0.00000  -0.11047  -0.11057   0.03973
   D14        0.75199   0.00064   0.00000  -0.02246  -0.02236   0.72963
   D15       -1.36038  -0.00011   0.00000  -0.03267  -0.03257  -1.39295
   D16        2.82101  -0.00019   0.00000  -0.03557  -0.03546   2.78555
   D17        2.87587  -0.00013   0.00000   0.02162   0.02162   2.89749
   D18       -0.29971  -0.00013   0.00000   0.02322   0.02323  -0.27648
   D19       -1.25218   0.00002   0.00000   0.02861   0.02862  -1.22356
   D20        1.85543   0.00002   0.00000   0.03022   0.03023   1.88565
   D21        0.82433   0.00048   0.00000   0.03430   0.03429   0.85862
   D22       -2.35125   0.00048   0.00000   0.03591   0.03589  -2.31536
   D23       -1.15020   0.00001   0.00000   0.00607   0.00604  -1.14416
   D24        3.02208  -0.00104   0.00000  -0.02120  -0.02110   3.00097
   D25        0.99436   0.00036   0.00000  -0.00408  -0.00413   0.99023
   D26        3.01521  -0.00002   0.00000  -0.00008  -0.00012   3.01510
   D27        0.90431  -0.00106   0.00000  -0.02735  -0.02725   0.87705
   D28       -1.12341   0.00033   0.00000  -0.01022  -0.01028  -1.13369
   D29        0.93706  -0.00008   0.00000   0.00220   0.00215   0.93921
   D30       -1.17385  -0.00112   0.00000  -0.02508  -0.02499  -1.19884
   D31        3.08161   0.00028   0.00000  -0.00795  -0.00801   3.07360
   D32        3.11416  -0.00017   0.00000  -0.00343  -0.00342   3.11074
   D33        0.00570  -0.00013   0.00000  -0.00475  -0.00475   0.00095
   D34       -0.06843  -0.00121   0.00000  -0.10867  -0.10875  -0.17718
   D35        3.09122  -0.00109   0.00000  -0.10179  -0.10188   2.98934
   D36        2.03699  -0.00106   0.00000  -0.09864  -0.09863   1.93836
   D37       -1.08655  -0.00094   0.00000  -0.09175  -0.09176  -1.17830
   D38       -2.21392   0.00057   0.00000  -0.07737  -0.07728  -2.29120
   D39        0.94573   0.00069   0.00000  -0.07048  -0.07041   0.87532
   D40       -3.12642   0.00017   0.00000   0.00729   0.00734  -3.11908
   D41        0.02484  -0.00030   0.00000   0.00896   0.00901   0.03385
   D42       -0.00060   0.00004   0.00000   0.00112   0.00113   0.00053
   D43       -3.13253  -0.00043   0.00000   0.00279   0.00279  -3.12974
   D44        3.12876  -0.00008   0.00000  -0.00683  -0.00677   3.12198
   D45       -0.01001  -0.00003   0.00000  -0.00625  -0.00620  -0.01621
   D46        0.00077  -0.00002   0.00000  -0.00179  -0.00179  -0.00102
   D47       -3.13800   0.00002   0.00000  -0.00120  -0.00122  -3.13922
   D48        0.00019  -0.00003   0.00000   0.00000   0.00000   0.00020
   D49        3.13251   0.00046   0.00000  -0.00131  -0.00125   3.13126
   D50        0.00032   0.00002   0.00000  -0.00119  -0.00119  -0.00087
   D51        3.14077  -0.00001   0.00000   0.00072   0.00073   3.14149
   D52       -0.00070   0.00000   0.00000   0.00193   0.00193   0.00123
   D53        3.13803  -0.00004   0.00000   0.00135   0.00137   3.13940
   D54       -3.14120   0.00003   0.00000   0.00010   0.00010  -3.14111
   D55       -0.00247  -0.00001   0.00000  -0.00048  -0.00047  -0.00293
   D56       -3.12449   0.00101   0.00000   0.04013   0.04013  -3.08436
   D57        0.97919  -0.00011   0.00000   0.01983   0.01983   0.99902
   D58       -1.05467   0.00077   0.00000   0.03558   0.03557  -1.01910
   D59        1.01214   0.00044   0.00000   0.04110   0.04110   1.05324
   D60       -1.16737  -0.00067   0.00000   0.02081   0.02080  -1.14657
   D61        3.08196   0.00020   0.00000   0.03655   0.03654   3.11850
   D62       -1.02987   0.00061   0.00000   0.04938   0.04940  -0.98047
   D63        3.07381  -0.00050   0.00000   0.02909   0.02910   3.10291
   D64        1.03995   0.00037   0.00000   0.04483   0.04484   1.08480
   D65       -1.22649   0.00000   0.00000  -0.01545  -0.01549  -1.24198
   D66        3.03078  -0.00055   0.00000  -0.02528  -0.02533   3.00545
   D67        0.90677   0.00058   0.00000  -0.00170  -0.00165   0.90511
   D68       -1.11915   0.00003   0.00000  -0.01153  -0.01149  -1.13063
   D69        2.99019   0.00004   0.00000  -0.01425  -0.01426   2.97593
   D70        0.96427  -0.00051   0.00000  -0.02408  -0.02409   0.94018
         Item               Value     Threshold  Converged?
 Maximum Force            0.009064     0.000450     NO 
 RMS     Force            0.001818     0.000300     NO 
 Maximum Displacement     0.980362     0.001800     NO 
 RMS     Displacement     0.251873     0.001200     NO 
 Predicted change in Energy=-1.514699D-03
 GradGradGradGradGradGradGradGradGradGradGradGradGradGradGradGradGradGrad

                          Input orientation:                          
 ---------------------------------------------------------------------
 Center     Atomic      Atomic             Coordinates (Angstroms)
 Number     Number       Type             X           Y           Z
 ---------------------------------------------------------------------
      1          8           0        0.805684    0.534779    1.584726
      2          6           0        1.145906   -0.024624    0.555041
      3          7           0        0.303951   -0.845926   -0.148040
      4          6           0       -0.973586   -1.262324    0.380866
      5          6           0       -0.963377   -2.770101    0.588727
      6          8           0       -1.998221   -3.174666    1.352000
      7          8           0       -0.158527   -3.526605    0.108735
      8          6           0       -2.155535   -0.886731   -0.537911
      9          6           0       -2.354524    0.588788   -0.663846
     10          6           0       -1.832385    1.678407   -0.010507
     11          7           0       -2.378888    2.848600   -0.500323
     12          6           0       -3.219882    2.482714   -1.435637
     13          7           0       -3.246120    1.121640   -1.579550
     14          6           0        2.501661    0.185747   -0.096282
     15          6           0        3.467629    0.975092    0.778516
     16          7           0        4.719263    1.199382    0.045801
     17          1           0        0.703710   -1.437556   -0.861636
     18          1           0       -1.097940   -0.774380    1.349082
     19          1           0       -1.943138   -4.140005    1.417150
     20          1           0       -3.059105   -1.360653   -0.139981
     21          1           0       -1.974190   -1.330190   -1.525701
     22          1           0       -1.091456    1.684886    0.773093
     23          1           0       -3.830064    3.139186   -2.036873
     24          1           0       -3.811276    0.598673   -2.229032
     25          1           0        2.929749   -0.788239   -0.364080
     26          1           0        2.350630    0.723359   -1.038704
     27          1           0        3.590366    0.458208    1.741009
     28          1           0        3.019140    1.943863    1.004295
     29          1           0        5.233821    0.327310   -0.039624
     30          1           0        5.316724    1.831276    0.568684
 ---------------------------------------------------------------------
                    Distance matrix (angstroms):
                    1          2          3          4          5
     1  O    0.000000
     2  C    1.220219   0.000000
     3  N    2.271686   1.370309   0.000000
     4  C    2.800831   2.460586   1.444033   0.000000
     5  C    3.878636   3.462348   2.418966   1.522072   0.000000
     6  O    4.655752   4.521443   3.601826   2.376979   1.348022
     7  O    4.427538   3.763589   2.732372   2.421847   1.204355
     8  C    3.910894   3.582916   2.490529   1.543446   2.497526
     9  C    3.878906   3.756990   3.064629   2.534764   3.845304
    10  C    3.288170   3.477122   3.309849   3.088463   4.572032
    11  N    4.454514   4.668339   4.579437   4.432951   5.895719
    12  C    5.396501   5.413839   5.015491   4.729782   6.064811
    13  N    5.174376   5.016004   4.303899   3.832875   5.005796
    14  C    2.413286   1.518732   2.428365   3.794987   4.605731
    15  C    2.815990   2.537670   3.766094   4.988842   5.804851
    16  N    4.257475   3.811351   4.869891   6.211344   6.952982
    17  H    3.144072   2.049119   1.009482   2.094717   2.580388
    18  H    2.322328   2.495492   2.052265   1.091327   2.139895
    19  H    5.425652   5.217450   4.283712   3.208576   1.876927
    20  H    4.637226   4.466559   3.402228   2.151822   2.628618
    21  H    4.569525   3.971019   2.705991   2.154255   2.750616
    22  H    2.362336   2.824139   3.033258   2.975530   4.460639
    23  H    6.433434   6.441117   6.044740   5.777388   7.073284
    24  H    5.988752   5.719547   4.832441   4.281047   5.234399
    25  H    3.171731   2.147088   2.635302   4.001965   4.471246
    26  H    3.050378   2.133275   2.728522   4.124140   5.082857
    27  H    2.790115   2.759534   4.008714   5.063583   5.699675
    28  H    2.687342   2.754229   4.059932   5.158503   6.185030
    29  H    4.721223   4.145905   5.068713   6.421499   6.956582
    30  H    4.802367   4.565115   5.727914   7.012392   7.785419
                    6          7          8          9         10
     6  O    0.000000
     7  O    2.248119   0.000000
     8  C    2.971727   3.372702   0.000000
     9  C    4.284177   4.728185   1.494192   0.000000
    10  C    5.043436   5.468836   2.638658   1.373591   0.000000
    11  N    6.313140   6.778214   3.742191   2.265852   1.381281
    12  C    6.424121   6.918735   3.645807   2.220690   2.145473
    13  N    5.348784   5.830070   2.511562   1.384698   2.184155
    14  C    5.799900   4.571673   4.799450   4.905824   4.584686
    15  C    6.886573   5.819183   6.067893   6.010583   5.404383
    16  N    8.121764   6.792036   7.208012   7.135467   6.569378
    17  H    3.901047   2.459511   2.929759   3.673961   4.106754
    18  H    2.563570   3.161598   2.166073   2.736624   2.898975
    19  H    0.969101   2.296311   3.801469   5.182785   5.992027
    20  H    2.577232   3.628575   1.095167   2.138034   3.279862
    21  H    3.418162   3.285155   1.097848   2.137738   3.371584
    22  H    4.977208   5.335856   3.076395   2.204897   1.078447
    23  H    7.396272   7.906742   4.610742   3.250685   3.198555
    24  H    5.508997   5.985452   2.794243   2.138231   3.162861
    25  H    5.738018   4.154473   5.089207   5.468968   5.374689
    26  H    6.310513   5.067019   4.811310   4.721981   4.412134
    27  H    6.676930   5.709400   6.325955   6.414211   5.827771
    28  H    7.175942   6.389492   6.096550   5.787503   4.963626
    29  H    8.154930   6.629637   7.504982   7.618464   7.194274
    30  H    8.898397   7.674427   8.027875   7.868352   7.174162
                   11         12         13         14         15
    11  N    0.000000
    12  C    1.309944   0.000000
    13  N    2.213416   1.368913   0.000000
    14  C    5.574387   6.309198   6.009407   0.000000
    15  C    6.271142   7.204040   7.117329   1.523624   0.000000
    16  N    7.307662   8.177507   8.129892   2.442417   1.467571
    17  H    5.291889   5.576072   4.760887   2.540376   4.018733
    18  H    4.264634   4.781837   4.097128   3.996004   4.922460
    19  H    7.259970   7.323174   6.193777   6.384265   7.473183
    20  H    4.279060   4.059070   2.875607   5.771948   6.992681
    21  H    4.321743   4.012244   2.762640   4.937059   6.343274
    22  H    2.152511   3.169419   3.239561   3.989200   4.614010
    23  H    2.133386   1.079241   2.149564   7.251168   8.115789
    24  H    3.178418   2.128106   1.007335   6.676249   7.884763
    25  H    6.436365   7.047364   6.577717   1.097099   2.168912
    26  H    5.212950   5.855211   5.636910   1.095444   2.147870
    27  H    6.809518   7.782620   7.629141   2.152940   1.099376
    28  H    5.676366   6.720790   6.826843   2.137761   1.091163
    29  H    8.032589   8.835140   8.655156   2.736411   2.051440
    30  H    7.835826   8.792913   8.856681   3.327841   2.048472
                   16         17         18         19         20
    16  N    0.000000
    17  H    4.888921   0.000000
    18  H    6.279660   2.927972   0.000000
    19  H    8.647383   4.416095   3.470796   0.000000
    20  H    8.190928   3.832163   2.531244   3.375623   0.000000
    21  H    7.326027   2.761097   3.056324   4.068954   1.760167
    22  H    5.876148   3.955326   2.525825   5.921952   3.739072
    23  H    9.010625   6.548501   5.851939   8.275106   4.943797
    24  H    8.849057   5.138200   4.695782   6.264156   2.961225
    25  H    2.705735   2.371586   4.376916   6.176742   6.020320
    26  H    2.648239   2.722729   4.453917   6.936856   5.866519
    27  H    2.167367   4.324403   4.863444   7.201952   7.145757
    28  H    2.088871   4.502989   4.945510   7.861813   7.012436
    29  H    1.016158   4.930756   6.575212   8.578335   8.463563
    30  H    1.014720   5.831894   6.967523   9.438310   8.991392
                   21         22         23         24         25
    21  H    0.000000
    22  H    3.892860   0.000000
    23  H    4.866302   4.184600   0.000000
    24  H    2.755009   4.194048   2.547840   0.000000
    25  H    5.068697   4.855883   7.994872   7.130427   0.000000
    26  H    4.812307   4.006881   6.710703   6.277062   1.753689
    27  H    6.695823   4.935691   8.747732   8.400313   2.534058
    28  H    6.484878   4.125229   7.588747   7.675840   3.056931
    29  H    7.543948   6.520172   9.697920   9.310259   2.580401
    30  H    8.218196   6.413110   9.600171   9.626366   3.664637
                   26         27         28         29         30
    26  H    0.000000
    27  H    3.055169   0.000000
    28  H    2.471919   1.753915   0.000000
    29  H    3.076980   2.426671   2.933909   0.000000
[...]
 885,-0.00021118,0.00032784,0.00044618,-0.00043440,-0.00045829,0.000056
 11,0.00103975,0.00012870,0.00055200,-0.00013573,0.00071811,0.11162181,
 0.17885286,0.00003381,0.00014901,0.00006274,-0.00018194,-0.00028716,-0
 .00018648,0.00039752,0.00017049,0.00008270,-0.00032190,-0.00016239,-0.
 00005258,-0.00011829,0.00036294,0.00016456,0.00007410,-0.00006832,0.00
 000308,0.00012595,-0.00020468,-0.00012268,0.00095251,-0.00006795,0.000
 50969,-0.00022730,-0.01489231,-0.00917664,-0.00379041,0.00137857,-0.00
 226169,-0.00227063,0.00138034,0.00395143,0.00649483,0.00020190,-0.0004
 6699,-0.16512618,-0.14061028,-0.22037515,0.00002730,0.00003667,0.00000
 499,-0.00002603,-0.00001254,-0.00001790,0.00002909,0.00002460,-0.00001
 860,0.00001551,-0.00000445,0.00004593,0.00003141,-0.00002420,0.0000146
 0,0.00000155,0.00002429,-0.00002050,0.00001251,0.00056408,-0.00041641,
 -0.00017363,0.00014678,0.00004709,-0.00091497,-0.00080769,0.00079042,0
 .00049695,0.00000714,-0.00057471,0.16443645,0.15270128,0.22799139,-0.0
 0533510,-0.00292995,0.00484777,-0.00414418,0.02869850,0.01166966,-0.00
 005837,-0.00151974,-0.00072496,0.00045442,-0.00043584,-0.00034007,-0.0
 0038001,0.00028962,0.00025067,0.00011169,-0.00006665,-0.00009802,0.000
 25519,-0.00014077,-0.00012860,0.00010385,0.00004072,-0.00003528,0.0000
 5371,0.00005469,0.00003668,0.00001653,0.00002221,0.00009904,-0.0000301
 6,-0.00003059,-0.00002582,-0.00001192,0.00000964,-0.00002034,-0.000054
 40,-0.00002132,-0.00008106,-0.07603061,0.06417970,0.03609230,0.0075454
 9,-0.02136551,-0.01183819,0.00214306,0.00052084,-0.00003151,-0.0019370
 0,-0.00092372,-0.00000182,0.00039466,0.00025353,0.00009141,-0.00002139
 ,-0.00001076,0.00001881,0.00002731,-0.00001846,0.00001956,-0.00004724,
 -0.00001527,-0.00003508,0.00010749,-0.00006880,-0.00000743,-0.00000676
 ,-0.00000218,-0.00000664,-0.00000913,0.00001168,0.00000518,0.08159551,
 -0.00088230,0.00080336,0.00203489,-0.00409331,0.00360275,0.00242765,-0
 .00053092,0.00001878,0.00052289,0.00037704,0.00062645,-0.00001345,0.00
 014851,-0.00010141,-0.00005846,-0.00004598,0.00002174,0.00002197,-0.00
 002993,0.00009366,0.00005262,-0.00000196,-0.00001300,-0.00002730,-0.00
 003789,-0.00005187,-0.00003615,-0.00000607,-0.00001206,-0.00006009,0.0
 0004532,0.00004486,0.00001377,-0.00001556,-0.00001745,-0.00001674,0.00
 004656,0.00003567,0.00008809,0.06666863,-0.21648903,-0.09822797,0.0034
 9519,-0.00913823,-0.00510337,0.00008911,0.00073440,0.00073696,-0.00009
 834,0.00062566,0.00035702,-0.00008328,0.00002881,0.00013761,0.00000288
 ,-0.00000290,-0.00001037,0.00000952,0.00001491,0.00000249,0.00000511,0
 .00001954,0.00002156,-0.00005185,-0.00000648,0.00002993,0.00000409,-0.
 00000034,0.00000433,0.00000868,-0.00000801,-0.00000900,-0.06932964,0.2
 3634777,0.00423834,0.00127115,-0.00114115,0.00299948,-0.01435738,-0.01
 036917,-0.00160284,0.00034063,0.00044134,0.00007372,0.00061794,-0.0002
 5651,0.00037066,-0.00017480,-0.00019138,-0.00013076,-0.00000153,0.0001
 1390,-0.00029470,0.00008134,0.00002163,-0.00013220,-0.00002555,0.00010
 836,-0.00001098,-0.00003774,0.00000248,-0.00001144,-0.00002266,-0.0000
 3764,-0.00000176,0.00001789,0.00001871,0.00000202,0.00000928,0.0000016
 3,0.00001793,0.00001848,0.00001763,0.03675516,-0.09672282,-0.09963868,
 0.00740597,-0.01904932,-0.01112900,0.00067616,0.00125050,0.00080171,0.
 00033007,0.00002543,0.00119701,-0.00015871,-0.00007582,0.00002192,0.00
 002686,0.00001548,-0.00000633,-0.00003903,0.00000998,-0.00003956,0.000
 02660,-0.00000335,0.00001370,-0.00003669,0.00003336,-0.00003316,0.0000
 0102,0.00000239,0.00000150,0.00000052,-0.00000630,0.00000797,-0.039889
 47,0.10954929,0.11014097,-0.00279448,0.00276208,-0.00100595,0.00605954
 ,-0.02350906,0.02146537,-0.00213470,0.00075672,-0.00116777,-0.00033676
 ,0.00088428,-0.00102057,0.00020000,0.00024474,-0.00014849,-0.00003764,
 -0.00003301,0.00002778,0.00000665,-0.00013921,0.00001224,-0.00030084,-
 0.00026723,0.00036552,0.00002946,-0.00021590,-0.00012939,0.00018248,0.
 00008300,0.00005668,-0.00002347,0.00012447,-0.00013599,-0.00004826,0.0
 0005708,-0.00002010,0.00003593,0.00002870,0.00005250,-0.04852695,0.023
 50140,-0.02032793,-0.00490414,0.01702444,-0.01844673,0.00192091,0.0008
 1985,0.00089954,-0.00006544,-0.00042308,0.00049005,0.00005505,0.000092
 67,0.00004189,0.00000620,0.00001277,-0.00001359,-0.00016567,0.00006904
 ,-0.00009628,0.00001091,0.00000585,0.00000620,0.00003571,-0.00010681,0
 .00009143,-0.00000625,0.00000478,0.00000313,-0.00001409,-0.00001844,0.
 00001531,-0.00159677,0.00796637,-0.00744804,0.05428986,0.00052551,-0.0
 0045356,-0.00089340,-0.00043382,-0.00451475,0.00344159,-0.00123485,0.0
 0086340,-0.00039196,-0.00037804,0.00018036,-0.00035777,0.00018094,-0.0
 0002076,-0.00007703,-0.00005291,0.00000501,0.00003526,-0.00010341,0.00
 003530,-0.00001534,-0.00009923,-0.00003774,0.00015697,-0.00000623,-0.0
 0006224,0.00000168,-0.00000035,0.00003437,0.00002971,-0.00002339,-0.00
 000843,-0.00000791,-0.00000013,0.00002294,0.00001058,0.00000927,0.0000
 0958,-0.00005723,0.02798513,-0.17648818,0.12700973,-0.00225025,0.00790
 839,-0.00778810,0.00077223,0.00016826,-0.00046349,0.00027280,-0.000556
 60,0.00075447,0.00001748,-0.00000051,-0.00001620,0.00001061,0.00000717
 ,0.00000182,-0.00002924,0.00001710,-0.00003578,-0.00001001,-0.00002197
 ,-0.00001217,-0.00005182,0.00002399,-0.00003939,-0.00000334,0.00000384
 ,0.00000261,-0.00002080,-0.00000494,0.00001302,0.00342488,-0.01925194,
 0.01785212,-0.02704349,0.19068975,0.00229879,-0.00159726,0.00092446,-0
 .00155015,0.01063604,-0.01210320,-0.00044908,-0.00081900,0.00033857,0.
 00047745,-0.00004039,0.00009373,-0.00005632,0.00000007,0.00003404,-0.0
 0003269,-0.00006733,0.00004329,-0.00002664,-0.00001540,0.00001062,-0.0
 0000088,0.00003843,-0.00006794,0.00003856,0.00005451,0.00004758,-0.000
 05031,-0.00004338,-0.00002055,-0.00001083,-0.00005029,0.00004167,0.000
 01988,0.00000056,0.00002491,-0.00003607,-0.00002507,-0.00005168,-0.024
 63570,0.12694458,-0.16524813,-0.00575531,0.01636247,-0.01924885,0.0019
 8227,-0.00023038,0.00230067,0.00000296,-0.00001880,0.00008384,-0.00007
 261,-0.00006279,-0.00002953,-0.00000880,-0.00000202,-0.00000287,0.0000
 0010,-0.00002484,0.00000443,0.00000576,-0.00001159,0.00000105,0.000043
 47,0.00006244,-0.00005910,-0.00000143,0.00000215,-0.00000131,0.0000031
 7,0.00000369,0.00000524,0.00175078,-0.01131300,0.01123004,0.02817512,-
 0.13780906,0.18326435,-0.00011601,-0.00000226,0.00133040,0.00158377,0.
 00050317,-0.00244658,-0.00044745,-0.00036420,0.00033278,0.00014601,0.0
 0001498,-0.00009653,-0.00005585,0.00011170,-0.00004102,-0.00002145,-0.
 00006447,0.00004387,0.00002759,-0.00006799,0.00003711,-0.00003143,-0.0
 0000867,0.00001655,0.00000644,0.00001451,0.00002326,-0.00002280,-0.000
 01771,0.00000925,-0.00001678,-0.00000566,0.00001526,0.00000934,-0.0000
 0177,0.00000274,-0.00001599,-0.00000680,-0.00000722,-0.00598195,0.0167
 1495,-0.01610634,-0.05912427,0.03395544,-0.03121764,-0.00354679,-0.025
 14739,0.02719152,0.00002897,0.00016128,-0.00003938,-0.00003475,0.00000
 461,0.00001004,-0.00000780,-0.00000405,-0.00000777,-0.00002219,0.00000
 021,-0.00000555,0.00001244,0.00000425,0.00000417,0.00002259,0.00001039
 ,-0.00002813,0.00000089,0.00000010,-0.00000315,0.00001248,0.00000207,-
 0.00000010,0.00095571,-0.00050722,0.00071546,-0.00333986,-0.00204138,-
 0.00312307,0.06797006,-0.00004894,0.00042478,-0.00104193,0.00002285,0.
 00071490,0.00117906,0.00032606,-0.00018520,-0.00019525,0.00003632,0.00
 003207,0.00004591,0.00003636,-0.00005116,0.00004387,-0.00000438,0.0000
 1921,-0.00003443,-0.00002958,0.00002257,-0.00003064,0.00002434,-0.0000
 0290,-0.00000918,-0.00000031,-0.00001360,-0.00000122,-0.00000080,-0.00
 000425,-0.00000113,0.00001924,0.00002225,-0.00000727,-0.00001479,-0.00
 000275,-0.00002016,0.00001106,0.00002007,0.00001199,-0.00289435,0.0074
 1621,-0.00866469,0.03662041,-0.17057401,0.10873969,-0.00697878,-0.0031
 2653,0.00878238,-0.00004174,-0.00007168,0.00000954,0.00001744,-0.00001
 305,0.00000658,0.00001421,0.00000677,0.00001498,0.00000523,0.00000355,
 0.00000302,-0.00000544,0.00000361,-0.00000445,-0.00000456,-0.00002403,
 0.00000811,-0.00000352,-0.00000007,0.00000091,-0.00000364,-0.00000252,
 0.00000610,0.00056757,0.00109967,0.00048377,-0.00228334,0.00050493,-0.
 00192319,-0.03048899,0.18169281,-0.00025187,0.00023397,0.00125840,0.00
 132430,-0.00002552,-0.00193792,-0.00048483,-0.00034051,0.00044329,0.00
 009080,-0.00008339,-0.00008578,-0.00019013,0.00020355,0.00000191,0.000
 03228,-0.00007340,0.00001988,0.00013489,-0.00013325,0.00004080,-0.0000
 3189,-0.00000895,0.00000715,0.00000520,0.00001667,0.00001836,-0.000022
 12,-0.00000370,-0.00000290,-0.00001403,-0.00001329,0.00002060,0.000010
 48,-0.00000406,0.00000631,-0.00000994,-0.00000802,0.00000409,-0.008311
 12,0.01520605,-0.01536900,-0.03312300,0.10789405,-0.15501172,0.0085443
 0,0.01314807,-0.01256784,-0.00002269,0.00021776,-0.00012763,-0.0000265
 4,0.00001944,0.00000918,-0.00002728,-0.00001117,-0.00001096,-0.0000197
 0,0.00000034,-0.00000350,0.00001227,0.00000652,0.00000436,0.00001330,-
 0.00000176,-0.00001743,0.00000502,-0.00000091,-0.00000311,0.00001324,0
 .00000460,-0.00000611,0.00102622,0.00011942,0.00047018,-0.00281632,-0.
 00138912,-0.00212272,0.03183707,-0.12497355,0.17328371,-0.00142311,0.0
 0078564,0.00088978,0.00057037,-0.00192104,-0.00158250,0.00038351,0.000
 72921,0.00087263,-0.00021648,0.00011700,0.00021727,0.00006654,-0.00015
 052,-0.00001062,0.00000432,0.00005928,-0.00000854,-0.00005196,0.000093
 24,0.00001313,0.00001328,0.00000025,-0.00002186,-0.00001828,-0.0000113
 6,-0.00002177,-0.00002128,0.00001087,-0.00005342,0.00002665,-0.0000016
 0,0.00001773,0.00000577,-0.00000430,0.00000932,0.00002796,0.00000650,0
 .00004178,0.00842091,-0.02003453,-0.01203303,-0.07886563,0.07402518,0.
 04106039,-0.01552246,0.02252737,0.01818353,0.00046465,0.00018715,-0.00
 002183,-0.00012121,-0.00008438,-0.00001704,0.00000020,-0.00000203,-0.0
 0000094,0.00001707,-0.00000041,0.00000232,0.00000232,0.00000152,0.0000
 0725,-0.00006427,-0.00000433,0.00000662,0.00000429,0.00000047,0.000005
 28,-0.00000204,-0.00000297,-0.00000532,-0.00389074,-0.00203994,-0.0032
 9382,0.00114661,0.00039153,0.00051924,-0.00107465,0.00633587,0.0022634
 1,0.09437391,0.00102085,0.00174535,0.00212445,0.00149368,-0.00162943,-
 0.00353428,-0.00000791,0.00042513,0.00074135,-0.00005944,0.00003447,0.
 00006364,0.00010447,-0.00013725,-0.00002931,-0.00003231,0.00002604,0.0
 0002576,-0.00009565,0.00010267,0.00001097,0.00000514,0.00000250,-0.000
 00812,-0.00001898,-0.00000570,-0.00001264,-0.00002831,-0.00000391,-0.0
 0003120,0.00000956,0.00000184,0.00002217,0.00000721,-0.00000670,0.0000
 0758,0.00001752,0.00000690,0.00003041,0.00148904,-0.00972698,-0.005174
 87,0.07686863,-0.22640007,-0.10055484,-0.00462433,0.01123780,0.0066631
 0,0.00015545,0.00018151,0.00006952,-0.00007981,-0.00004437,0.00001157,
 0.00000692,-0.00000121,-0.00000250,0.00000683,0.00000012,-0.00000084,0
 .00000651,0.00000066,0.00000915,-0.00002697,0.00001673,-0.00001530,0.0
 0000415,0.00000028,0.00000231,0.00000362,-0.00000252,-0.00000502,-0.00
 184548,0.00094337,-0.00118435,-0.00026296,0.00105967,0.00021181,0.0076
 4743,-0.01918293,-0.00947957,-0.07984116,0.23921265,0.00073549,0.00143
 687,0.00050177,0.00111258,-0.00066377,-0.00075096,-0.00011027,-0.00012
 793,-0.00001889,0.00006053,0.00009737,0.00002092,0.00003523,-0.0000019
 4,-0.00001608,-0.00002442,-0.00001055,0.00001422,-0.00003120,0.0000022
 2,0.00002981,-0.00000094,-0.00002774,0.00000150,-0.00001079,-0.0000318
 6,-0.00001417,0.00000996,-0.00000950,-0.00002099,0.00003099,0.00003414
 ,-0.00000448,-0.00001826,-0.00000450,-0.00002193,0.00002544,0.00002778
 ,0.00004094,0.00486804,-0.01955415,-0.01212572,0.04201322,-0.09500732,
 -0.10551606,0.00814321,-0.01283662,-0.01006670,0.00013456,0.00011354,0
 .00006845,-0.00003574,-0.00000748,0.00002849,-0.00000012,0.00000084,-0
 .00000239,-0.00000870,0.00001253,-0.00000443,0.00000251,0.00001065,0.0
 0000358,-0.00002854,-0.00002007,0.00002437,-0.00000057,-0.00000010,0.0
 0000206,-0.00000055,-0.00000478,0.00000151,-0.00297155,-0.00121303,-0.
 00217777,0.00083350,0.00001256,0.00048158,-0.00766262,0.01853547,0.010
 82896,-0.04960834,0.10828108,0.11837461,0.00004242,-0.00053060,-0.0009
 9781,-0.00072775,-0.00022801,0.00119007,0.00013468,-0.00002452,-0.0001
 6449,-0.00008803,-0.00002902,0.00002980,-0.00008682,-0.00001269,0.0000
 6837,0.00006247,0.00003673,-0.00005449,0.00006711,-0.00000100,-0.00003
 866,0.00000178,0.00001318,-0.00000553,0.00000684,0.00001287,-0.0000044
 8,0.00001042,0.00000607,0.00000385,0.00000327,-0.00001653,-0.00000698,
 0.00000459,0.00000226,0.00000919,-0.00000319,-0.00001340,-0.00001665,0
 .00082616,0.00174106,0.00077796,-0.01536767,0.03032293,0.01001796,-0.1
 3669611,0.13165916,0.07099518,-0.00008674,-0.00005344,-0.00002230,0.00
 000979,-0.00000178,-0.00001341,-0.00000735,-0.00000618,0.00000892,0.00
 001166,-0.00000487,0.00000292,-0.00000604,-0.00000772,-0.00000268,-0.0
 0000295,0.00001348,0.00000733,-0.00000176,-0.00000027,0.00000195,-0.00
 000975,0.00000176,0.00000054,-0.00049557,-0.00098818,-0.00066799,-0.00
 008045,0.00003711,0.00003502,0.00187335,-0.00089718,-0.00019858,-0.004
 83435,-0.00285070,0.00271976,0.14323918,-0.00020121,-0.00008701,0.0000
 1833,0.00003909,0.00007025,0.00011089,0.00010441,-0.00002501,-0.000028
 82,-0.00003964,0.00000585,0.00002080,-0.00004966,-0.00000572,0.0000271
 9,0.00003655,0.00002165,-0.00002251,0.00004451,0.00000031,-0.00000241,
 0.00000231,0.00000197,-0.00001106,-0.00000353,0.00000419,-0.00000887,-
 0.00000435,0.00000207,-0.00000627,0.00001161,-0.00000113,0.00000819,-0
 .00000148,-0.00000804,-0.00000118,0.00000722,0.00000378,0.00001423,0.0
 0051382,0.00111184,0.00050462,-0.00829920,0.00779541,0.00962927,0.1334
 4436,-0.29691170,-0.13799888,-0.00003418,-0.00000345,-0.00003878,0.000
 00115,0.00000242,-0.00000362,-0.00000958,-0.00000556,-0.00000105,0.000
 00685,-0.00000133,0.00000250,-0.00000202,0.00000070,0.00000302,-0.0000
 0579,-0.00000158,0.00000168,0.00000226,-0.00000131,0.00000092,-0.00000
 106,0.00000104,-0.00000561,0.00044618,-0.00016585,-0.00015076,0.000060
 00,-0.00025094,-0.00007150,-0.00063281,0.00174972,0.00008922,-0.001982
 55,0.00126263,0.00108870,-0.13569264,0.30297700,0.00016273,0.00003803,
 -0.00019291,0.00004797,-0.00015296,0.00000537,-0.00006399,0.00003503,-
 0.00005515,-0.00000990,-0.00002897,0.00000156,0.00001189,-0.00003150,0
 .00003077,-0.00000058,0.00000972,-0.00002079,-0.00002284,0.00001876,-0
 .00004048,0.00000516,0.00000641,0.00001067,0.00000425,-0.00000388,0.00
 000359,0.00001018,-0.00000011,0.00000333,-0.00000182,-0.00000158,-0.00
 001290,-0.00000049,0.00001022,0.00000051,-0.00000121,-0.00000384,-0.00
 001775,-0.00085903,0.00099954,0.00101169,0.01343514,-0.01615759,-0.011
 75012,0.04561010,-0.09178777,-0.06144039,-0.00002802,-0.00004237,0.000
 06879,0.00001263,-0.00000321,0.00000072,0.00001004,0.00000232,0.000013
 25,0.00000183,0.00000022,-0.00000144,-0.00000433,-0.00000560,-0.000006
 44,-0.00000231,0.00000136,0.00000438,-0.00000443,0.00000134,0.00000142
 ,-0.00000813,-0.00000108,0.00000857,0.00023869,-0.00033591,0.00042523,
 -0.00002722,0.00032072,-0.00009962,-0.00140276,-0.00134234,0.00051971,
 0.00298510,0.00207847,-0.00067978,-0.07202676,0.12841352,0.08344087,-0
 .00000176,0.00037472,0.00069691,0.00008276,-0.00108928,-0.00273045,-0.
 00106452,-0.00021678,0.00049794,0.00013533,-0.00015068,-0.00018591,-0.
 00002742,0.00017061,-0.00005110,-0.00005892,-0.00010476,0.00006384,-0.
 00000802,-0.00008990,0.00002176,-0.00002589,-0.00004047,0.00004441,0.0
 0000258,-0.00002550,0.00001296,-0.00000550,-0.00001061,0.00001264,-0.0
 0000301,0.00003309,-0.00000002,-0.00001798,0.00000304,-0.00002900,0.00
 000273,0.00002392,0.00001052,-0.00596460,-0.00115618,0.00546333,-0.020
 07186,-0.01194234,-0.02424055,-0.20515186,-0.11809261,-0.13642079,0.00
 001161,0.00008582,0.00005426,0.00001476,0.00001369,0.00001262,0.000001
 09,0.00000212,-0.00000231,-0.00003678,0.00001467,-0.00001693,0.0000036
 9,0.00000875,-0.00000483,0.00002046,-0.00003259,-0.00001248,-0.0000020
 1,0.00000076,-0.00000304,0.00000666,-0.00000254,0.00000618,0.00028474,
 -0.00012464,0.00007847,0.00039645,0.00015521,0.00045733,0.00121038,-0.
 00033661,0.00023723,0.00057810,0.00092697,-0.00021244,0.01220083,0.012
 23939,0.01192812,0.21748796,0.00024740,-0.00014041,0.00007458,-0.00021
 896,0.00055415,-0.00034594,0.00030657,0.00008700,-0.00000331,-0.000035
 72,-0.00000241,0.00004541,-0.00007141,-0.00002463,0.00004925,0.0000580
 2,0.00003686,-0.00003503,0.00005707,0.00000808,-0.00001155,0.00000231,
 0.00002089,-0.00002241,0.00000159,0.00001844,-0.00000831,-0.00000070,0
 .00001129,-0.00001252,-0.00000362,-0.00003513,0.00000332,0.00001719,0.
 00000515,0.00002756,-0.00000278,-0.00002468,-0.00000965,0.00026174,0.0
 0043869,0.00152159,-0.00827131,-0.00628486,-0.00377424,-0.09020258,-0.
 10164324,-0.10635497,-0.00003436,-0.00002731,-0.00004275,-0.00000925,-
 0.00000097,-0.00000718,-0.00001428,-0.00000513,-0.00000235,0.00001790,
 -0.00000943,0.00000692,-0.00000130,-0.00000789,0.00000200,-0.00001228,
 0.00002578,0.00000494,0.00000357,0.00000032,0.00000237,-0.00000517,0.0
 0000347,-0.00000562,0.00020488,0.00019717,0.00023335,-0.00019571,0.000
 13851,-0.00019145,0.00021631,-0.00047843,-0.00060948,0.00081004,0.0008
 8074,-0.00013240,-0.02248791,-0.01754218,-0.02203695,0.11936274,0.1238
 0014,-0.00030367,0.00009490,0.00013197,0.00077244,-0.00005833,0.000561
 93,-0.00008505,-0.00002494,-0.00011896,0.00006961,0.00006521,-0.000061
 68,0.00006640,0.00003139,-0.00004407,-0.00004536,-0.00002793,0.0000267
 5,-0.00004068,-0.00001781,0.00001480,-0.00000948,-0.00001550,0.0000162
 8,0.00000135,-0.00000830,0.00000989,0.00000364,-0.00000700,0.00001451,
 -0.00000500,0.00001897,-0.00000837,-0.00000759,-0.00000137,-0.00001381
 ,-0.00000625,0.00000976,-0.00000321,0.00127612,0.00055907,-0.00108677,
 0.01795846,0.01496185,0.00874912,-0.15292859,-0.14571606,-0.19000297,0
 .00003179,-0.00000359,0.00002299,0.00001259,0.00001020,0.00001040,0.00
 001117,0.00000788,-0.00000126,-0.00001385,0.00000600,-0.00000361,0.000
 00257,0.00000535,-0.00000183,0.00001341,-0.00001421,-0.00000056,-0.000
 00291,0.00000010,-0.00000238,0.00000580,-0.00000175,0.00000451,0.00008
 907,0.00030437,-0.00001556,0.00026810,-0.00028887,0.00012544,0.0006183
 7,0.00037804,0.00032973,-0.00041576,-0.00032049,0.00099759,-0.01164803
 ,-0.00158174,-0.01123267,0.14431133,0.13163482,0.19158180\\-0.00000167
 ,-0.00000634,-0.00000762,0.00001928,0.00001604,0.00001235,-0.00000657,
 -0.00002204,0.00000154,-0.00000747,0.00000158,0.00000190,-0.00000123,0
 .00000169,0.00000293,0.00000170,0.00000185,-0.00000079,0.00000226,-0.0
 0000124,-0.00000120,-0.00000414,0.00000435,0.00000401,0.00000117,-0.00
 000939,-0.00000431,0.00000078,0.00001117,0.00000591,-0.00000127,-0.000
 00182,-0.00000077,-0.00000025,0.00000345,0.00000003,-0.00000196,-0.000
 00079,-0.00000318,0.00000222,-0.00000208,0.00000252,0.00000469,0.00000
 199,-0.00000055,0.00000251,0.00000156,0.00000195,-0.00000106,0.0000013
 1,-0.00000769,-0.00000445,-0.00000199,0.00000049,-0.00000068,-0.000001
 77,0.00000104,-0.00000136,-0.00000116,-0.00000061,0.00000235,0.0000004
 8,-0.00000060,-0.00000137,0.00000147,-0.00000324,-0.00000055,0.0000002
 8,-0.00000063,-0.00000020,-0.00000050,-0.00000098,-0.00000166,0.000003
 02,-0.00000371,-0.00000474,-0.00000207,-0.00000048,0.00000032,0.000000
 64,0.00000174,0.00000258,0.00000133,-0.00000017,0.00000002,-0.00000178
 ,-0.00000026,0.00000076,0.00000075,0.00000039\\\@


 CHARLIE BROWN -- WHICH DO YOU THINK LASTS LONGER IN LIFE, THE GOOD THINGS 
                  OR THE BAD THINGS?
 LINUS --         GOOD THINGS LAST EIGHT SECONDS ..
                  BAD THINGS LAST THREE WEEKS
 CHARLIE BROWN -- WHAT ABOUT IN BETWEEN?
 SNOOPY --        IN BETWEEN YOU SHOULD TAKE A NAP ...
 Job cpu time:       0 days  2 hours  3 minutes 59.6 seconds.
 File lengths (MBytes):  RWF=    415 Int=      0 D2E=      0 Chk=     13 Scr=      1
 Normal termination of Gaussian 09 at Sat Jul 24 01:59:37 2021.
