 Entering Gaussian System, Link 0=g09
 Input=opt_freq-conf-599.com
 Output=opt_freq-conf-599.log
 Initial command:
 /aerosol/software/g09/l1.exe "/scratch/nicole/10408/Gau-73628.inp" -scrdir="/scratch/nicole/10408/"
 Entering Link 1 = /aerosol/software/g09/l1.exe PID=     73632.
  
 Copyright (c) 1988,1990,1992,1993,1995,1998,2003,2009,2013,
            Gaussian, Inc.  All Rights Reserved.
  
 This is part of the Gaussian(R) 09 program.  It is based on
 the Gaussian(R) 03 system (copyright 2003, Gaussian, Inc.),
 the Gaussian(R) 98 system (copyright 1998, Gaussian, Inc.),
 the Gaussian(R) 94 system (copyright 1995, Gaussian, Inc.),
 the Gaussian 92(TM) system (copyright 1992, Gaussian, Inc.),
 the Gaussian 90(TM) system (copyright 1990, Gaussian, Inc.),
 the Gaussian 88(TM) system (copyright 1988, Gaussian, Inc.),
 the Gaussian 86(TM) system (copyright 1986, Carnegie Mellon
 University), and the Gaussian 82(TM) system (copyright 1983,
 Carnegie Mellon University). Gaussian is a federally registered
 trademark of Gaussian, Inc.
  
 This software contains proprietary and confidential information,
 including trade secrets, belonging to Gaussian, Inc.
  
 This software is provided under written license and may be
 used, copied, transmitted, or stored only in accord with that
 written license.
  
 The following legend is applicable only to US Government
 contracts under FAR:
  
                    RESTRICTED RIGHTS LEGEND
  
 Use, reproduction and disclosure by the US Government is
 subject to restrictions as set forth in subparagraphs (a)
 and (c) of the Commercial Computer Software - Restricted
 Rights clause in FAR 52.227-19.
  
 Gaussian, Inc.
 340 Quinnipiac St., Bldg. 40, Wallingford CT 06492
  
  
 ---------------------------------------------------------------
 Warning -- This program may not be used in any manner that
 competes with the business of Gaussian, Inc. or will provide
 assistance to any competitor of Gaussian, Inc.  The licensee
 of this program is prohibited from giving any competitor of
 Gaussian, Inc. access to this program.  By using this program,
 the user acknowledges that Gaussian, Inc. is engaged in the
 business of creating and licensing software in the field of
 computational chemistry and represents and warrants to the
 licensee that it is not a competitor of Gaussian, Inc. and that
 it will not use this program in any manner prohibited above.
 ---------------------------------------------------------------
  

 Cite this work as:
 Gaussian 09, Revision D.01,
 M. J. Frisch, G. W. Trucks, H. B. Schlegel, G. E. Scuseria, 
 M. A. Robb, J. R. Cheeseman, G. Scalmani, V. Barone, B. Mennucci, 
 G. A. Petersson, H. Nakatsuji, M. Caricato, X. Li, H. P. Hratchian, 
 A. F. Izmaylov, J. Bloino, G. Zheng, J. L. Sonnenberg, M. Hada, 
 M. Ehara, K. Toyota, R. Fukuda, J. Hasegawa, M. Ishida, T. Nakajima, 
 Y. Honda, O. Kitao, H. Nakai, T. Vreven, J. A. Montgomery, Jr., 
 J. E. Peralta, F. Ogliaro, M. Bearpark, J. J. Heyd, E. Brothers, 
 K. N. Kudin, V. N. Staroverov, T. Keith, R. Kobayashi, J. Normand, 
 K. Raghavachari, A. Rendell, J. C. Burant, S. S. Iyengar, J. Tomasi, 
 M. Cossi, N. Rega, J. M. Millam, M. Klene, J. E. Knox, J. B. Cross, 
 V. Bakken, C. Adamo, J. Jaramillo, R. Gomperts, R. E. Stratmann, 
 O. Yazyev, A. J. Austin, R. Cammi, C. Pomelli, J. W. Ochterski, 
 R. L. Martin, K. Morokuma, V. G. Zakrzewski, G. A. Voth, 
 P. Salvador, J. J. Dannenberg, S. Dapprich, A. D. Daniels, 
 O. Farkas, J. B. Foresman, J. V. Ortiz, J. Cioslowski, 
 and D. J. Fox, Gaussian, Inc., Wallingford CT, 2013.
 
 ******************************************
 Gaussian 09:  ES64L-G09RevD.01 24-Apr-2013
                24-Jul-2021 
 ******************************************
 %mem=2gb
 %nproc=4
 Will use up to    4 processors via shared memory.
 %chk=conf-599.chk
 ----------------------------------------------------------------------
 # B3LYP/6-311G(d,p) EmpiricalDispersion=GD3BJ opt=calcfc freq=noraman 
 nosymm integral(ultrafinegrid)
 ----------------------------------------------------------------------
 1/10=4,14=-1,18=20,19=15,26=4,38=1/1,3;
 2/9=110,12=2,15=1,17=6,18=5,40=1/2;
 3/5=4,6=6,7=101,11=2,16=1,25=1,30=1,71=2,74=-5,75=-5,124=41,140=1/1,2,3;
 4//1;
 5/5=2,38=5/2;
 8/6=4,10=90,11=11/1;
 11/6=1,8=1,9=11,15=111,16=1,31=1/1,2,10;
 10/6=1,13=1,31=1/2;
 6/7=2,8=2,9=2,10=2,28=1/1;
 7/10=1,18=20,25=1,30=1/1,2,3,16;
 1/10=4,14=-1,18=20,19=15,26=4/3(2);
 2/9=110,15=1/2;
 99//99;
 2/9=110,15=1/2;
 3/5=4,6=6,7=101,11=2,16=1,25=1,30=1,71=1,74=-5,75=-5,124=41/1,2,3;
 4/5=5,16=3,69=1/1;
 5/5=2,38=5/2;
 7/30=1/1,2,3,16;
 1/14=-1,18=20,19=15,26=4/3(-5);
 2/9=110,15=1/2;
 6/7=2,8=2,9=2,10=2,19=2,28=1/1;
 99/9=1/99;
 ------------------------------------------------------------
 Candidate Structure: Conf:599 OPT and FREQ calc in gas phase
 ------------------------------------------------------------
 Symbolic Z-matrix:
 Charge =  0 Multiplicity = 1
 O                     2.72597   1.58442   0.80496 
 C                     1.89025   0.7942    0.39654 
 N                     1.01823   1.17937  -0.59685 
 C                    -0.22342   0.51242  -0.94559 
 C                    -0.35346   0.36518  -2.47029 
 O                     0.79938   0.38118  -3.14534 
 O                    -1.40833   0.21685  -3.03333 
 C                    -1.43812   1.22132  -0.31345 
 C                    -2.59983   0.32156  -0.04955 
 C                    -3.27608   0.03772   1.09941 
 N                    -4.28908  -0.87107   0.85532 
 C                    -4.21717  -1.12742  -0.42721 
 N                    -3.2084   -0.43415  -1.01823 
 C                     1.79286  -0.63724   0.89213 
 C                     2.89167  -0.97889   1.89448 
 N                     4.25342  -0.88716   1.38912 
 H                     1.0638    2.17973  -0.7571 
 H                    -0.16805  -0.50709  -0.56088 
 H                     1.5207    0.5465   -2.51517 
 H                    -1.72582   2.06197  -0.94728 
 H                    -1.14041   1.63792   0.64684 
 H                    -3.10629   0.4317    2.08936 
 H                    -4.85382  -1.7908   -0.98585 
 H                    -2.91886  -0.4383   -1.98574 
 H                     0.81068  -0.78591   1.35308 
 H                     1.8427   -1.31413   0.03058 
 H                     2.81273  -0.30246   2.7475 
 H                     2.7276   -1.99298   2.26837 
 H                     4.36042  -1.47269   0.5682 
 H                     4.41663   0.06831   1.08825 
 

 GradGradGradGradGradGradGradGradGradGradGradGradGradGradGradGradGradGrad
 Berny optimization.
 Initialization pass.
                           ----------------------------
                           !    Initial Parameters    !
                           ! (Angstroms and Degrees)  !
 --------------------------                            --------------------------
 ! Name  Definition              Value          Derivative Info.                !
 --------------------------------------------------------------------------------
 ! R1    R(1,2)                  1.2205         calculate D2E/DX2 analytically  !
 ! R2    R(2,3)                  1.3768         calculate D2E/DX2 analytically  !
 ! R3    R(2,14)                 1.5179         calculate D2E/DX2 analytically  !
 ! R4    R(3,4)                  1.4519         calculate D2E/DX2 analytically  !
 ! R5    R(3,17)                 1.0141         calculate D2E/DX2 analytically  !
 ! R6    R(4,5)                  1.5373         calculate D2E/DX2 analytically  !
 ! R7    R(4,8)                  1.542          calculate D2E/DX2 analytically  !
 ! R8    R(4,18)                 1.0911         calculate D2E/DX2 analytically  !
 ! R9    R(5,6)                  1.336          calculate D2E/DX2 analytically  !
 ! R10   R(5,7)                  1.2049         calculate D2E/DX2 analytically  !
 ! R11   R(6,19)                 0.972          calculate D2E/DX2 analytically  !
 ! R12   R(8,9)                  1.4929         calculate D2E/DX2 analytically  !
 ! R13   R(8,20)                 1.0914         calculate D2E/DX2 analytically  !
 ! R14   R(8,21)                 1.0883         calculate D2E/DX2 analytically  !
 ! R15   R(9,10)                 1.3631         calculate D2E/DX2 analytically  !
 ! R16   R(9,13)                 1.3711         calculate D2E/DX2 analytically  !
 ! R17   R(10,11)                1.3826         calculate D2E/DX2 analytically  !
 ! R18   R(10,22)                1.0789         calculate D2E/DX2 analytically  !
 ! R19   R(11,12)                1.3099         calculate D2E/DX2 analytically  !
 ! R20   R(12,13)                1.3592         calculate D2E/DX2 analytically  !
 ! R21   R(12,23)                1.0759         calculate D2E/DX2 analytically  !
 ! R22   R(13,24)                1.0099         calculate D2E/DX2 analytically  !
 ! R23   R(14,15)                1.526          calculate D2E/DX2 analytically  !
 ! R24   R(14,25)                1.0951         calculate D2E/DX2 analytically  !
 ! R25   R(14,26)                1.0968         calculate D2E/DX2 analytically  !
 ! R26   R(15,16)                1.4554         calculate D2E/DX2 analytically  !
 ! R27   R(15,27)                1.0915         calculate D2E/DX2 analytically  !
 ! R28   R(15,28)                1.0932         calculate D2E/DX2 analytically  !
 ! R29   R(16,29)                1.014          calculate D2E/DX2 analytically  !
 ! R30   R(16,30)                1.0149         calculate D2E/DX2 analytically  !
 ! A1    A(1,2,3)              119.6035         calculate D2E/DX2 analytically  !
 ! A2    A(1,2,14)             123.04           calculate D2E/DX2 analytically  !
 ! A3    A(3,2,14)             117.3065         calculate D2E/DX2 analytically  !
 ! A4    A(2,3,4)              125.904          calculate D2E/DX2 analytically  !
 ! A5    A(2,3,17)             111.1928         calculate D2E/DX2 analytically  !
 ! A6    A(4,3,17)             116.9738         calculate D2E/DX2 analytically  !
 ! A7    A(3,4,5)              110.7664         calculate D2E/DX2 analytically  !
 ! A8    A(3,4,8)              111.347          calculate D2E/DX2 analytically  !
 ! A9    A(3,4,18)             107.5253         calculate D2E/DX2 analytically  !
 ! A10   A(5,4,8)              112.5815         calculate D2E/DX2 analytically  !
 ! A11   A(5,4,18)             105.3371         calculate D2E/DX2 analytically  !
 ! A12   A(8,4,18)             108.9662         calculate D2E/DX2 analytically  !
 ! A13   A(4,5,6)              115.2759         calculate D2E/DX2 analytically  !
 ! A14   A(4,5,7)              123.32           calculate D2E/DX2 analytically  !
 ! A15   A(6,5,7)              121.3869         calculate D2E/DX2 analytically  !
 ! A16   A(5,6,19)             108.3499         calculate D2E/DX2 analytically  !
 ! A17   A(4,8,9)              114.1036         calculate D2E/DX2 analytically  !
 ! A18   A(4,8,20)             108.8859         calculate D2E/DX2 analytically  !
 ! A19   A(4,8,21)             108.7983         calculate D2E/DX2 analytically  !
 ! A20   A(9,8,20)             111.2071         calculate D2E/DX2 analytically  !
 ! A21   A(9,8,21)             106.7145         calculate D2E/DX2 analytically  !
 ! A22   A(20,8,21)            106.8403         calculate D2E/DX2 analytically  !
 ! A23   A(8,9,10)             131.3425         calculate D2E/DX2 analytically  !
 ! A24   A(8,9,13)             123.5522         calculate D2E/DX2 analytically  !
 ! A25   A(10,9,13)            105.1028         calculate D2E/DX2 analytically  !
 ! A26   A(9,10,11)            110.5822         calculate D2E/DX2 analytically  !
 ! A27   A(9,10,22)            128.2644         calculate D2E/DX2 analytically  !
 ! A28   A(11,10,22)           121.1521         calculate D2E/DX2 analytically  !
 ! A29   A(10,11,12)           105.1456         calculate D2E/DX2 analytically  !
 ! A30   A(11,12,13)           111.5099         calculate D2E/DX2 analytically  !
 ! A31   A(11,12,23)           126.6264         calculate D2E/DX2 analytically  !
 ! A32   A(13,12,23)           121.8634         calculate D2E/DX2 analytically  !
 ! A33   A(9,13,12)            107.6581         calculate D2E/DX2 analytically  !
 ! A34   A(9,13,24)            123.4952         calculate D2E/DX2 analytically  !
 ! A35   A(12,13,24)           128.8467         calculate D2E/DX2 analytically  !
 ! A36   A(2,14,15)            112.2951         calculate D2E/DX2 analytically  !
 ! A37   A(2,14,25)            108.844          calculate D2E/DX2 analytically  !
 ! A38   A(2,14,26)            108.8205         calculate D2E/DX2 analytically  !
 ! A39   A(15,14,25)           109.8114         calculate D2E/DX2 analytically  !
 ! A40   A(15,14,26)           110.1863         calculate D2E/DX2 analytically  !
 ! A41   A(25,14,26)           106.7147         calculate D2E/DX2 analytically  !
 ! A42   A(14,15,16)           115.5643         calculate D2E/DX2 analytically  !
 ! A43   A(14,15,27)           108.8135         calculate D2E/DX2 analytically  !
 ! A44   A(14,15,28)           108.9203         calculate D2E/DX2 analytically  !
 ! A45   A(16,15,27)           107.4558         calculate D2E/DX2 analytically  !
 ! A46   A(16,15,28)           108.521          calculate D2E/DX2 analytically  !
 ! A47   A(27,15,28)           107.2617         calculate D2E/DX2 analytically  !
 ! A48   A(15,16,29)           110.0871         calculate D2E/DX2 analytically  !
 ! A49   A(15,16,30)           108.224          calculate D2E/DX2 analytically  !
 ! A50   A(29,16,30)           106.6573         calculate D2E/DX2 analytically  !
 ! D1    D(1,2,3,4)           -163.0385         calculate D2E/DX2 analytically  !
 ! D2    D(1,2,3,17)           -11.2382         calculate D2E/DX2 analytically  !
 ! D3    D(14,2,3,4)            19.4548         calculate D2E/DX2 analytically  !
 ! D4    D(14,2,3,17)          171.2551         calculate D2E/DX2 analytically  !
 ! D5    D(1,2,14,15)           -2.7675         calculate D2E/DX2 analytically  !
 ! D6    D(1,2,14,25)          119.0351         calculate D2E/DX2 analytically  !
 ! D7    D(1,2,14,26)         -125.0281         calculate D2E/DX2 analytically  !
 ! D8    D(3,2,14,15)          174.6464         calculate D2E/DX2 analytically  !
 ! D9    D(3,2,14,25)          -63.5511         calculate D2E/DX2 analytically  !
 ! D10   D(3,2,14,26)           52.3857         calculate D2E/DX2 analytically  !
 ! D11   D(2,3,4,5)           -134.8834         calculate D2E/DX2 analytically  !
 ! D12   D(2,3,4,8)             99.0215         calculate D2E/DX2 analytically  !
 ! D13   D(2,3,4,18)           -20.2766         calculate D2E/DX2 analytically  !
 ! D14   D(17,3,4,5)            74.7447         calculate D2E/DX2 analytically  !
 ! D15   D(17,3,4,8)           -51.3504         calculate D2E/DX2 analytically  !
 ! D16   D(17,3,4,18)         -170.6486         calculate D2E/DX2 analytically  !
 ! D17   D(3,4,5,6)             23.8293         calculate D2E/DX2 analytically  !
 ! D18   D(3,4,5,7)           -157.6646         calculate D2E/DX2 analytically  !
 ! D19   D(8,4,5,6)            149.2328         calculate D2E/DX2 analytically  !
 ! D20   D(8,4,5,7)            -32.2611         calculate D2E/DX2 analytically  !
 ! D21   D(18,4,5,6)           -92.1433         calculate D2E/DX2 analytically  !
 ! D22   D(18,4,5,7)            86.3628         calculate D2E/DX2 analytically  !
 ! D23   D(3,4,8,9)           -152.0728         calculate D2E/DX2 analytically  !
 ! D24   D(3,4,8,20)            83.0445         calculate D2E/DX2 analytically  !
 ! D25   D(3,4,8,21)           -33.0524         calculate D2E/DX2 analytically  !
 ! D26   D(5,4,8,9)             82.84           calculate D2E/DX2 analytically  !
 ! D27   D(5,4,8,20)           -42.0426         calculate D2E/DX2 analytically  !
 ! D28   D(5,4,8,21)          -158.1396         calculate D2E/DX2 analytically  !
 ! D29   D(18,4,8,9)           -33.6364         calculate D2E/DX2 analytically  !
 ! D30   D(18,4,8,20)         -158.519          calculate D2E/DX2 analytically  !
 ! D31   D(18,4,8,21)           85.384          calculate D2E/DX2 analytically  !
 ! D32   D(4,5,6,19)            -3.6863         calculate D2E/DX2 analytically  !
 ! D33   D(7,5,6,19)           177.776          calculate D2E/DX2 analytically  !
 ! D34   D(4,8,9,10)           122.7649         calculate D2E/DX2 analytically  !
 ! D35   D(4,8,9,13)           -56.5688         calculate D2E/DX2 analytically  !
 ! D36   D(20,8,9,10)         -113.596          calculate D2E/DX2 analytically  !
 ! D37   D(20,8,9,13)           67.0704         calculate D2E/DX2 analytically  !
 ! D38   D(21,8,9,10)            2.5702         calculate D2E/DX2 analytically  !
 ! D39   D(21,8,9,13)         -176.7635         calculate D2E/DX2 analytically  !
 ! D40   D(8,9,10,11)         -179.668          calculate D2E/DX2 analytically  !
 ! D41   D(8,9,10,22)            0.7448         calculate D2E/DX2 analytically  !
 ! D42   D(13,9,10,11)          -0.2431         calculate D2E/DX2 analytically  !
 ! D43   D(13,9,10,22)        -179.8304         calculate D2E/DX2 analytically  !
 ! D44   D(8,9,13,12)          179.8357         calculate D2E/DX2 analytically  !
 ! D45   D(8,9,13,24)           -0.1672         calculate D2E/DX2 analytically  !
 ! D46   D(10,9,13,12)           0.3539         calculate D2E/DX2 analytically  !
 ! D47   D(10,9,13,24)        -179.6491         calculate D2E/DX2 analytically  !
 ! D48   D(9,10,11,12)           0.0335         calculate D2E/DX2 analytically  !
 ! D49   D(22,10,11,12)        179.6548         calculate D2E/DX2 analytically  !
 ! D50   D(10,11,12,13)          0.1996         calculate D2E/DX2 analytically  !
 ! D51   D(10,11,12,23)       -179.6095         calculate D2E/DX2 analytically  !
 ! D52   D(11,12,13,9)          -0.3581         calculate D2E/DX2 analytically  !
 ! D53   D(11,12,13,24)        179.6451         calculate D2E/DX2 analytically  !
 ! D54   D(23,12,13,9)         179.4615         calculate D2E/DX2 analytically  !
 ! D55   D(23,12,13,24)         -0.5354         calculate D2E/DX2 analytically  !
 ! D56   D(2,14,15,16)         -61.6341         calculate D2E/DX2 analytically  !
 ! D57   D(2,14,15,27)          59.314          calculate D2E/DX2 analytically  !
 ! D58   D(2,14,15,28)         175.9403         calculate D2E/DX2 analytically  !
 ! D59   D(25,14,15,16)        177.1165         calculate D2E/DX2 analytically  !
 ! D60   D(25,14,15,27)        -61.9354         calculate D2E/DX2 analytically  !
 ! D61   D(25,14,15,28)         54.6909         calculate D2E/DX2 analytically  !
 ! D62   D(26,14,15,16)         59.8484         calculate D2E/DX2 analytically  !
 ! D63   D(26,14,15,27)       -179.2034         calculate D2E/DX2 analytically  !
 ! D64   D(26,14,15,28)        -62.5771         calculate D2E/DX2 analytically  !
 ! D65   D(14,15,16,29)        -55.923          calculate D2E/DX2 analytically  !
 ! D66   D(14,15,16,30)         60.2916         calculate D2E/DX2 analytically  !
 ! D67   D(27,15,16,29)       -177.6021         calculate D2E/DX2 analytically  !
 ! D68   D(27,15,16,30)        -61.3876         calculate D2E/DX2 analytically  !
 ! D69   D(28,15,16,29)         66.7147         calculate D2E/DX2 analytically  !
 ! D70   D(28,15,16,30)       -177.0708         calculate D2E/DX2 analytically  !
 --------------------------------------------------------------------------------
 Trust Radius=3.00D-01 FncErr=1.00D-07 GrdErr=1.00D-06
 Number of steps in this run=    160 maximum allowed number of steps=    180.
 GradGradGradGradGradGradGradGradGradGradGradGradGradGradGradGradGradGrad

                          Input orientation:                          
 ---------------------------------------------------------------------
 Center     Atomic      Atomic             Coordinates (Angstroms)
 Number     Number       Type             X           Y           Z
 ---------------------------------------------------------------------
      1          8           0        2.725971    1.584423    0.804964
      2          6           0        1.890253    0.794201    0.396535
      3          7           0        1.018228    1.179373   -0.596848
      4          6           0       -0.223423    0.512422   -0.945592
      5          6           0       -0.353465    0.365177   -2.470292
      6          8           0        0.799382    0.381175   -3.145336
      7          8           0       -1.408327    0.216853   -3.033330
      8          6           0       -1.438118    1.221322   -0.313451
      9          6           0       -2.599832    0.321563   -0.049549
     10          6           0       -3.276084    0.037720    1.099414
     11          7           0       -4.289075   -0.871068    0.855325
     12          6           0       -4.217169   -1.127420   -0.427213
     13          7           0       -3.208396   -0.434153   -1.018235
     14          6           0        1.792865   -0.637241    0.892133
     15          6           0        2.891674   -0.978892    1.894484
     16          7           0        4.253425   -0.887160    1.389122
     17          1           0        1.063800    2.179732   -0.757100
     18          1           0       -0.168050   -0.507092   -0.560880
     19          1           0        1.520703    0.546501   -2.515168
     20          1           0       -1.725825    2.061974   -0.947285
     21          1           0       -1.140410    1.637918    0.646836
     22          1           0       -3.106286    0.431698    2.089360
     23          1           0       -4.853822   -1.790798   -0.985847
     24          1           0       -2.918858   -0.438301   -1.985735
     25          1           0        0.810684   -0.785913    1.353080
     26          1           0        1.842697   -1.314126    0.030580
     27          1           0        2.812732   -0.302459    2.747501
     28          1           0        2.727601   -1.992983    2.268367
     29          1           0        4.360421   -1.472691    0.568202
     30          1           0        4.416630    0.068305    1.088249
 ---------------------------------------------------------------------
                    Distance matrix (angstroms):
                    1          2          3          4          5
     1  O    0.000000
     2  C    1.220528   0.000000
     3  N    2.246225   1.376806   0.000000
     4  C    3.593404   2.519590   1.451945   0.000000
     5  C    4.657981   3.665655   2.460538   1.537303   0.000000
     6  O    4.556799   3.729000   2.679516   2.429450   1.336037
     7  O    5.804754   4.793531   3.570863   2.418679   1.204885
     8  C    4.326931   3.429952   2.472997   1.541956   2.561527
     9  C    5.539781   4.536875   3.758421   2.546888   3.302736
    10  C    6.205131   5.268523   4.756237   3.704879   4.625119
    11  N    7.432553   6.416207   5.872017   4.656917   5.298779
    12  C    7.555100   6.455369   5.723588   4.348311   4.618466
    13  N    6.528048   5.432002   4.543719   3.132306   3.301217
    14  C    2.411239   1.517936   2.473300   2.960469   4.113086
    15  C    2.790178   2.527955   3.791391   4.471452   5.602564
    16  N    2.963626   3.065418   4.322167   5.239455   6.138962
    17  H    2.357381   1.983328   1.014138   2.114804   2.869891
    18  H    3.822999   2.616605   2.062211   1.091090   2.107388
    19  H    3.681471   2.945495   2.081576   2.346637   1.883453
    20  H    4.808005   4.060680   2.903725   2.158316   2.661211
    21  H    3.869982   3.155856   2.533126   2.154862   3.457692
    22  H    6.082241   5.287955   4.978589   4.186687   5.326619
    23  H    8.488367   7.353622   6.591981   5.171754   5.206248
    24  H    6.613888   5.506526   4.477335   3.041569   2.731596
    25  H    3.096328   2.139441   2.776264   2.835303   4.159138
    26  H    3.127527   2.140381   2.700176   2.925413   3.727942
    27  H    2.709483   2.753302   4.074401   4.849867   6.139699
    28  H    3.865150   3.460246   4.603830   5.031415   6.124441
    29  H    3.474684   3.357083   4.422786   5.219567   5.901773
    30  H    2.288491   2.718083   3.952614   5.085651   5.958620
                    6          7          8          9         10
     6  O    0.000000
     7  O    2.216648   0.000000
     8  C    3.705648   2.899585   0.000000
     9  C    4.598055   3.214592   1.492913   0.000000
    10  C    5.894513   4.538742   2.602925   1.363084   0.000000
    11  N    6.592859   4.960234   3.724525   2.257146   1.382616
    12  C    5.901681   4.060605   3.640420   2.204078   2.138640
    13  N    4.609946   2.779328   2.524124   1.371061   2.170640
    14  C    4.280810   5.136767   3.917518   4.593675   5.117888
    15  C    5.623812   6.648547   5.335075   5.968843   6.301339
    16  N    5.839554   7.268587   6.303817   7.106188   7.591629
    17  H    3.001399   3.891726   2.715690   4.168407   5.183575
    18  H    2.899026   2.859264   2.159099   2.619482   3.565567
    19  H    0.971981   2.992721   3.749342   4.807149   6.027704
    20  H    3.746089   2.803010   1.091429   2.144493   3.269539
    21  H    4.441031   3.954090   1.088270   2.085103   2.706763
    22  H    6.531373   5.401035   3.029816   2.200808   1.078908
    23  H    6.429586   4.482665   4.603479   3.227877   3.190775
    24  H    3.980141   1.951509   2.782710   2.104279   3.142030
    25  H    4.647362   5.016986   3.444333   3.850388   4.176648
    26  H    3.748199   4.722352   4.160602   4.734761   5.401093
    27  H    6.264700   7.176701   5.455371   6.124438   6.317088
    28  H    6.217945   7.077943   5.860952   6.253911   6.444722
    29  H    5.468838   7.007429   6.454307   7.214297   7.802547
    30  H    5.577241   7.137199   6.129624   7.112627   7.692783
                   11         12         13         14         15
    11  N    0.000000
    12  C    1.309881   0.000000
    13  N    2.206578   1.359246   0.000000
    14  C    6.086545   6.172638   5.357551   0.000000
    15  C    7.256352   7.479839   6.781705   1.526046   0.000000
    16  N    8.559176   8.666473   7.853620   2.522659   1.455393
    17  H    6.368718   6.239769   5.015201   3.344674   4.510978
    18  H    4.372752   4.098541   3.075417   2.444049   3.951370
    19  H    6.864637   6.331251   5.056369   3.617322   4.863273
    20  H    4.292131   4.080381   2.904084   4.801083   6.216415
    21  H    4.031448   4.274006   3.367863   3.720299   4.966088
    22  H    2.149194   3.161969   3.227579   5.155353   6.164679
    23  H    2.134187   1.075857   2.132829   7.002568   8.303506
    24  H    3.183772   2.142309   1.009904   5.524675   7.007898
    25  H    5.124700   5.344659   4.679730   1.095105   2.158908
    26  H    6.202833   6.080001   5.233345   1.096781   2.164919
    27  H    7.371521   7.757505   7.102964   2.143502   1.091527
    28  H    7.244938   7.499679   6.961879   2.146110   1.093201
    29  H    8.675147   8.642055   7.802713   2.719421   2.039627
    30  H    8.759337   8.846970   7.926586   2.724042   2.017951
                   16         17         18         19         20
    16  N    0.000000
    17  H    4.917906   0.000000
    18  H    4.847309   2.962259   0.000000
    19  H    4.976609   2.442745   2.789478   0.000000
    20  H    7.064532   2.798579   3.029203   3.910864   0.000000
    21  H    6.001704   2.668921   2.646720   4.274456   1.750358
    22  H    7.509664   5.342993   4.066734   6.528697   3.712773
    23  H    9.455104   7.129915   4.876982   6.959624   4.962832
    24  H    7.939318   4.921911   3.098691   4.578191   2.958561
    25  H    3.444418   3.648558   2.167696   4.152445   4.453764
    26  H    2.799918   3.665264   2.245938   3.169613   5.008854
    27  H    2.064622   4.637053   4.457839   5.485049   6.311932
    28  H    2.079436   5.416016   4.312460   5.548675   6.827599
    29  H    1.014004   5.095520   4.765949   4.652775   7.199511
    30  H    1.014926   4.370915   4.906119   4.647546   6.771105
                   21         22         23         24         25
    21  H    0.000000
    22  H    2.720388   0.000000
    23  H    5.311419   4.177351   0.000000
    24  H    3.795259   4.171142   2.563808   0.000000
    25  H    3.190690   4.167413   6.210234   5.017769   0.000000
    26  H    4.241846   5.637278   6.789972   5.244522   1.758712
    27  H    4.879056   6.000576   8.656160   7.434589   2.487235
    28  H    5.547460   6.320234   8.252804   7.238572   2.443224
    29  H    6.319906   7.854447   9.349788   7.783346   3.699775
    30  H    5.791306   7.597930   9.679847   7.969656   3.715195
                   26         27         28         29         30
    26  H    0.000000
    27  H    3.057139   0.000000
    28  H    2.500318   1.759173   0.000000
    29  H    2.579363   2.917898   2.413994   0.000000
    30  H    3.107235   2.337322   2.914517   1.627353   0.000000
 Symmetry turned off by external request.
 Stoichiometry    C9H14N4O3
 Framework group  C1[X(C9H14N4O3)]
 Deg. of freedom    84
 Full point group                 C1      NOp   1
 Rotational constants (GHZ):      0.7676288      0.2889335      0.2376474
 Standard basis: 6-311G(d,p) (5D, 7F)
   372 basis functions,   624 primitive gaussians,   388 cartesian basis functions
    60 alpha electrons       60 beta electrons
       nuclear repulsion energy      1119.2355079682 Hartrees.
 NAtoms=   30 NActive=   30 NUniq=   30 SFac= 1.00D+00 NAtFMM=   60 NAOKFM=F Big=F
 Integral buffers will be    131072 words long.
 Raffenetti 2 integral format.
 Two-electron integral symmetry is turned off.
 Nuclear repulsion after empirical dispersion term =     1119.1802395276 Hartrees.
 One-electron integrals computed using PRISM.
 NBasis=   372 RedAO= T EigKep=  5.29D-04  NBF=   372
 NBsUse=   372 1.00D-06 EigRej= -1.00D+00 NBFU=   372
 ExpMin= 1.03D-01 ExpMax= 8.59D+03 ExpMxC= 1.30D+03 IAcc=3 IRadAn=         5 AccDes= 0.00D+00
 Harris functional with IExCor=  402 and IRadAn=       5 diagonalized for initial guess.
 HarFok:  IExCor=  402 AccDes= 0.00D+00 IRadAn=         5 IDoV= 1 UseB2=F ITyADJ=14
 ICtDFT=  3500011 ScaDFX=  1.000000  1.000000  1.000000  1.000000
 FoFCou: FMM=F IPFlag=           0 FMFlag=      100000 FMFlg1=           0
         NFxFlg=           0 DoJE=T BraDBF=F KetDBF=T FulRan=T
         wScrn=  0.000000 ICntrl=     500 IOpCl=  0 I1Cent=   200000004 NGrid=           0
         NMat0=    1 NMatS0=      1 NMatT0=    0 NMatD0=    1 NMtDS0=    0 NMtDT0=    0
 Symmetry not used in FoFCou.
 Requested convergence on RMS density matrix=1.00D-08 within 128 cycles.
 Requested convergence on MAX density matrix=1.00D-06.
 Requested convergence on             energy=1.00D-06.
 No special actions if energy rises.
 Integral accuracy reduced to 1.0D-05 until final iterations.
 Initial convergence to 1.0D-05 achieved.  Increase integral accuracy.
 SCF Done:  E(RB3LYP) =  -796.359187780     A.U. after   14 cycles
            NFock= 14  Conv=0.80D-08     -V/T= 2.0033
 DoSCS=F DFT=T ScalE2(SS,OS)=  1.000000  1.000000
 Range of M.O.s used for correlation:     1   372
 NBasis=   372 NAE=    60 NBE=    60 NFC=     0 NFV=     0
 NROrb=    372 NOA=    60 NOB=    60 NVA=   312 NVB=   312
 Symmetrizing basis deriv contribution to polar:
 IMax=3 JMax=2 DiffMx= 0.00D+00
 G2DrvN: will do    31 centers at a time, making    1 passes.
 Calling FoFCou, ICntrl=  3107 FMM=F I1Cent=   0 AccDes= 0.00D+00.
 End of G2Drv F.D. properties file   721 does not exist.
 End of G2Drv F.D. properties file   722 does not exist.
 End of G2Drv F.D. properties file   788 does not exist.
          IDoAtm=111111111111111111111111111111
          Differentiating once with respect to nuclear coordinates.
          There are    93 degrees of freedom in the 1st order CPHF.  IDoFFX=6 NUNeed=     0.
     87 vectors produced by pass  0 Test12= 2.01D-14 1.08D-09 XBig12= 1.94D-01 8.68D-02.
 AX will form    87 AO Fock derivatives at one time.
     87 vectors produced by pass  1 Test12= 2.01D-14 1.08D-09 XBig12= 2.05D-02 3.90D-02.
     87 vectors produced by pass  2 Test12= 2.01D-14 1.08D-09 XBig12= 2.33D-04 3.16D-03.
     87 vectors produced by pass  3 Test12= 2.01D-14 1.08D-09 XBig12= 8.92D-07 1.83D-04.
     87 vectors produced by pass  4 Test12= 2.01D-14 1.08D-09 XBig12= 1.84D-09 4.12D-06.
     79 vectors produced by pass  5 Test12= 2.01D-14 1.08D-09 XBig12= 2.68D-12 1.53D-07.
     24 vectors produced by pass  6 Test12= 2.01D-14 1.08D-09 XBig12= 2.89D-15 6.02D-09.
 InvSVY:  IOpt=1 It=  1 EMax= 5.55D-16
 Solved reduced A of dimension   538 with    93 vectors.
 End of Minotr F.D. properties file   721 does not exist.
 End of Minotr F.D. properties file   722 does not exist.
 End of Minotr F.D. properties file   788 does not exist.

 **********************************************************************

            Population analysis using the SCF density.

 **********************************************************************

 Alpha  occ. eigenvalues --  -19.19870 -19.14383 -19.12061 -14.37944 -14.35885
 Alpha  occ. eigenvalues --  -14.28784 -14.28594 -10.34114 -10.30844 -10.26963
 Alpha  occ. eigenvalues --  -10.21958 -10.21601 -10.20797 -10.20568 -10.20545
 Alpha  occ. eigenvalues --  -10.18116  -1.14636  -1.07883  -1.06451  -1.01939
 Alpha  occ. eigenvalues --   -0.97399  -0.89346  -0.87235  -0.82482  -0.78419
 Alpha  occ. eigenvalues --   -0.75748  -0.69676  -0.66803  -0.65289  -0.61392
 Alpha  occ. eigenvalues --   -0.60432  -0.59675  -0.58413  -0.55268  -0.54316
 Alpha  occ. eigenvalues --   -0.52065  -0.49768  -0.49373  -0.48915  -0.47986
 Alpha  occ. eigenvalues --   -0.46513  -0.44930  -0.44427  -0.44043  -0.43646
 Alpha  occ. eigenvalues --   -0.42519  -0.41422  -0.41207  -0.40755  -0.39604
 Alpha  occ. eigenvalues --   -0.38737  -0.37045  -0.35893  -0.33128  -0.30688
 Alpha  occ. eigenvalues --   -0.28982  -0.28277  -0.26778  -0.24625  -0.23426
 Alpha virt. eigenvalues --   -0.03609  -0.02406   0.00496   0.01812   0.02760
 Alpha virt. eigenvalues --    0.03837   0.05008   0.05596   0.06508   0.07261
 Alpha virt. eigenvalues --    0.07684   0.08174   0.08895   0.10436   0.10761
 Alpha virt. eigenvalues --    0.11241   0.12552   0.13928   0.14966   0.16873
 Alpha virt. eigenvalues --    0.18875   0.19917   0.20249   0.20720   0.21464
 Alpha virt. eigenvalues --    0.22475   0.24474   0.24836   0.26870   0.27998
 Alpha virt. eigenvalues --    0.29103   0.30992   0.32430   0.32853   0.33053
 Alpha virt. eigenvalues --    0.33817   0.34607   0.35941   0.37173   0.37333
 Alpha virt. eigenvalues --    0.37886   0.39235   0.40222   0.40984   0.41230
 Alpha virt. eigenvalues --    0.42632   0.44141   0.45033   0.45713   0.46228
 Alpha virt. eigenvalues --    0.47790   0.48243   0.49243   0.50447   0.50967
 Alpha virt. eigenvalues --    0.51433   0.53303   0.53776   0.54673   0.55433
 Alpha virt. eigenvalues --    0.56947   0.57082   0.57594   0.57967   0.58260
 Alpha virt. eigenvalues --    0.58778   0.59484   0.59653   0.60665   0.62040
 Alpha virt. eigenvalues --    0.62302   0.62992   0.63566   0.65012   0.67022
 Alpha virt. eigenvalues --    0.68627   0.69623   0.70223   0.71617   0.72003
 Alpha virt. eigenvalues --    0.73074   0.74514   0.75586   0.76344   0.76813
 Alpha virt. eigenvalues --    0.78695   0.79015   0.80954   0.82961   0.83209
 Alpha virt. eigenvalues --    0.85106   0.85559   0.88329   0.90679   0.91852
 Alpha virt. eigenvalues --    0.93045   0.93826   0.97329   0.98386   0.99264
 Alpha virt. eigenvalues --    1.01202   1.03078   1.03921   1.05346   1.06666
 Alpha virt. eigenvalues --    1.09719   1.11365   1.11702   1.12649   1.14320
 Alpha virt. eigenvalues --    1.17884   1.18569   1.18744   1.19657   1.21525
 Alpha virt. eigenvalues --    1.24419   1.26263   1.27625   1.29781   1.30606
 Alpha virt. eigenvalues --    1.33304   1.34403   1.35119   1.36717   1.37172
 Alpha virt. eigenvalues --    1.40175   1.40860   1.41455   1.43526   1.45779
 Alpha virt. eigenvalues --    1.47990   1.48944   1.49422   1.49980   1.51410
 Alpha virt. eigenvalues --    1.51709   1.54158   1.55383   1.56297   1.57407
 Alpha virt. eigenvalues --    1.58090   1.59045   1.60076   1.61630   1.62610
 Alpha virt. eigenvalues --    1.64758   1.65397   1.66824   1.67335   1.68195
 Alpha virt. eigenvalues --    1.69893   1.70699   1.71021   1.72156   1.72340
 Alpha virt. eigenvalues --    1.73202   1.75603   1.76481   1.77329   1.79668
 Alpha virt. eigenvalues --    1.80421   1.80912   1.82903   1.84193   1.85403
 Alpha virt. eigenvalues --    1.86773   1.87220   1.89159   1.91292   1.92470
 Alpha virt. eigenvalues --    1.95194   1.96652   1.99361   2.01025   2.02424
 Alpha virt. eigenvalues --    2.04242   2.06193   2.06953   2.11392   2.11907
 Alpha virt. eigenvalues --    2.14228   2.14778   2.17822   2.19570   2.20640
 Alpha virt. eigenvalues --    2.22560   2.23814   2.25255   2.26160   2.29608
 Alpha virt. eigenvalues --    2.32829   2.34504   2.37159   2.38786   2.39767
 Alpha virt. eigenvalues --    2.42998   2.43391   2.44656   2.45226   2.46736
 Alpha virt. eigenvalues --    2.47542   2.49106   2.50636   2.53570   2.54515
 Alpha virt. eigenvalues --    2.55149   2.57489   2.58179   2.58685   2.60065
 Alpha virt. eigenvalues --    2.62154   2.62420   2.62529   2.63100   2.64563
 Alpha virt. eigenvalues --    2.65829   2.66495   2.69799   2.71707   2.72909
 Alpha virt. eigenvalues --    2.73382   2.74862   2.75829   2.77101   2.81245
 Alpha virt. eigenvalues --    2.81788   2.82683   2.83773   2.84957   2.86246
 Alpha virt. eigenvalues --    2.87141   2.89386   2.90312   2.91519   2.92497
 Alpha virt. eigenvalues --    2.95721   2.96632   2.97064   2.99849   3.01613
 Alpha virt. eigenvalues --    3.03821   3.04620   3.06713   3.10975   3.13076
 Alpha virt. eigenvalues --    3.14874   3.17923   3.23372   3.27544   3.30152
 Alpha virt. eigenvalues --    3.31068   3.33377   3.33670   3.37785   3.44057
 Alpha virt. eigenvalues --    3.47129   3.47380   3.49803   3.54125   3.58005
 Alpha virt. eigenvalues --    3.64439   3.65879   3.67809   3.75529   3.77560
 Alpha virt. eigenvalues --    3.78221   3.79719   3.81082   3.82025   3.82564
 Alpha virt. eigenvalues --    3.85184   3.88755   3.91949   3.99848   4.02771
 Alpha virt. eigenvalues --    4.04782   4.19723   4.22080   4.31552   4.41717
 Alpha virt. eigenvalues --    4.73065   4.73914   4.76931   4.79141   4.84847
 Alpha virt. eigenvalues --    4.90227   4.91971   4.93232   4.95507   5.07080
 Alpha virt. eigenvalues --    5.09272   5.25811   5.28642   5.51149   5.63530
 Alpha virt. eigenvalues --    5.78654  23.70168  23.72679  23.74361  23.78916
 Alpha virt. eigenvalues --   23.83189  23.85471  23.88409  23.92882  24.15839
 Alpha virt. eigenvalues --   35.52648  35.55004  35.57945  35.69531  49.81064
 Alpha virt. eigenvalues --   49.96482  49.98370
          Condensed to atoms (all electrons):
               1          2          3          4          5          6
     1  O    7.837954   0.665826  -0.095207   0.002562  -0.000084   0.000011
     2  C    0.665826   4.576319   0.347013  -0.048359   0.002226   0.000790
     3  N   -0.095207   0.347013   6.839412   0.203526  -0.039630  -0.011699
     4  C    0.002562  -0.048359   0.203526   5.506424   0.234422  -0.092089
     5  C   -0.000084   0.002226  -0.039630   0.234422   4.503159   0.374428
     6  O    0.000011   0.000790  -0.011699  -0.092089   0.374428   7.754108
     7  O    0.000000  -0.000036   0.002482  -0.104916   0.621219  -0.067212
     8  C   -0.000078   0.000373  -0.061205   0.285010  -0.059813   0.002445
     9  C   -0.000010   0.000089   0.007010  -0.073564   0.000356   0.000076
    10  C    0.000000  -0.000027  -0.000075  -0.001585   0.000114   0.000002
    11  N    0.000000   0.000000   0.000000  -0.000150  -0.000005   0.000000
    12  C    0.000000   0.000000   0.000005   0.000142   0.000172   0.000001
    13  N    0.000000   0.000009   0.000087   0.000220   0.000533  -0.000023
    14  C   -0.113152   0.224731  -0.105821  -0.003054  -0.000014  -0.000486
    15  C    0.019505  -0.046804   0.005673   0.000185  -0.000005  -0.000004
    16  N   -0.012710  -0.003678  -0.000284   0.000006   0.000006   0.000000
    17  H    0.014520  -0.027148   0.347878  -0.046899   0.000283   0.002487
    18  H    0.000278  -0.011730  -0.023087   0.386850  -0.026342   0.001111
    19  H   -0.000807   0.000970   0.036431  -0.004491  -0.043024   0.313101
    20  H    0.000003  -0.000674   0.000012  -0.055549  -0.004165   0.000056
    21  H   -0.000258   0.001729   0.000536  -0.036868   0.005594  -0.000207
    22  H    0.000000  -0.000001  -0.000013   0.000052  -0.000007   0.000000
    23  H    0.000000   0.000000   0.000000  -0.000012   0.000026   0.000000
    24  H    0.000000   0.000014  -0.000012   0.000942  -0.006075   0.000360
    25  H    0.000894  -0.024574  -0.001370  -0.001688   0.000997  -0.000052
    26  H    0.001563  -0.037530   0.002892  -0.003821  -0.000458   0.000987
    27  H    0.007392  -0.008418   0.000668  -0.000189  -0.000003   0.000000
    28  H    0.000421   0.008742  -0.000185  -0.000008   0.000000   0.000000
    29  H    0.000104  -0.001386   0.000007  -0.000020   0.000003  -0.000003
    30  H    0.019162   0.005706   0.000151  -0.000016   0.000008   0.000002
               7          8          9         10         11         12
     1  O    0.000000  -0.000078  -0.000010   0.000000   0.000000   0.000000
     2  C   -0.000036   0.000373   0.000089  -0.000027   0.000000   0.000000
     3  N    0.002482  -0.061205   0.007010  -0.000075   0.000000   0.000005
     4  C   -0.104916   0.285010  -0.073564  -0.001585  -0.000150   0.000142
     5  C    0.621219  -0.059813   0.000356   0.000114  -0.000005   0.000172
     6  O   -0.067212   0.002445   0.000076   0.000002   0.000000   0.000001
     7  O    7.851510   0.023924  -0.008346   0.000145  -0.000020   0.000321
     8  C    0.023924   4.981750   0.289376  -0.031620   0.007956   0.006304
     9  C   -0.008346   0.289376   5.111025   0.564959  -0.091513  -0.126342
    10  C    0.000145  -0.031620   0.564959   4.851107   0.507759  -0.179432
    11  N   -0.000020   0.007956  -0.091513   0.507759   6.431104   0.580210
    12  C    0.000321   0.006304  -0.126342  -0.179432   0.580210   4.736204
    13  N   -0.014591  -0.055069   0.388382  -0.073615  -0.091609   0.428950
    14  C    0.000017  -0.002922  -0.000376  -0.000139   0.000000   0.000004
    15  C    0.000000   0.000004   0.000001   0.000001   0.000000   0.000000
    16  N    0.000000  -0.000003   0.000000   0.000000   0.000000   0.000000
    17  H   -0.000003  -0.002861   0.000241   0.000007   0.000000   0.000000
    18  H    0.000226  -0.035034   0.003753   0.000773  -0.000381  -0.000281
    19  H    0.003693   0.001879  -0.000275  -0.000004   0.000000  -0.000001
    20  H    0.004024   0.391264  -0.021363  -0.001441  -0.000272   0.000612
    21  H    0.000257   0.413728  -0.038931  -0.003203   0.000287  -0.000207
    22  H    0.000005  -0.000624  -0.053491   0.423719  -0.024853   0.008418
    23  H   -0.000077  -0.000407   0.004727   0.006388  -0.023503   0.415223
    24  H    0.035880   0.000929  -0.032273   0.007662   0.004942  -0.021006
    25  H   -0.000007  -0.001163   0.002170   0.001299   0.000003  -0.000073
    26  H   -0.000024   0.001235  -0.000079  -0.000015   0.000001   0.000002
    27  H    0.000000   0.000040  -0.000003  -0.000001   0.000000   0.000000
    28  H    0.000000  -0.000004   0.000000  -0.000001   0.000000   0.000000
    29  H    0.000000  -0.000001   0.000000   0.000000   0.000000   0.000000
    30  H    0.000000  -0.000004   0.000000   0.000000   0.000000   0.000000
              13         14         15         16         17         18
     1  O    0.000000  -0.113152   0.019505  -0.012710   0.014520   0.000278
     2  C    0.000009   0.224731  -0.046804  -0.003678  -0.027148  -0.011730
     3  N    0.000087  -0.105821   0.005673  -0.000284   0.347878  -0.023087
     4  C    0.000220  -0.003054   0.000185   0.000006  -0.046899   0.386850
     5  C    0.000533  -0.000014  -0.000005   0.000006   0.000283  -0.026342
     6  O   -0.000023  -0.000486  -0.000004   0.000000   0.002487   0.001111
     7  O   -0.014591   0.000017   0.000000   0.000000  -0.000003   0.000226
     8  C   -0.055069  -0.002922   0.000004  -0.000003  -0.002861  -0.035034
     9  C    0.388382  -0.000376   0.000001   0.000000   0.000241   0.003753
    10  C   -0.073615  -0.000139   0.000001   0.000000   0.000007   0.000773
    11  N   -0.091609   0.000000   0.000000   0.000000   0.000000  -0.000381
    12  C    0.428950   0.000004   0.000000   0.000000   0.000000  -0.000281
    13  N    6.463086  -0.000008   0.000000   0.000000  -0.000001   0.004284
    14  C   -0.000008   5.431677   0.329220  -0.062174   0.015050   0.004394
    15  C    0.000000   0.329220   4.783341   0.346603  -0.000566   0.000304
    16  N    0.000000  -0.062174   0.346603   6.463215   0.000070  -0.000080
    17  H   -0.000001   0.015050  -0.000566   0.000070   0.454019   0.005887
    18  H    0.004284   0.004394   0.000304  -0.000080   0.005887   0.497687
    19  H    0.000023  -0.000358   0.000020   0.000044  -0.000600  -0.000076
    20  H   -0.001614  -0.000035   0.000002   0.000000   0.002928   0.007875
    21  H    0.004455  -0.000576  -0.000025   0.000003  -0.000481  -0.002593
    22  H    0.004474   0.000004   0.000000   0.000000   0.000002   0.000066
    23  H   -0.037262   0.000000   0.000000   0.000000   0.000000   0.000014
    24  H    0.345394  -0.000003   0.000000   0.000000   0.000012  -0.000032
    25  H   -0.000153   0.356512  -0.020075   0.007646  -0.000818  -0.002610
    26  H   -0.000010   0.371284  -0.027527   0.001899  -0.000973  -0.000083
    27  H    0.000000  -0.054202   0.408686  -0.027949  -0.000105  -0.000013
    28  H    0.000000  -0.045903   0.409142  -0.027753   0.000030  -0.000005
    29  H    0.000000  -0.003679  -0.061189   0.373322  -0.000006  -0.000009
    30  H    0.000000  -0.006298  -0.054500   0.385696   0.000061  -0.000012
              19         20         21         22         23         24
     1  O   -0.000807   0.000003  -0.000258   0.000000   0.000000   0.000000
     2  C    0.000970  -0.000674   0.001729  -0.000001   0.000000   0.000014
     3  N    0.036431   0.000012   0.000536  -0.000013   0.000000  -0.000012
     4  C   -0.004491  -0.055549  -0.036868   0.000052  -0.000012   0.000942
     5  C   -0.043024  -0.004165   0.005594  -0.000007   0.000026  -0.006075
     6  O    0.313101   0.000056  -0.000207   0.000000   0.000000   0.000360
     7  O    0.003693   0.004024   0.000257   0.000005  -0.000077   0.035880
     8  C    0.001879   0.391264   0.413728  -0.000624  -0.000407   0.000929
     9  C   -0.000275  -0.021363  -0.038931  -0.053491   0.004727  -0.032273
    10  C   -0.000004  -0.001441  -0.003203   0.423719   0.006388   0.007662
    11  N    0.000000  -0.000272   0.000287  -0.024853  -0.023503   0.004942
    12  C   -0.000001   0.000612  -0.000207   0.008418   0.415223  -0.021006
    13  N    0.000023  -0.001614   0.004455   0.004474  -0.037262   0.345394
    14  C   -0.000358  -0.000035  -0.000576   0.000004   0.000000  -0.000003
    15  C    0.000020   0.000002  -0.000025   0.000000   0.000000   0.000000
    16  N    0.000044   0.000000   0.000003   0.000000   0.000000   0.000000
    17  H   -0.000600   0.002928  -0.000481   0.000002   0.000000   0.000012
    18  H   -0.000076   0.007875  -0.002593   0.000066   0.000014  -0.000032
    19  H    0.438797  -0.000249  -0.000058   0.000000   0.000000  -0.000101
    20  H   -0.000249   0.561319  -0.025176  -0.000002   0.000000   0.000538
    21  H   -0.000058  -0.025176   0.542458   0.002166   0.000019  -0.000170
    22  H    0.000000  -0.000002   0.002166   0.548023  -0.000378  -0.000289
    23  H    0.000000   0.000000   0.000019  -0.000378   0.530265  -0.002619
    24  H   -0.000101   0.000538  -0.000170  -0.000289  -0.002619   0.415116
    25  H    0.000078   0.000113   0.000522   0.000067   0.000000   0.000007
    26  H    0.000797  -0.000018   0.000089  -0.000002   0.000000  -0.000008
    27  H    0.000011  -0.000001   0.000013   0.000000   0.000000   0.000000
    28  H    0.000002   0.000000   0.000000   0.000000   0.000000   0.000000
    29  H    0.000012   0.000000   0.000000   0.000000   0.000000   0.000000
    30  H   -0.000034   0.000000   0.000004   0.000000   0.000000   0.000000
              25         26         27         28         29         30
     1  O    0.000894   0.001563   0.007392   0.000421   0.000104   0.019162
     2  C   -0.024574  -0.037530  -0.008418   0.008742  -0.001386   0.005706
     3  N   -0.001370   0.002892   0.000668  -0.000185   0.000007   0.000151
     4  C   -0.001688  -0.003821  -0.000189  -0.000008  -0.000020  -0.000016
     5  C    0.000997  -0.000458  -0.000003   0.000000   0.000003   0.000008
     6  O   -0.000052   0.000987   0.000000   0.000000  -0.000003   0.000002
     7  O   -0.000007  -0.000024   0.000000   0.000000   0.000000   0.000000
     8  C   -0.001163   0.001235   0.000040  -0.000004  -0.000001  -0.000004
     9  C    0.002170  -0.000079  -0.000003   0.000000   0.000000   0.000000
    10  C    0.001299  -0.000015  -0.000001  -0.000001   0.000000   0.000000
    11  N    0.000003   0.000001   0.000000   0.000000   0.000000   0.000000
    12  C   -0.000073   0.000002   0.000000   0.000000   0.000000   0.000000
    13  N   -0.000153  -0.000010   0.000000   0.000000   0.000000   0.000000
    14  C    0.356512   0.371284  -0.054202  -0.045903  -0.003679  -0.006298
    15  C   -0.020075  -0.027527   0.408686   0.409142  -0.061189  -0.054500
    16  N    0.007646   0.001899  -0.027949  -0.027753   0.373322   0.385696
    17  H   -0.000818  -0.000973  -0.000105   0.000030  -0.000006   0.000061
    18  H   -0.002610  -0.000083  -0.000013  -0.000005  -0.000009  -0.000012
    19  H    0.000078   0.000797   0.000011   0.000002   0.000012  -0.000034
    20  H    0.000113  -0.000018  -0.000001   0.000000   0.000000   0.000000
    21  H    0.000522   0.000089   0.000013   0.000000   0.000000   0.000004
    22  H    0.000067  -0.000002   0.000000   0.000000   0.000000   0.000000
    23  H    0.000000   0.000000   0.000000   0.000000   0.000000   0.000000
    24  H    0.000007  -0.000008   0.000000   0.000000   0.000000   0.000000
    25  H    0.561372  -0.021284  -0.001341  -0.002780   0.000424  -0.000064
    26  H   -0.021284   0.576488   0.009392  -0.005607   0.008022  -0.001369
    27  H   -0.001341   0.009392   0.570052  -0.031180   0.010915  -0.011493
    28  H   -0.002780  -0.005607  -0.031180   0.575677  -0.009705   0.009484
    29  H    0.000424   0.008022   0.010915  -0.009705   0.552800  -0.042451
    30  H   -0.000064  -0.001369  -0.011493   0.009484  -0.042451   0.492724
 Mulliken charges:
               1
     1  O   -0.347889
     2  C    0.375829
     3  N   -0.455196
     4  C   -0.147065
     5  C    0.436080
     6  O   -0.278189
     7  O   -0.348471
     8  C   -0.155408
     9  C    0.074403
    10  C   -0.072777
    11  N   -0.299958
    12  C    0.150773
    13  N   -0.365941
    14  C   -0.333693
    15  C   -0.091991
    16  N   -0.443879
    17  H    0.236983
    18  H    0.188866
    19  H    0.254216
    20  H    0.141814
    21  H    0.136895
    22  H    0.092665
    23  H    0.107596
    24  H    0.250791
    25  H    0.145947
    26  H    0.124155
    27  H    0.127729
    28  H    0.119632
    29  H    0.172838
    30  H    0.203244
 Sum of Mulliken charges =   0.00000
 Mulliken charges with hydrogens summed into heavy atoms:
               1
     1  O   -0.347889
     2  C    0.375829
     3  N   -0.218213
     4  C    0.041802
     5  C    0.436080
     6  O   -0.023973
     7  O   -0.348471
     8  C    0.123301
     9  C    0.074403
    10  C    0.019888
    11  N   -0.299958
    12  C    0.258369
    13  N   -0.115150
    14  C   -0.063591
    15  C    0.155371
    16  N   -0.067797
 APT charges:
               1
     1  O    0.416295
     2  C   -0.592231
     3  N   -0.669665
     4  C   -0.110726
     5  C   -0.633477
     6  O    0.125636
     7  O    0.365794
     8  C   -0.838120
     9  C   -0.290785
    10  C   -0.495731
    11  N    0.408264
    12  C   -0.727289
    13  N   -0.582094
    14  C   -0.259282
    15  C   -1.105688
    16  N   -0.281556
    17  H    0.617190
    18  H    0.193253
    19  H    0.242842
    20  H    0.522516
    21  H    0.265738
    22  H    0.366038
    23  H    0.915643
    24  H    0.415047
    25  H    0.135210
    26  H    0.234944
    27  H    0.396150
    28  H    0.471800
    29  H    0.294766
    30  H    0.199521
 Sum of APT charges =   0.00000
 APT charges with hydrogens summed into heavy atoms:
               1
     1  O    0.416295
     2  C   -0.592231
     3  N   -0.052475
     4  C    0.082527
     5  C   -0.633477
     6  O    0.368478
     7  O    0.365794
     8  C   -0.049867
     9  C   -0.290785
    10  C   -0.129693
    11  N    0.408264
    12  C    0.188354
    13  N   -0.167047
    14  C    0.110871
    15  C   -0.237738
    16  N    0.212731
 Electronic spatial extent (au):  <R**2>=           4654.0664
 Charge=              0.0000 electrons
 Dipole moment (field-independent basis, Debye):
    X=              1.4628    Y=              0.3815    Z=             -2.0796  Tot=              2.5710
 Quadrupole moment (field-independent basis, Debye-Ang):
   XX=           -122.8162   YY=            -91.9688   ZZ=           -106.5419
   XY=             -4.9328   XZ=             -3.0156   YZ=              2.1038
 Traceless Quadrupole moment (field-independent basis, Debye-Ang):
   XX=            -15.7072   YY=             15.1402   ZZ=              0.5671
   XY=             -4.9328   XZ=             -3.0156   YZ=              2.1038
 Octapole moment (field-independent basis, Debye-Ang**2):
  XXX=             90.1836  YYY=            -19.6051  ZZZ=            114.7216  XYY=             18.6323
  XXY=             -5.6768  XXZ=            -74.1709  XZZ=             22.2757  YZZ=             -4.2677
  YYZ=              5.9267  XYZ=            -17.0815
 Hexadecapole moment (field-independent basis, Debye-Ang**3):
 XXXX=          -4777.5057 YYYY=           -523.1035 ZZZZ=          -1605.8940 XXXY=            -54.7118
 XXXZ=           -297.8826 YYYX=           -102.0438 YYYZ=             98.6619 ZZZX=           -357.8871
 ZZZY=            139.3167 XXYY=           -799.3969 XXZZ=          -1008.2189 YYZZ=           -320.8766
 XXYZ=            149.1978 YYXZ=            -99.8192 ZZXY=            -11.1214
 N-N= 1.119180239528D+03 E-N=-4.098722154511D+03  KE= 7.937317861625D+02
  Exact polarizability:   0.000   0.000   0.000   0.000   0.000   0.000
 Approx polarizability: 210.659  33.245 166.204   7.686   8.330 197.312
 Calling FoFJK, ICntrl=    100147 FMM=F ISym2X=0 I1Cent= 0 IOpClX= 0 NMat=1 NMatS=1 NMatT=0.
 -------------------------------------------------------------------
 Center     Atomic                   Forces (Hartrees/Bohr)
 Number     Number              X              Y              Z
 -------------------------------------------------------------------
      1        8          -0.004785530   -0.002983149   -0.001179767
      2        6           0.010386116    0.001973814    0.006685028
      3        7           0.002689314    0.001747544   -0.007196492
      4        6          -0.000782210    0.002529319    0.002904854
      5        6           0.000360398    0.000255872   -0.000218779
      6        8           0.000750317   -0.000996612   -0.001398231
      7        8           0.001275330   -0.000105612   -0.001198926
      8        6          -0.006752163   -0.003767153    0.000073259
      9        6           0.007687478    0.005431498   -0.004396127
     10        6          -0.007984350   -0.005295324    0.008933844
     11        7          -0.000061282    0.002169256    0.006159504
     12        6           0.000042039   -0.000557321   -0.000807545
     13        7          -0.001966711   -0.001897581   -0.006998309
     14        6          -0.002988864    0.000226579   -0.001181163
     15        6           0.003920601   -0.000234117    0.003041475
     16        7           0.001874585    0.001327941   -0.001782772
     17        1          -0.001232618    0.000627762   -0.000908894
     18        1          -0.001121958    0.000064137   -0.000021795
     19        1          -0.000719964    0.001256372    0.000946199
     20        1          -0.000906514    0.002132284   -0.001910800
     21        1           0.002964474    0.000137177    0.001187767
     22        1           0.000441319    0.000367805    0.000169281
     23        1          -0.001818272   -0.002042232   -0.000094524
     24        1           0.000302233    0.001141851   -0.002484690
     25        1          -0.001708972   -0.000558048   -0.000188594
     26        1          -0.000555269   -0.000592331    0.000115271
     27        1          -0.000658332   -0.000299041    0.000972953
     28        1          -0.001194391    0.000030161    0.000311418
     29        1           0.001258104   -0.002434911   -0.000873215
     30        1           0.001285094    0.000344059    0.001339774
 -------------------------------------------------------------------
 Cartesian Forces:  Max     0.010386116 RMS     0.003013503
 FormGI is forming the generalized inverse of G from B-inverse, IUseBI=4.
 GSVD:  received Info=                   1 from GESDD.

 GradGradGradGradGradGradGradGradGradGradGradGradGradGradGradGradGradGrad
 Berny optimization.
 Internal  Forces:  Max     0.011836103 RMS     0.002459476
 Search for a local minimum.
 Step number   1 out of a maximum of  160
 All quantities printed in internal units (Hartrees-Bohrs-Radians)
 Mixed Optimization -- RFO/linear search
 Second derivative matrix not updated -- analytic derivatives used.
 ITU=  0
     Eigenvalues ---   -0.00039   0.00214   0.00289   0.00341   0.00394
     Eigenvalues ---    0.00483   0.00652   0.00799   0.00905   0.01479
     Eigenvalues ---    0.01569   0.02037   0.02581   0.02960   0.03434
     Eigenvalues ---    0.03465   0.03939   0.04193   0.04236   0.04291
     Eigenvalues ---    0.04414   0.04741   0.04927   0.05037   0.05483
     Eigenvalues ---    0.05580   0.06229   0.06332   0.07599   0.08087
     Eigenvalues ---    0.08671   0.10438   0.10801   0.10850   0.11516
     Eigenvalues ---    0.11620   0.12563   0.12815   0.14917   0.16189
     Eigenvalues ---    0.16817   0.18349   0.18470   0.19170   0.19749
     Eigenvalues ---    0.21474   0.21988   0.22187   0.23191   0.23341
     Eigenvalues ---    0.24581   0.25188   0.27284   0.27550   0.30920
     Eigenvalues ---    0.31621   0.32495   0.32948   0.33175   0.33385
     Eigenvalues ---    0.33462   0.34357   0.34406   0.34611   0.34694
     Eigenvalues ---    0.37021   0.37403   0.37490   0.38237   0.39825
     Eigenvalues ---    0.41879   0.42299   0.44806   0.44842   0.45225
     Eigenvalues ---    0.45370   0.46676   0.47236   0.48597   0.50090
     Eigenvalues ---    0.59827   0.67406   0.81152   0.88154
 RFO step:  Lambda=-3.30688237D-03 EMin=-3.88197887D-04
 Linear search not attempted -- first point.
 Iteration  1 RMS(Cart)=  0.22780774 RMS(Int)=  0.03537194
 Iteration  2 RMS(Cart)=  0.14250159 RMS(Int)=  0.00437695
 Iteration  3 RMS(Cart)=  0.00829530 RMS(Int)=  0.00050602
 Iteration  4 RMS(Cart)=  0.00002598 RMS(Int)=  0.00050583
 Iteration  5 RMS(Cart)=  0.00000002 RMS(Int)=  0.00050583
 Variable       Old X    -DE/DX   Delta X   Delta X   Delta X     New X
                                 (Linear)    (Quad)   (Total)
    R1        2.30646  -0.00560   0.00000  -0.01209  -0.01209   2.29437
    R2        2.60179   0.01046   0.00000   0.03420   0.03420   2.63599
    R3        2.86848   0.00256   0.00000   0.00182   0.00182   2.87030
    R4        2.74378   0.00651   0.00000   0.01741   0.01741   2.76119
    R5        1.91644   0.00071   0.00000   0.00304   0.00304   1.91948
    R6        2.90508   0.00167   0.00000  -0.00036  -0.00036   2.90472
    R7        2.91387   0.00527   0.00000   0.00723   0.00723   2.92110
    R8        2.06186  -0.00012   0.00000   0.00335   0.00335   2.06521
    R9        2.52474   0.00026   0.00000   0.00444   0.00444   2.52919
   R10        2.27690  -0.00054   0.00000  -0.00127  -0.00127   2.27563
   R11        1.83678   0.00029   0.00000   0.00234   0.00234   1.83912
   R12        2.82120   0.00311   0.00000  -0.00176  -0.00176   2.81943
   R13        2.06250   0.00299   0.00000   0.00688   0.00688   2.06938
   R14        2.05653   0.00191   0.00000   0.00686   0.00686   2.06339
   R15        2.57586   0.01184   0.00000   0.02318   0.02316   2.59902
   R16        2.59093   0.00748   0.00000   0.01571   0.01576   2.60669
   R17        2.61277  -0.00258   0.00000  -0.01218  -0.01223   2.60053
   R18        2.03884   0.00036   0.00000   0.00153   0.00153   2.04037
   R19        2.47532   0.00547   0.00000   0.00953   0.00951   2.48483
   R20        2.56860   0.00574   0.00000   0.00897   0.00901   2.57761
   R21        2.03308   0.00238   0.00000   0.00590   0.00590   2.03898
   R22        1.90844   0.00246   0.00000   0.00424   0.00424   1.91268
   R23        2.88381   0.00693   0.00000   0.02273   0.02273   2.90654
   R24        2.06945   0.00153   0.00000   0.00350   0.00350   2.07295
   R25        2.07262   0.00025   0.00000   0.00082   0.00082   2.07344
   R26        2.75029   0.00454   0.00000   0.00283   0.00283   2.75313
   R27        2.06269   0.00062   0.00000   0.00210   0.00210   2.06478
   R28        2.06585   0.00026   0.00000   0.00089   0.00089   2.06674
   R29        1.91619   0.00225   0.00000   0.00245   0.00245   1.91864
   R30        1.91793   0.00013   0.00000  -0.00119  -0.00119   1.91674
    A1        2.08747  -0.00119   0.00000  -0.00428  -0.00438   2.08310
    A2        2.14745  -0.00035   0.00000   0.00458   0.00449   2.15195
    A3        2.04738   0.00157   0.00000   0.00069   0.00059   2.04798
    A4        2.19744   0.00230   0.00000  -0.02786  -0.03093   2.16650
    A5        1.94068   0.00019   0.00000  -0.01198  -0.01568   1.92500
    A6        2.04158  -0.00241   0.00000  -0.02171  -0.02506   2.01652
    A7        1.93324  -0.00534   0.00000  -0.03344  -0.03409   1.89914
    A8        1.94337   0.00385   0.00000   0.04807   0.04822   1.99159
    A9        1.87667   0.00021   0.00000  -0.00690  -0.00722   1.86946
   A10        1.96492   0.00279   0.00000   0.01328   0.01351   1.97842
   A11        1.83848   0.00065   0.00000  -0.01052  -0.01077   1.82771
   A12        1.90182  -0.00245   0.00000  -0.01482  -0.01472   1.88710
   A13        2.01194  -0.00217   0.00000  -0.01095  -0.01095   2.00099
   A14        2.15234   0.00296   0.00000   0.00938   0.00938   2.16172
   A15        2.11860  -0.00079   0.00000   0.00153   0.00153   2.12013
   A16        1.89106  -0.00228   0.00000  -0.01305  -0.01305   1.87802
   A17        1.99148   0.00650   0.00000   0.00380   0.00378   1.99527
   A18        1.90042  -0.00047   0.00000   0.00511   0.00508   1.90550
   A19        1.89889  -0.00506   0.00000  -0.02798  -0.02796   1.87093
   A20        1.94093  -0.00210   0.00000   0.00360   0.00355   1.94448
   A21        1.86252  -0.00055   0.00000   0.01155   0.01152   1.87404
   A22        1.86471   0.00128   0.00000   0.00298   0.00292   1.86763
   A23        2.29236  -0.00269   0.00000   0.00075   0.00071   2.29307
   A24        2.15639   0.00419   0.00000   0.00435   0.00431   2.16071
   A25        1.83439  -0.00150   0.00000  -0.00507  -0.00500   1.82939
   A26        1.93002   0.00122   0.00000   0.00416   0.00413   1.93416
   A27        2.23864  -0.00110   0.00000  -0.01117  -0.01117   2.22747
   A28        2.11450  -0.00012   0.00000   0.00697   0.00697   2.12147
   A29        1.83514   0.00050   0.00000   0.00175   0.00171   1.83685
   A30        1.94622   0.00210   0.00000   0.00396   0.00401   1.95023
   A31        2.21005  -0.00235   0.00000  -0.01308  -0.01311   2.19694
   A32        2.12692   0.00026   0.00000   0.00913   0.00910   2.13602
   A33        1.87899  -0.00231   0.00000  -0.00475  -0.00484   1.87415
   A34        2.15540   0.00073   0.00000  -0.00369  -0.00395   2.15144
   A35        2.24880   0.00157   0.00000   0.00844   0.00816   2.25695
   A36        1.95992   0.00195   0.00000   0.00234   0.00233   1.96225
   A37        1.89969  -0.00116   0.00000   0.00087   0.00085   1.90054
   A38        1.89928   0.00002   0.00000   0.00335   0.00335   1.90263
   A39        1.91657   0.00016   0.00000   0.00406   0.00405   1.92062
   A40        1.92311  -0.00085   0.00000  -0.00112  -0.00113   1.92199
   A41        1.86252  -0.00025   0.00000  -0.01013  -0.01012   1.85240
   A42        2.01698   0.00387   0.00000   0.01512   0.01510   2.03207
   A43        1.89915  -0.00095   0.00000  -0.00387  -0.00402   1.89514
   A44        1.90102  -0.00202   0.00000  -0.01474  -0.01479   1.88623
   A45        1.87546  -0.00049   0.00000   0.00688   0.00684   1.88230
   A46        1.89405  -0.00075   0.00000   0.00331   0.00339   1.89744
   A47        1.87207   0.00014   0.00000  -0.00803  -0.00813   1.86394
   A48        1.92138   0.00126   0.00000   0.01316   0.01294   1.93433
   A49        1.88886   0.00158   0.00000   0.01587   0.01565   1.90451
   A50        1.86152   0.00027   0.00000   0.01912   0.01868   1.88020
    D1       -2.84556   0.00073   0.00000   0.06990   0.06965  -2.77591
    D2       -0.19614   0.00015   0.00000  -0.07183  -0.07166  -0.26780
    D3        0.33955  -0.00004   0.00000   0.04505   0.04489   0.38444
    D4        2.98897  -0.00063   0.00000  -0.09667  -0.09643   2.89254
    D5       -0.04830  -0.00071   0.00000   0.06143   0.06141   0.01311
    D6        2.07755  -0.00003   0.00000   0.06870   0.06868   2.14623
    D7       -2.18215  -0.00094   0.00000   0.05896   0.05893  -2.12322
    D8        3.04815   0.00007   0.00000   0.08696   0.08699   3.13515
    D9       -1.10918   0.00076   0.00000   0.09423   0.09426  -1.01492
   D10        0.91430  -0.00016   0.00000   0.08449   0.08451   0.99882
   D11       -2.35416   0.00129   0.00000  -0.38409  -0.38390  -2.73806
   D12        1.72825  -0.00122   0.00000  -0.41236  -0.41162   1.31663
   D13       -0.35389  -0.00060   0.00000  -0.41790  -0.41735  -0.77124
   D14        1.30454   0.00118   0.00000  -0.23740  -0.23820   1.06634
   D15       -0.89623  -0.00133   0.00000  -0.26567  -0.26592  -1.16215
   D16       -2.97838  -0.00071   0.00000  -0.27121  -0.27165   3.03316
   D17        0.41590  -0.00211   0.00000   0.13481   0.13512   0.55102
   D18       -2.75177  -0.00210   0.00000   0.13323   0.13352  -2.61824
   D19        2.60460   0.00094   0.00000   0.18247   0.18234   2.78695
   D20       -0.56306   0.00096   0.00000   0.18088   0.18075  -0.38231
   D21       -1.60820  -0.00010   0.00000   0.16516   0.16499  -1.44322
   D22        1.50731  -0.00009   0.00000   0.16357   0.16340   1.67071
   D23       -2.65417  -0.00018   0.00000  -0.03607  -0.03578  -2.68995
   D24        1.44940  -0.00178   0.00000  -0.04759  -0.04730   1.40210
   D25       -0.57687  -0.00028   0.00000  -0.03861  -0.03831  -0.61519
   D26        1.44583   0.00175   0.00000  -0.03950  -0.03976   1.40607
   D27       -0.73378   0.00015   0.00000  -0.05101  -0.05128  -0.78507
   D28       -2.76006   0.00165   0.00000  -0.04203  -0.04230  -2.80235
   D29       -0.58707   0.00085   0.00000  -0.02495  -0.02498  -0.61204
   D30       -2.76668  -0.00075   0.00000  -0.03647  -0.03649  -2.80317
   D31        1.49023   0.00075   0.00000  -0.02749  -0.02751   1.46272
   D32       -0.06434  -0.00098   0.00000  -0.02557  -0.02557  -0.08991
   D33        3.10278  -0.00106   0.00000  -0.02415  -0.02415   3.07862
   D34        2.14265  -0.00262   0.00000  -0.15200  -0.15201   1.99064
   D35       -0.98731  -0.00306   0.00000  -0.15716  -0.15718  -1.14449
   D36       -1.98262   0.00004   0.00000  -0.13940  -0.13941  -2.12203
   D37        1.17060  -0.00040   0.00000  -0.14456  -0.14458   1.02602
   D38        0.04486   0.00015   0.00000  -0.12726  -0.12721  -0.08236
   D39       -3.08511  -0.00029   0.00000  -0.13241  -0.13239   3.06569
   D40       -3.13580  -0.00009   0.00000  -0.00030  -0.00032  -3.13612
   D41        0.01300  -0.00021   0.00000   0.00639   0.00637   0.01937
   D42       -0.00424   0.00032   0.00000   0.00419   0.00417  -0.00007
   D43       -3.13863   0.00020   0.00000   0.01089   0.01086  -3.12777
   D44        3.13873  -0.00016   0.00000  -0.00283  -0.00278   3.13594
   D45       -0.00292  -0.00025   0.00000   0.03253   0.03240   0.02948
   D46        0.00618  -0.00048   0.00000  -0.00686  -0.00682  -0.00064
   D47       -3.13547  -0.00057   0.00000   0.02850   0.02837  -3.10710
   D48        0.00058  -0.00005   0.00000   0.00017   0.00019   0.00078
   D49        3.13557   0.00006   0.00000  -0.00606  -0.00611   3.12945
   D50        0.00348  -0.00025   0.00000  -0.00464  -0.00469  -0.00120
   D51       -3.13478  -0.00004   0.00000  -0.00977  -0.00979   3.13862
   D52       -0.00625   0.00047   0.00000   0.00743   0.00744   0.00119
   D53        3.13540   0.00057   0.00000  -0.03043  -0.03058   3.10482
   D54        3.13219   0.00026   0.00000   0.01223   0.01229  -3.13870
   D55       -0.00934   0.00036   0.00000  -0.02563  -0.02573  -0.03507
   D56       -1.07572  -0.00091   0.00000  -0.03398  -0.03400  -1.10972
   D57        1.03523   0.00039   0.00000  -0.01763  -0.01767   1.01756
   D58        3.07074  -0.00109   0.00000  -0.03751  -0.03745   3.03329
   D59        3.09127  -0.00086   0.00000  -0.03949  -0.03951   3.05175
   D60       -1.08098   0.00043   0.00000  -0.02314  -0.02318  -1.10415
   D61        0.95454  -0.00104   0.00000  -0.04301  -0.04296   0.91158
   D62        1.04455  -0.00014   0.00000  -0.02889  -0.02891   1.01564
   D63       -3.12769   0.00115   0.00000  -0.01254  -0.01258  -3.14027
   D64       -1.09218  -0.00033   0.00000  -0.03242  -0.03236  -1.12454
   D65       -0.97604  -0.00045   0.00000  -0.03414  -0.03424  -1.01028
   D66        1.05229   0.00147   0.00000   0.00499   0.00513   1.05742
   D67       -3.09974  -0.00143   0.00000  -0.04438  -0.04455   3.13889
   D68       -1.07142   0.00049   0.00000  -0.00526  -0.00519  -1.07660
   D69        1.16439  -0.00095   0.00000  -0.04026  -0.04035   1.12404
   D70       -3.09047   0.00096   0.00000  -0.00113  -0.00099  -3.09145
         Item               Value     Threshold  Converged?
 Maximum Force            0.011836     0.000450     NO 
 RMS     Force            0.002459     0.000300     NO 
 Maximum Displacement     1.488794     0.001800     NO 
 RMS     Displacement     0.355347     0.001200     NO 
 Predicted change in Energy=-2.452955D-03
 GradGradGradGradGradGradGradGradGradGradGradGradGradGradGradGradGradGrad

                          Input orientation:                          
 ---------------------------------------------------------------------
 Center     Atomic      Atomic             Coordinates (Angstroms)
 Number     Number       Type             X           Y           Z
 ---------------------------------------------------------------------
      1          8           0        2.844672    1.547419    0.504864
      2          6           0        1.963435    0.775524    0.185943
      3          7           0        1.154088    1.076625   -0.909528
      4          6           0       -0.169486    0.499831   -1.134140
      5          6           0       -0.497939    0.581717   -2.633517
      6          8           0        0.563720    0.490072   -3.443309
      7          8           0       -1.614758    0.689719   -3.070758
      8          6           0       -1.276814    1.089620   -0.231138
      9          6           0       -2.427010    0.170569    0.010517
     10          6           0       -2.876055   -0.441997    1.157115
     11          7           0       -3.983188   -1.216616    0.896368
     12          6           0       -4.205695   -1.079011   -0.392256
     13          7           0       -3.294022   -0.249624   -0.976639
     14          6           0        1.701175   -0.534894    0.907799
     15          6           0        2.661332   -0.756717    2.088717
     16          7           0        4.074763   -0.885605    1.759873
     17          1           0        1.254130    2.055110   -1.163102
     18          1           0       -0.093815   -0.570058   -0.924469
     19          1           0        1.359751    0.469491   -2.883787
     20          1           0       -1.609913    2.045747   -0.648325
     21          1           0       -0.822363    1.305039    0.738045
     22          1           0       -2.468477   -0.356138    2.153258
     23          1           0       -4.999867   -1.549888   -0.950616
     24          1           0       -3.199465    0.016173   -1.948676
     25          1           0        0.662604   -0.544302    1.260780
     26          1           0        1.787123   -1.361219    0.191083
     27          1           0        2.554450    0.077778    2.785888
     28          1           0        2.341531   -1.656656    2.621590
     29          1           0        4.226409   -1.653514    1.113224
     30          1           0        4.389609   -0.034131    1.307484
 ---------------------------------------------------------------------
                    Distance matrix (angstroms):
                    1          2          3          4          5
     1  O    0.000000
     2  C    1.214130   0.000000
     3  N    2.253936   1.394906   0.000000
     4  C    3.587328   2.523485   1.461160   0.000000
     5  C    4.685623   3.747704   2.438497   1.537114   0.000000
     6  O    4.680683   3.900277   2.666951   2.422798   1.338388
     7  O    5.779899   4.839104   3.533712   2.423914   1.204212
     8  C    4.211642   3.282046   2.523820   1.545781   2.576050
     9  C    5.470898   4.435398   3.806794   2.552463   3.298678
    10  C    6.091791   5.083915   4.776953   3.669115   4.590459
    11  N    7.376506   6.311549   5.908623   4.649030   5.276462
    12  C    7.576981   6.467749   5.800139   4.397058   4.639906
    13  N    6.565652   5.481184   4.642104   3.217020   3.354766
    14  C    2.409558   1.518898   2.489774   2.956272   4.315536
    15  C    2.802008   2.540742   3.823925   4.469815   5.837114
    16  N    3.001297   3.113568   4.416604   5.320563   6.508803
    17  H    2.360018   1.990070   1.015747   2.108652   2.720800
    18  H    3.893765   2.697385   2.066168   1.092863   2.100178
    19  H    3.853553   3.143459   2.075718   2.323952   1.877830
    20  H    4.628337   3.883077   2.940599   2.168110   2.705708
    21  H    3.682427   2.888922   2.583220   2.140020   3.463507
    22  H    5.879650   4.979240   4.955446   4.101832   5.260780
    23  H    8.558535   7.428788   6.691145   5.250487   5.257685
    24  H    6.700460   5.638151   4.599762   3.174613   2.843780
    25  H    3.115787   2.142283   2.753034   2.741938   4.216673
    26  H    3.110795   2.144011   2.748665   3.007996   4.120058
    27  H    2.728946   2.756059   4.076127   4.792136   6.240272
    28  H    3.872955   3.462778   4.620567   5.006111   6.378798
    29  H    3.539107   3.446901   4.580867   5.386226   6.430692
    30  H    2.352091   2.792797   4.076459   5.199229   6.308636
                    6          7          8          9         10
     6  O    0.000000
     7  O    2.219104   0.000000
     8  C    3.750342   2.887484   0.000000
     9  C    4.579898   3.228549   1.491979   0.000000
    10  C    5.819339   4.554839   2.613555   1.375342   0.000000
    11  N    6.513061   4.998166   3.730209   2.265106   1.376143
    12  C    5.875225   4.125013   3.647913   2.210746   2.138757
    13  N    4.638296   2.843875   2.533471   1.379402   2.182799
    14  C    4.612646   5.322030   3.578358   4.283072   4.584956
    15  C    6.046302   6.855458   4.929471   5.574047   5.624018
    16  N    6.425964   7.628059   6.041938   6.815335   6.990992
    17  H    2.850501   3.705936   2.864682   4.298798   5.355126
    18  H    2.810833   2.916652   2.152841   2.620406   3.477104
    19  H    0.973218   2.988505   3.791118   4.775553   5.924673
    20  H    3.867394   2.776151   1.095070   2.148956   3.324395
    21  H    4.479857   3.938717   1.091901   2.095522   2.728627
    22  H    6.421203   5.395646   3.032428   2.206916   1.079718
    23  H    6.428721   4.579280   4.620149   3.240887   3.190695
    24  H    4.076772   2.055244   2.792635   2.111625   3.156018
    25  H    4.817485   5.046920   2.942255   3.408799   3.541655
    26  H    4.258262   5.139917   3.946213   4.487527   4.850094
    27  H    6.552548   7.215058   4.980447   5.703178   5.693281
    28  H    6.674733   7.318506   5.364002   5.735454   5.553673
    29  H    6.226737   7.557491   6.294248   6.986503   7.205185
    30  H    6.122275   7.466283   5.978171   6.941925   7.278656
                   11         12         13         14         15
    11  N    0.000000
    12  C    1.314913   0.000000
    13  N    2.217697   1.364014   0.000000
    14  C    5.725108   6.072670   5.346446   0.000000
    15  C    6.766303   7.308568   6.717127   1.538075   0.000000
    16  N    8.110844   8.557748   7.886188   2.546163   1.456893
    17  H    6.509617   6.342445   5.102181   3.346133   4.523375
    18  H    4.342892   4.177301   3.216633   2.565236   4.087171
    19  H    6.758664   6.291246   5.080546   3.937193   5.284268
    20  H    4.319899   4.070353   2.865788   4.477112   5.795579
    21  H    4.046558   4.290479   3.386181   3.127685   4.267468
    22  H    2.148149   3.165456   3.238692   4.355355   5.145830
    23  H    2.134492   1.078981   2.145057   7.027652   8.280135
    24  H    3.198166   2.152759   1.012149   5.699070   7.158690
    25  H    4.708311   5.169021   4.554972   1.096956   2.173825
    26  H    5.815052   6.027752   5.330784   1.097216   2.175013
    27  H    6.927226   7.558989   6.961927   2.151897   1.092637
    28  H    6.570548   7.230706   6.832749   2.146039   1.093671
    29  H    8.224074   8.584690   7.930657   2.769533   2.050682
    30  H    8.465874   8.823840   8.018843   2.763727   2.029630
                   16         17         18         19         20
    16  N    0.000000
    17  H    5.014734   0.000000
    18  H    4.968129   2.960643   0.000000
    19  H    5.547175   2.342242   2.651875   0.000000
    20  H    6.834309   2.909952   3.035991   4.037421   0.000000
    21  H    5.461217   2.913553   2.609737   4.310154   1.758097
    22  H    6.576402   5.538065   3.893223   6.380346   3.788806
    23  H    9.494047   7.221748   5.003009   6.946926   4.950935
    24  H    8.214677   4.960735   3.322307   4.676150   2.887344
    25  H    3.465315   3.603061   2.312606   4.323334   3.939209
    26  H    2.814357   3.713382   2.325580   3.604021   4.883838
    27  H    2.071755   4.603824   4.604319   5.807405   5.745314
    28  H    2.083547   5.411427   4.436907   5.982773   6.325666
    29  H    1.015300   5.269725   4.898000   5.357329   7.130935
    30  H    1.014295   4.505547   5.036857   5.196193   6.644196
                   21         22         23         24         25
    21  H    0.000000
    22  H    2.733501   0.000000
    23  H    5.334204   4.179355   0.000000
    24  H    3.811857   4.183159   2.586527   0.000000
    25  H    2.428671   3.261225   6.161579   5.052753   0.000000
    26  H    3.770612   4.792750   6.884933   5.598378   1.753895
    27  H    4.135540   5.081170   8.583616   7.451672   2.508390
    28  H    4.725421   5.004683   8.165059   7.374844   2.430624
    29  H    5.863778   6.898286   9.454858   8.204065   3.735348
    30  H    5.411311   6.917540   9.775418   8.258277   3.762050
                   26         27         28         29         30
    26  H    0.000000
    27  H    3.064722   0.000000
    28  H    2.510382   1.755161   0.000000
    29  H    2.624099   2.930977   2.414113   0.000000
[...]
 536,-0.00002299,0.00001066,-0.00002177,0.00002380,-0.00004015,-0.00003
 042,-0.00006196,0.00030969,0.00000586,0.00019341,0.00005867,0.00014004
 ,-0.00027029,-0.00054670,-0.00090464,-0.00000157,0.00024511,-0.0001837
 7,0.00021540,-0.00054972,0.00160910,-0.00047708,0.00048961,-0.00099017
 ,-0.00046109,0.02645557,0.03980760,-0.00020855,-0.00001305,-0.00016425
 ,0.00032187,-0.00026128,0.00035104,0.00032068,-0.00005396,-0.00132593,
 -0.00100999,0.00035847,0.00031257,0.00568432,-0.00021545,0.00458443,-0
 .00361654,0.00015050,-0.00036903,-0.00197095,-0.00023703,-0.00855658,-
 0.00059265,-0.00021785,0.00085153,0.00475791,0.00352146,-0.01357056,-0
 .00235586,-0.00214508,-0.00088570,0.00042508,-0.00022396,0.00472775,0.
 00234285,0.00231009,-0.00151404,0.05813851,0.03846410,-0.42579888,-0.0
 0010934,0.00007592,0.00002114,-0.00000981,-0.00000739,0.00001066,0.000
 03456,0.00001306,-0.00002564,-0.00010233,0.00007142,0.00023231,-0.0003
 0028,-0.00010149,-0.00014675,0.00010337,0.00018448,0.00075444,-0.00001
 611,0.00007281,0.00000021,0.00046151,0.00020865,-0.00007225,0.00024489
 ,0.00027799,0.00005497,-0.00013624,0.00002150,0.00004824,-0.06238617,-
 0.04223227,0.44052523,0.00089565,-0.00009802,0.00096197,-0.00355161,-0
 .00257167,-0.00000882,-0.00011131,0.00009350,-0.00039531,-0.00032900,-
 0.00034696,-0.00124455,-0.00000581,0.00028148,0.00049696,0.00011672,-0
 .00011954,-0.00025369,-0.00008572,-0.00008254,-0.00018382,0.00030487,0
 .00018877,-0.00007033,0.00002175,-0.00003761,-0.00016218,0.00000550,-0
 .00000885,0.00014402,-0.00006590,-0.00007358,-0.00006422,-0.00004629,-
 0.00003221,0.00007312,0.00007027,0.00005725,0.00004937,-0.25220372,-0.
 01755864,0.09390844,-0.01810966,-0.00190640,0.01223017,-0.00497405,0.0
 0121166,-0.00507856,-0.00019123,-0.00001358,0.00044274,-0.00015572,0.0
 0085970,-0.00096896,-0.00010108,0.00007180,0.00006884,0.00002732,-0.00
 000660,0.00001799,-0.00002694,0.00003131,0.00001085,-0.00000293,0.0000
 3101,-0.00000794,-0.00000502,0.00000170,0.00000081,0.00004920,0.000009
 14,-0.00001615,0.27805726,0.00223091,-0.00661329,-0.00095499,-0.032117
 09,0.00060482,0.01217864,0.00165005,-0.00020252,-0.00031205,0.00036903
 ,0.00014212,0.00062914,0.00011172,0.00001475,0.00004324,0.00006352,0.0
 0000364,-0.00005390,0.00001412,-0.00001694,0.00000785,0.00021859,0.000
 26378,0.00047091,0.00016575,0.00002692,-0.00013423,0.00007344,-0.00005
 111,0.00012677,-0.00006033,-0.00006020,-0.00003472,-0.00005374,-0.0000
 2744,-0.00004200,-0.00004657,-0.00004594,0.00001594,-0.02100673,-0.046
 26546,0.01252841,0.00536486,-0.00022860,-0.00396001,0.00192298,0.00071
 470,0.00170296,0.00038742,-0.00042410,-0.00060584,0.00026034,0.0000908
 9,0.00038749,-0.00001176,-0.00006457,-0.00011899,-0.00010928,-0.000068
 22,-0.00013976,0.00013672,-0.00034252,-0.00020557,0.00002058,0.0000326
 8,-0.00004636,-0.00000878,-0.00000198,-0.00000202,-0.00000857,0.000020
 62,0.00000512,0.01990459,0.05005479,-0.00093401,0.00146643,-0.00003621
 ,0.01223675,-0.00273182,-0.00501323,-0.00127706,0.00136491,-0.00074895
 ,0.00042511,0.00089956,0.00002536,0.00025857,-0.00043578,-0.00081833,-
 0.00049422,0.00003809,0.00031215,-0.00003179,0.00009513,0.00020768,-0.
 00036310,-0.00002579,-0.00009186,0.00005663,-0.00004118,-0.00009948,0.
 00002584,-0.00009354,0.00024548,0.00003223,-0.00000435,-0.00006220,0.0
 0001221,0.00003693,0.00003695,-0.00000201,-0.00003959,-0.00008869,0.09
 324576,0.01084535,-0.08729111,-0.01985262,-0.00236658,0.01167057,-0.00
 420155,0.00086920,-0.00247089,-0.00049420,0.00021369,0.00039945,-0.000
 53168,-0.00007688,-0.00171195,0.00020448,0.00003014,0.00024225,0.00010
 412,-0.00003367,0.00002687,-0.00002205,0.00012779,0.00009901,0.0000061
 3,0.00000870,0.00000336,-0.00000282,0.00000620,-0.00000060,-0.00002279
 ,0.00001071,-0.00003156,-0.10061939,-0.01217003,0.09426769,-0.00054130
 ,-0.00139664,0.00097718,-0.00173289,-0.00533860,-0.00233054,-0.0001870
 4,0.00055250,-0.00131422,0.00024097,0.00104174,0.00043584,0.00010773,-
 0.00008547,-0.00054361,-0.00026229,-0.00004773,0.00010542,0.00001683,-
 0.00000394,0.00011717,-0.00015251,-0.00007023,0.00026925,0.00004791,0.
 00003931,0.00002797,0.00001304,0.00000219,0.00009295,0.00001452,-0.000
 00263,-0.00002632,-0.00003872,-0.00001641,-0.00002955,-0.00002355,-0.0
 0006205,-0.00007730,-0.04293243,0.01135412,0.00897513,0.00038877,-0.01
 579627,-0.01786435,0.00283957,-0.00088258,0.00072904,-0.00015253,-0.00
 006246,0.00004894,-0.00114713,0.00049759,-0.00041118,0.00017829,0.0000
 9869,0.00014579,0.00004933,-0.00008449,-0.00011757,0.00007497,-0.00012
 084,-0.00007606,0.00002127,-0.00000733,-0.00002979,-0.00000588,0.00000
 160,-0.00000350,-0.00004221,0.00001892,0.00000451,-0.00198123,0.020875
 07,0.02102853,0.04814770,-0.00236470,-0.00400015,0.00501646,0.00193990
 ,-0.01932735,-0.02802811,-0.00091700,0.00112102,0.00309981,0.00005420,
 -0.00042212,-0.00015259,0.00040738,0.00009070,0.00028200,-0.00005360,0
 .00028968,0.00012451,-0.00016175,-0.00004010,-0.00004834,0.00004512,0.
 00026424,-0.00022099,0.00003741,0.00000083,-0.00002506,0.00000425,-0.0
 0000561,-0.00002395,-0.00002083,-0.00001925,0.00003035,0.00001998,0.00
 001285,-0.00001007,-0.00000269,0.00001887,0.00006171,0.01263828,-0.165
 31525,-0.12558393,0.00054510,0.00526069,0.00549569,-0.00127924,0.00036
 807,0.00078678,-0.00058183,0.00030820,0.00012812,0.00105987,0.00007174
 ,0.00003680,0.00007200,-0.00051293,0.00001246,-0.00010094,0.00003477,0
 .00007426,-0.00006432,0.00002831,0.00006688,-0.00000554,0.00000302,0.0
 0000846,0.00000039,-0.00000040,0.00000047,0.00005226,0.00000471,-0.000
 02401,0.00015196,0.00231935,0.00210913,-0.01203190,0.17859211,0.002669
 61,0.00158017,-0.00138150,-0.00384172,0.00811490,0.01138078,0.00032856
 ,-0.00020631,-0.00161409,-0.00037900,0.00025616,-0.00007384,-0.0001799
 9,0.00026198,0.00024435,0.00011586,-0.00017449,-0.00012734,-0.00004431
 ,-0.00007186,-0.00010979,-0.00007024,-0.00007581,-0.00004358,-0.000017
 55,0.00005025,0.00000248,-0.00001467,-0.00001593,-0.00007640,-0.000021
 23,-0.00001098,0.00002628,0.00001437,0.00000626,0.00002639,0.00001519,
 0.00003015,0.00006016,0.00995012,-0.12419870,-0.17704998,0.00176365,-0
 .01660495,-0.01964814,0.00158799,0.00119413,0.00260120,0.00035746,-0.0
 0041547,0.00012326,-0.00052393,0.00062178,-0.00019019,-0.00003965,0.00
 025623,0.00009969,-0.00002125,0.00001969,0.00002971,0.00000615,0.00004
 457,0.00002373,-0.00001813,0.00000846,0.00002038,0.00000424,-0.0000028
 6,0.00000344,0.00002993,-0.00000545,-0.00000687,0.00094833,-0.00941192
 ,-0.01006755,-0.00823404,0.13625012,0.19708828,0.00054513,0.00049734,0
 .00030789,-0.00014255,-0.00139296,0.00008960,-0.00015984,0.00006074,-0
 .00003634,0.00000449,-0.00003882,-0.00008879,0.00008306,0.00004295,0.0
 0018261,-0.00000361,0.00001259,-0.00005136,-0.00009929,-0.00001738,-0.
 00008037,0.00001990,0.00001505,-0.00007607,-0.00000340,0.00001761,-0.0
 0001098,-0.00000536,-0.00000260,-0.00004872,-0.00002143,-0.00001827,0.
 00002179,0.00000660,0.00000116,0.00000675,0.00000662,0.00001477,0.0000
 5408,0.00027392,-0.01475740,-0.01804263,-0.04711452,0.00529609,0.00685
 047,-0.01112079,0.02775161,0.02673231,-0.00001308,0.00003826,0.0000291
 4,0.00017227,0.00002879,0.00001688,-0.00003105,-0.00003288,0.00006617,
 -0.00002637,0.00001304,0.00002714,-0.00000804,0.00001433,0.00000503,-0
 .00000826,0.00000343,0.00000606,0.00000059,-0.00000070,0.00000187,0.00
 003165,0.00000306,-0.00001188,0.00052800,-0.00037777,0.00070499,-0.002
 83252,0.00138367,-0.00361042,0.06423328,0.00022287,-0.00052233,0.00055
 467,-0.00028975,0.00019030,0.00111870,-0.00012791,0.00004174,-0.000414
 50,0.00013311,0.00006851,0.00004593,0.00006798,-0.00000732,-0.00002135
 ,-0.00008458,-0.00001515,-0.00001757,-0.00007208,-0.00000333,-0.000035
 74,-0.00001571,-0.00002426,-0.00002389,-0.00000633,0.00002027,-0.00001
 995,-0.00000408,-0.00000777,-0.00004216,-0.00001532,-0.00001675,0.0000
 2117,-0.00000004,0.00000066,0.00000148,0.00000053,0.00000294,0.0000511
 5,-0.00032076,0.00525864,0.00552785,0.01060272,-0.17559657,-0.13178259
 ,0.00228480,0.00108581,-0.00012663,-0.00001129,-0.00001263,-0.00003254
 ,-0.00005296,0.00003023,0.00000085,0.00002094,0.00003450,0.00005790,-0
 .00000215,-0.00000119,0.00000298,0.00001461,0.00000276,-0.00001354,-0.
 00000796,0.00000959,0.00000299,0.00000100,-0.00000089,0.00000209,0.000
 02072,0.00000508,-0.00001218,-0.00066733,0.00025079,-0.00063256,0.0007
 7700,0.00040305,0.00201814,-0.01388514,0.18544392,0.00134420,0.0012838
 9,0.00198099,-0.00158566,-0.00336097,-0.00101833,0.00044450,0.00030616
 ,0.00074412,-0.00008096,-0.00024246,-0.00018959,0.00007095,0.00008423,
 0.00010261,0.00003496,0.00005537,0.00004292,-0.00004115,-0.00001781,-0
 .00000693,0.00006090,0.00007350,-0.00005995,-0.00000022,-0.00001126,0.
 00000079,-0.00000981,0.00000277,-0.00002956,-0.00000120,0.00000948,0.0
 0001687,0.00001280,0.00000519,-0.00000061,0.00000357,0.00001709,0.0000
 2465,-0.00248298,-0.01555509,-0.01979193,0.01092305,-0.12669426,-0.181
 17619,0.00620799,-0.00878492,-0.00760805,-0.00004952,0.00008258,-0.000
 06488,0.00017037,0.00009909,0.00002661,0.00000139,-0.00011677,-0.00007
 112,-0.00002776,0.00001338,0.00001993,-0.00002381,0.00000164,0.0000177
 1,-0.00000265,-0.00000572,0.00000441,0.00000302,-0.00000084,0.00000073
 ,0.00001741,-0.00000577,-0.00000900,-0.00020627,0.00001795,0.00044637,
 -0.00333175,0.00121743,-0.00223965,-0.01199963,0.14218011,0.19817774,0
 .00070509,0.00017697,0.00020361,-0.00365876,-0.00098582,-0.00379311,0.
 00016171,0.00170175,-0.00066732,0.00032961,0.00017863,0.00009690,0.000
 06222,0.00000049,0.00014137,-0.00003612,-0.00004222,-0.00009569,-0.000
 09429,-0.00000926,-0.00009362,-0.00000747,-0.00002466,-0.00002416,0.00
 000425,0.00002870,-0.00002367,0.00001155,-0.00000642,-0.00002163,-0.00
 002683,-0.00004003,0.00001030,-0.00000986,-0.00000592,0.00000177,0.000
 00318,-0.00000019,0.00005019,0.00335258,0.02044169,-0.00973263,-0.0549
 0942,-0.04015094,0.01910503,-0.01680787,-0.03341610,0.01360779,-0.0003
 0483,0.00017238,-0.00037331,0.00002366,-0.00003618,0.00002216,-0.00003
 450,0.00006076,0.00012921,-0.00000676,-0.00000611,0.00000811,0.0000147
 9,-0.00000024,-0.00001544,-0.00000617,0.00001541,0.00000363,-0.0000026
 5,0.,0.00000139,0.00002560,0.00001211,-0.00001079,0.00076999,0.0001268
 8,0.00070999,0.00066967,-0.00049348,0.00038163,0.00043468,0.00154550,-
 0.00141689,0.07393990,0.00100726,0.00041447,0.00104239,-0.00068565,0.0
 0025238,-0.00055420,0.00023098,-0.00025942,0.00049895,-0.00019442,-0.0
 0016489,-0.00003559,-0.00016717,-0.00001924,-0.00013737,0.00010635,0.0
 0003135,0.00006610,0.00016721,0.00002205,0.00011122,-0.00000441,0.0000
 2631,0.00002653,-0.00000299,-0.00004430,0.00003632,-0.00001382,0.00000
 902,0.00004208,0.00003911,0.00006304,-0.00002916,0.00000884,0.00000424
 ,0.00000947,0.00000041,0.00000390,-0.00008976,-0.00084228,-0.00464232,
 0.00095686,-0.04441027,-0.25495653,0.09210987,-0.00211457,0.00356874,-
 0.00081893,0.00005707,0.00010118,0.00003042,-0.00004251,-0.00001303,-0
 .00001402,-0.00002004,-0.00004171,-0.00013242,0.00001692,0.00000502,-0
 .00001276,-0.00001941,-0.00000027,0.00001741,0.00000886,-0.00002687,-0
 .00000177,0.00000381,-0.00000104,-0.00000147,-0.00004275,-0.00001974,0
 .00002243,0.00066756,-0.00009766,0.00018778,0.00010676,0.00060484,0.00
 042208,-0.00398043,-0.01899756,0.00883961,0.04973191,0.27163400,0.0007
 0335,-0.00007646,0.00104032,-0.00484505,-0.00217908,-0.00248824,0.0001
 1723,0.00165895,-0.00085469,0.00038680,0.00028278,0.00006606,0.0001244
 4,0.00002293,0.00016689,-0.00007122,-0.00006845,-0.00010160,-0.0001401
 5,-0.00002286,-0.00011838,-0.00000935,-0.00002427,-0.00001257,0.000000
 74,0.00003453,-0.00001574,0.00001386,0.00000329,-0.00001276,-0.0000319
 7,-0.00004759,0.00000753,-0.00001155,-0.00000819,-0.00000404,0.0000003
 9,-0.00000878,0.00004143,0.00092712,0.02387933,-0.01200283,0.02013626,
 0.08909740,-0.09103046,0.00764807,0.01035170,-0.00321475,-0.00023315,0
 .00014365,-0.00040806,0.00005605,-0.00002579,0.00006372,0.00000024,0.0
 0007589,0.00014438,-0.00000748,-0.00000960,0.00000663,0.00001554,-0.00
 001201,-0.00002306,-0.00000110,0.00000814,-0.00000048,-0.00000561,0.00
 000121,-0.00000032,0.00002994,0.00001919,-0.00001231,0.00017514,-0.000
 25488,0.00097144,0.00104415,-0.00024411,0.00039516,-0.00516266,-0.0200
 1339,0.01116886,-0.02262926,-0.10255746,0.09742680,0.00010286,-0.00039
 493,0.00005087,-0.00042518,0.00099980,-0.00080604,0.00017691,-0.000102
 72,0.00038918,-0.00014252,-0.00005156,0.00001463,-0.00017536,-0.000033
 46,-0.00025613,0.00006993,-0.00000754,0.00012315,0.00018312,0.00001929
 ,0.00016471,-0.00001564,0.00001715,0.00002632,0.00001694,-0.00004284,-
 0.00001025,0.00000356,-0.00002844,0.00003532,0.00005421,0.00003222,-0.
 00001420,-0.00000139,0.00000658,0.00000629,0.00001308,-0.00000403,-0.0
 0004310,0.00228362,0.00098735,0.00124031,-0.00972031,0.02859711,0.0296
 0121,-0.04268259,-0.00012314,0.03421851,0.00003284,0.00001270,-0.00001
 802,-0.00007463,-0.00001615,-0.00002796,-0.00001171,0.00002398,-0.0001
 7170,0.00002432,-0.00000549,-0.00000249,-0.00001466,0.00002638,0.00002
 009,-0.00001338,0.00000846,0.00001234,0.00000059,0.00000412,0.00000158
 ,-0.00004803,-0.00000458,0.00000187,0.00067022,-0.00053706,-0.00016081
 ,-0.00064558,-0.00042649,-0.00103045,-0.00589139,-0.00055122,0.0021150
 6,0.00108175,-0.00060180,-0.00035254,0.05529400,0.00067591,-0.00000639
 ,0.00044849,-0.00001350,-0.00108677,-0.00007970,0.00001535,0.00014763,
 0.00009661,0.00008535,0.00004185,0.00001179,0.00025448,0.00001682,0.00
 007418,-0.00014251,0.00001805,0.00001895,-0.00017388,-0.00002115,-0.00
 008212,0.00001357,0.00000221,-0.00000617,-0.00000594,0.00002640,-0.000
 00290,0.00000320,0.00001703,-0.00001561,-0.00003567,-0.00003117,0.0000
 1454,0.00000120,-0.00000232,-0.00001358,-0.00001265,-0.00000578,0.0000
 3638,-0.00128897,0.00011963,0.00061072,0.00083715,0.00141242,-0.000359
 04,0.01850512,-0.21652157,-0.17138985,0.00000491,-0.00000555,-0.000042
 76,0.00005345,0.00001268,0.00001478,0.00011682,-0.00004822,0.00006849,
 -0.00001557,-0.00000108,0.00000008,0.00000666,-0.00001832,-0.00001234,
 0.00000956,-0.00000255,-0.00000905,-0.00000247,-0.00000082,-0.00000180
 ,0.00003738,0.00001096,-0.00001031,-0.00042180,0.00029761,0.00013870,0
 .00077880,0.00001084,0.00013634,-0.00079320,0.00192027,0.00078075,0.00
 014581,0.00041456,0.00040920,-0.02303470,0.23546021,-0.00049451,0.0000
 5132,-0.00004170,-0.00007828,0.00078384,-0.00035637,0.00009903,-0.0001
 4653,0.00010796,-0.00007685,-0.00006300,0.00001489,-0.00018344,-0.0000
 2752,-0.00012554,0.00009542,-0.00000968,0.00003344,0.00014940,0.000020
 85,0.00010023,-0.00001179,0.00000123,0.00000509,0.00000550,-0.00002714
 ,-0.00000060,-0.00000699,-0.00001880,0.00000646,0.00003813,0.00003356,
 -0.00000720,0.00000080,0.00000370,0.00001074,0.00001172,0.00000528,-0.
 00002713,-0.00040419,0.00117093,0.00258159,-0.00573228,-0.00748869,-0.
 01245048,0.06123409,-0.20823339,-0.23661382,0.00003205,-0.00000391,0.0
 0000993,-0.00006797,-0.00001359,-0.00001344,-0.00005227,0.00002619,-0.
 00008531,0.00001643,-0.00000030,-0.00000270,-0.00000772,0.00001321,0.0
 0001014,-0.00001058,0.00000181,0.00000918,0.00000284,0.00000105,0.0000
 0224,-0.00003398,-0.00000943,0.00000495,-0.00018933,0.00004422,-0.0002
 3524,0.00041799,-0.00037507,0.00056697,0.00403222,0.00108719,-0.000141
 72,0.00016821,0.00010406,-0.00043030,-0.05456716,0.19959672,0.23904855
 ,0.00355550,0.00034067,0.00100543,-0.00541848,-0.00189523,-0.00361948,
 0.00111491,0.00036623,0.00216185,-0.00043204,-0.00035916,0.00001933,-0
 .00027171,0.00002132,-0.00043939,0.00018112,0.00007082,0.00030096,0.00
 035609,0.00001452,0.00032823,0.00002956,0.00010945,0.00004318,0.000034
 29,-0.00009792,-0.00000320,-0.00000480,-0.00003518,0.00005829,0.000097
 53,0.00008250,-0.00002255,0.00001036,0.00001515,0.00000436,0.00001598,
 0.00000207,-0.00009018,0.00097928,-0.00119451,-0.00017401,-0.01585205,
 -0.03678881,0.01583640,-0.05410413,-0.05739925,0.04331400,0.00005365,0
 .00012955,-0.00020542,-0.00001760,0.00001223,-0.00003494,-0.00000025,-
 0.00010306,-0.00042801,0.00002782,-0.00000273,-0.00000451,-0.00003795,
 0.00002358,0.00004073,-0.00001510,0.00000133,0.00001329,0.00000434,0.0
 0000547,0.00000157,-0.00008541,-0.00001983,0.00001171,0.00043044,0.000
 44113,-0.00004124,-0.00013278,0.00009254,-0.00012651,0.00114130,0.0004
 2280,-0.00014991,-0.00568470,0.00098949,0.00212176,-0.00014558,0.00439
 617,-0.00438648,0.07417039,-0.00057757,-0.00331557,-0.00025455,0.00258
 598,0.00259077,0.00091721,-0.00076939,-0.00038346,-0.00094853,0.000160
 73,0.00019235,-0.00000302,-0.00003655,-0.00002053,0.00009259,-0.000019
 50,-0.00005964,-0.00011489,-0.00005705,-0.00000486,-0.00009049,-0.0000
 4359,-0.00007000,-0.00002338,-0.00000903,0.00002916,-0.00000236,0.0000
 0711,-0.00000263,-0.00001106,-0.00002048,-0.00003115,0.00000081,-0.000
 00784,-0.00000418,0.00000671,0.00000358,-0.00000368,0.00002270,0.00091
 561,-0.00014828,-0.00029404,0.00100197,0.00221176,0.00220372,-0.089823
 24,-0.36084219,0.10424846,-0.00004994,-0.00006888,0.00015551,-0.000043
 44,-0.00002994,-0.00001642,-0.00006104,0.00011401,0.00015283,0.0000035
 9,-0.00000172,0.00000753,0.00001293,0.00001199,-0.00000992,-0.00000403
 ,0.00000852,0.00000211,-0.00000292,0.00000030,0.00000046,0.00001361,0.
 00001024,-0.00000268,0.00038388,-0.00032689,0.00020333,-0.00013471,-0.
 00016471,-0.00007668,0.00010307,0.00043669,-0.00027435,0.00087859,0.00
 212948,-0.00043529,-0.00476899,-0.02217749,0.01347192,0.09035868,0.379
 92052,-0.00069820,0.00028798,-0.00139430,-0.00090811,0.00118203,0.0001
 3551,-0.00002007,-0.00040374,0.00018560,-0.00019044,-0.00009255,-0.000
 04399,-0.00026581,-0.00002262,-0.00008429,0.00016071,0.00000042,0.0000
 0489,0.00019730,0.00001338,0.00009952,0.00000651,0.00003305,0.00002206
 ,0.00002138,-0.00003307,-0.00000661,0.00000595,-0.00002212,0.00002702,
 0.00004220,0.00002220,-0.00001451,-0.00000419,0.00000218,0.00000441,0.
 00001267,-0.00000241,-0.00003658,-0.00035972,-0.00173411,0.00118748,-0
 .00181979,0.01363304,-0.00679119,0.06581027,0.13586726,-0.08853488,0.0
 0005749,0.00000511,0.00007735,-0.00003743,-0.00000226,-0.00003703,-0.0
 0011512,0.00000323,-0.00011142,0.00001385,-0.00000282,0.00000147,-0.00
 000886,0.00001633,0.00001040,-0.00001201,0.00001106,0.00000739,-0.0000
 0023,0.00000347,0.00000134,-0.00004422,-0.00000540,0.00000988,-0.00005
 924,0.00028863,-0.00018678,-0.00003008,-0.00006522,-0.00006333,0.00008
 484,0.00051537,-0.00036778,0.00425621,-0.00013867,-0.00076865,-0.01056
 062,-0.03043151,0.00801921,-0.05553524,-0.11892822,0.08864781\\-0.0000
 0052,0.00000114,0.00000003,-0.00000337,-0.00000266,-0.00000392,-0.0000
 0069,-0.00000270,0.00000176,0.00000114,0.00000354,-0.00000277,0.000003
 73,-0.00000182,-0.00000007,-0.00000233,0.00000179,-0.00000051,-0.00000
 231,0.00000038,0.00000140,-0.00000024,0.00000241,0.00000166,0.00000004
 ,-0.00000496,0.00000219,0.00000100,0.00000135,-0.00000318,0.00000072,0
 .00000040,-0.00000209,-0.00000014,0.00000108,0.00000066,0.00000014,0.0
 0000215,0.00000026,0.00000192,-0.00000024,0.00000073,-0.00000095,-0.00
 000097,-0.00000164,-0.00000029,-0.00000157,0.00000035,-0.00000042,0.00
 000048,0.00000245,-0.00000037,0.00000234,-0.00000013,0.00000033,0.0000
 0044,0.00000169,0.00000023,-0.00000007,0.00000117,0.00000063,-0.000000
 97,0.00000046,0.00000003,-0.00000069,-0.00000026,0.00000035,0.00000095
 ,-0.00000044,0.00000130,0.00000063,0.00000038,0.00000036,0.00000067,0.
 00000102,-0.00000011,-0.00000019,-0.00000013,-0.00000001,-0.00000092,-
 0.00000024,0.00000019,-0.00000091,-0.00000053,-0.00000035,0.00000008,-
 0.00000035,-0.00000001,-0.00000115,0.00000006\\\@


 WE THE UNWILLING
 LED BY THE UNQUALIFIED
 HAVE BEEN DOING THE UNBELIEVABLE SO LONG WITH SO LITTLE
 THAT WE NOW ATTEMPT THE IMPOSSIBLE WITH NOTHING.

                                    -- ANONYMOUS
 Job cpu time:       0 days  2 hours  9 minutes  3.0 seconds.
 File lengths (MBytes):  RWF=    415 Int=      0 D2E=      0 Chk=     13 Scr=      1
 Normal termination of Gaussian 09 at Sat Jul 24 02:02:05 2021.
