 Entering Gaussian System, Link 0=g09
 Input=opt_freq-conf-683.com
 Output=opt_freq-conf-683.log
 Initial command:
 /aerosol/software/g09/l1.exe "/scratch/nicole/10383/Gau-73117.inp" -scrdir="/scratch/nicole/10383/"
 Entering Link 1 = /aerosol/software/g09/l1.exe PID=     73124.
  
 Copyright (c) 1988,1990,1992,1993,1995,1998,2003,2009,2013,
            Gaussian, Inc.  All Rights Reserved.
  
 This is part of the Gaussian(R) 09 program.  It is based on
 the Gaussian(R) 03 system (copyright 2003, Gaussian, Inc.),
 the Gaussian(R) 98 system (copyright 1998, Gaussian, Inc.),
 the Gaussian(R) 94 system (copyright 1995, Gaussian, Inc.),
 the Gaussian 92(TM) system (copyright 1992, Gaussian, Inc.),
 the Gaussian 90(TM) system (copyright 1990, Gaussian, Inc.),
 the Gaussian 88(TM) system (copyright 1988, Gaussian, Inc.),
 the Gaussian 86(TM) system (copyright 1986, Carnegie Mellon
 University), and the Gaussian 82(TM) system (copyright 1983,
 Carnegie Mellon University). Gaussian is a federally registered
 trademark of Gaussian, Inc.
  
 This software contains proprietary and confidential information,
 including trade secrets, belonging to Gaussian, Inc.
  
 This software is provided under written license and may be
 used, copied, transmitted, or stored only in accord with that
 written license.
  
 The following legend is applicable only to US Government
 contracts under FAR:
  
                    RESTRICTED RIGHTS LEGEND
  
 Use, reproduction and disclosure by the US Government is
 subject to restrictions as set forth in subparagraphs (a)
 and (c) of the Commercial Computer Software - Restricted
 Rights clause in FAR 52.227-19.
  
 Gaussian, Inc.
 340 Quinnipiac St., Bldg. 40, Wallingford CT 06492
  
  
 ---------------------------------------------------------------
 Warning -- This program may not be used in any manner that
 competes with the business of Gaussian, Inc. or will provide
 assistance to any competitor of Gaussian, Inc.  The licensee
 of this program is prohibited from giving any competitor of
 Gaussian, Inc. access to this program.  By using this program,
 the user acknowledges that Gaussian, Inc. is engaged in the
 business of creating and licensing software in the field of
 computational chemistry and represents and warrants to the
 licensee that it is not a competitor of Gaussian, Inc. and that
 it will not use this program in any manner prohibited above.
 ---------------------------------------------------------------
  

 Cite this work as:
 Gaussian 09, Revision D.01,
 M. J. Frisch, G. W. Trucks, H. B. Schlegel, G. E. Scuseria, 
 M. A. Robb, J. R. Cheeseman, G. Scalmani, V. Barone, B. Mennucci, 
 G. A. Petersson, H. Nakatsuji, M. Caricato, X. Li, H. P. Hratchian, 
 A. F. Izmaylov, J. Bloino, G. Zheng, J. L. Sonnenberg, M. Hada, 
 M. Ehara, K. Toyota, R. Fukuda, J. Hasegawa, M. Ishida, T. Nakajima, 
 Y. Honda, O. Kitao, H. Nakai, T. Vreven, J. A. Montgomery, Jr., 
 J. E. Peralta, F. Ogliaro, M. Bearpark, J. J. Heyd, E. Brothers, 
 K. N. Kudin, V. N. Staroverov, T. Keith, R. Kobayashi, J. Normand, 
 K. Raghavachari, A. Rendell, J. C. Burant, S. S. Iyengar, J. Tomasi, 
 M. Cossi, N. Rega, J. M. Millam, M. Klene, J. E. Knox, J. B. Cross, 
 V. Bakken, C. Adamo, J. Jaramillo, R. Gomperts, R. E. Stratmann, 
 O. Yazyev, A. J. Austin, R. Cammi, C. Pomelli, J. W. Ochterski, 
 R. L. Martin, K. Morokuma, V. G. Zakrzewski, G. A. Voth, 
 P. Salvador, J. J. Dannenberg, S. Dapprich, A. D. Daniels, 
 O. Farkas, J. B. Foresman, J. V. Ortiz, J. Cioslowski, 
 and D. J. Fox, Gaussian, Inc., Wallingford CT, 2013.
 
 ******************************************
 Gaussian 09:  ES64L-G09RevD.01 24-Apr-2013
                24-Jul-2021 
 ******************************************
 %mem=2gb
 %nproc=4
 Will use up to    4 processors via shared memory.
 %chk=conf-683.chk
 ----------------------------------------------------------------------
 # B3LYP/6-311++G(2df,2pd) EmpiricalDispersion=GD3BJ opt=calcfc freq=no
 raman nosymm integral(ultrafinegrid)
 ----------------------------------------------------------------------
 1/10=4,14=-1,18=20,19=15,26=4,38=1/1,3;
 2/9=110,12=2,15=1,17=6,18=5,40=1/2;
 3/5=4,6=6,7=1414,11=2,16=1,25=1,30=1,71=2,74=-5,75=-5,124=41,140=1/1,2,3;
 4//1;
 5/5=2,38=5/2;
 8/6=4,10=90,11=11/1;
 11/6=1,8=1,9=11,15=111,16=1,31=1/1,2,10;
 10/6=1,13=1,31=1/2;
 6/7=2,8=2,9=2,10=2,28=1/1;
 7/10=1,18=20,25=1,30=1/1,2,3,16;
 1/10=4,14=-1,18=20,19=15,26=4/3(2);
 2/9=110,15=1/2;
 99//99;
 2/9=110,15=1/2;
 3/5=4,6=6,7=1414,11=2,16=1,25=1,30=1,71=1,74=-5,75=-5,124=41/1,2,3;
 4/5=5,16=3,69=1/1;
 5/5=2,38=5/2;
 7/30=1/1,2,3,16;
 1/14=-1,18=20,19=15,26=4/3(-5);
 2/9=110,15=1/2;
 6/7=2,8=2,9=2,10=2,19=2,28=1/1;
 99/9=1/99;
 ------------------------------------------------------------
 Candidate Structure: Conf:683 OPT and FREQ calc in gas phase
 ------------------------------------------------------------
 Symbolic Z-matrix:
 Charge =  0 Multiplicity = 1
 O                    -0.48714   0.03411  -2.18319 
 C                     0.46127   0.27928  -1.44052 
 N                     0.32789   0.42795  -0.11044 
 C                    -0.9578    0.66545   0.50158 
 C                    -0.92497   2.00031   1.21365 
 O                    -2.15887   2.3984    1.57874 
 O                     0.07049   2.63591   1.45945 
 C                    -1.34629  -0.41772   1.51388 
 C                    -1.55824  -1.78505   0.92941 
 C                    -1.80804  -2.98089   1.53805 
 N                    -1.96662  -3.98554   0.60476 
 C                    -1.81522  -3.39077  -0.55338 
 N                    -1.57259  -2.06509  -0.41431 
 C                     1.88811   0.37371  -1.96848 
 C                     2.67074   1.56211  -1.4079 
 N                     2.95917   1.38592   0.02671 
 H                     1.16423   0.73916   0.38089 
 H                    -1.71051   0.71537  -0.28595 
 H                    -2.04427   3.24021   2.03676 
 H                    -0.58326  -0.47218   2.29309 
 H                    -2.2642   -0.10001   2.01323 
 H                    -1.8861   -3.18906   2.59558 
 H                    -1.86735  -3.85838  -1.52128 
 H                    -1.36912  -1.41053  -1.15988 
 H                     2.42577  -0.54795  -1.71986 
 H                     1.81067   0.4345   -3.05414 
 H                     2.07238   2.46848  -1.52499 
 H                     3.58337   1.70483  -1.9953 
 H                     3.80746   0.85703   0.17254 
 H                     3.07913   2.28043   0.48106 
 

 GradGradGradGradGradGradGradGradGradGradGradGradGradGradGradGradGradGrad
 Berny optimization.
 Initialization pass.
                           ----------------------------
                           !    Initial Parameters    !
                           ! (Angstroms and Degrees)  !
 --------------------------                            --------------------------
 ! Name  Definition              Value          Derivative Info.                !
 --------------------------------------------------------------------------------
 ! R1    R(1,2)                  1.2293         calculate D2E/DX2 analytically  !
 ! R2    R(2,3)                  1.345          calculate D2E/DX2 analytically  !
 ! R3    R(2,14)                 1.5243         calculate D2E/DX2 analytically  !
 ! R4    R(3,4)                  1.4436         calculate D2E/DX2 analytically  !
 ! R5    R(3,17)                 1.0187         calculate D2E/DX2 analytically  !
 ! R6    R(4,5)                  1.5133         calculate D2E/DX2 analytically  !
 ! R7    R(4,8)                  1.5326         calculate D2E/DX2 analytically  !
 ! R8    R(4,18)                 1.0905         calculate D2E/DX2 analytically  !
 ! R9    R(5,6)                  1.3469         calculate D2E/DX2 analytically  !
 ! R10   R(5,7)                  1.2064         calculate D2E/DX2 analytically  !
 ! R11   R(6,19)                 0.9652         calculate D2E/DX2 analytically  !
 ! R12   R(8,9)                  1.502          calculate D2E/DX2 analytically  !
 ! R13   R(8,20)                 1.0919         calculate D2E/DX2 analytically  !
 ! R14   R(8,21)                 1.0922         calculate D2E/DX2 analytically  !
 ! R15   R(9,10)                 1.3649         calculate D2E/DX2 analytically  !
 ! R16   R(9,13)                 1.3727         calculate D2E/DX2 analytically  !
 ! R17   R(10,11)                1.3804         calculate D2E/DX2 analytically  !
 ! R18   R(10,22)                1.0806         calculate D2E/DX2 analytically  !
 ! R19   R(11,12)                1.3107         calculate D2E/DX2 analytically  !
 ! R20   R(12,13)                1.3549         calculate D2E/DX2 analytically  !
 ! R21   R(12,23)                1.0762         calculate D2E/DX2 analytically  !
 ! R22   R(13,24)                1.0128         calculate D2E/DX2 analytically  !
 ! R23   R(14,15)                1.5294         calculate D2E/DX2 analytically  !
 ! R24   R(14,25)                1.0956         calculate D2E/DX2 analytically  !
 ! R25   R(14,26)                1.0901         calculate D2E/DX2 analytically  !
 ! R26   R(15,16)                1.4739         calculate D2E/DX2 analytically  !
 ! R27   R(15,27)                1.0924         calculate D2E/DX2 analytically  !
 ! R28   R(15,28)                1.0947         calculate D2E/DX2 analytically  !
 ! R29   R(16,29)                1.0102         calculate D2E/DX2 analytically  !
 ! R30   R(16,30)                1.0104         calculate D2E/DX2 analytically  !
 ! A1    A(1,2,3)              122.8875         calculate D2E/DX2 analytically  !
 ! A2    A(1,2,14)             121.6868         calculate D2E/DX2 analytically  !
 ! A3    A(3,2,14)             115.3721         calculate D2E/DX2 analytically  !
 ! A4    A(2,3,4)              121.7189         calculate D2E/DX2 analytically  !
 ! A5    A(2,3,17)             115.4249         calculate D2E/DX2 analytically  !
 ! A6    A(4,3,17)             118.4538         calculate D2E/DX2 analytically  !
 ! A7    A(3,4,5)              108.9833         calculate D2E/DX2 analytically  !
 ! A8    A(3,4,8)              112.9234         calculate D2E/DX2 analytically  !
 ! A9    A(3,4,18)             108.4268         calculate D2E/DX2 analytically  !
 ! A10   A(5,4,8)              108.549          calculate D2E/DX2 analytically  !
 ! A11   A(5,4,18)             108.3251         calculate D2E/DX2 analytically  !
 ! A12   A(8,4,18)             109.535          calculate D2E/DX2 analytically  !
 ! A13   A(4,5,6)              111.6154         calculate D2E/DX2 analytically  !
 ! A14   A(4,5,7)              125.3475         calculate D2E/DX2 analytically  !
 ! A15   A(6,5,7)              123.0221         calculate D2E/DX2 analytically  !
 ! A16   A(5,6,19)             106.1193         calculate D2E/DX2 analytically  !
 ! A17   A(4,8,9)              114.9679         calculate D2E/DX2 analytically  !
 ! A18   A(4,8,20)             109.2354         calculate D2E/DX2 analytically  !
 ! A19   A(4,8,21)             108.0247         calculate D2E/DX2 analytically  !
 ! A20   A(9,8,20)             109.3221         calculate D2E/DX2 analytically  !
 ! A21   A(9,8,21)             108.9127         calculate D2E/DX2 analytically  !
 ! A22   A(20,8,21)            105.9938         calculate D2E/DX2 analytically  !
 ! A23   A(8,9,10)             130.5325         calculate D2E/DX2 analytically  !
 ! A24   A(8,9,13)             124.618          calculate D2E/DX2 analytically  !
 ! A25   A(10,9,13)            104.8255         calculate D2E/DX2 analytically  !
 ! A26   A(9,10,11)            110.9276         calculate D2E/DX2 analytically  !
 ! A27   A(9,10,22)            128.1989         calculate D2E/DX2 analytically  !
 ! A28   A(11,10,22)           120.8735         calculate D2E/DX2 analytically  !
 ! A29   A(10,11,12)           104.7069         calculate D2E/DX2 analytically  !
 ! A30   A(11,12,13)           111.9624         calculate D2E/DX2 analytically  !
 ! A31   A(11,12,23)           126.2929         calculate D2E/DX2 analytically  !
 ! A32   A(13,12,23)           121.7446         calculate D2E/DX2 analytically  !
 ! A33   A(9,13,12)            107.5757         calculate D2E/DX2 analytically  !
 ! A34   A(9,13,24)            125.9221         calculate D2E/DX2 analytically  !
 ! A35   A(12,13,24)           126.3561         calculate D2E/DX2 analytically  !
 ! A36   A(2,14,15)            113.5898         calculate D2E/DX2 analytically  !
 ! A37   A(2,14,25)            109.187          calculate D2E/DX2 analytically  !
 ! A38   A(2,14,26)            106.3738         calculate D2E/DX2 analytically  !
 ! A39   A(15,14,25)           108.6248         calculate D2E/DX2 analytically  !
 ! A40   A(15,14,26)           110.9815         calculate D2E/DX2 analytically  !
 ! A41   A(25,14,26)           107.9245         calculate D2E/DX2 analytically  !
 ! A42   A(14,15,16)           111.3475         calculate D2E/DX2 analytically  !
 ! A43   A(14,15,27)           108.9737         calculate D2E/DX2 analytically  !
 ! A44   A(14,15,28)           109.3448         calculate D2E/DX2 analytically  !
 ! A45   A(16,15,27)           108.1028         calculate D2E/DX2 analytically  !
 ! A46   A(16,15,28)           112.0079         calculate D2E/DX2 analytically  !
 ! A47   A(27,15,28)           106.9165         calculate D2E/DX2 analytically  !
 ! A48   A(15,16,29)           111.5564         calculate D2E/DX2 analytically  !
 ! A49   A(15,16,30)           110.7986         calculate D2E/DX2 analytically  !
 ! A50   A(29,16,30)           107.3892         calculate D2E/DX2 analytically  !
 ! D1    D(1,2,3,4)            -16.8472         calculate D2E/DX2 analytically  !
 ! D2    D(1,2,3,17)          -172.909          calculate D2E/DX2 analytically  !
 ! D3    D(14,2,3,4)           165.7775         calculate D2E/DX2 analytically  !
 ! D4    D(14,2,3,17)            9.7158         calculate D2E/DX2 analytically  !
 ! D5    D(1,2,14,15)          136.0055         calculate D2E/DX2 analytically  !
 ! D6    D(1,2,14,25)         -102.5989         calculate D2E/DX2 analytically  !
 ! D7    D(1,2,14,26)           13.6252         calculate D2E/DX2 analytically  !
 ! D8    D(3,2,14,15)          -46.5847         calculate D2E/DX2 analytically  !
 ! D9    D(3,2,14,25)           74.8109         calculate D2E/DX2 analytically  !
 ! D10   D(3,2,14,26)         -168.965          calculate D2E/DX2 analytically  !
 ! D11   D(2,3,4,5)           -118.9752         calculate D2E/DX2 analytically  !
 ! D12   D(2,3,4,8)            120.312          calculate D2E/DX2 analytically  !
 ! D13   D(2,3,4,18)            -1.2603         calculate D2E/DX2 analytically  !
 ! D14   D(17,3,4,5)            36.3919         calculate D2E/DX2 analytically  !
 ! D15   D(17,3,4,8)           -84.3209         calculate D2E/DX2 analytically  !
 ! D16   D(17,3,4,18)          154.1068         calculate D2E/DX2 analytically  !
 ! D17   D(3,4,5,6)            167.8964         calculate D2E/DX2 analytically  !
 ! D18   D(3,4,5,7)            -13.4842         calculate D2E/DX2 analytically  !
 ! D19   D(8,4,5,6)            -68.7433         calculate D2E/DX2 analytically  !
 ! D20   D(8,4,5,7)            109.876          calculate D2E/DX2 analytically  !
 ! D21   D(18,4,5,6)            50.1173         calculate D2E/DX2 analytically  !
 ! D22   D(18,4,5,7)          -131.2634         calculate D2E/DX2 analytically  !
 ! D23   D(3,4,8,9)            -64.9541         calculate D2E/DX2 analytically  !
 ! D24   D(3,4,8,20)            58.3472         calculate D2E/DX2 analytically  !
 ! D25   D(3,4,8,21)           173.2087         calculate D2E/DX2 analytically  !
 ! D26   D(5,4,8,9)            174.086          calculate D2E/DX2 analytically  !
 ! D27   D(5,4,8,20)           -62.6128         calculate D2E/DX2 analytically  !
 ! D28   D(5,4,8,21)            52.2487         calculate D2E/DX2 analytically  !
 ! D29   D(18,4,8,9)            55.9903         calculate D2E/DX2 analytically  !
 ! D30   D(18,4,8,20)          179.2915         calculate D2E/DX2 analytically  !
 ! D31   D(18,4,8,21)          -65.847          calculate D2E/DX2 analytically  !
 ! D32   D(4,5,6,19)           178.8907         calculate D2E/DX2 analytically  !
 ! D33   D(7,5,6,19)             0.2338         calculate D2E/DX2 analytically  !
 ! D34   D(4,8,9,10)           174.4921         calculate D2E/DX2 analytically  !
 ! D35   D(4,8,9,13)            -7.5697         calculate D2E/DX2 analytically  !
 ! D36   D(20,8,9,10)           51.2371         calculate D2E/DX2 analytically  !
 ! D37   D(20,8,9,13)         -130.8247         calculate D2E/DX2 analytically  !
 ! D38   D(21,8,9,10)          -64.1528         calculate D2E/DX2 analytically  !
 ! D39   D(21,8,9,13)          113.7854         calculate D2E/DX2 analytically  !
 ! D40   D(8,9,10,11)          178.6096         calculate D2E/DX2 analytically  !
 ! D41   D(8,9,10,22)           -1.3372         calculate D2E/DX2 analytically  !
 ! D42   D(13,9,10,11)           0.3647         calculate D2E/DX2 analytically  !
 ! D43   D(13,9,10,22)        -179.5821         calculate D2E/DX2 analytically  !
 ! D44   D(8,9,13,12)         -178.8194         calculate D2E/DX2 analytically  !
 ! D45   D(8,9,13,24)            5.359          calculate D2E/DX2 analytically  !
 ! D46   D(10,9,13,12)          -0.4403         calculate D2E/DX2 analytically  !
 ! D47   D(10,9,13,24)        -176.2619         calculate D2E/DX2 analytically  !
 ! D48   D(9,10,11,12)          -0.1419         calculate D2E/DX2 analytically  !
 ! D49   D(22,10,11,12)        179.8093         calculate D2E/DX2 analytically  !
 ! D50   D(10,11,12,13)         -0.1505         calculate D2E/DX2 analytically  !
 ! D51   D(10,11,12,23)        179.7578         calculate D2E/DX2 analytically  !
 ! D52   D(11,12,13,9)           0.3833         calculate D2E/DX2 analytically  !
 ! D53   D(11,12,13,24)        176.1817         calculate D2E/DX2 analytically  !
 ! D54   D(23,12,13,9)        -179.5298         calculate D2E/DX2 analytically  !
 ! D55   D(23,12,13,24)         -3.7314         calculate D2E/DX2 analytically  !
 ! D56   D(2,14,15,16)          68.9177         calculate D2E/DX2 analytically  !
 ! D57   D(2,14,15,27)         -50.2361         calculate D2E/DX2 analytically  !
 ! D58   D(2,14,15,28)        -166.7754         calculate D2E/DX2 analytically  !
 ! D59   D(25,14,15,16)        -52.7915         calculate D2E/DX2 analytically  !
 ! D60   D(25,14,15,27)       -171.9453         calculate D2E/DX2 analytically  !
 ! D61   D(25,14,15,28)         71.5155         calculate D2E/DX2 analytically  !
 ! D62   D(26,14,15,16)       -171.2862         calculate D2E/DX2 analytically  !
 ! D63   D(26,14,15,27)         69.56           calculate D2E/DX2 analytically  !
 ! D64   D(26,14,15,28)        -46.9793         calculate D2E/DX2 analytically  !
 ! D65   D(14,15,16,29)         86.1649         calculate D2E/DX2 analytically  !
 ! D66   D(14,15,16,30)       -154.2452         calculate D2E/DX2 analytically  !
 ! D67   D(27,15,16,29)       -154.1633         calculate D2E/DX2 analytically  !
 ! D68   D(27,15,16,30)        -34.5734         calculate D2E/DX2 analytically  !
 ! D69   D(28,15,16,29)        -36.6262         calculate D2E/DX2 analytically  !
 ! D70   D(28,15,16,30)         82.9637         calculate D2E/DX2 analytically  !
 --------------------------------------------------------------------------------
 Trust Radius=3.00D-01 FncErr=1.00D-07 GrdErr=1.00D-06
 Number of steps in this run=    160 maximum allowed number of steps=    180.
 GradGradGradGradGradGradGradGradGradGradGradGradGradGradGradGradGradGrad

                          Input orientation:                          
 ---------------------------------------------------------------------
 Center     Atomic      Atomic             Coordinates (Angstroms)
 Number     Number       Type             X           Y           Z
 ---------------------------------------------------------------------
      1          8           0       -0.487137    0.034113   -2.183190
      2          6           0        0.461268    0.279282   -1.440517
      3          7           0        0.327894    0.427946   -0.110441
      4          6           0       -0.957804    0.665448    0.501575
      5          6           0       -0.924970    2.000307    1.213651
      6          8           0       -2.158867    2.398398    1.578742
      7          8           0        0.070491    2.635914    1.459449
      8          6           0       -1.346294   -0.417723    1.513882
      9          6           0       -1.558244   -1.785053    0.929409
     10          6           0       -1.808037   -2.980892    1.538055
     11          7           0       -1.966617   -3.985539    0.604764
     12          6           0       -1.815215   -3.390767   -0.553375
     13          7           0       -1.572589   -2.065091   -0.414312
     14          6           0        1.888109    0.373714   -1.968479
     15          6           0        2.670739    1.562111   -1.407896
     16          7           0        2.959170    1.385918    0.026709
     17          1           0        1.164234    0.739164    0.380893
     18          1           0       -1.710505    0.715370   -0.285954
     19          1           0       -2.044274    3.240207    2.036763
     20          1           0       -0.583259   -0.472180    2.293090
     21          1           0       -2.264205   -0.100005    2.013233
     22          1           0       -1.886099   -3.189059    2.595576
     23          1           0       -1.867355   -3.858382   -1.521281
     24          1           0       -1.369122   -1.410531   -1.159878
     25          1           0        2.425773   -0.547949   -1.719863
     26          1           0        1.810668    0.434499   -3.054138
     27          1           0        2.072378    2.468476   -1.524990
     28          1           0        3.583373    1.704834   -1.995297
     29          1           0        3.807463    0.857035    0.172543
     30          1           0        3.079128    2.280426    0.481062
 ---------------------------------------------------------------------
                    Distance matrix (angstroms):
                    1          2          3          4          5
     1  O    0.000000
     2  C    1.229285   0.000000
     3  N    2.261784   1.344987   0.000000
     4  C    2.797870   2.436105   1.443603   0.000000
     5  C    3.949195   3.453720   2.407323   1.513267   0.000000
     6  O    4.747279   4.524564   3.594440   2.367690   1.346949
     7  O    4.511001   3.757156   2.721384   2.420257   1.206381
     8  C    3.822388   3.532926   2.481227   1.532629   2.472755
     9  C    3.760972   3.735834   3.088069   2.559009   3.848477
    10  C    4.968168   4.964913   4.347403   3.884969   5.069258
    11  N    5.110690   5.316625   5.025450   4.760256   6.106236
    12  C    4.018694   4.408930   4.401327   4.277962   5.742699
    13  N    2.951914   3.268908   3.149509   2.944938   4.426865
    14  C    2.408987   1.524315   2.426833   3.779616   4.548095
    15  C    3.592776   2.555089   2.908375   4.197191   4.471425
    16  N    4.311387   3.101114   2.803593   4.010892   4.107657
    17  H    3.130279   2.005789   1.018691   2.126745   2.578514
    18  H    2.358018   2.497957   2.066032   1.090529   2.125310
    19  H    5.523741   5.209250   4.259868   3.188510   1.862178
    20  H    4.505847   3.949120   2.723489   2.154996   2.719402
    21  H    4.559159   4.415931   3.392300   2.139559   2.616141
    22  H    5.931487   5.816318   5.030608   4.483725   5.455547
    23  H    4.182661   4.748608   5.018186   5.038281   6.533925
    24  H    1.977894   2.506901   2.713149   2.690595   4.179082
    25  H    3.006411   2.149797   2.818458   4.225602   5.130944
    26  H    2.489732   2.109205   3.296060   4.512302   5.305609
    27  H    3.593113   2.719445   3.034458   4.066925   4.086983
    28  H    4.404050   3.476711   3.972564   5.285544   5.541643
    29  H    4.966917   3.759359   3.517328   4.780453   4.978644
    30  H    4.986221   3.814476   3.369101   4.348033   4.080190
                    6          7          8          9         10
     6  O    0.000000
     7  O    2.245146   0.000000
     8  C    2.931726   3.366740   0.000000
     9  C    4.275938   4.741167   1.502040   0.000000
    10  C    5.390871   5.923137   2.604539   1.364872   0.000000
    11  N    6.460669   6.980253   3.733712   2.261482   1.380397
    12  C    6.178872   6.627838   3.651361   2.200682   2.131227
    13  N    4.923284   5.320727   2.546167   1.372667   2.169300
    14  C    5.749794   4.491322   4.818151   4.993534   6.100054
    15  C    5.739728   4.016965   5.347250   5.877993   7.026872
    16  N    5.443181   3.458280   4.899165   5.592580   6.639236
    17  H    3.902678   2.440740   2.987441   3.752923   4.900228
    18  H    2.551608   3.147517   2.157767   2.784314   4.122969
    19  H    0.965172   2.273916   3.760456   5.168723   6.245525
    20  H    3.351574   3.283686   1.091949   2.129285   2.892022
    21  H    2.538089   3.639057   1.092180   2.124251   2.955231
    22  H    5.685774   6.248946   3.023533   2.203368   1.080637
    23  H    6.988735   7.403774   4.617560   3.224922   3.183244
    24  H    4.757276   5.030614   2.852224   2.130998   3.152383
    25  H    6.370296   5.078618   4.970166   4.941807   5.870126
    26  H    6.409187   5.314782   5.617784   5.669623   6.771126
    27  H    5.247999   3.597564   5.408531   6.107209   7.357681
    28  H    6.799125   5.014232   6.412581   6.868001   7.969184
    29  H    6.320624   4.334224   5.475893   6.028622   6.937445
    30  H    5.353074   3.183631   5.284986   6.183393   7.258310
                   11         12         13         14         15
    11  N    0.000000
    12  C    1.310710   0.000000
    13  N    2.209501   1.354852   0.000000
    14  C    6.362671   5.467033   4.509949   0.000000
    15  C    7.505484   6.736839   5.670066   1.529396   0.000000
    16  N    7.310956   6.778493   5.713213   2.480424   1.473881
    17  H    5.672316   5.177481   3.998300   2.485377   2.479227
    18  H    4.791400   4.116169   2.786837   3.987185   4.601199
    19  H    7.366685   7.122577   5.863142   6.302569   6.075609
    20  H    4.136159   4.258900   3.293352   4.998417   5.331430
    21  H    4.143636   4.197402   3.198886   5.772361   6.230604
    22  H    2.145739   3.156201   3.228160   6.911483   7.704944
    23  H    2.132155   1.076208   2.127947   5.675750   7.070283
    24  H    3.178305   2.118532   1.012776   3.800911   5.021812
    25  H    6.042682   5.237202   4.471363   1.095607   2.147018
    26  H    6.869657   5.833824   4.966192   1.090113   2.172866
    27  H    7.905925   7.098461   5.922214   2.149108   1.092357
    28  H    8.363196   7.562344   6.579954   2.155578   1.094673
    29  H    7.548333   7.084158   6.150462   2.915732   2.070521
    30  H    8.045940   7.562214   6.428350   3.324805   2.061775
                   16         17         18         19         20
    16  N    0.000000
    17  H    1.940498   0.000000
    18  H    4.727923   2.951165   0.000000
    19  H    5.702031   4.392225   3.446913   0.000000
    20  H    4.597588   2.859648   3.054902   3.997760   0.000000
    21  H    5.782551   3.888822   2.501535   3.347527   1.744251
    22  H    7.141856   5.444289   4.855781   6.455443   3.028253
    23  H    7.293442   5.826340   4.740237   7.942351   5.259723
    24  H    5.287932   3.662384   2.323735   5.683635   3.663478
    25  H    2.659862   2.767909   4.556409   6.960150   5.016354
    26  H    3.422846   3.508581   4.487805   6.974944   5.928390
    27  H    2.089522   2.729036   4.349574   5.498043   5.502509
    28  H    2.140057   3.525767   5.650313   7.091212   6.363213
    29  H    1.010241   2.654046   5.538796   6.587690   5.053907
    30  H    1.010431   2.460150   5.096891   5.439727   4.926800
                   21         22         23         24         25
    21  H    0.000000
    22  H    3.166123   0.000000
    23  H    5.174522   4.170953   0.000000
    24  H    3.547856   4.187344   2.524049   0.000000
    25  H    6.011036   6.647609   5.424882   3.931775   0.000000
    26  H    6.524457   7.662605   5.857161   4.135628   1.767441
    27  H    6.158090   8.040914   7.453230   5.198454   3.043301
    28  H    7.315731   8.656871   7.802852   5.910214   2.547731
    29  H    6.416324   7.393146   7.570188   5.806395   2.732077
    30  H    6.046917   7.683742   8.134004   6.008558   3.642890
                   26         27         28         29         30
    26  H    0.000000
    27  H    2.558095   0.000000
    28  H    2.424331   1.757112   0.000000
    29  H    3.818010   2.913568   2.338484   0.000000
    30  H    4.184982   2.252366   2.591896   1.628404   0.000000
 Symmetry turned off by external request.
 Stoichiometry    C9H14N4O3
 Framework group  C1[X(C9H14N4O3)]
 Deg. of freedom    84
 Full point group                 C1      NOp   1
 Rotational constants (GHZ):      0.6745708      0.3748381      0.2826775
 Standard basis: 6-311++G(2df,2pd) (5D, 7F)
   754 basis functions,  1084 primitive gaussians,   848 cartesian basis functions
    60 alpha electrons       60 beta electrons
       nuclear repulsion energy      1148.3601066720 Hartrees.
 NAtoms=   30 NActive=   30 NUniq=   30 SFac= 1.00D+00 NAtFMM=   60 NAOKFM=F Big=F
 Integral buffers will be    131072 words long.
 Raffenetti 2 integral format.
 Two-electron integral symmetry is turned off.
 Nuclear repulsion after empirical dispersion term =     1148.3041973030 Hartrees.
 One-electron integrals computed using PRISM.
 NBasis=   754 RedAO= T EigKep=  1.03D-06  NBF=   754
 NBsUse=   754 1.00D-06 EigRej= -1.00D+00 NBFU=   754
 ExpMin= 3.60D-02 ExpMax= 8.59D+03 ExpMxC= 1.30D+03 IAcc=3 IRadAn=         5 AccDes= 0.00D+00
 Harris functional with IExCor=  402 and IRadAn=       5 diagonalized for initial guess.
 HarFok:  IExCor=  402 AccDes= 0.00D+00 IRadAn=         5 IDoV= 1 UseB2=F ITyADJ=14
 ICtDFT=  3500011 ScaDFX=  1.000000  1.000000  1.000000  1.000000
 FoFCou: FMM=F IPFlag=           0 FMFlag=      100000 FMFlg1=           0
         NFxFlg=           0 DoJE=T BraDBF=F KetDBF=T FulRan=T
         wScrn=  0.000000 ICntrl=     500 IOpCl=  0 I1Cent=   200000004 NGrid=           0
         NMat0=    1 NMatS0=      1 NMatT0=    0 NMatD0=    1 NMtDS0=    0 NMtDT0=    0
 Symmetry not used in FoFCou.
 Requested convergence on RMS density matrix=1.00D-08 within 128 cycles.
 Requested convergence on MAX density matrix=1.00D-06.
 Requested convergence on             energy=1.00D-06.
 No special actions if energy rises.
 SCF Done:  E(RB3LYP) =  -796.443516715     A.U. after   16 cycles
            NFock= 16  Conv=0.86D-09     -V/T= 2.0039
 DoSCS=F DFT=T ScalE2(SS,OS)=  1.000000  1.000000
 Range of M.O.s used for correlation:     1   754
 NBasis=   754 NAE=    60 NBE=    60 NFC=     0 NFV=     0
 NROrb=    754 NOA=    60 NOB=    60 NVA=   694 NVB=   694

 **** Warning!!: The largest alpha MO coefficient is  0.18932460D+03

 Symmetrizing basis deriv contribution to polar:
 IMax=3 JMax=2 DiffMx= 0.00D+00
 G2DrvN: will do    31 centers at a time, making    1 passes.
 Calling FoFCou, ICntrl=  3107 FMM=F I1Cent=   0 AccDes= 0.00D+00.
 End of G2Drv F.D. properties file   721 does not exist.
 End of G2Drv F.D. properties file   722 does not exist.
 End of G2Drv F.D. properties file   788 does not exist.
          IDoAtm=111111111111111111111111111111
          Differentiating once with respect to nuclear coordinates.
          There are    93 degrees of freedom in the 1st order CPHF.  IDoFFX=6 NUNeed=     0.
     87 vectors produced by pass  0 Test12= 4.48D-14 1.08D-09 XBig12= 2.12D-01 1.11D-01.
 AX will form    87 AO Fock derivatives at one time.
     87 vectors produced by pass  1 Test12= 4.48D-14 1.08D-09 XBig12= 2.30D-02 3.84D-02.
     87 vectors produced by pass  2 Test12= 4.48D-14 1.08D-09 XBig12= 4.30D-04 2.33D-03.
     87 vectors produced by pass  3 Test12= 4.48D-14 1.08D-09 XBig12= 2.49D-06 1.45D-04.
     87 vectors produced by pass  4 Test12= 4.48D-14 1.08D-09 XBig12= 7.42D-09 6.73D-06.
     84 vectors produced by pass  5 Test12= 4.48D-14 1.08D-09 XBig12= 1.40D-11 2.84D-07.
     43 vectors produced by pass  6 Test12= 4.48D-14 1.08D-09 XBig12= 2.16D-14 9.55D-09.
     14 vectors produced by pass  7 Test12= 4.48D-14 1.08D-09 XBig12= 8.16D-16 2.71D-09.
      1 vectors produced by pass  8 Test12= 4.48D-14 1.08D-09 XBig12= 1.66D-16 1.13D-09.
 InvSVY:  IOpt=1 It=  1 EMax= 6.66D-16
 Solved reduced A of dimension   577 with    93 vectors.
 End of Minotr F.D. properties file   721 does not exist.
 End of Minotr F.D. properties file   722 does not exist.
 End of Minotr F.D. properties file   788 does not exist.

 **********************************************************************

            Population analysis using the SCF density.

 **********************************************************************

 Alpha  occ. eigenvalues --  -19.19981 -19.14333 -19.10533 -14.35007 -14.34380
 Alpha  occ. eigenvalues --  -14.32565 -14.27953 -10.33108 -10.28530 -10.24536
 Alpha  occ. eigenvalues --  -10.22312 -10.20669 -10.19976 -10.19659 -10.19299
 Alpha  occ. eigenvalues --  -10.16736  -1.14246  -1.05879  -1.05117  -1.00714
 Alpha  occ. eigenvalues --   -0.95012  -0.91484  -0.86080  -0.81949  -0.77766
 Alpha  occ. eigenvalues --   -0.74763  -0.68345  -0.66355  -0.63059  -0.60756
 Alpha  occ. eigenvalues --   -0.59454  -0.58183  -0.55492  -0.53419  -0.52593
 Alpha  occ. eigenvalues --   -0.52170  -0.50176  -0.48959  -0.48326  -0.47829
 Alpha  occ. eigenvalues --   -0.46200  -0.45051  -0.44098  -0.43344  -0.42109
 Alpha  occ. eigenvalues --   -0.41529  -0.40761  -0.39933  -0.39751  -0.39222
 Alpha  occ. eigenvalues --   -0.38661  -0.36735  -0.35671  -0.31547  -0.28631
 Alpha  occ. eigenvalues --   -0.28580  -0.27412  -0.27241  -0.26105  -0.21907
 Alpha virt. eigenvalues --   -0.02871  -0.02804  -0.01747  -0.00470   0.00038
 Alpha virt. eigenvalues --    0.00809   0.01064   0.01592   0.02092   0.02710
 Alpha virt. eigenvalues --    0.02996   0.03623   0.03975   0.04514   0.04835
 Alpha virt. eigenvalues --    0.05232   0.05921   0.06514   0.07000   0.07452
 Alpha virt. eigenvalues --    0.07647   0.08150   0.08734   0.09229   0.09403
 Alpha virt. eigenvalues --    0.09559   0.10130   0.10742   0.10831   0.11418
 Alpha virt. eigenvalues --    0.11821   0.11919   0.12187   0.12504   0.12663
 Alpha virt. eigenvalues --    0.13168   0.13297   0.13498   0.13723   0.14496
 Alpha virt. eigenvalues --    0.14863   0.15244   0.15335   0.15923   0.16199
 Alpha virt. eigenvalues --    0.16615   0.16786   0.17199   0.17578   0.17707
 Alpha virt. eigenvalues --    0.18538   0.18752   0.18928   0.19271   0.19839
 Alpha virt. eigenvalues --    0.20163   0.20480   0.21208   0.21405   0.21906
 Alpha virt. eigenvalues --    0.22330   0.22713   0.23232   0.23325   0.23814
 Alpha virt. eigenvalues --    0.24084   0.24703   0.25123   0.25433   0.25859
 Alpha virt. eigenvalues --    0.26291   0.26799   0.27177   0.27204   0.27569
 Alpha virt. eigenvalues --    0.28079   0.28998   0.29182   0.29468   0.29977
 Alpha virt. eigenvalues --    0.30281   0.30554   0.30724   0.31085   0.31181
 Alpha virt. eigenvalues --    0.31672   0.32332   0.32606   0.33152   0.33228
 Alpha virt. eigenvalues --    0.33691   0.34750   0.35224   0.36015   0.36370
 Alpha virt. eigenvalues --    0.36857   0.37169   0.37400   0.37692   0.38522
 Alpha virt. eigenvalues --    0.39331   0.39964   0.40639   0.41729   0.43207
 Alpha virt. eigenvalues --    0.43652   0.44995   0.45202   0.46341   0.47373
 Alpha virt. eigenvalues --    0.47605   0.47966   0.48914   0.49886   0.50871
 Alpha virt. eigenvalues --    0.51388   0.52450   0.52748   0.53247   0.54005
 Alpha virt. eigenvalues --    0.54583   0.55210   0.56511   0.57104   0.57582
 Alpha virt. eigenvalues --    0.57970   0.58388   0.59295   0.59646   0.60191
 Alpha virt. eigenvalues --    0.60511   0.61321   0.61473   0.62038   0.62519
 Alpha virt. eigenvalues --    0.62928   0.63448   0.64133   0.64764   0.64947
 Alpha virt. eigenvalues --    0.65721   0.66069   0.66757   0.67667   0.68690
 Alpha virt. eigenvalues --    0.69098   0.70073   0.70922   0.71015   0.71514
 Alpha virt. eigenvalues --    0.71954   0.72743   0.73109   0.73892   0.75262
 Alpha virt. eigenvalues --    0.75751   0.76515   0.76903   0.76993   0.77844
 Alpha virt. eigenvalues --    0.78732   0.79789   0.80446   0.80932   0.82357
 Alpha virt. eigenvalues --    0.82441   0.83092   0.83283   0.84279   0.85211
 Alpha virt. eigenvalues --    0.85718   0.87325   0.87488   0.89438   0.89586
 Alpha virt. eigenvalues --    0.90405   0.90903   0.91673   0.92810   0.93376
 Alpha virt. eigenvalues --    0.94408   0.96380   0.96869   0.97387   0.98120
 Alpha virt. eigenvalues --    0.99085   0.99748   1.00555   1.01814   1.02543
 Alpha virt. eigenvalues --    1.02896   1.03677   1.04704   1.05373   1.06154
 Alpha virt. eigenvalues --    1.07163   1.07835   1.09081   1.09502   1.09735
 Alpha virt. eigenvalues --    1.10664   1.11378   1.12476   1.12735   1.13051
 Alpha virt. eigenvalues --    1.15243   1.15881   1.17007   1.17100   1.17279
 Alpha virt. eigenvalues --    1.18277   1.18695   1.19337   1.20193   1.21539
 Alpha virt. eigenvalues --    1.22046   1.22632   1.23433   1.24142   1.24469
 Alpha virt. eigenvalues --    1.25416   1.26166   1.27502   1.27794   1.28273
 Alpha virt. eigenvalues --    1.29963   1.30661   1.31340   1.32428   1.32811
 Alpha virt. eigenvalues --    1.33265   1.34077   1.35193   1.36298   1.36807
 Alpha virt. eigenvalues --    1.37556   1.39285   1.39493   1.39818   1.40790
 Alpha virt. eigenvalues --    1.41512   1.42810   1.43027   1.43402   1.44275
 Alpha virt. eigenvalues --    1.44750   1.45312   1.45908   1.47195   1.47754
 Alpha virt. eigenvalues --    1.49198   1.49812   1.50270   1.51410   1.51928
 Alpha virt. eigenvalues --    1.52771   1.53322   1.53548   1.55713   1.56087
 Alpha virt. eigenvalues --    1.57385   1.58731   1.59204   1.60703   1.61182
 Alpha virt. eigenvalues --    1.62554   1.63148   1.64968   1.65835   1.66278
 Alpha virt. eigenvalues --    1.68182   1.69054   1.70296   1.71427   1.72937
 Alpha virt. eigenvalues --    1.74222   1.74461   1.75859   1.77390   1.78105
 Alpha virt. eigenvalues --    1.78497   1.82218   1.83374   1.84199   1.84786
 Alpha virt. eigenvalues --    1.85896   1.87021   1.91281   1.91794   1.93483
 Alpha virt. eigenvalues --    1.95998   1.96703   1.99115   1.99861   2.01571
 Alpha virt. eigenvalues --    2.04498   2.05990   2.09908   2.10472   2.14577
 Alpha virt. eigenvalues --    2.15208   2.17281   2.18254   2.20762   2.23630
 Alpha virt. eigenvalues --    2.26076   2.29316   2.32833   2.46333   2.46967
 Alpha virt. eigenvalues --    2.47971   2.51081   2.51684   2.52011   2.54010
 Alpha virt. eigenvalues --    2.55533   2.58249   2.59227   2.59870   2.61632
 Alpha virt. eigenvalues --    2.62940   2.65747   2.66988   2.68747   2.69398
 Alpha virt. eigenvalues --    2.71061   2.71195   2.72167   2.74068   2.75021
 Alpha virt. eigenvalues --    2.75532   2.77109   2.77798   2.78916   2.80255
 Alpha virt. eigenvalues --    2.81271   2.82309   2.83968   2.85835   2.86462
 Alpha virt. eigenvalues --    2.86868   2.87897   2.88387   2.89426   2.89727
 Alpha virt. eigenvalues --    2.90860   2.91426   2.92029   2.92816   2.94116
 Alpha virt. eigenvalues --    2.94354   2.95394   2.96532   2.97755   2.98489
 Alpha virt. eigenvalues --    3.00740   3.01069   3.01713   3.02086   3.02502
 Alpha virt. eigenvalues --    3.03664   3.04372   3.05698   3.06418   3.06895
 Alpha virt. eigenvalues --    3.07432   3.09109   3.09306   3.10169   3.11123
 Alpha virt. eigenvalues --    3.11240   3.11667   3.13415   3.14077   3.14791
 Alpha virt. eigenvalues --    3.15454   3.16098   3.16789   3.17868   3.19078
 Alpha virt. eigenvalues --    3.19472   3.20075   3.21705   3.22718   3.23492
 Alpha virt. eigenvalues --    3.24285   3.24625   3.25337   3.25652   3.26318
 Alpha virt. eigenvalues --    3.27879   3.28056   3.28471   3.29421   3.29687
 Alpha virt. eigenvalues --    3.30366   3.31414   3.32213   3.32901   3.33389
 Alpha virt. eigenvalues --    3.34555   3.35411   3.35508   3.36922   3.37588
 Alpha virt. eigenvalues --    3.37865   3.38258   3.38726   3.39136   3.40491
 Alpha virt. eigenvalues --    3.41597   3.42401   3.43279   3.44424   3.44833
 Alpha virt. eigenvalues --    3.45363   3.46062   3.46574   3.47954   3.49175
 Alpha virt. eigenvalues --    3.50911   3.51483   3.52996   3.53484   3.53891
 Alpha virt. eigenvalues --    3.54229   3.54828   3.55881   3.56556   3.57622
 Alpha virt. eigenvalues --    3.58412   3.59126   3.60223   3.61077   3.61376
 Alpha virt. eigenvalues --    3.62630   3.63329   3.64696   3.65455   3.66328
 Alpha virt. eigenvalues --    3.67360   3.67843   3.68677   3.70177   3.71481
 Alpha virt. eigenvalues --    3.71840   3.71994   3.72751   3.74512   3.75035
 Alpha virt. eigenvalues --    3.76470   3.77094   3.78141   3.78603   3.79225
 Alpha virt. eigenvalues --    3.80750   3.82288   3.82303   3.82714   3.83587
 Alpha virt. eigenvalues --    3.83667   3.83815   3.85312   3.85854   3.88077
 Alpha virt. eigenvalues --    3.88296   3.89154   3.90278   3.90460   3.91369
 Alpha virt. eigenvalues --    3.92237   3.92687   3.93562   3.94868   3.95401
 Alpha virt. eigenvalues --    3.98074   3.98408   3.99039   3.99974   4.01443
 Alpha virt. eigenvalues --    4.01761   4.02390   4.02943   4.03107   4.04781
 Alpha virt. eigenvalues --    4.05743   4.06585   4.07607   4.08614   4.08848
 Alpha virt. eigenvalues --    4.09644   4.09828   4.10089   4.11998   4.12331
 Alpha virt. eigenvalues --    4.13856   4.15047   4.17561   4.18288   4.18479
 Alpha virt. eigenvalues --    4.19064   4.20135   4.21767   4.22341   4.23564
 Alpha virt. eigenvalues --    4.23822   4.25819   4.26842   4.27405   4.27894
 Alpha virt. eigenvalues --    4.29977   4.30817   4.31660   4.32589   4.32940
 Alpha virt. eigenvalues --    4.35776   4.36350   4.39024   4.40101   4.41913
 Alpha virt. eigenvalues --    4.42438   4.45476   4.46741   4.47629   4.49238
 Alpha virt. eigenvalues --    4.50216   4.52050   4.53113   4.53436   4.54668
 Alpha virt. eigenvalues --    4.56897   4.57892   4.58578   4.60092   4.62419
 Alpha virt. eigenvalues --    4.62585   4.63560   4.65333   4.68302   4.69511
 Alpha virt. eigenvalues --    4.71815   4.73878   4.75157   4.76537   4.78770
 Alpha virt. eigenvalues --    4.81237   4.82653   4.84172   4.84619   4.88201
 Alpha virt. eigenvalues --    4.88786   4.90141   4.91359   4.92599   4.93133
 Alpha virt. eigenvalues --    4.93842   4.95455   4.96421   4.97652   4.98816
 Alpha virt. eigenvalues --    4.99272   5.01339   5.02987   5.04762   5.05720
 Alpha virt. eigenvalues --    5.06006   5.07003   5.07270   5.08148   5.08724
 Alpha virt. eigenvalues --    5.09644   5.11182   5.11626   5.12166   5.12447
 Alpha virt. eigenvalues --    5.13253   5.14159   5.15944   5.16711   5.18626
 Alpha virt. eigenvalues --    5.18913   5.19843   5.20439   5.21443   5.22037
 Alpha virt. eigenvalues --    5.23741   5.24703   5.26459   5.27953   5.29576
 Alpha virt. eigenvalues --    5.30422   5.30542   5.32923   5.34514   5.35829
 Alpha virt. eigenvalues --    5.37388   5.38155   5.40209   5.40961   5.41922
 Alpha virt. eigenvalues --    5.43814   5.44164   5.45895   5.47375   5.50297
 Alpha virt. eigenvalues --    5.50598   5.52073   5.53425   5.54690   5.55814
 Alpha virt. eigenvalues --    5.57438   5.58336   5.59420   5.62315   5.63216
 Alpha virt. eigenvalues --    5.64635   5.65954   5.68599   5.69778   5.73291
 Alpha virt. eigenvalues --    5.75100   5.79472   5.81013   5.82529   5.84163
 Alpha virt. eigenvalues --    5.87134   5.88317   5.91152   5.92597   5.93833
 Alpha virt. eigenvalues --    5.96755   5.97935   6.01160   6.04730   6.08576
 Alpha virt. eigenvalues --    6.11387   6.16246   6.19809   6.24143   6.26710
 Alpha virt. eigenvalues --    6.30729   6.31488   6.32906   6.37970   6.38292
 Alpha virt. eigenvalues --    6.41564   6.42830   6.45573   6.46894   6.49146
 Alpha virt. eigenvalues --    6.52515   6.58049   6.63921   6.68805   6.76665
 Alpha virt. eigenvalues --    6.81183   6.87488   6.91828   6.95399   6.97353
 Alpha virt. eigenvalues --    7.03275   7.04732   7.08315   7.15852   7.16600
 Alpha virt. eigenvalues --    7.22479   7.25383   7.29502   7.31762   7.33551
 Alpha virt. eigenvalues --    7.35621   7.56866   7.58267   7.59597   7.67911
 Alpha virt. eigenvalues --    7.75013   7.75941   8.00530  24.57333  24.73313
 Alpha virt. eigenvalues --   24.85455  24.93885  25.03975  25.05474  25.10497
 Alpha virt. eigenvalues --   25.11403  25.20967  36.01048  36.27986  36.31439
 Alpha virt. eigenvalues --   36.44612  50.17616  50.22871  50.29163
          Condensed to atoms (all electrons):
               1          2          3          4          5          6
     1  O    8.185295   0.341862  -0.096836  -0.004630   0.020438  -0.000696
     2  C    0.341862   6.818508   0.244809  -0.338656   0.022207   0.002953
     3  N   -0.096836   0.244809   6.892525  -0.580975  -0.084905  -0.004701
     4  C   -0.004630  -0.338656  -0.580975  12.697110  -1.983579   0.291851
     5  C    0.020438   0.022207  -0.084905  -1.983579   6.814737   0.088484
     6  O   -0.000696   0.002953  -0.004701   0.291851   0.088484   7.850533
     7  O   -0.000820   0.004900   0.017515  -0.075230   0.516058  -0.111666
     8  C   -0.026287   0.003483   0.195721  -5.570006   1.466615  -0.086845
     9  C   -0.009677  -0.002177   0.037395   2.022816  -0.824382  -0.027417
    10  C   -0.006348  -0.032502  -0.042945  -0.315060  -0.108580   0.003077
    11  N    0.000842  -0.000375  -0.002249   0.016737  -0.003831   0.000013
    12  C   -0.003200  -0.007145   0.000863  -0.012157  -0.023976  -0.000258
    13  N   -0.026860   0.017524   0.025558  -0.110937  -0.011865  -0.000071
    14  C    0.043194  -0.625240   0.003015  -0.165868   0.004323   0.000081
    15  C    0.003564  -0.219290   0.002849  -0.042213   0.036080  -0.000762
    16  N   -0.001296   0.022628   0.044961  -0.105651   0.002983  -0.000205
    17  H    0.000569  -0.045188   0.367786  -0.074123  -0.025989  -0.001755
    18  H   -0.009857  -0.013909  -0.095000   0.548120  -0.065945  -0.019013
    19  H   -0.000147  -0.000522   0.003958  -0.189797   0.142610   0.204339
    20  H    0.000273   0.005485  -0.021598   0.178003  -0.057635  -0.003939
    21  H    0.000295   0.006054   0.035165  -0.086584  -0.002542   0.010062
    22  H    0.000265  -0.001135  -0.000698  -0.027949   0.001263  -0.000106
    23  H   -0.001041  -0.000304  -0.000420   0.003346  -0.000257   0.000016
    24  H    0.030652   0.011344   0.008270  -0.019773  -0.001785   0.002044
    25  H    0.003434  -0.144628  -0.002084   0.030886  -0.002466  -0.000081
    26  H   -0.007684  -0.115233   0.001883  -0.013317   0.004048  -0.000008
    27  H   -0.001206  -0.006745   0.006333  -0.001456  -0.005379  -0.000021
    28  H    0.000521  -0.006697   0.000609   0.001679  -0.000742   0.000022
    29  H   -0.000160  -0.003963  -0.000319   0.007751  -0.000525   0.000020
    30  H   -0.000227   0.004791   0.001347   0.011045  -0.001807  -0.000061
               7          8          9         10         11         12
     1  O   -0.000820  -0.026287  -0.009677  -0.006348   0.000842  -0.003200
     2  C    0.004900   0.003483  -0.002177  -0.032502  -0.000375  -0.007145
     3  N    0.017515   0.195721   0.037395  -0.042945  -0.002249   0.000863
     4  C   -0.075230  -5.570006   2.022816  -0.315060   0.016737  -0.012157
     5  C    0.516058   1.466615  -0.824382  -0.108580  -0.003831  -0.023976
     6  O   -0.111666  -0.086845  -0.027417   0.003077   0.000013  -0.000258
     7  O    8.066361  -0.082418  -0.004672  -0.000233  -0.000007   0.000472
     8  C   -0.082418  16.672309  -5.133935  -0.743838  -0.173171  -0.125124
     9  C   -0.004672  -5.133935  10.579806  -1.396350  -0.111998   0.055292
    10  C   -0.000233  -0.743838  -1.396350   8.381602   0.511208  -0.362227
    11  N   -0.000007  -0.173171  -0.111998   0.511208   6.885676   0.254475
    12  C    0.000472  -0.125124   0.055292  -0.362227   0.254475   5.326231
    13  N   -0.000351  -0.108744   0.222131  -0.079333   0.067757   0.316780
    14  C    0.011894  -0.143116   0.021508  -0.063786   0.001114   0.007047
    15  C   -0.001887   0.010888  -0.010660  -0.006466   0.000133  -0.000278
    16  N    0.006649   0.044554  -0.015568  -0.005239  -0.000094   0.000460
    17  H   -0.005021  -0.010933   0.028226   0.013988   0.000192   0.001423
    18  H   -0.004135  -0.124909   0.004763   0.032600   0.000157   0.001577
    19  H    0.029405   0.022575  -0.000396  -0.001062  -0.000004   0.000052
    20  H   -0.002300   0.181773   0.033828  -0.058415   0.000003   0.007459
    21  H    0.003796   0.481891  -0.098151  -0.020438   0.000585  -0.002481
    22  H    0.000030   0.019688  -0.172277   0.523476  -0.083597   0.029639
    23  H    0.000020  -0.003472   0.044828  -0.000975  -0.081234   0.460254
    24  H   -0.001451   0.003640  -0.075334   0.010748   0.010220  -0.059328
    25  H    0.000225  -0.011845   0.001629   0.001787  -0.000113   0.000069
    26  H    0.000051   0.005390  -0.003959  -0.002375  -0.000010   0.000072
    27  H   -0.000862   0.002932  -0.000469   0.001115   0.000018  -0.000285
    28  H    0.000675  -0.002751   0.000764  -0.000330  -0.000002   0.000241
    29  H    0.001076  -0.000356  -0.001421  -0.000081  -0.000007  -0.000089
    30  H   -0.002335  -0.006327   0.001290  -0.000188   0.000005   0.000028
              13         14         15         16         17         18
     1  O   -0.026860   0.043194   0.003564  -0.001296   0.000569  -0.009857
     2  C    0.017524  -0.625240  -0.219290   0.022628  -0.045188  -0.013909
     3  N    0.025558   0.003015   0.002849   0.044961   0.367786  -0.095000
     4  C   -0.110937  -0.165868  -0.042213  -0.105651  -0.074123   0.548120
     5  C   -0.011865   0.004323   0.036080   0.002983  -0.025989  -0.065945
     6  O   -0.000071   0.000081  -0.000762  -0.000205  -0.001755  -0.019013
     7  O   -0.000351   0.011894  -0.001887   0.006649  -0.005021  -0.004135
     8  C   -0.108744  -0.143116   0.010888   0.044554  -0.010933  -0.124909
     9  C    0.222131   0.021508  -0.010660  -0.015568   0.028226   0.004763
    10  C   -0.079333  -0.063786  -0.006466  -0.005239   0.013988   0.032600
    11  N    0.067757   0.001114   0.000133  -0.000094   0.000192   0.000157
    12  C    0.316780   0.007047  -0.000278   0.000460   0.001423   0.001577
    13  N    6.412653  -0.039094  -0.000724   0.001199  -0.000731  -0.000182
    14  C   -0.039094   5.850132   0.267405   0.044911   0.020553  -0.022299
    15  C   -0.000724   0.267405   5.248924   0.113862  -0.011450  -0.010944
    16  N    0.001199   0.044911   0.113862   6.518129  -0.106838  -0.003964
    17  H   -0.000731   0.020553  -0.011450  -0.106838   0.525579  -0.002250
    18  H   -0.000182  -0.022299  -0.010944  -0.003964  -0.002250   0.655389
    19  H    0.000241  -0.000356  -0.000084   0.000055   0.000663   0.001859
    20  H    0.004656   0.002641   0.001454   0.002753  -0.015222   0.021557
    21  H    0.001425   0.004328   0.000525   0.000233   0.004244  -0.028111
    22  H    0.022815  -0.001029  -0.000029  -0.000162   0.000793   0.000005
    23  H   -0.085794  -0.000410  -0.000098   0.000031  -0.000137   0.000350
    24  H    0.409296   0.001423   0.003468   0.000150  -0.000833  -0.012779
    25  H   -0.002042   0.443818  -0.016819  -0.011750   0.004682   0.000730
    26  H    0.001190   0.516405  -0.004661   0.005173  -0.003647  -0.000632
    27  H   -0.000187  -0.060751   0.412987  -0.037848   0.008349   0.001144
    28  H   -0.000147  -0.049291   0.437631  -0.046456  -0.009662  -0.000287
    29  H    0.000108  -0.012939  -0.034636   0.352110   0.012680  -0.000028
    30  H   -0.000034   0.002738  -0.037946   0.366896   0.008696   0.000730
              19         20         21         22         23         24
     1  O   -0.000147   0.000273   0.000295   0.000265  -0.001041   0.030652
     2  C   -0.000522   0.005485   0.006054  -0.001135  -0.000304   0.011344
     3  N    0.003958  -0.021598   0.035165  -0.000698  -0.000420   0.008270
     4  C   -0.189797   0.178003  -0.086584  -0.027949   0.003346  -0.019773
     5  C    0.142610  -0.057635  -0.002542   0.001263  -0.000257  -0.001785
     6  O    0.204339  -0.003939   0.010062  -0.000106   0.000016   0.002044
     7  O    0.029405  -0.002300   0.003796   0.000030   0.000020  -0.001451
     8  C    0.022575   0.181773   0.481891   0.019688  -0.003472   0.003640
     9  C   -0.000396   0.033828  -0.098151  -0.172277   0.044828  -0.075334
    10  C   -0.001062  -0.058415  -0.020438   0.523476  -0.000975   0.010748
    11  N   -0.000004   0.000003   0.000585  -0.083597  -0.081234   0.010220
    12  C    0.000052   0.007459  -0.002481   0.029639   0.460254  -0.059328
    13  N    0.000241   0.004656   0.001425   0.022815  -0.085794   0.409296
    14  C   -0.000356   0.002641   0.004328  -0.001029  -0.000410   0.001423
    15  C   -0.000084   0.001454   0.000525  -0.000029  -0.000098   0.003468
    16  N    0.000055   0.002753   0.000233  -0.000162   0.000031   0.000150
    17  H    0.000663  -0.015222   0.004244   0.000793  -0.000137  -0.000833
    18  H    0.001859   0.021557  -0.028111   0.000005   0.000350  -0.012779
    19  H    0.554378  -0.001182  -0.001299   0.000063   0.000003  -0.000381
    20  H   -0.001182   0.765040  -0.102226  -0.005611   0.000393  -0.002324
    21  H   -0.001299  -0.102226   0.729507   0.000324  -0.000181   0.003582
    22  H    0.000063  -0.005611   0.000324   0.622992  -0.000026   0.001884
    23  H    0.000003   0.000393  -0.000181  -0.000026   0.572406  -0.009015
    24  H   -0.000381  -0.002324   0.003582   0.001884  -0.009015   0.482015
    25  H   -0.000032  -0.000276   0.000012   0.000015  -0.000221   0.000071
    26  H    0.000030   0.000361  -0.000015  -0.000032   0.000070  -0.000328
    27  H    0.000039  -0.000733  -0.000014   0.000033  -0.000036   0.000204
    28  H   -0.000025   0.000430  -0.000013  -0.000011   0.000021  -0.000174
    29  H   -0.000028  -0.000522  -0.000007   0.000007  -0.000005  -0.000034
    30  H    0.000200   0.000108  -0.000127  -0.000012   0.000005  -0.000144
              25         26         27         28         29         30
     1  O    0.003434  -0.007684  -0.001206   0.000521  -0.000160  -0.000227
     2  C   -0.144628  -0.115233  -0.006745  -0.006697  -0.003963   0.004791
     3  N   -0.002084   0.001883   0.006333   0.000609  -0.000319   0.001347
     4  C    0.030886  -0.013317  -0.001456   0.001679   0.007751   0.011045
     5  C   -0.002466   0.004048  -0.005379  -0.000742  -0.000525  -0.001807
     6  O   -0.000081  -0.000008  -0.000021   0.000022   0.000020  -0.000061
     7  O    0.000225   0.000051  -0.000862   0.000675   0.001076  -0.002335
     8  C   -0.011845   0.005390   0.002932  -0.002751  -0.000356  -0.006327
     9  C    0.001629  -0.003959  -0.000469   0.000764  -0.001421   0.001290
    10  C    0.001787  -0.002375   0.001115  -0.000330  -0.000081  -0.000188
    11  N   -0.000113  -0.000010   0.000018  -0.000002  -0.000007   0.000005
    12  C    0.000069   0.000072  -0.000285   0.000241  -0.000089   0.000028
    13  N   -0.002042   0.001190  -0.000187  -0.000147   0.000108  -0.000034
    14  C    0.443818   0.516405  -0.060751  -0.049291  -0.012939   0.002738
    15  C   -0.016819  -0.004661   0.412987   0.437631  -0.034636  -0.037946
    16  N   -0.011750   0.005173  -0.037848  -0.046456   0.352110   0.366896
    17  H    0.004682  -0.003647   0.008349  -0.009662   0.012680   0.008696
    18  H    0.000730  -0.000632   0.001144  -0.000287  -0.000028   0.000730
    19  H   -0.000032   0.000030   0.000039  -0.000025  -0.000028   0.000200
    20  H   -0.000276   0.000361  -0.000733   0.000430  -0.000522   0.000108
    21  H    0.000012  -0.000015  -0.000014  -0.000013  -0.000007  -0.000127
    22  H    0.000015  -0.000032   0.000033  -0.000011   0.000007  -0.000012
    23  H   -0.000221   0.000070  -0.000036   0.000021  -0.000005   0.000005
    24  H    0.000071  -0.000328   0.000204  -0.000174  -0.000034  -0.000144
    25  H    0.694283  -0.040337   0.010530  -0.004521   0.000491   0.000572
    26  H   -0.040337   0.610092  -0.002689  -0.004120   0.000111  -0.001438
    27  H    0.010530  -0.002689   0.659138  -0.050176   0.009274  -0.009901
    28  H   -0.004521  -0.004120  -0.050176   0.693711  -0.014592   0.004252
    29  H    0.000491   0.000111   0.009274  -0.014592   0.613309  -0.039042
    30  H    0.000572  -0.001438  -0.009901   0.004252  -0.039042   0.574104
 Mulliken charges:
               1
     1  O   -0.434232
     2  C    0.057163
     3  N    0.042169
     4  C   -0.091381
     5  C    0.086345
     6  O   -0.195892
     7  O   -0.365738
     8  C   -0.757384
     9  C    0.834566
    10  C   -0.232830
    11  N   -0.292442
    12  C    0.134114
    13  N   -0.036237
    14  C   -0.062352
    15  C   -0.140823
    16  N   -0.192663
    17  H    0.315354
    18  H    0.145261
    19  H    0.234846
    20  H    0.065765
    21  H    0.060160
    22  H    0.069382
    23  H    0.101883
    24  H    0.204672
    25  H    0.043981
    26  H    0.055609
    27  H    0.066665
    28  H    0.049442
    29  H    0.111818
    30  H    0.122782
 Sum of Mulliken charges =   0.00000
 Mulliken charges with hydrogens summed into heavy atoms:
               1
     1  O   -0.434232
     2  C    0.057163
     3  N    0.357522
     4  C    0.053880
     5  C    0.086345
     6  O    0.038954
     7  O   -0.365738
     8  C   -0.631459
     9  C    0.834566
    10  C   -0.163448
    11  N   -0.292442
    12  C    0.235997
    13  N    0.168435
    14  C    0.037238
    15  C   -0.024717
    16  N    0.041937
 APT charges:
               1
     1  O   -0.508462
     2  C    0.435119
     3  N   -0.367993
     4  C   -0.012620
     5  C   -0.212329
     6  O   -0.658769
     7  O   -0.337389
     8  C   -1.565031
     9  C    1.136984
    10  C   -0.654965
    11  N   -0.402029
    12  C   -0.148553
    13  N   -0.379221
    14  C   -0.885836
    15  C   -1.009537
    16  N   -0.932786
    17  H    0.527673
    18  H    0.362528
    19  H    0.874393
    20  H    0.295909
    21  H    0.471982
    22  H    0.592835
    23  H    0.632350
    24  H    0.142813
    25  H    0.254793
    26  H    0.483621
    27  H    0.275418
    28  H    0.599033
    29  H    0.498964
    30  H    0.491106
 Sum of APT charges =   0.00000
 APT charges with hydrogens summed into heavy atoms:
               1
     1  O   -0.508462
     2  C    0.435119
     3  N    0.159680
     4  C    0.349908
     5  C   -0.212329
     6  O    0.215625
     7  O   -0.337389
     8  C   -0.797140
     9  C    1.136984
    10  C   -0.062130
    11  N   -0.402029
    12  C    0.483797
    13  N   -0.236408
    14  C   -0.147423
    15  C   -0.135086
    16  N    0.057284
 Electronic spatial extent (au):  <R**2>=           4042.2395
 Charge=              0.0000 electrons
 Dipole moment (field-independent basis, Debye):
    X=              4.0473    Y=              5.6581    Z=              0.4847  Tot=              6.9735
 Quadrupole moment (field-independent basis, Debye-Ang):
   XX=            -86.8789   YY=           -111.1128   ZZ=            -93.6154
   XY=             -9.4835   XZ=             -5.8319   YZ=              6.6455
 Traceless Quadrupole moment (field-independent basis, Debye-Ang):
   XX=             10.3234   YY=            -13.9104   ZZ=              3.5870
   XY=             -9.4835   XZ=             -5.8319   YZ=              6.6455
 Octapole moment (field-independent basis, Debye-Ang**2):
  XXX=            154.8281  YYY=            176.7738  ZZZ=              7.3322  XYY=             63.8668
  XXY=             59.3888  XXZ=            -12.0471  XZZ=             28.0784  YZZ=             13.9882
  YYZ=            -27.1031  XYZ=            -25.4352
 Hexadecapole moment (field-independent basis, Debye-Ang**3):
 XXXX=          -1691.2533 YYYY=          -2912.5759 ZZZZ=          -1086.2252 XXXY=           -543.4508
 XXXZ=            347.7075 YYYX=           -796.8152 YYYZ=            174.2334 ZZZX=            278.3927
 ZZZY=              5.4597 XXYY=           -761.3238 XXZZ=           -446.6139 YYZZ=           -527.1503
 XXYZ=             48.7166 YYXZ=            117.6980 ZZXY=           -175.2623
 N-N= 1.148304197303D+03 E-N=-4.157744654977D+03  KE= 7.933484374884D+02
  Exact polarizability:   0.000   0.000   0.000   0.000   0.000   0.000
 Approx polarizability: 195.138  15.800 214.093   2.181   9.626 226.082
 Calling FoFJK, ICntrl=    100147 FMM=F ISym2X=0 I1Cent= 0 IOpClX= 0 NMat=1 NMatS=1 NMatT=0.
 -------------------------------------------------------------------
 Center     Atomic                   Forces (Hartrees/Bohr)
 Number     Number              X              Y              Z
 -------------------------------------------------------------------
      1        8          -0.001661357   -0.000332372   -0.001567384
      2        6           0.004441005   -0.007137577   -0.004866199
      3        7          -0.002836874    0.004614430    0.002088328
      4        6           0.001889345   -0.002553584    0.000650201
      5        6           0.002589090    0.003645390    0.000642243
      6        8           0.002344668   -0.000515036   -0.001288641
      7        8          -0.003824585   -0.001481993   -0.001130840
      8        6          -0.005987242   -0.006556474    0.003313621
      9        6           0.002132631    0.007343875    0.001949207
     10        6          -0.001189856   -0.009516764    0.006015434
     11        7          -0.000036275    0.003250937    0.002881659
     12        6          -0.000650873   -0.004882600   -0.004438116
     13        7           0.001051767    0.004969666   -0.002656217
     14        6          -0.001516803   -0.000310448    0.000537939
     15        6           0.001959302    0.002405721   -0.000047765
     16        7          -0.000256886    0.002901130   -0.001435879
     17        1           0.002106388    0.000179717    0.002126662
     18        1           0.000661959    0.000212476    0.000385742
     19        1          -0.002102251    0.003180376    0.002365411
     20        1           0.001321162    0.000518169   -0.000770413
     21        1           0.000448010    0.000457183   -0.000751308
     22        1           0.000418157    0.001338849   -0.002125263
     23        1          -0.000137052   -0.000936275   -0.000227313
     24        1          -0.000084689    0.001648805   -0.002984366
     25        1          -0.002483875    0.000061260   -0.001297056
     26        1           0.000971326   -0.000229025    0.001615706
     27        1           0.001142423   -0.000622409    0.000921182
     28        1          -0.001186427   -0.000152766   -0.000694432
     29        1           0.000748430   -0.001882122   -0.000373679
     30        1          -0.000270619    0.000381461    0.001161534
 -------------------------------------------------------------------
 Cartesian Forces:  Max     0.009516764 RMS     0.002713675
 FormGI is forming the generalized inverse of G from B-inverse, IUseBI=4.

 GradGradGradGradGradGradGradGradGradGradGradGradGradGradGradGradGradGrad
 Berny optimization.
 Internal  Forces:  Max     0.007001667 RMS     0.001962267
 Search for a local minimum.
 Step number   1 out of a maximum of  160
 All quantities printed in internal units (Hartrees-Bohrs-Radians)
 Mixed Optimization -- RFO/linear search
 Second derivative matrix not updated -- analytic derivatives used.
 ITU=  0
     Eigenvalues ---    0.00027   0.00058   0.00184   0.00278   0.00544
     Eigenvalues ---    0.00582   0.00862   0.00932   0.01119   0.01874
     Eigenvalues ---    0.01976   0.01989   0.02798   0.03001   0.03046
     Eigenvalues ---    0.03779   0.03814   0.04216   0.04267   0.04367
     Eigenvalues ---    0.04529   0.05294   0.05373   0.05504   0.05621
     Eigenvalues ---    0.05783   0.06260   0.06359   0.07585   0.08267
     Eigenvalues ---    0.08357   0.10736   0.11097   0.11461   0.11833
     Eigenvalues ---    0.12477   0.13363   0.13742   0.14610   0.15278
     Eigenvalues ---    0.16179   0.17044   0.18392   0.18832   0.21143
     Eigenvalues ---    0.21350   0.22074   0.22847   0.23352   0.24014
     Eigenvalues ---    0.24808   0.25521   0.26448   0.27577   0.29385
     Eigenvalues ---    0.31276   0.31919   0.32550   0.32655   0.32865
     Eigenvalues ---    0.33529   0.33816   0.33924   0.34123   0.34259
     Eigenvalues ---    0.35028   0.36463   0.37020   0.37377   0.40163
     Eigenvalues ---    0.40694   0.41226   0.42720   0.45518   0.45564
     Eigenvalues ---    0.45740   0.47270   0.49042   0.52349   0.55638
     Eigenvalues ---    0.58545   0.61099   0.78248   0.85503
 RFO step:  Lambda=-2.97171075D-03 EMin= 2.67939441D-04
 Linear search not attempted -- first point.
 Iteration  1 RMS(Cart)=  0.09256458 RMS(Int)=  0.00270053
 Iteration  2 RMS(Cart)=  0.00501542 RMS(Int)=  0.00032872
 Iteration  3 RMS(Cart)=  0.00001429 RMS(Int)=  0.00032860
 Iteration  4 RMS(Cart)=  0.00000000 RMS(Int)=  0.00032860
 Variable       Old X    -DE/DX   Delta X   Delta X   Delta X     New X
                                 (Linear)    (Quad)   (Total)
    R1        2.32301   0.00229   0.00000   0.00468   0.00468   2.32770
    R2        2.54166   0.00671   0.00000   0.00742   0.00742   2.54908
    R3        2.88054  -0.00081   0.00000  -0.01068  -0.01068   2.86985
    R4        2.72801   0.00183   0.00000  -0.00083  -0.00083   2.72718
    R5        1.92505   0.00281   0.00000   0.00393   0.00393   1.92898
    R6        2.85966   0.00451   0.00000   0.01291   0.01291   2.87257
    R7        2.89625   0.00250   0.00000   0.01731   0.01731   2.91356
    R8        2.06080  -0.00073   0.00000  -0.00119  -0.00119   2.05961
    R9        2.54536   0.00086   0.00000   0.00055   0.00055   2.54591
   R10        2.27973  -0.00417   0.00000  -0.00653  -0.00653   2.27320
   R11        1.82391   0.00365   0.00000   0.00565   0.00565   1.82956
   R12        2.83844  -0.00253   0.00000  -0.00882  -0.00882   2.82963
   R13        2.06348   0.00035   0.00000   0.00070   0.00070   2.06418
   R14        2.06392  -0.00059   0.00000  -0.00186  -0.00186   2.06206
   R15        2.57923   0.00602   0.00000   0.01423   0.01421   2.59344
   R16        2.59396   0.00618   0.00000   0.01002   0.01006   2.60402
   R17        2.60857  -0.00158   0.00000  -0.01080  -0.01086   2.59771
   R18        2.04211  -0.00237   0.00000  -0.00642  -0.00642   2.03569
   R19        2.47688   0.00322   0.00000   0.00439   0.00438   2.48126
   R20        2.56030   0.00568   0.00000   0.01220   0.01224   2.57254
   R21        2.03374   0.00062   0.00000   0.00102   0.00102   2.03476
   R22        1.91387   0.00325   0.00000   0.01075   0.01075   1.92462
   R23        2.89014   0.00328   0.00000   0.00463   0.00463   2.89477
   R24        2.07040  -0.00156   0.00000  -0.00301  -0.00301   2.06739
   R25        2.06002  -0.00169   0.00000  -0.00423  -0.00423   2.05578
   R26        2.78523  -0.00075   0.00000  -0.00731  -0.00731   2.77793
   R27        2.06426  -0.00124   0.00000  -0.00367  -0.00367   2.06059
   R28        2.06863  -0.00064   0.00000  -0.00066  -0.00066   2.06798
   R29        1.90908   0.00156   0.00000   0.00349   0.00349   1.91256
   R30        1.90944   0.00083   0.00000   0.00106   0.00106   1.91050
    A1        2.14479  -0.00154   0.00000   0.00263   0.00258   2.14737
    A2        2.12383  -0.00202   0.00000  -0.00654  -0.00659   2.11725
    A3        2.01362   0.00358   0.00000   0.00465   0.00460   2.01823
    A4        2.12440   0.00004   0.00000   0.01542   0.01320   2.13760
    A5        2.01454   0.00122   0.00000   0.01462   0.01233   2.02688
    A6        2.06741  -0.00059   0.00000   0.01482   0.01256   2.07996
    A7        1.90212   0.00026   0.00000  -0.00162  -0.00186   1.90025
    A8        1.97089  -0.00247   0.00000   0.00918   0.00907   1.97996
    A9        1.89240   0.00064   0.00000  -0.00730  -0.00732   1.88509
   A10        1.89454   0.00397   0.00000   0.01915   0.01909   1.91363
   A11        1.89063  -0.00132   0.00000  -0.01225  -0.01223   1.87840
   A12        1.91175  -0.00107   0.00000  -0.00813  -0.00803   1.90371
   A13        1.94806   0.00104   0.00000  -0.00211  -0.00212   1.94593
   A14        2.18773   0.00016   0.00000  -0.00054  -0.00055   2.18718
   A15        2.14714  -0.00119   0.00000   0.00284   0.00283   2.14997
   A16        1.85213   0.00474   0.00000   0.02548   0.02548   1.87761
   A17        2.00657  -0.00700   0.00000  -0.00801  -0.00806   1.99851
   A18        1.90652   0.00046   0.00000  -0.01430  -0.01438   1.89214
   A19        1.88539   0.00211   0.00000  -0.00517  -0.00513   1.88026
   A20        1.90803   0.00288   0.00000  -0.00031  -0.00050   1.90753
   A21        1.90089   0.00233   0.00000   0.01776   0.01774   1.91863
   A22        1.84994  -0.00029   0.00000   0.01184   0.01175   1.86169
   A23        2.27822   0.00116   0.00000  -0.00319  -0.00325   2.27498
   A24        2.17499  -0.00196   0.00000   0.00171   0.00165   2.17665
   A25        1.82955   0.00079   0.00000   0.00116   0.00121   1.83076
   A26        1.93605  -0.00145   0.00000  -0.00287  -0.00288   1.93317
   A27        2.23749  -0.00023   0.00000  -0.00917  -0.00916   2.22834
   A28        2.10964   0.00168   0.00000   0.01203   0.01203   2.12167
   A29        1.82748   0.00373   0.00000   0.00945   0.00944   1.83692
   A30        1.95411  -0.00129   0.00000  -0.00332  -0.00325   1.95087
   A31        2.20423  -0.00012   0.00000  -0.00418  -0.00422   2.20000
   A32        2.12484   0.00141   0.00000   0.00750   0.00746   2.13230
   A33        1.87755  -0.00178   0.00000  -0.00443  -0.00453   1.87302
   A34        2.19776   0.00167   0.00000   0.00576   0.00545   2.20321
   A35        2.20533   0.00013   0.00000  -0.00397  -0.00425   2.20108
   A36        1.98252   0.00573   0.00000   0.03006   0.02996   2.01248
   A37        1.90567  -0.00294   0.00000  -0.02193  -0.02222   1.88345
   A38        1.85657  -0.00145   0.00000   0.00108   0.00100   1.85758
   A39        1.89586   0.00048   0.00000   0.01394   0.01403   1.90989
   A40        1.93699  -0.00227   0.00000  -0.00978  -0.00984   1.92715
   A41        1.88364   0.00015   0.00000  -0.01635  -0.01641   1.86722
   A42        1.94338   0.00094   0.00000   0.00113   0.00113   1.94451
   A43        1.90195   0.00091   0.00000   0.00736   0.00736   1.90931
   A44        1.90843  -0.00145   0.00000  -0.01449  -0.01448   1.89394
   A45        1.88675  -0.00084   0.00000  -0.00754  -0.00754   1.87921
   A46        1.95491   0.00045   0.00000   0.01371   0.01372   1.96863
   A47        1.86605  -0.00001   0.00000  -0.00006  -0.00003   1.86602
   A48        1.94703  -0.00100   0.00000  -0.00102  -0.00106   1.94596
   A49        1.93380   0.00167   0.00000   0.01298   0.01294   1.94674
   A50        1.87429   0.00031   0.00000   0.00796   0.00788   1.88218
    D1       -0.29404   0.00085   0.00000   0.09053   0.09068  -0.20336
    D2       -3.01783  -0.00079   0.00000  -0.02871  -0.02879  -3.04662
    D3        2.89336   0.00048   0.00000   0.07240   0.07248   2.96585
    D4        0.16957  -0.00116   0.00000  -0.04684  -0.04698   0.12259
    D5        2.37374  -0.00098   0.00000   0.04968   0.04986   2.42361
    D6       -1.79069   0.00138   0.00000   0.07194   0.07179  -1.71890
    D7        0.23780  -0.00068   0.00000   0.04243   0.04246   0.28027
    D8       -0.81306  -0.00060   0.00000   0.06782   0.06797  -0.74509
    D9        1.30570   0.00175   0.00000   0.09009   0.08989   1.39559
   D10       -2.94900  -0.00031   0.00000   0.06058   0.06057  -2.88843
   D11       -2.07651  -0.00074   0.00000  -0.08922  -0.08936  -2.16587
   D12        2.09984  -0.00434   0.00000  -0.11831  -0.11842   1.98142
   D13       -0.02200  -0.00182   0.00000  -0.10888  -0.10899  -0.13098
   D14        0.63516   0.00137   0.00000   0.03345   0.03354   0.66870
   D15       -1.47168  -0.00223   0.00000   0.00435   0.00449  -1.46719
   D16        2.68967   0.00029   0.00000   0.01379   0.01392   2.70359
   D17        2.93035   0.00004   0.00000  -0.00416  -0.00414   2.92620
   D18       -0.23534   0.00042   0.00000   0.00471   0.00472  -0.23062
   D19       -1.19980  -0.00032   0.00000   0.01823   0.01826  -1.18154
   D20        1.91770   0.00006   0.00000   0.02710   0.02713   1.94482
   D21        0.87471  -0.00012   0.00000   0.01236   0.01233   0.88704
   D22       -2.29098   0.00026   0.00000   0.02123   0.02119  -2.26979
   D23       -1.13366   0.00107   0.00000   0.02378   0.02380  -1.10986
   D24        1.01835   0.00017   0.00000   0.00634   0.00645   1.02480
   D25        3.02306   0.00119   0.00000   0.01010   0.01017   3.03323
   D26        3.03837  -0.00042   0.00000   0.00661   0.00649   3.04487
   D27       -1.09280  -0.00133   0.00000  -0.01083  -0.01086  -1.10366
   D28        0.91191  -0.00030   0.00000  -0.00707  -0.00714   0.90477
   D29        0.97721  -0.00052   0.00000   0.01486   0.01482   0.99204
   D30        3.12923  -0.00143   0.00000  -0.00258  -0.00253   3.12670
   D31       -1.14925  -0.00040   0.00000   0.00118   0.00119  -1.14806
   D32        3.12223  -0.00007   0.00000  -0.00589  -0.00588   3.11635
   D33        0.00408  -0.00045   0.00000  -0.01446  -0.01447  -0.01039
   D34        3.04546  -0.00111   0.00000  -0.08395  -0.08395   2.96151
   D35       -0.13212  -0.00121   0.00000  -0.09783  -0.09780  -0.22992
   D36        0.89426   0.00109   0.00000  -0.05904  -0.05901   0.83524
   D37       -2.28332   0.00099   0.00000  -0.07292  -0.07287  -2.35619
   D38       -1.11968  -0.00141   0.00000  -0.08276  -0.08282  -1.20250
   D39        1.98593  -0.00152   0.00000  -0.09664  -0.09668   1.88925
   D40        3.11732  -0.00028   0.00000  -0.01514  -0.01508   3.10224
   D41       -0.02334  -0.00012   0.00000  -0.01170  -0.01169  -0.03503
   D42        0.00636  -0.00014   0.00000  -0.00335  -0.00333   0.00304
   D43       -3.13430   0.00001   0.00000   0.00009   0.00007  -3.13423
   D44       -3.12099   0.00013   0.00000   0.01125   0.01125  -3.10974
   D45        0.09353  -0.00014   0.00000   0.04917   0.04928   0.14281
   D46       -0.00768   0.00007   0.00000   0.00026   0.00024  -0.00744
   D47       -3.07635  -0.00020   0.00000   0.03817   0.03827  -3.03808
   D48       -0.00248   0.00017   0.00000   0.00519   0.00518   0.00270
   D49        3.13826   0.00002   0.00000   0.00203   0.00201   3.14028
   D50       -0.00263  -0.00013   0.00000  -0.00503  -0.00503  -0.00766
   D51        3.13737   0.00005   0.00000  -0.00858  -0.00853   3.12883
   D52        0.00669   0.00003   0.00000   0.00312   0.00310   0.00978
   D53        3.07495   0.00039   0.00000  -0.03449  -0.03436   3.04059
   D54       -3.13339  -0.00013   0.00000   0.00650   0.00645  -3.12694
   D55       -0.06513   0.00023   0.00000  -0.03111  -0.03100  -0.09613
   D56        1.20284   0.00028   0.00000  -0.00616  -0.00604   1.19680
   D57       -0.87679   0.00015   0.00000  -0.00224  -0.00212  -0.87891
   D58       -2.91078   0.00046   0.00000   0.00179   0.00191  -2.90887
   D59       -0.92139  -0.00013   0.00000  -0.00821  -0.00833  -0.92971
   D60       -3.00101  -0.00026   0.00000  -0.00428  -0.00441  -3.00542
   D61        1.24818   0.00005   0.00000  -0.00025  -0.00038   1.24780
   D62       -2.98951   0.00073   0.00000   0.00896   0.00897  -2.98054
   D63        1.21405   0.00060   0.00000   0.01288   0.01288   1.22693
   D64       -0.81994   0.00091   0.00000   0.01691   0.01692  -0.80302
   D65        1.50386  -0.00130   0.00000  -0.09982  -0.09983   1.40403
   D66       -2.69209  -0.00045   0.00000  -0.08176  -0.08174  -2.77382
   D67       -2.69066  -0.00015   0.00000  -0.09489  -0.09491  -2.78557
   D68       -0.60342   0.00070   0.00000  -0.07683  -0.07681  -0.68023
   D69       -0.63925  -0.00043   0.00000  -0.09174  -0.09177  -0.73102
   D70        1.44799   0.00042   0.00000  -0.07368  -0.07367   1.37432
         Item               Value     Threshold  Converged?
 Maximum Force            0.007002     0.000450     NO 
 RMS     Force            0.001962     0.000300     NO 
 Maximum Displacement     0.436705     0.001800     NO 
 RMS     Displacement     0.092195     0.001200     NO 
 Predicted change in Energy=-1.757203D-03
 GradGradGradGradGradGradGradGradGradGradGradGradGradGradGradGradGradGrad

                          Input orientation:                          
 ---------------------------------------------------------------------
 Center     Atomic      Atomic             Coordinates (Angstroms)
 Number     Number       Type             X           Y           Z
 ---------------------------------------------------------------------
      1          8           0       -0.503946   -0.023354   -2.139204
      2          6           0        0.440227    0.267177   -1.403427
      3          7           0        0.295549    0.519120   -0.086170
      4          6           0       -0.995816    0.711533    0.528704
      5          6           0       -1.007717    2.056405    1.237141
      6          8           0       -2.255499    2.412377    1.599596
      7          8           0       -0.037414    2.727960    1.470700
      8          6           0       -1.372716   -0.402687    1.525484
      9          6           0       -1.521915   -1.760454    0.912021
     10          6           0       -1.658511   -2.991933    1.502156
     11          7           0       -1.816599   -3.972751    0.552067
     12          6           0       -1.773306   -3.346556   -0.601208
     13          7           0       -1.604206   -2.005237   -0.441554
     14          6           0        1.862922    0.326645   -1.931382
     15          6           0        2.705413    1.496238   -1.412904
     16          7           0        3.005204    1.348580    0.018622
     17          1           0        1.132805    0.833197    0.406104
     18          1           0       -1.743796    0.749036   -0.263130
     19          1           0       -2.194702    3.260191    2.063116
     20          1           0       -0.608736   -0.440929    2.305248
     21          1           0       -2.303906   -0.110767    2.013725
     22          1           0       -1.655004   -3.221694    2.554605
     23          1           0       -1.852987   -3.802684   -1.573311
     24          1           0       -1.458893   -1.325716   -1.186140
     25          1           0        2.355447   -0.616901   -1.678383
     26          1           0        1.787326    0.364821   -3.015955
     27          1           0        2.151078    2.426490   -1.540758
     28          1           0        3.606497    1.575329   -2.028813
     29          1           0        3.776550    0.711593    0.172208
     30          1           0        3.246748    2.234963    0.440629
 ---------------------------------------------------------------------
                    Distance matrix (angstroms):
                    1          2          3          4          5
     1  O    0.000000
     2  C    1.231764   0.000000
     3  N    2.269013   1.348915   0.000000
     4  C    2.810646   2.448020   1.443162   0.000000
     5  C    3.997361   3.502924   2.410996   1.520100   0.000000
     6  O    4.793679   4.570227   3.596398   2.372021   1.347238
     7  O    4.562761   3.813685   2.722808   2.423193   1.202923
     8  C    3.785313   3.509131   2.496050   1.541788   2.502698
     9  C    3.655647   3.650012   3.081561   2.556254   3.865037
[...]
 0105168,-0.00907655,0.02351118,0.00769532,-0.22701354,0.17070369,0.001
 34147,-0.00044897,0.00081428,0.00003789,-0.00031909,-0.00036095,0.0004
 3888,0.00005185,0.00020716,-0.00086059,0.00029120,-0.00010220,0.000323
 94,-0.00151956,-0.00089085,0.00000775,0.00001070,-0.00005562,-0.000074
 79,-0.00035148,0.00005382,-0.00008541,-0.00048312,0.00003381,-0.000483
 83,0.00109843,-0.00026938,0.00027154,0.00046567,-0.00075165,-0.0106362
 6,0.22363797,-0.00628196,-0.00382194,-0.00765841,0.00563658,0.00210003
 ,0.01128581,-0.00061417,-0.00098180,-0.00604319,-0.00187782,-0.0008084
 6,0.00026515,-0.00008011,-0.00058737,-0.00008899,0.00021047,0.00001612
 ,-0.00015640,0.00054202,0.00043161,0.00009447,-0.00005909,-0.00068518,
 0.00048818,0.00031700,0.01994088,-0.01196306,-0.00073830,-0.00302911,-
 0.00524408,0.00236365,-0.00638951,0.00442037,-0.00029612,0.00147348,0.
 01387524,-0.01300676,0.16958880,-0.26902858,-0.00080065,0.00029583,-0.
 00059043,0.00003228,0.00016871,0.00031771,-0.00015104,-0.00003559,-0.0
 0022163,0.00050550,-0.00005858,-0.00012659,0.00020811,-0.00080340,0.00
 066120,0.00003886,-0.00003707,0.00001151,0.00002523,0.00032580,0.00031
 375,0.00007405,0.00032769,-0.00007892,-0.00043826,0.00070130,0.0002249
 0,-0.00012173,-0.00015769,-0.00034316,0.01484814,-0.17776636,0.2697338
 8,-0.00194876,-0.00474885,0.00164415,-0.01119322,0.03167065,-0.0066085
 8,-0.00054661,-0.00149276,0.00110676,0.00012427,-0.00137958,0.00064875
 ,0.00017172,-0.00027458,-0.00017773,-0.00003917,0.00004478,0.00002900,
 0.00005103,0.00015421,0.00006670,-0.00041055,0.00034405,0.00004875,-0.
 00007801,0.00010876,-0.00002537,0.00002640,-0.00008665,0.00002252,0.00
 011543,-0.00011534,0.00006854,-0.00003005,0.00002271,0.00000301,0.0000
 8551,-0.00025621,0.00015602,-0.07639700,0.08437137,-0.01209547,0.00756
 765,-0.02293790,0.00225775,0.00136231,0.00069516,0.00172938,-0.0004206
 0,0.00056952,-0.00008503,0.00003695,-0.00003353,-0.00010543,0.00001007
 ,-0.00000989,-0.00000856,0.00000591,-0.00000612,0.00000933,-0.00004921
 ,-0.00016422,0.00009896,-0.00000592,-0.00000569,-0.00000119,-0.0000599
 4,-0.00003164,-0.00001312,0.00008194,0.00057677,-0.00030330,0.08386913
 ,-0.00021537,0.00006665,-0.00034100,0.00201378,-0.00178537,-0.00047343
 ,0.00029880,0.00070014,0.00027474,0.00014439,-0.00001320,-0.00023856,-
 0.00009372,-0.00007018,-0.00000471,0.00003943,0.00001030,0.00000242,0.
 00005634,0.00008261,-0.00002069,0.00001463,-0.00003816,0.00003763,0.00
 000816,-0.00002125,0.00001078,-0.00002451,0.00001065,-0.00000027,-0.00
 001774,0.00001102,0.00000317,0.00003637,-0.00003413,-0.00000365,0.0000
 5447,0.00003803,0.00001049,0.08005262,-0.26266579,0.03355594,0.0064346
 1,-0.02323366,0.00229013,0.00059106,0.00259190,0.00113365,0.00009415,-
 0.00033700,0.00005999,-0.00002227,0.00000136,0.00002753,-0.00000723,-0
 .00000378,0.00001098,0.00000487,-0.00000296,-0.00000780,-0.00000671,0.
 00000596,-0.00000063,0.00000514,0.00000093,-0.00000305,-0.00000064,0.0
 0000474,-0.00000041,0.00004167,0.00005457,-0.00009041,-0.08665189,0.28
 962407,-0.00081408,0.00043744,0.00012062,0.00499425,-0.01394518,0.0010
 1771,0.00082221,0.00081911,-0.00121600,-0.00013907,0.00095009,-0.00037
 305,-0.00009976,0.00006598,0.00008918,0.00001212,-0.00000351,0.0000057
 5,-0.00000614,-0.00002011,-0.00005819,0.00029942,-0.00018512,-0.000075
 31,-0.00002309,-0.00010395,-0.00005907,-0.00003491,0.00000305,-0.00001
 446,-0.00001143,0.00000151,0.00001314,0.00002340,0.00007527,0.00004852
 ,-0.00006223,-0.00000725,0.00003875,-0.01082090,0.03286779,-0.04837138
 ,0.00338503,-0.01449684,0.00041237,0.00125704,-0.00025045,0.00141259,0
 .00056608,-0.00054610,0.00007834,0.00000008,-0.00000107,-0.00000791,-0
 .00000434,0.00000570,0.00000122,0.00000022,-0.00000780,-0.00001181,0.0
 0003563,0.00008958,-0.00007437,0.00001268,-0.00000024,-0.00000862,-0.0
 0001575,-0.00000899,-0.00000165,0.00005412,0.00002046,0.00001218,0.013
 41555,-0.03509447,0.05097213,0.00204122,0.00109804,-0.00181325,0.00076
 417,-0.00562818,0.03514113,-0.00621420,0.00059550,0.00092904,0.0005677
 3,0.00104736,0.00087923,-0.00049387,-0.00050005,-0.00004022,-0.0000713
 9,0.00028355,0.00014938,0.00013655,0.00017916,0.00007618,-0.00003848,0
 .00007952,-0.00002209,-0.00001231,0.00004586,0.00005343,-0.00000915,0.
 00003244,-0.00002844,0.00000500,-0.00002964,-0.00005529,0.00000305,-0.
 00005277,-0.00001029,0.00001350,0.00009393,-0.00004299,-0.04752469,0.0
 0034458,-0.01839459,-0.00108923,0.00573523,-0.01979759,-0.00230083,-0.
 00464384,-0.00223110,-0.00078201,-0.00042195,-0.00032022,-0.00001563,0
 .00002337,0.00004220,-0.00004192,0.00002038,0.00000904,0.00000228,-0.0
 0000917,0.00000838,-0.00001803,-0.00005839,0.00003721,-0.00000555,0.00
 000194,0.00000041,-0.00000272,-0.00001138,0.,0.00000081,-0.00014889,0.
 00015522,-0.00090079,0.00144535,-0.01107994,0.05559789,-0.00148517,-0.
 00068204,-0.00027227,0.00300925,-0.00068649,-0.00388775,0.00038891,0.0
 0062218,0.00011950,0.00029321,0.00037998,-0.00034645,-0.00008466,-0.00
 004940,-0.00002732,-0.00001646,0.00005607,0.00005371,0.00001800,0.0000
 3258,0.00004687,0.00006764,-0.00000736,-0.00005570,-0.00002063,-0.0000
 1942,-0.00003429,-0.00002238,0.00000013,-0.00001754,0.00000377,-0.0000
 4087,0.00000030,0.00001718,0.00005653,0.00004635,-0.00001815,-0.000050
 91,0.00004901,-0.00024653,-0.05246012,0.04057189,0.00007534,0.00444350
 ,-0.02152910,-0.00260694,-0.00318124,-0.00204633,-0.00045717,-0.000401
 92,0.00006156,-0.00001486,0.00000379,-0.00000252,-0.00000545,0.0000014
 6,-0.00000345,0.00000445,-0.00000807,0.00000051,-0.00000191,0.00000348
 ,-0.00000279,0.00000383,-0.00000082,-0.00000315,-0.00001355,-0.0000140
 1,0.00000037,0.00005340,0.00010563,0.00000087,0.00133100,-0.00456438,0
 .03036956,-0.00035627,0.05483632,-0.00197344,-0.00074932,0.00322665,-0
 .00119541,0.00158479,-0.01634743,0.00310200,0.00021170,0.00030612,-0.0
 0055657,-0.00024223,-0.00016119,0.00009513,0.00019704,0.00006240,0.000
 10358,-0.00014093,-0.00008647,0.00004482,-0.00006424,-0.00001816,0.000
 04110,-0.00004870,-0.00002796,0.00000629,-0.00003401,-0.00007184,0.000
 02042,-0.00003987,0.00002507,0.00001566,0.00000317,0.00006676,-0.00002
 268,0.00007999,0.00001875,-0.00003352,-0.00014906,0.00004895,-0.014719
 80,0.03992182,-0.30783096,0.00050338,0.00278844,-0.01022979,-0.0013868
 0,-0.00267184,-0.00010098,-0.00035091,0.00012711,0.00039724,0.00008948
 ,-0.00003250,-0.00006171,0.00000704,0.00000597,-0.00000567,-0.00000678
 ,0.00000784,0.00001111,0.00001458,0.00004236,-0.00002194,-0.00000171,-
 0.00000564,0.00000570,0.00000539,0.00000704,0.00000069,0.00006726,0.00
 018679,-0.00012982,-0.00023622,0.00115880,-0.00354120,0.01685070,-0.04
 233518,0.33388391,0.00028590,0.00029897,-0.00011570,0.00146702,-0.0010
 2428,0.00024487,0.00009551,0.00023882,0.00001086,-0.00014670,0.0001548
 3,0.00011870,-0.00019944,0.00001737,0.00009321,0.00010276,-0.00004832,
 -0.00004037,0.00007440,-0.00002613,-0.00009857,0.00004755,-0.00004688,
 -0.00001365,0.00002627,-0.00002611,-0.00000911,0.00000668,0.00000344,0
 .00000501,-0.00001738,0.00003680,0.00000059,0.00000372,-0.00000545,0.0
 0000453,-0.00001776,0.00002707,-0.00002358,0.00778342,-0.02230668,0.00
 083240,-0.09054871,0.09442684,-0.00146466,-0.00253122,0.00619762,-0.00
 355160,0.00000012,-0.00029412,0.00018636,0.00001191,-0.00001777,-0.000
 00812,-0.00001173,0.00001674,0.00001202,-0.00000375,0.00000606,0.00000
 063,0.00001143,0.00003149,-0.00001927,-0.00000114,-0.00000148,0.000001
 62,0.00000910,0.00000594,0.00000262,0.00000083,-0.00006117,0.00001068,
 -0.00260058,-0.00361447,-0.00171698,0.00056634,0.00085352,0.00025707,0
 .09581316,-0.00045241,0.00009707,0.00011343,0.00180302,0.00008560,-0.0
 0090236,-0.00048483,0.00094331,0.00053777,-0.00015455,-0.00001073,0.00
 016945,-0.00028889,-0.00019033,0.00001314,0.00013010,-0.00000263,-0.00
 001096,0.00017829,0.00016478,-0.00011546,-0.00000764,-0.00002315,0.000
 01736,0.00001824,-0.00003112,-0.00002654,-0.00000151,-0.00000559,0.000
 00716,-0.00002606,0.00002572,0.00002158,-0.00000131,0.00002344,0.00001
 336,-0.00003456,-0.00001682,-0.00000801,0.00553180,-0.02081775,-0.0006
 0968,0.09288752,-0.26508422,0.00904801,0.00294753,-0.00613564,0.002986
 94,0.00046330,-0.00053657,0.00034349,-0.00000739,-0.00002481,-0.000015
 90,-0.00001630,0.00000146,0.00002187,0.00000394,0.00000192,-0.00000718
 ,-0.00000313,0.00001131,-0.00000629,0.00000793,-0.00000013,-0.00000080
 ,0.00001644,0.00000824,0.00000211,0.00004509,-0.00000524,-0.00002198,-
 0.00294988,-0.00127989,-0.00217060,-0.00002959,0.00025501,-0.00031662,
 -0.10038673,0.28958430,-0.00033426,0.00002512,-0.00021806,0.00100700,0
 .00066076,0.00037458,0.00009340,-0.00009756,0.00021359,0.00008805,-0.0
 0007417,0.00007504,0.00041328,0.00015614,0.00004409,-0.00024544,0.0000
 4157,0.00002151,-0.00027926,-0.00017246,0.00010016,-0.00004033,0.00002
 682,-0.00003371,-0.00000993,0.00000467,-0.00001925,0.00000594,0.000002
 59,-0.00000630,0.00000557,-0.00003717,0.00000588,-0.00000877,0.0000339
 7,0.00000201,-0.00001114,-0.00004488,0.00004519,0.00477793,-0.01278626
 ,0.00100891,0.00136838,0.00014420,-0.04954650,-0.01556393,0.03644400,-
 0.00846779,-0.00062864,0.00044939,-0.00026320,0.00001353,-0.00001894,-
 0.00001033,0.00002916,-0.00002012,-0.00001676,-0.00000216,0.00000638,0
 .00000651,-0.00000424,-0.00001588,0.00001603,-0.00000564,-0.00000122,0
 .00000683,0.00000845,0.00000334,0.00000163,0.00004371,0.00003657,-0.00
 002489,-0.00231604,-0.00157929,-0.00066451,0.00041111,0.00027400,0.000
 10438,0.00654347,-0.00946545,0.06094148,-0.00244894,0.00025890,-0.0000
 8626,0.00171786,-0.00359968,-0.00321548,0.00019883,-0.00006230,0.00050
 884,0.00043672,0.00012848,-0.00006089,0.00008358,-0.00025461,-0.000169
 77,-0.00016455,0.00016525,0.00011300,-0.00005136,0.00011782,0.00013396
 ,-0.00002375,0.00008214,-0.00000665,-0.00004668,0.00001687,-0.00008336
 ,-0.00000674,-0.00000323,-0.00000071,0.00002833,-0.00011352,0.00003799
 ,-0.00001692,0.00012910,0.00000453,-0.00001166,-0.00014085,0.00014369,
 -0.02055396,-0.00012958,0.01022813,-0.22650582,0.00413428,0.10837102,0
 .01244563,-0.00029702,-0.00532109,-0.00034765,0.00015396,-0.00033014,0
 .00002364,-0.00000684,-0.00003245,0.00001056,-0.00001693,-0.00000986,0
 .00000741,-0.00001584,0.00001327,-0.00002402,-0.00004418,0.00003081,0.
 00000252,-0.00000034,0.00000446,0.00000076,0.00000051,-0.00000084,0.00
 011657,0.00022621,-0.00012315,0.00098463,-0.00018278,0.00035764,0.0001
 3236,0.00035558,-0.00047200,-0.01091505,0.00079051,0.00631927,0.242759
 98,-0.00233849,0.00041065,0.00006975,0.00022171,-0.00357727,-0.0040343
 4,0.00019955,0.00070177,0.00072289,-0.00002212,0.00007766,0.00008473,-
 0.00019713,-0.00020431,-0.00003327,0.00005837,0.00003487,0.00002869,0.
 00009125,0.00018367,-0.00005133,0.00000543,0.00001318,0.00001819,-0.00
 001507,-0.00000407,-0.00005809,0.00000694,-0.00001359,0.00001270,0.000
 02027,-0.00003647,0.00003265,-0.00001103,0.00007355,0.00000135,-0.0000
 0760,-0.00008267,0.00006268,-0.02312486,-0.00072003,0.01097319,0.00513
 844,-0.05374647,-0.00246709,-0.00548390,0.00252778,0.00836016,0.000012
 06,-0.00021208,0.00029187,0.00001804,-0.00001916,-0.00001989,-0.000011
 49,-0.00000028,0.00001168,-0.00000003,-0.00000690,-0.00000035,-0.00000
 817,-0.00000935,-0.00000059,-0.00000030,-0.00000125,0.00000209,-0.0000
 0280,0.00000095,-0.00000077,0.00004903,0.00013224,-0.00008482,0.000730
 31,0.00076830,0.00083131,0.00068581,0.00099253,0.00001196,0.02575760,0
 .00061863,-0.01572962,-0.00105346,0.05174059,-0.00119842,0.00040766,0.
 00016114,0.00018085,-0.00288317,-0.00152948,0.00019876,0.00018808,0.00
 152075,0.00021427,0.00017455,0.00027257,-0.00050236,-0.00020018,-0.000
 10145,0.00020895,0.00002798,-0.00000630,0.00033506,0.00004600,0.000127
 43,-0.00007089,0.00002038,-0.00004773,0.00001558,-0.00000738,-0.000062
 62,0.00002831,-0.00002226,0.00000472,0.00001682,-0.00000215,0.00003452
 ,-0.00001844,0.00005250,0.00001438,-0.00000591,-0.00005318,0.00004103,
 -0.01209543,-0.00044030,0.00745857,0.10880687,-0.00167882,-0.11296779,
 0.02268328,0.00379468,-0.03463538,-0.00258475,-0.00002141,-0.00097251,
 0.00009506,-0.00002217,-0.00007956,-0.00004131,0.00002971,0.00000761,-
 0.00001142,-0.00000152,0.00004973,0.00000501,-0.00000372,0.00002284,-0
 .00001326,-0.00001019,0.00001308,0.00000292,0.00000398,0.00000229,0.00
 002716,0.00007448,-0.00006781,0.00049746,0.00025896,0.00007326,0.00013
 537,0.00043686,0.00071813,0.00042355,-0.00100360,0.00140653,-0.1176113
 5,0.00138130,0.13672755,0.00012761,0.00003729,-0.00010519,-0.00051643,
 0.00025285,0.00014099,-0.00147689,-0.00125639,0.00000892,-0.00021109,-
 0.00015176,-0.00018501,0.00025376,0.00025748,0.00007935,-0.00010511,-0
 .00005619,-0.00001444,-0.00021320,-0.00015932,0.00002558,-0.00007085,0
 .00006550,-0.00007926,0.00003333,0.00008085,-0.00001251,0.00007725,-0.
 00003769,0.00001430,0.00005131,-0.00001124,-0.00001754,-0.00002544,-0.
 00001847,-0.00000668,0.00004750,-0.00001829,-0.00000109,-0.00029061,0.
 00090085,0.00007792,-0.00464293,0.00271963,0.00535465,-0.14698386,0.20
 007433,-0.04066549,0.00118282,0.00282241,-0.00054536,-0.00006275,0.000
 00340,0.00002927,0.00000964,0.00000449,-0.00001517,-0.00002960,0.00001
 744,0.00005191,0.00002453,-0.00001746,0.00002725,-0.00003920,-0.000013
 13,0.00002232,-0.00001252,-0.00000566,0.00000206,-0.00004590,0.0000396
 9,-0.00002049,-0.00002532,-0.00067979,-0.00057797,0.00019615,-0.000468
 17,0.00015537,0.00051124,-0.00020372,-0.00140976,0.00141833,-0.0011824
 1,-0.00028055,0.14241615,-0.00013026,-0.00000451,-0.00010947,-0.000073
 40,-0.00007558,0.00010060,-0.00079137,-0.00056132,-0.00018614,-0.00004
 580,-0.00000692,-0.00011804,0.00004446,0.00005335,0.00002501,-0.000007
 64,-0.00001291,-0.00000168,-0.00004671,-0.00001253,-0.00000328,-0.0000
 0390,0.00003713,-0.00001340,0.00000314,0.00004712,-0.00002296,0.000038
 10,-0.00000992,0.00001729,0.00004680,-0.00003001,-0.00000575,-0.000014
 38,0.00001214,-0.00002223,0.00002678,-0.00003375,0.00003070,-0.0001823
 9,0.00198943,0.00010337,0.00487673,-0.00617579,0.00073257,0.15832097,-
 0.30689947,0.02005985,0.00128212,0.00080015,0.00001310,-0.00004045,0.0
 0000881,0.00000683,-0.00000251,0.00000471,-0.00000066,-0.00000826,0.00
 000569,0.00001220,0.00000668,-0.00001366,0.00000690,-0.00002286,-0.000
 00382,0.00001209,-0.00001118,-0.00000351,0.00000011,-0.00000897,0.0000
 5021,-0.00002948,0.00056307,-0.00028087,0.00017784,0.00000067,-0.00017
 443,0.00004929,-0.00055003,0.00173473,0.00163035,-0.00083370,0.0005881
 3,-0.00104297,-0.18220209,0.33281065,0.00037540,0.00007498,0.00003192,
 -0.00037734,-0.00005423,0.00031317,0.00090842,0.00057275,-0.00008594,-
 0.00002723,0.00006218,0.00008435,-0.00028482,-0.00011544,-0.00002464,0
 .00020332,-0.00001898,-0.00004951,0.00027826,0.00007174,-0.00003282,0.
 00006603,-0.00005534,0.00008268,-0.00000419,-0.00003311,0.00005968,-0.
 00004095,0.00000967,0.00001795,-0.00003044,0.00005097,-0.00001800,0.00
 002231,-0.00004979,-0.00001306,-0.00000448,0.00007993,-0.00008778,0.00
 059135,0.00079143,0.00118466,-0.02164820,0.03532981,-0.00613176,-0.026
 18447,0.00357582,-0.05094045,-0.00090597,-0.00147177,-0.00000767,0.000
 03956,0.00001566,-0.00000191,-0.00001839,0.00000718,0.00002034,0.00001
 735,-0.00001703,-0.00004011,-0.00000516,0.00002257,-0.00003172,0.00003
 083,0.00001214,-0.00002527,-0.00000694,-0.00000203,-0.00000436,-0.0000
 4337,-0.00008995,0.00006030,-0.00018433,-0.00111819,0.00001271,0.00034
 335,-0.00022840,0.00005185,-0.00142593,0.00103947,-0.00683917,0.000638
 75,0.00028579,0.00156430,0.03514143,-0.02431590,0.05926210,-0.00031376
 ,0.00007552,0.00020891,0.00103318,-0.00016363,-0.00021138,-0.00207630,
 0.00052996,0.00053061,0.00013526,0.00007412,-0.00043737,-0.00130629,-0
 .00094321,-0.00039711,0.00068664,0.00011184,-0.00002378,0.00109179,0.0
 0056193,0.00029215,-0.00008881,0.00001520,0.00004195,0.00002090,-0.000
 01150,-0.00006969,0.00000419,-0.00000973,0.00000837,-0.00000075,0.0000
 1633,0.00004274,-0.00000972,0.00005398,0.00001559,-0.00002363,-0.00002
 810,0.00003367,-0.00000856,0.00118693,-0.00299600,-0.00596588,-0.00489
 244,0.00420590,-0.12940877,-0.15868963,-0.11760520,0.00064767,-0.00206
 571,-0.00143957,-0.00014019,0.00005481,0.00007516,-0.00010613,0.000057
 49,0.00004632,0.00000389,-0.00003436,0.00003671,-0.00001481,-0.0000181
 9,0.00002979,-0.00000029,-0.00000889,0.00000685,0.00000685,0.00000638,
 0.00000219,0.00005146,0.00004536,-0.00005484,0.00021281,0.00018127,0.0
 0017110,-0.00050622,-0.00065677,-0.00042342,0.00017610,0.00022478,-0.0
 0026870,0.00074938,0.00046405,0.00055880,0.00840206,0.01976637,0.01253
 588,0.12674793,0.00020557,-0.00010866,-0.00005652,-0.00039391,0.000127
 72,0.00026234,0.00048653,0.00001552,-0.00013850,-0.00006504,0.00000366
 ,0.00002216,0.00026784,0.00024707,0.00009304,-0.00015304,-0.00003284,-
 0.00000462,-0.00020339,-0.00026385,-0.00001679,0.00002510,-0.00000740,
 -0.00003955,-0.00000395,-0.00001036,0.00001638,-0.00000785,0.00000877,
 -0.00001431,0.00000236,-0.00000466,-0.00000704,0.00000433,-0.00001081,
 0.00000232,0.00000630,0.00001103,0.00000416,0.00059787,0.00016929,0.00
 165715,0.00495263,0.00867857,0.00718507,-0.12909082,-0.26869876,-0.124
 91610,-0.00063562,-0.00011234,-0.00005413,0.00001912,-0.00000787,0.000
 00911,0.00002751,-0.00000120,-0.00001792,-0.00000619,0.00000266,0.0000
 0205,0.00000771,0.00000769,-0.00000340,-0.00000285,-0.00000053,0.00000
 092,-0.00000235,-0.00000149,0.00000055,-0.00001088,-0.00001610,0.00001
 761,-0.00003762,0.00035939,0.00012699,0.00017743,0.00055230,0.00044603
 ,0.00033651,0.00060907,0.00010316,0.00019527,-0.00023059,0.00049589,-0
 .02079441,-0.02384325,-0.01443194,0.14409585,0.28255797,-0.00005924,0.
 00005356,0.00032754,0.00008740,-0.00001114,-0.00079102,0.00139109,-0.0
 0024673,0.00029245,-0.00008695,-0.00004572,0.00037446,0.00050692,0.000
 39482,0.00020919,-0.00026006,-0.00006036,0.00000107,-0.00042945,-0.000
 18571,-0.00029463,0.00003080,0.00000311,0.00000742,-0.00000633,0.00002
 075,0.00001403,0.00001798,-0.00000675,0.00001815,0.00000966,-0.0000122
 4,-0.00001758,-0.00000441,-0.00001239,-0.00001645,0.00000915,-0.000013
 45,-0.00001873,0.00040073,0.00330206,-0.00649407,-0.01936344,-0.028185
 81,-0.01682393,-0.08837207,-0.10679291,-0.10989990,-0.00123323,0.00112
 679,0.00059897,0.00011564,-0.00003231,-0.00004484,0.00004676,-0.000029
 58,0.00000034,-0.00000477,0.00002414,-0.00001701,0.00000816,0.00000579
 ,-0.00001514,-0.00000261,0.00000593,-0.00000228,-0.00000389,-0.0000016
 5,-0.00000169,-0.00001773,0.00000440,0.00000130,0.00035774,0.00014133,
 0.00016905,-0.00138537,-0.00123914,-0.00029261,-0.00026066,0.00034630,
 0.00173610,0.00061864,-0.00070282,0.00025017,0.00280519,0.00289386,0.0
 0158817,0.10508436,0.12925587,0.12914148\\-0.00000332,-0.00000347,-0.0
 0000023,0.00000065,-0.00000135,0.00000388,-0.00000202,0.00000121,-0.00
 000187,0.00000447,0.00000029,-0.00000342,0.00000239,0.00000112,-0.0000
 0137,-0.00000098,0.00000015,-0.00000092,-0.00000119,-0.00000079,-0.000
 00068,-0.00000525,0.00000018,-0.00000037,0.00000253,-0.00000593,0.0000
 0682,-0.00000173,-0.00000065,-0.00000133,-0.00000045,0.00000205,0.0000
 0136,0.00000174,-0.00000188,0.00000078,0.00000047,0.00000287,-0.000002
 77,0.00000331,0.00000369,-0.00000036,-0.00000039,0.00000019,-0.0000015
 2,-0.00000051,-0.00000211,0.00000166,0.00000203,0.00000130,-0.00000033
 ,0.00000065,0.00000029,-0.00000143,-0.00000037,0.00000038,-0.00000111,
 -0.00000058,0.00000054,-0.00000044,0.00000040,-0.00000085,0.00000062,-
 0.00000052,0.00000046,0.00000002,0.00000012,-0.00000035,0.00000023,-0.
 00000177,0.00000467,-0.00000263,-0.00000017,-0.00000073,0.00000154,-0.
 00000040,0.00000001,0.00000100,0.00000089,-0.00000044,-0.00000028,0.00
 000027,-0.00000170,0.00000083,0.00000063,0.00000126,0.00000177,-0.0000
 0089,-0.00000043,0.00000056\\\@


 I LOVE THOSE WHO LONG FOR THE IMPOSSIBLE.

                                 -- GOETHE
 Job cpu time:       1 days  1 hours 49 minutes 31.7 seconds.
 File lengths (MBytes):  RWF=   1142 Int=      0 D2E=      0 Chk=     42 Scr=      1
 Normal termination of Gaussian 09 at Sat Jul 24 18:59:31 2021.
