 Entering Gaussian System, Link 0=g09
 Input=opt_freq-conf-340.com
 Output=opt_freq-conf-340.log
 Initial command:
 /aerosol/software/g09/l1.exe "/scratch/nicole/10394/Gau-72828.inp" -scrdir="/scratch/nicole/10394/"
 Entering Link 1 = /aerosol/software/g09/l1.exe PID=     72835.
  
 Copyright (c) 1988,1990,1992,1993,1995,1998,2003,2009,2013,
            Gaussian, Inc.  All Rights Reserved.
  
 This is part of the Gaussian(R) 09 program.  It is based on
 the Gaussian(R) 03 system (copyright 2003, Gaussian, Inc.),
 the Gaussian(R) 98 system (copyright 1998, Gaussian, Inc.),
 the Gaussian(R) 94 system (copyright 1995, Gaussian, Inc.),
 the Gaussian 92(TM) system (copyright 1992, Gaussian, Inc.),
 the Gaussian 90(TM) system (copyright 1990, Gaussian, Inc.),
 the Gaussian 88(TM) system (copyright 1988, Gaussian, Inc.),
 the Gaussian 86(TM) system (copyright 1986, Carnegie Mellon
 University), and the Gaussian 82(TM) system (copyright 1983,
 Carnegie Mellon University). Gaussian is a federally registered
 trademark of Gaussian, Inc.
  
 This software contains proprietary and confidential information,
 including trade secrets, belonging to Gaussian, Inc.
  
 This software is provided under written license and may be
 used, copied, transmitted, or stored only in accord with that
 written license.
  
 The following legend is applicable only to US Government
 contracts under FAR:
  
                    RESTRICTED RIGHTS LEGEND
  
 Use, reproduction and disclosure by the US Government is
 subject to restrictions as set forth in subparagraphs (a)
 and (c) of the Commercial Computer Software - Restricted
 Rights clause in FAR 52.227-19.
  
 Gaussian, Inc.
 340 Quinnipiac St., Bldg. 40, Wallingford CT 06492
  
  
 ---------------------------------------------------------------
 Warning -- This program may not be used in any manner that
 competes with the business of Gaussian, Inc. or will provide
 assistance to any competitor of Gaussian, Inc.  The licensee
 of this program is prohibited from giving any competitor of
 Gaussian, Inc. access to this program.  By using this program,
 the user acknowledges that Gaussian, Inc. is engaged in the
 business of creating and licensing software in the field of
 computational chemistry and represents and warrants to the
 licensee that it is not a competitor of Gaussian, Inc. and that
 it will not use this program in any manner prohibited above.
 ---------------------------------------------------------------
  

 Cite this work as:
 Gaussian 09, Revision D.01,
 M. J. Frisch, G. W. Trucks, H. B. Schlegel, G. E. Scuseria, 
 M. A. Robb, J. R. Cheeseman, G. Scalmani, V. Barone, B. Mennucci, 
 G. A. Petersson, H. Nakatsuji, M. Caricato, X. Li, H. P. Hratchian, 
 A. F. Izmaylov, J. Bloino, G. Zheng, J. L. Sonnenberg, M. Hada, 
 M. Ehara, K. Toyota, R. Fukuda, J. Hasegawa, M. Ishida, T. Nakajima, 
 Y. Honda, O. Kitao, H. Nakai, T. Vreven, J. A. Montgomery, Jr., 
 J. E. Peralta, F. Ogliaro, M. Bearpark, J. J. Heyd, E. Brothers, 
 K. N. Kudin, V. N. Staroverov, T. Keith, R. Kobayashi, J. Normand, 
 K. Raghavachari, A. Rendell, J. C. Burant, S. S. Iyengar, J. Tomasi, 
 M. Cossi, N. Rega, J. M. Millam, M. Klene, J. E. Knox, J. B. Cross, 
 V. Bakken, C. Adamo, J. Jaramillo, R. Gomperts, R. E. Stratmann, 
 O. Yazyev, A. J. Austin, R. Cammi, C. Pomelli, J. W. Ochterski, 
 R. L. Martin, K. Morokuma, V. G. Zakrzewski, G. A. Voth, 
 P. Salvador, J. J. Dannenberg, S. Dapprich, A. D. Daniels, 
 O. Farkas, J. B. Foresman, J. V. Ortiz, J. Cioslowski, 
 and D. J. Fox, Gaussian, Inc., Wallingford CT, 2013.
 
 ******************************************
 Gaussian 09:  ES64L-G09RevD.01 24-Apr-2013
                24-Jul-2021 
 ******************************************
 %mem=2gb
 %nproc=4
 Will use up to    4 processors via shared memory.
 %chk=conf-340.chk
 ----------------------------------------------------------------------
 # B3LYP/6-311++G(2df,2pd) EmpiricalDispersion=GD3BJ opt=calcfc freq=no
 raman nosymm integral(ultrafinegrid)
 ----------------------------------------------------------------------
 1/10=4,14=-1,18=20,19=15,26=4,38=1/1,3;
 2/9=110,12=2,15=1,17=6,18=5,40=1/2;
 3/5=4,6=6,7=1414,11=2,16=1,25=1,30=1,71=2,74=-5,75=-5,124=41,140=1/1,2,3;
 4//1;
 5/5=2,38=5/2;
 8/6=4,10=90,11=11/1;
 11/6=1,8=1,9=11,15=111,16=1,31=1/1,2,10;
 10/6=1,13=1,31=1/2;
 6/7=2,8=2,9=2,10=2,28=1/1;
 7/10=1,18=20,25=1,30=1/1,2,3,16;
 1/10=4,14=-1,18=20,19=15,26=4/3(2);
 2/9=110,15=1/2;
 99//99;
 2/9=110,15=1/2;
 3/5=4,6=6,7=1414,11=2,16=1,25=1,30=1,71=1,74=-5,75=-5,124=41/1,2,3;
 4/5=5,16=3,69=1/1;
 5/5=2,38=5/2;
 7/30=1/1,2,3,16;
 1/14=-1,18=20,19=15,26=4/3(-5);
 2/9=110,15=1/2;
 6/7=2,8=2,9=2,10=2,19=2,28=1/1;
 99/9=1/99;
 ------------------------------------------------------------
 Candidate Structure: Conf:340 OPT and FREQ calc in gas phase
 ------------------------------------------------------------
 Symbolic Z-matrix:
 Charge =  0 Multiplicity = 1
 O                     0.53975  -0.91334  -0.72521 
 C                     1.32329  -0.14277  -0.16646 
 N                     0.90022   1.0439    0.32044 
 C                    -0.47302   1.46462   0.14573 
 C                    -0.52293   2.96145   0.41751 
 O                    -1.72483   3.53748   0.21191 
 O                     0.41862   3.60154   0.79264 
 C                    -1.45177   0.66823   1.06386 
 C                    -2.56332   0.02503   0.29898 
 C                    -3.9155    0.18992   0.32055 
 N                    -4.52123  -0.63339  -0.61352 
 C                    -3.53362  -1.2782   -1.18624 
 N                    -2.33141  -0.91703  -0.67339 
 C                     2.79836  -0.44774  -0.00578 
 C                     3.07488  -1.94092  -0.00476 
 N                     4.52098  -2.16624   0.07919 
 H                     1.54257   1.7551    0.63533 
 H                    -0.74614   1.31578  -0.90546 
 H                    -2.34852   2.88034  -0.11888 
 H                    -0.87898  -0.09287   1.5902 
 H                    -1.88211   1.31584   1.82798 
 H                    -4.49613   0.84975   0.94934 
 H                    -3.61864  -2.01285  -1.96748 
 H                    -1.41483  -1.25013  -0.93327 
 H                     3.33808   0.01406  -0.83728 
 H                     3.1737    0.01382   0.91119 
 H                     2.7014   -2.35938  -0.94072 
 H                     2.51041  -2.41337   0.80872 
 H                     4.72481  -3.15255  -0.02997 
 H                     4.85582  -1.91595   1.00272 
 

 GradGradGradGradGradGradGradGradGradGradGradGradGradGradGradGradGradGrad
 Berny optimization.
 Initialization pass.
                           ----------------------------
                           !    Initial Parameters    !
                           ! (Angstroms and Degrees)  !
 --------------------------                            --------------------------
 ! Name  Definition              Value          Derivative Info.                !
 --------------------------------------------------------------------------------
 ! R1    R(1,2)                  1.2329         calculate D2E/DX2 analytically  !
 ! R2    R(2,3)                  1.3506         calculate D2E/DX2 analytically  !
 ! R3    R(2,14)                 1.5148         calculate D2E/DX2 analytically  !
 ! R4    R(3,4)                  1.4468         calculate D2E/DX2 analytically  !
 ! R5    R(3,17)                 1.0088         calculate D2E/DX2 analytically  !
 ! R6    R(4,5)                  1.5221         calculate D2E/DX2 analytically  !
 ! R7    R(4,8)                  1.5605         calculate D2E/DX2 analytically  !
 ! R8    R(4,18)                 1.0962         calculate D2E/DX2 analytically  !
 ! R9    R(5,6)                  1.3486         calculate D2E/DX2 analytically  !
 ! R10   R(5,7)                  1.1987         calculate D2E/DX2 analytically  !
 ! R11   R(6,19)                 0.9645         calculate D2E/DX2 analytically  !
 ! R12   R(8,9)                  1.4948         calculate D2E/DX2 analytically  !
 ! R13   R(8,20)                 1.0883         calculate D2E/DX2 analytically  !
 ! R14   R(8,21)                 1.0902         calculate D2E/DX2 analytically  !
 ! R15   R(9,10)                 1.3624         calculate D2E/DX2 analytically  !
 ! R16   R(9,13)                 1.3736         calculate D2E/DX2 analytically  !
 ! R17   R(10,11)                1.3847         calculate D2E/DX2 analytically  !
 ! R18   R(10,22)                1.0807         calculate D2E/DX2 analytically  !
 ! R19   R(11,12)                1.3112         calculate D2E/DX2 analytically  !
 ! R20   R(12,13)                1.356          calculate D2E/DX2 analytically  !
 ! R21   R(12,23)                1.0758         calculate D2E/DX2 analytically  !
 ! R22   R(13,24)                1.0093         calculate D2E/DX2 analytically  !
 ! R23   R(14,15)                1.5186         calculate D2E/DX2 analytically  !
 ! R24   R(14,25)                1.0936         calculate D2E/DX2 analytically  !
 ! R25   R(14,26)                1.093          calculate D2E/DX2 analytically  !
 ! R26   R(15,16)                1.466          calculate D2E/DX2 analytically  !
 ! R27   R(15,27)                1.0912         calculate D2E/DX2 analytically  !
 ! R28   R(15,28)                1.0971         calculate D2E/DX2 analytically  !
 ! R29   R(16,29)                1.0131         calculate D2E/DX2 analytically  !
 ! R30   R(16,30)                1.0137         calculate D2E/DX2 analytically  !
 ! A1    A(1,2,3)              120.8944         calculate D2E/DX2 analytically  !
 ! A2    A(1,2,14)             122.7596         calculate D2E/DX2 analytically  !
 ! A3    A(3,2,14)             116.3378         calculate D2E/DX2 analytically  !
 ! A4    A(2,3,4)              120.6145         calculate D2E/DX2 analytically  !
 ! A5    A(2,3,17)             122.1749         calculate D2E/DX2 analytically  !
 ! A6    A(4,3,17)             115.9169         calculate D2E/DX2 analytically  !
 ! A7    A(3,4,5)              107.1887         calculate D2E/DX2 analytically  !
 ! A8    A(3,4,8)              112.0772         calculate D2E/DX2 analytically  !
 ! A9    A(3,4,18)             108.2266         calculate D2E/DX2 analytically  !
 ! A10   A(5,4,8)              112.1015         calculate D2E/DX2 analytically  !
 ! A11   A(5,4,18)             107.251          calculate D2E/DX2 analytically  !
 ! A12   A(8,4,18)             109.7931         calculate D2E/DX2 analytically  !
 ! A13   A(4,5,6)              114.9635         calculate D2E/DX2 analytically  !
 ! A14   A(4,5,7)              123.7259         calculate D2E/DX2 analytically  !
 ! A15   A(6,5,7)              121.3096         calculate D2E/DX2 analytically  !
 ! A16   A(5,6,19)             109.73           calculate D2E/DX2 analytically  !
 ! A17   A(4,8,9)              112.6404         calculate D2E/DX2 analytically  !
 ! A18   A(4,8,20)             108.1405         calculate D2E/DX2 analytically  !
 ! A19   A(4,8,21)             110.9046         calculate D2E/DX2 analytically  !
 ! A20   A(9,8,20)             109.7506         calculate D2E/DX2 analytically  !
 ! A21   A(9,8,21)             108.7075         calculate D2E/DX2 analytically  !
 ! A22   A(20,8,21)            106.5126         calculate D2E/DX2 analytically  !
 ! A23   A(8,9,10)             132.6785         calculate D2E/DX2 analytically  !
 ! A24   A(8,9,13)             122.128          calculate D2E/DX2 analytically  !
 ! A25   A(10,9,13)            105.1765         calculate D2E/DX2 analytically  !
 ! A26   A(9,10,11)            110.5815         calculate D2E/DX2 analytically  !
 ! A27   A(9,10,22)            128.0522         calculate D2E/DX2 analytically  !
 ! A28   A(11,10,22)           121.3662         calculate D2E/DX2 analytically  !
 ! A29   A(10,11,12)           104.9255         calculate D2E/DX2 analytically  !
 ! A30   A(11,12,13)           111.8153         calculate D2E/DX2 analytically  !
 ! A31   A(11,12,23)           126.4071         calculate D2E/DX2 analytically  !
 ! A32   A(13,12,23)           121.7774         calculate D2E/DX2 analytically  !
 ! A33   A(9,13,12)            107.5007         calculate D2E/DX2 analytically  !
 ! A34   A(9,13,24)            124.192          calculate D2E/DX2 analytically  !
 ! A35   A(12,13,24)           128.3064         calculate D2E/DX2 analytically  !
 ! A36   A(2,14,15)            112.0458         calculate D2E/DX2 analytically  !
 ! A37   A(2,14,25)            108.3555         calculate D2E/DX2 analytically  !
 ! A38   A(2,14,26)            109.7767         calculate D2E/DX2 analytically  !
 ! A39   A(15,14,25)           109.0179         calculate D2E/DX2 analytically  !
 ! A40   A(15,14,26)           110.6169         calculate D2E/DX2 analytically  !
 ! A41   A(25,14,26)           106.8616         calculate D2E/DX2 analytically  !
 ! A42   A(14,15,16)           109.3172         calculate D2E/DX2 analytically  !
 ! A43   A(14,15,27)           108.3115         calculate D2E/DX2 analytically  !
 ! A44   A(14,15,28)           109.2843         calculate D2E/DX2 analytically  !
 ! A45   A(16,15,27)           109.1365         calculate D2E/DX2 analytically  !
 ! A46   A(16,15,28)           113.5091         calculate D2E/DX2 analytically  !
 ! A47   A(27,15,28)           107.144          calculate D2E/DX2 analytically  !
 ! A48   A(15,16,29)           109.9962         calculate D2E/DX2 analytically  !
 ! A49   A(15,16,30)           109.8801         calculate D2E/DX2 analytically  !
 ! A50   A(29,16,30)           105.7886         calculate D2E/DX2 analytically  !
 ! D1    D(1,2,3,4)             -2.7082         calculate D2E/DX2 analytically  !
 ! D2    D(1,2,3,17)          -169.1854         calculate D2E/DX2 analytically  !
 ! D3    D(14,2,3,4)           176.2764         calculate D2E/DX2 analytically  !
 ! D4    D(14,2,3,17)            9.7993         calculate D2E/DX2 analytically  !
 ! D5    D(1,2,14,15)          -25.8181         calculate D2E/DX2 analytically  !
 ! D6    D(1,2,14,25)           94.4984         calculate D2E/DX2 analytically  !
 ! D7    D(1,2,14,26)         -149.1379         calculate D2E/DX2 analytically  !
 ! D8    D(3,2,14,15)          155.218          calculate D2E/DX2 analytically  !
 ! D9    D(3,2,14,25)          -84.4654         calculate D2E/DX2 analytically  !
 ! D10   D(3,2,14,26)           31.8982         calculate D2E/DX2 analytically  !
 ! D11   D(2,3,4,5)           -163.4554         calculate D2E/DX2 analytically  !
 ! D12   D(2,3,4,8)             73.1457         calculate D2E/DX2 analytically  !
 ! D13   D(2,3,4,18)           -48.0713         calculate D2E/DX2 analytically  !
 ! D14   D(17,3,4,5)             3.8324         calculate D2E/DX2 analytically  !
 ! D15   D(17,3,4,8)          -119.5665         calculate D2E/DX2 analytically  !
 ! D16   D(17,3,4,18)          119.2165         calculate D2E/DX2 analytically  !
 ! D17   D(3,4,5,6)            175.8405         calculate D2E/DX2 analytically  !
 ! D18   D(3,4,5,7)             -4.5076         calculate D2E/DX2 analytically  !
 ! D19   D(8,4,5,6)            -60.7756         calculate D2E/DX2 analytically  !
 ! D20   D(8,4,5,7)            118.8764         calculate D2E/DX2 analytically  !
 ! D21   D(18,4,5,6)            59.8082         calculate D2E/DX2 analytically  !
 ! D22   D(18,4,5,7)          -120.5399         calculate D2E/DX2 analytically  !
 ! D23   D(3,4,8,9)           -125.5927         calculate D2E/DX2 analytically  !
 ! D24   D(3,4,8,20)            -4.1299         calculate D2E/DX2 analytically  !
 ! D25   D(3,4,8,21)           112.3131         calculate D2E/DX2 analytically  !
 ! D26   D(5,4,8,9)            113.8167         calculate D2E/DX2 analytically  !
 ! D27   D(5,4,8,20)          -124.7205         calculate D2E/DX2 analytically  !
 ! D28   D(5,4,8,21)            -8.2775         calculate D2E/DX2 analytically  !
 ! D29   D(18,4,8,9)            -5.2823         calculate D2E/DX2 analytically  !
 ! D30   D(18,4,8,20)          116.1805         calculate D2E/DX2 analytically  !
 ! D31   D(18,4,8,21)         -127.3765         calculate D2E/DX2 analytically  !
 ! D32   D(4,5,6,19)            -2.5315         calculate D2E/DX2 analytically  !
 ! D33   D(7,5,6,19)           177.8073         calculate D2E/DX2 analytically  !
 ! D34   D(4,8,9,10)          -117.1018         calculate D2E/DX2 analytically  !
 ! D35   D(4,8,9,13)            61.1534         calculate D2E/DX2 analytically  !
 ! D36   D(20,8,9,10)          122.3553         calculate D2E/DX2 analytically  !
 ! D37   D(20,8,9,13)          -59.3895         calculate D2E/DX2 analytically  !
 ! D38   D(21,8,9,10)            6.2246         calculate D2E/DX2 analytically  !
 ! D39   D(21,8,9,13)         -175.5202         calculate D2E/DX2 analytically  !
 ! D40   D(8,9,10,11)          178.6908         calculate D2E/DX2 analytically  !
 ! D41   D(8,9,10,22)           -1.3063         calculate D2E/DX2 analytically  !
 ! D42   D(13,9,10,11)           0.2218         calculate D2E/DX2 analytically  !
 ! D43   D(13,9,10,22)        -179.7754         calculate D2E/DX2 analytically  !
 ! D44   D(8,9,13,12)         -178.8602         calculate D2E/DX2 analytically  !
 ! D45   D(8,9,13,24)            0.8295         calculate D2E/DX2 analytically  !
 ! D46   D(10,9,13,12)          -0.1892         calculate D2E/DX2 analytically  !
 ! D47   D(10,9,13,24)         179.5005         calculate D2E/DX2 analytically  !
 ! D48   D(9,10,11,12)          -0.167          calculate D2E/DX2 analytically  !
 ! D49   D(22,10,11,12)        179.8303         calculate D2E/DX2 analytically  !
 ! D50   D(10,11,12,13)          0.0422         calculate D2E/DX2 analytically  !
 ! D51   D(10,11,12,23)        179.8749         calculate D2E/DX2 analytically  !
 ! D52   D(11,12,13,9)           0.094          calculate D2E/DX2 analytically  !
 ! D53   D(11,12,13,24)       -179.5789         calculate D2E/DX2 analytically  !
 ! D54   D(23,12,13,9)        -179.7476         calculate D2E/DX2 analytically  !
 ! D55   D(23,12,13,24)          0.5795         calculate D2E/DX2 analytically  !
 ! D56   D(2,14,15,16)         176.9097         calculate D2E/DX2 analytically  !
 ! D57   D(2,14,15,27)          58.0994         calculate D2E/DX2 analytically  !
 ! D58   D(2,14,15,28)         -58.3077         calculate D2E/DX2 analytically  !
 ! D59   D(25,14,15,16)         56.9793         calculate D2E/DX2 analytically  !
 ! D60   D(25,14,15,27)        -61.831          calculate D2E/DX2 analytically  !
 ! D61   D(25,14,15,28)       -178.2382         calculate D2E/DX2 analytically  !
 ! D62   D(26,14,15,16)        -60.2449         calculate D2E/DX2 analytically  !
 ! D63   D(26,14,15,27)       -179.0552         calculate D2E/DX2 analytically  !
 ! D64   D(26,14,15,28)         64.5376         calculate D2E/DX2 analytically  !
 ! D65   D(14,15,16,29)       -173.3102         calculate D2E/DX2 analytically  !
 ! D66   D(14,15,16,30)         70.6192         calculate D2E/DX2 analytically  !
 ! D67   D(27,15,16,29)        -55.0138         calculate D2E/DX2 analytically  !
 ! D68   D(27,15,16,30)       -171.0844         calculate D2E/DX2 analytically  !
 ! D69   D(28,15,16,29)         64.4059         calculate D2E/DX2 analytically  !
 ! D70   D(28,15,16,30)        -51.6647         calculate D2E/DX2 analytically  !
 --------------------------------------------------------------------------------
 Trust Radius=3.00D-01 FncErr=1.00D-07 GrdErr=1.00D-06
 Number of steps in this run=    160 maximum allowed number of steps=    180.
 GradGradGradGradGradGradGradGradGradGradGradGradGradGradGradGradGradGrad

                          Input orientation:                          
 ---------------------------------------------------------------------
 Center     Atomic      Atomic             Coordinates (Angstroms)
 Number     Number       Type             X           Y           Z
 ---------------------------------------------------------------------
      1          8           0        0.539746   -0.913344   -0.725215
      2          6           0        1.323288   -0.142770   -0.166465
      3          7           0        0.900219    1.043898    0.320439
      4          6           0       -0.473021    1.464623    0.145735
      5          6           0       -0.522928    2.961453    0.417511
      6          8           0       -1.724833    3.537480    0.211911
      7          8           0        0.418621    3.601539    0.792635
      8          6           0       -1.451768    0.668235    1.063860
      9          6           0       -2.563316    0.025027    0.298978
     10          6           0       -3.915500    0.189923    0.320554
     11          7           0       -4.521234   -0.633394   -0.613522
     12          6           0       -3.533620   -1.278201   -1.186237
     13          7           0       -2.331408   -0.917032   -0.673387
     14          6           0        2.798357   -0.447744   -0.005781
     15          6           0        3.074876   -1.940922   -0.004758
     16          7           0        4.520976   -2.166242    0.079192
     17          1           0        1.542571    1.755100    0.635326
     18          1           0       -0.746143    1.315785   -0.905462
     19          1           0       -2.348524    2.880339   -0.118880
     20          1           0       -0.878975   -0.092871    1.590195
     21          1           0       -1.882115    1.315841    1.827977
     22          1           0       -4.496132    0.849747    0.949339
     23          1           0       -3.618644   -2.012851   -1.967478
     24          1           0       -1.414834   -1.250131   -0.933270
     25          1           0        3.338079    0.014060   -0.837281
     26          1           0        3.173701    0.013820    0.911188
     27          1           0        2.701397   -2.359378   -0.940718
     28          1           0        2.510410   -2.413374    0.808723
     29          1           0        4.724810   -3.152553   -0.029971
     30          1           0        4.855820   -1.915950    1.002723
 ---------------------------------------------------------------------
                    Distance matrix (angstroms):
                    1          2          3          4          5
     1  O    0.000000
     2  C    1.232852   0.000000
     3  N    2.248139   1.350645   0.000000
     4  C    2.727449   2.430618   1.446831   0.000000
     5  C    4.177218   3.658653   2.389935   1.522121   0.000000
     6  O    5.080980   4.793584   3.622240   2.422426   1.348574
     7  O    4.764736   3.969652   2.645077   2.404146   1.198726
     8  C    3.109391   3.142032   2.495123   1.560491   2.557217
     9  C    3.399780   3.917969   3.610350   2.542685   3.577684
    10  C    4.707446   5.271885   4.890851   3.675062   4.381817
    11  N    5.069947   5.882092   5.751325   4.622355   5.474705
    12  C    4.115577   5.091040   5.226963   4.320242   5.441593
    13  N    2.871624   3.770047   3.908496   3.129990   4.416254
    14  C    2.415717   1.514812   2.436050   3.792363   4.778361
    15  C    2.828756   2.515465   3.707295   4.920158   6.095555
    16  N    4.250531   3.792096   4.844903   6.174756   7.200603
    17  H    3.158690   2.071922   1.008751   2.094442   2.401878
    18  H    2.579732   2.637432   2.070571   1.096250   2.123277
    19  H    4.806431   4.756433   3.757638   2.364695   1.904493
    20  H    2.836736   2.817500   2.463748   2.162649   3.291026
    21  H    4.165749   4.047215   3.176162   2.199459   2.558289
    22  H    5.592199   6.007974   5.436341   4.148406   4.530837
    23  H    4.477091   5.582432   5.915944   5.143290   6.325767
    24  H    1.994266   3.051484   3.491966   3.069389   4.511933
    25  H    2.950136   2.129313   2.888606   4.194632   5.016872
    26  H    3.236535   2.147063   2.564910   3.998666   4.753664
    27  H    2.609634   2.722500   4.051796   5.087268   6.368069
    28  H    2.913172   2.741513   3.844980   4.937537   6.184089
    29  H    4.797101   4.543983   5.688628   6.954613   8.069701
    30  H    4.755994   4.121886   4.987283   6.368614   7.284399
                    6          7          8          9         10
     6  O    0.000000
     7  O    2.221652   0.000000
     8  C    3.005487   3.489440   0.000000
     9  C    3.612195   4.682636   1.494757   0.000000
    10  C    4.002120   5.535936   2.617492   1.362373   0.000000
    11  N    5.088947   6.656883   3.732220   2.258233   1.384652
    12  C    5.330789   6.583920   3.631206   2.201308   2.138139
    13  N    4.581960   5.489021   2.510949   1.373590   2.173158
    14  C    6.032299   4.764168   4.522510   5.391096   6.751961
    15  C    7.286772   6.197613   5.332931   5.978831   7.315168
    16  N    8.459325   7.113762   6.684123   7.418703   8.762642
    17  H    3.745943   2.167336   3.214185   4.468175   5.686774
    18  H    2.672505   3.076505   2.189853   2.533544   3.579874
    19  H    0.964493   3.001347   2.663917   2.893708   3.144337
    20  H    3.974241   3.996063   1.088302   2.125593   3.303399
    21  H    2.751743   3.404370   1.090168   2.113782   2.770320
    22  H    3.930369   5.634865   3.051919   2.199752   1.080681
    23  H    6.256391   7.445744   4.590488   3.225444   3.189895
    24  H    4.932418   5.466169   2.769480   2.112693   3.146293
    25  H    6.256866   4.904067   5.194701   6.009797   7.347511
    26  H    6.074603   4.525069   4.674027   5.769600   7.115942
    27  H    7.462774   6.614236   5.516662   5.910959   7.202296
    28  H    7.328447   6.368282   5.025959   5.652286   6.950381
    29  H    9.295856   8.052186   7.344726   7.957512   9.270921
    30  H    8.583139   7.083470   6.816701   7.701053   9.046331
                   11         12         13         14         15
    11  N    0.000000
    12  C    1.311168   0.000000
    13  N    2.208930   1.356013   0.000000
    14  C    7.347123   6.494387   5.194267   0.000000
    15  C    7.731824   6.745910   5.542862   1.518567   0.000000
    16  N    9.197338   8.201612   7.005859   2.434723   1.465954
    17  H    6.635831   6.187626   4.884744   2.615441   4.051943
    18  H    4.258619   3.818065   2.748161   4.059918   5.100745
    19  H    4.160728   4.453892   3.837681   6.130196   7.257469
    20  H    4.291221   4.020040   2.812935   4.024406   4.646731
    21  H    4.089668   4.306043   3.382958   5.327261   6.207832
    22  H    2.154732   3.164692   3.231219   7.470294   8.125164
    23  H    2.133253   1.075768   2.128960   6.890262   6.975719
    24  H    3.183131   2.134018   1.009258   4.388056   4.636467
    25  H    7.889110   7.000853   5.747771   1.093597   2.141104
    26  H    7.871190   7.145394   5.803756   1.093049   2.160958
    27  H    7.433201   6.332824   5.242228   2.130224   1.091152
    28  H    7.391558   6.465198   5.280047   2.147099   1.097079
    29  H    9.600834   8.547035   7.429788   3.320814   2.047185
    30  H    9.601371   8.693731   7.447377   2.721372   2.046314
                   16         17         18         19         20
    16  N    0.000000
    17  H    4.955512   0.000000
    18  H    6.390352   2.793786   0.000000
    19  H    8.526268   4.120147   2.373639   0.000000
    20  H    5.978417   3.192281   2.868843   3.731018   0.000000
    21  H    7.495513   3.652922   2.960088   2.540757   1.745651
    22  H    9.547857   6.114262   4.209500   3.142708   3.792499
    23  H    8.394390   6.900013   4.523157   5.382734   4.883559
    24  H    6.090827   4.498683   2.651762   4.312283   2.827414
    25  H    2.644406   2.902351   4.287191   6.408518   4.866993
    26  H    2.694446   2.401820   4.512262   6.306579   4.110549
    27  H    2.094847   4.555845   5.039207   7.323371   4.935751
    28  H    2.153059   4.282867   5.239294   7.245211   4.181312
    29  H    1.013052   5.886792   7.117855   9.297083   6.587033
    30  H    1.013744   4.958750   6.742942   8.727253   6.046206
                   21         22         23         24         25
    21  H    0.000000
    22  H    2.796843   0.000000
    23  H    5.338652   4.179985   0.000000
    24  H    3.798295   4.177092   2.551099   0.000000
    25  H    6.004053   8.078690   7.333601   4.919103   0.000000
    26  H    5.300663   7.715345   7.650494   5.104336   1.756179
    27  H    6.494728   8.104025   6.412272   4.263080   2.459526
    28  H    5.851512   7.730418   6.740402   4.449182   3.047425
    29  H    8.189626  10.099664   8.640953   6.490793   3.549959
    30  H    7.518329   9.752483   8.980424   6.596399   3.068239
                   26         27         28         29         30
    26  H    0.000000
    27  H    3.047079   0.000000
    28  H    2.518278   1.760663   0.000000
    29  H    3.649334   2.356435   2.480597   0.000000
    30  H    2.561623   2.935153   2.405413   1.616418   0.000000
 Symmetry turned off by external request.
 Stoichiometry    C9H14N4O3
 Framework group  C1[X(C9H14N4O3)]
 Deg. of freedom    84
 Full point group                 C1      NOp   1
 Rotational constants (GHZ):      0.6612253      0.3164135      0.2232211
 Standard basis: 6-311++G(2df,2pd) (5D, 7F)
   754 basis functions,  1084 primitive gaussians,   848 cartesian basis functions
    60 alpha electrons       60 beta electrons
       nuclear repulsion energy      1115.7720187121 Hartrees.
 NAtoms=   30 NActive=   30 NUniq=   30 SFac= 1.00D+00 NAtFMM=   60 NAOKFM=F Big=F
 Integral buffers will be    131072 words long.
 Raffenetti 2 integral format.
 Two-electron integral symmetry is turned off.
 Nuclear repulsion after empirical dispersion term =     1115.7177906263 Hartrees.
 One-electron integrals computed using PRISM.
 NBasis=   754 RedAO= T EigKep=  2.25D-06  NBF=   754
 NBsUse=   754 1.00D-06 EigRej= -1.00D+00 NBFU=   754
 ExpMin= 3.60D-02 ExpMax= 8.59D+03 ExpMxC= 1.30D+03 IAcc=3 IRadAn=         5 AccDes= 0.00D+00
 Harris functional with IExCor=  402 and IRadAn=       5 diagonalized for initial guess.
 HarFok:  IExCor=  402 AccDes= 0.00D+00 IRadAn=         5 IDoV= 1 UseB2=F ITyADJ=14
 ICtDFT=  3500011 ScaDFX=  1.000000  1.000000  1.000000  1.000000
 FoFCou: FMM=F IPFlag=           0 FMFlag=      100000 FMFlg1=           0
         NFxFlg=           0 DoJE=T BraDBF=F KetDBF=T FulRan=T
         wScrn=  0.000000 ICntrl=     500 IOpCl=  0 I1Cent=   200000004 NGrid=           0
         NMat0=    1 NMatS0=      1 NMatT0=    0 NMatD0=    1 NMtDS0=    0 NMtDT0=    0
 Symmetry not used in FoFCou.
 Requested convergence on RMS density matrix=1.00D-08 within 128 cycles.
 Requested convergence on MAX density matrix=1.00D-06.
 Requested convergence on             energy=1.00D-06.
 No special actions if energy rises.
 SCF Done:  E(RB3LYP) =  -796.435565243     A.U. after   14 cycles
            NFock= 14  Conv=0.46D-08     -V/T= 2.0040
 DoSCS=F DFT=T ScalE2(SS,OS)=  1.000000  1.000000
 Range of M.O.s used for correlation:     1   754
 NBasis=   754 NAE=    60 NBE=    60 NFC=     0 NFV=     0
 NROrb=    754 NOA=    60 NOB=    60 NVA=   694 NVB=   694

 **** Warning!!: The largest alpha MO coefficient is  0.13534175D+03

 Symmetrizing basis deriv contribution to polar:
 IMax=3 JMax=2 DiffMx= 0.00D+00
 G2DrvN: will do    31 centers at a time, making    1 passes.
 Calling FoFCou, ICntrl=  3107 FMM=F I1Cent=   0 AccDes= 0.00D+00.
 End of G2Drv F.D. properties file   721 does not exist.
 End of G2Drv F.D. properties file   722 does not exist.
 End of G2Drv F.D. properties file   788 does not exist.
          IDoAtm=111111111111111111111111111111
          Differentiating once with respect to nuclear coordinates.
          There are    93 degrees of freedom in the 1st order CPHF.  IDoFFX=6 NUNeed=     0.
     87 vectors produced by pass  0 Test12= 4.48D-14 1.08D-09 XBig12= 1.98D-01 8.68D-02.
 AX will form    87 AO Fock derivatives at one time.
     87 vectors produced by pass  1 Test12= 4.48D-14 1.08D-09 XBig12= 2.88D-02 4.61D-02.
     87 vectors produced by pass  2 Test12= 4.48D-14 1.08D-09 XBig12= 5.13D-04 2.71D-03.
     87 vectors produced by pass  3 Test12= 4.48D-14 1.08D-09 XBig12= 3.97D-06 1.69D-04.
     87 vectors produced by pass  4 Test12= 4.48D-14 1.08D-09 XBig12= 1.17D-08 7.37D-06.
     84 vectors produced by pass  5 Test12= 4.48D-14 1.08D-09 XBig12= 2.25D-11 3.33D-07.
     43 vectors produced by pass  6 Test12= 4.48D-14 1.08D-09 XBig12= 3.50D-14 1.45D-08.
      6 vectors produced by pass  7 Test12= 4.48D-14 1.08D-09 XBig12= 4.91D-16 2.14D-09.
      2 vectors produced by pass  8 Test12= 4.48D-14 1.08D-09 XBig12= 1.70D-16 1.36D-09.
 InvSVY:  IOpt=1 It=  1 EMax= 5.27D-16
 Solved reduced A of dimension   570 with    93 vectors.
 End of Minotr F.D. properties file   721 does not exist.
 End of Minotr F.D. properties file   722 does not exist.
 End of Minotr F.D. properties file   788 does not exist.

 **********************************************************************

            Population analysis using the SCF density.

 **********************************************************************

 Alpha  occ. eigenvalues --  -19.20056 -19.14411 -19.11936 -14.36566 -14.36369
 Alpha  occ. eigenvalues --  -14.30939 -14.29591 -10.33509 -10.30079 -10.25926
 Alpha  occ. eigenvalues --  -10.22602 -10.21444 -10.21239 -10.20883 -10.19707
 Alpha  occ. eigenvalues --  -10.18880  -1.13971  -1.07138  -1.06072  -1.02324
 Alpha  occ. eigenvalues --   -0.96040  -0.90233  -0.87666  -0.82611  -0.78411
 Alpha  occ. eigenvalues --   -0.75230  -0.69689  -0.65924  -0.63697  -0.62027
 Alpha  occ. eigenvalues --   -0.61515  -0.59987  -0.57357  -0.55887  -0.52359
 Alpha  occ. eigenvalues --   -0.51470  -0.50871  -0.49726  -0.48498  -0.47583
 Alpha  occ. eigenvalues --   -0.46751  -0.45123  -0.44891  -0.43826  -0.43103
 Alpha  occ. eigenvalues --   -0.41781  -0.41621  -0.41418  -0.40794  -0.40641
 Alpha  occ. eigenvalues --   -0.37904  -0.36836  -0.35842  -0.31848  -0.29936
 Alpha  occ. eigenvalues --   -0.29345  -0.28779  -0.27644  -0.26330  -0.24191
 Alpha virt. eigenvalues --   -0.03337  -0.02341  -0.01740  -0.01480  -0.00443
 Alpha virt. eigenvalues --   -0.00081   0.00430   0.00678   0.01552   0.02032
 Alpha virt. eigenvalues --    0.02730   0.02856   0.03691   0.04037   0.04490
 Alpha virt. eigenvalues --    0.04676   0.04885   0.06300   0.06423   0.07000
 Alpha virt. eigenvalues --    0.07315   0.07596   0.07972   0.08192   0.08607
 Alpha virt. eigenvalues --    0.09188   0.09859   0.10360   0.10736   0.11025
 Alpha virt. eigenvalues --    0.11248   0.11412   0.11564   0.12108   0.12816
 Alpha virt. eigenvalues --    0.12911   0.13284   0.13433   0.13816   0.13953
 Alpha virt. eigenvalues --    0.14513   0.14616   0.14856   0.15221   0.15493
 Alpha virt. eigenvalues --    0.16025   0.16448   0.16864   0.17092   0.17618
 Alpha virt. eigenvalues --    0.18004   0.18197   0.18545   0.18754   0.19515
 Alpha virt. eigenvalues --    0.19791   0.19843   0.20178   0.20559   0.21196
 Alpha virt. eigenvalues --    0.21596   0.21762   0.21968   0.22681   0.23058
 Alpha virt. eigenvalues --    0.23725   0.24100   0.24662   0.25160   0.25224
 Alpha virt. eigenvalues --    0.25704   0.26035   0.26289   0.26670   0.27342
 Alpha virt. eigenvalues --    0.27724   0.28004   0.28384   0.28781   0.28978
 Alpha virt. eigenvalues --    0.29442   0.29938   0.30114   0.30618   0.30947
 Alpha virt. eigenvalues --    0.31347   0.31802   0.31858   0.32454   0.32779
 Alpha virt. eigenvalues --    0.33043   0.33377   0.33995   0.34472   0.34938
 Alpha virt. eigenvalues --    0.35158   0.35716   0.36559   0.37330   0.37513
 Alpha virt. eigenvalues --    0.38327   0.39187   0.40614   0.40855   0.41646
 Alpha virt. eigenvalues --    0.42318   0.43870   0.44429   0.44867   0.45503
 Alpha virt. eigenvalues --    0.45794   0.46846   0.47541   0.47940   0.49283
 Alpha virt. eigenvalues --    0.50107   0.50894   0.51332   0.53003   0.53251
 Alpha virt. eigenvalues --    0.53984   0.54581   0.55581   0.55696   0.56770
 Alpha virt. eigenvalues --    0.57074   0.57353   0.57885   0.58295   0.58984
 Alpha virt. eigenvalues --    0.60005   0.60412   0.61328   0.61581   0.62081
 Alpha virt. eigenvalues --    0.62367   0.62695   0.62844   0.64031   0.64234
 Alpha virt. eigenvalues --    0.64832   0.65570   0.65762   0.65804   0.67114
 Alpha virt. eigenvalues --    0.67406   0.68826   0.69122   0.69981   0.70169
 Alpha virt. eigenvalues --    0.71231   0.72614   0.72757   0.73344   0.73987
 Alpha virt. eigenvalues --    0.74193   0.75046   0.75965   0.76713   0.77394
 Alpha virt. eigenvalues --    0.77872   0.78034   0.78891   0.79185   0.80949
 Alpha virt. eigenvalues --    0.81686   0.82174   0.83111   0.83145   0.83979
 Alpha virt. eigenvalues --    0.85127   0.85657   0.86537   0.88035   0.88333
 Alpha virt. eigenvalues --    0.89052   0.89615   0.90227   0.90932   0.91161
 Alpha virt. eigenvalues --    0.92281   0.93960   0.94880   0.95365   0.95413
 Alpha virt. eigenvalues --    0.97251   0.98791   0.98896   0.99673   0.99913
 Alpha virt. eigenvalues --    1.00768   1.01828   1.02042   1.03208   1.03914
 Alpha virt. eigenvalues --    1.04406   1.04630   1.06269   1.06713   1.07227
 Alpha virt. eigenvalues --    1.08124   1.09591   1.10126   1.10549   1.12367
 Alpha virt. eigenvalues --    1.12817   1.13476   1.14129   1.14612   1.15572
 Alpha virt. eigenvalues --    1.16412   1.16541   1.16890   1.18106   1.19188
 Alpha virt. eigenvalues --    1.19975   1.20622   1.21064   1.22038   1.22217
 Alpha virt. eigenvalues --    1.23620   1.24377   1.25340   1.26082   1.27402
 Alpha virt. eigenvalues --    1.27756   1.28697   1.30382   1.30825   1.32079
 Alpha virt. eigenvalues --    1.32481   1.33216   1.33918   1.34941   1.35972
 Alpha virt. eigenvalues --    1.36570   1.37354   1.38185   1.39029   1.39399
 Alpha virt. eigenvalues --    1.39987   1.40831   1.41281   1.42396   1.43086
 Alpha virt. eigenvalues --    1.44196   1.44665   1.45523   1.45883   1.46417
 Alpha virt. eigenvalues --    1.47080   1.48321   1.49831   1.50165   1.51471
 Alpha virt. eigenvalues --    1.52128   1.53047   1.54074   1.54951   1.55517
 Alpha virt. eigenvalues --    1.55811   1.56586   1.57212   1.58930   1.59512
 Alpha virt. eigenvalues --    1.60403   1.61464   1.62551   1.64142   1.65219
 Alpha virt. eigenvalues --    1.65982   1.66944   1.68343   1.68822   1.72681
 Alpha virt. eigenvalues --    1.73678   1.73752   1.74091   1.75387   1.76334
 Alpha virt. eigenvalues --    1.76915   1.77886   1.79084   1.80391   1.82151
 Alpha virt. eigenvalues --    1.84163   1.86084   1.87592   1.89515   1.90375
 Alpha virt. eigenvalues --    1.92164   1.93373   1.95055   1.98145   2.01713
 Alpha virt. eigenvalues --    2.02002   2.03858   2.07084   2.08266   2.10096
 Alpha virt. eigenvalues --    2.11593   2.13502   2.16540   2.19163   2.21551
 Alpha virt. eigenvalues --    2.27977   2.31933   2.33344   2.41107   2.44664
 Alpha virt. eigenvalues --    2.45936   2.48342   2.50335   2.53511   2.55490
 Alpha virt. eigenvalues --    2.56078   2.57458   2.58661   2.60161   2.60562
 Alpha virt. eigenvalues --    2.63537   2.64637   2.67168   2.67956   2.69844
 Alpha virt. eigenvalues --    2.70250   2.72114   2.72488   2.73186   2.74024
 Alpha virt. eigenvalues --    2.74951   2.76194   2.76839   2.78034   2.78358
 Alpha virt. eigenvalues --    2.79102   2.81377   2.82217   2.82807   2.83739
 Alpha virt. eigenvalues --    2.84262   2.84533   2.85880   2.88050   2.89476
 Alpha virt. eigenvalues --    2.89929   2.91365   2.91732   2.92783   2.94494
 Alpha virt. eigenvalues --    2.95026   2.95438   2.95633   2.96354   2.97244
 Alpha virt. eigenvalues --    2.98596   2.99304   2.99955   3.01455   3.02345
 Alpha virt. eigenvalues --    3.02760   3.03723   3.04631   3.04834   3.05459
 Alpha virt. eigenvalues --    3.06268   3.06655   3.07377   3.07599   3.08161
 Alpha virt. eigenvalues --    3.10325   3.10824   3.11796   3.12596   3.12765
 Alpha virt. eigenvalues --    3.13497   3.14517   3.15974   3.17019   3.17623
 Alpha virt. eigenvalues --    3.18926   3.19151   3.20416   3.20814   3.21799
 Alpha virt. eigenvalues --    3.22390   3.23497   3.24197   3.24658   3.25093
 Alpha virt. eigenvalues --    3.26021   3.26384   3.26682   3.28174   3.28281
 Alpha virt. eigenvalues --    3.29377   3.30263   3.31015   3.31808   3.32110
 Alpha virt. eigenvalues --    3.33845   3.34218   3.34622   3.35916   3.36701
 Alpha virt. eigenvalues --    3.37487   3.38295   3.38832   3.39633   3.40047
 Alpha virt. eigenvalues --    3.41049   3.41938   3.42515   3.42558   3.42971
 Alpha virt. eigenvalues --    3.44352   3.45660   3.46125   3.46625   3.47292
 Alpha virt. eigenvalues --    3.48591   3.50323   3.50587   3.51621   3.51957
 Alpha virt. eigenvalues --    3.52639   3.54391   3.54788   3.56303   3.56712
 Alpha virt. eigenvalues --    3.57876   3.58289   3.58791   3.59349   3.60457
 Alpha virt. eigenvalues --    3.60753   3.62337   3.63108   3.63546   3.65158
 Alpha virt. eigenvalues --    3.65584   3.66566   3.66754   3.67358   3.68346
 Alpha virt. eigenvalues --    3.68771   3.70252   3.71005   3.71274   3.72114
 Alpha virt. eigenvalues --    3.72898   3.73777   3.74509   3.76293   3.77144
 Alpha virt. eigenvalues --    3.78229   3.78862   3.79787   3.80326   3.81341
 Alpha virt. eigenvalues --    3.81975   3.83126   3.84621   3.84941   3.85410
 Alpha virt. eigenvalues --    3.85716   3.87289   3.87735   3.88080   3.89516
 Alpha virt. eigenvalues --    3.90204   3.90910   3.92160   3.92800   3.93476
 Alpha virt. eigenvalues --    3.93774   3.94692   3.95217   3.96331   3.97219
 Alpha virt. eigenvalues --    3.98914   3.99167   3.99669   3.99950   4.00702
 Alpha virt. eigenvalues --    4.02445   4.03193   4.04407   4.05084   4.05519
 Alpha virt. eigenvalues --    4.07168   4.08015   4.09051   4.10235   4.11915
 Alpha virt. eigenvalues --    4.13211   4.13399   4.14770   4.16420   4.18080
 Alpha virt. eigenvalues --    4.19555   4.20024   4.21351   4.22088   4.23111
 Alpha virt. eigenvalues --    4.24429   4.26145   4.27560   4.28305   4.29407
 Alpha virt. eigenvalues --    4.30174   4.31233   4.31963   4.32925   4.34100
 Alpha virt. eigenvalues --    4.35429   4.37752   4.38469   4.39035   4.40468
 Alpha virt. eigenvalues --    4.42638   4.43853   4.44533   4.46679   4.48105
 Alpha virt. eigenvalues --    4.50038   4.50581   4.52362   4.52807   4.53850
 Alpha virt. eigenvalues --    4.55358   4.56464   4.58166   4.59990   4.61447
 Alpha virt. eigenvalues --    4.62311   4.63906   4.66390   4.68214   4.69147
 Alpha virt. eigenvalues --    4.69995   4.71111   4.74882   4.76356   4.77699
 Alpha virt. eigenvalues --    4.78964   4.81614   4.83003   4.84347   4.85451
 Alpha virt. eigenvalues --    4.86900   4.87261   4.89457   4.90697   4.92342
 Alpha virt. eigenvalues --    4.93154   4.94075   4.95408   4.96747   4.98893
 Alpha virt. eigenvalues --    4.99836   5.00164   5.01188   5.02574   5.03512
 Alpha virt. eigenvalues --    5.03728   5.04850   5.05256   5.07098   5.07253
 Alpha virt. eigenvalues --    5.07719   5.08305   5.08514   5.11132   5.11776
 Alpha virt. eigenvalues --    5.12143   5.13536   5.14949   5.15796   5.17096
 Alpha virt. eigenvalues --    5.18851   5.19060   5.19964   5.20102   5.22446
 Alpha virt. eigenvalues --    5.22556   5.23409   5.24634   5.25121   5.25622
 Alpha virt. eigenvalues --    5.25978   5.26514   5.28046   5.29713   5.30353
 Alpha virt. eigenvalues --    5.32385   5.33063   5.35928   5.36782   5.38381
 Alpha virt. eigenvalues --    5.39892   5.41428   5.44122   5.45580   5.49380
 Alpha virt. eigenvalues --    5.49733   5.51088   5.52713   5.52946   5.54493
 Alpha virt. eigenvalues --    5.56313   5.56738   5.58769   5.62011   5.62816
 Alpha virt. eigenvalues --    5.64343   5.66495   5.66844   5.67794   5.69498
 Alpha virt. eigenvalues --    5.71886   5.77273   5.78422   5.80275   5.80867
 Alpha virt. eigenvalues --    5.82028   5.87047   5.87286   5.90615   5.91701
 Alpha virt. eigenvalues --    5.92983   5.95623   6.00392   6.03678   6.10126
 Alpha virt. eigenvalues --    6.11977   6.14095   6.15466   6.23400   6.24214
 Alpha virt. eigenvalues --    6.27527   6.29327   6.32697   6.34511   6.38145
 Alpha virt. eigenvalues --    6.41458   6.44403   6.45780   6.48257   6.52087
 Alpha virt. eigenvalues --    6.54543   6.54822   6.56320   6.66900   6.75249
 Alpha virt. eigenvalues --    6.81115   6.87164   6.94760   6.95288   6.95826
 Alpha virt. eigenvalues --    7.02005   7.03136   7.11933   7.14241   7.17340
 Alpha virt. eigenvalues --    7.23142   7.27120   7.27824   7.29143   7.32776
 Alpha virt. eigenvalues --    7.42812   7.45945   7.59453   7.62847   7.68803
 Alpha virt. eigenvalues --    7.73439   7.75603   7.97055  24.54784  24.72633
 Alpha virt. eigenvalues --   24.83302  24.87329  25.04654  25.05634  25.10924
 Alpha virt. eigenvalues --   25.13085  25.14063  35.98690  36.25902  36.31466
 Alpha virt. eigenvalues --   36.45959  50.18979  50.19957  50.28345
          Condensed to atoms (all electrons):
               1          2          3          4          5          6
     1  O    8.218209   0.228514  -0.074561  -0.014290  -0.002236   0.000021
     2  C    0.228514   7.606816   0.103915  -0.237381  -0.033009   0.000626
     3  N   -0.074561   0.103915   6.585419  -0.033136  -0.042688   0.005706
     4  C   -0.014290  -0.237381  -0.033136   8.414399  -1.103659  -0.125716
     5  C   -0.002236  -0.033009  -0.042688  -1.103659   6.710546   0.392615
     6  O    0.000021   0.000626   0.005706  -0.125716   0.392615   7.770777
     7  O    0.000004   0.021000  -0.018940  -0.012129   0.401439  -0.062412
     8  C    0.042676  -0.895869   0.020225  -1.180068  -0.043917   0.122710
     9  C   -0.041645   0.425507   0.041269  -0.172426   0.059611  -0.088335
    10  C   -0.046162   0.073085   0.020775   0.006214   0.036754  -0.025827
    11  N    0.000982   0.000489  -0.000359   0.024740  -0.003069  -0.000154
    12  C    0.001317   0.047416  -0.006273   0.089469  -0.027777  -0.001448
    13  N    0.018301   0.043595  -0.002029   0.054169  -0.029885  -0.002336
    14  C    0.122912  -1.164725   0.079192  -0.312654  -0.098851  -0.000918
    15  C   -0.010538  -0.049765  -0.015875  -0.053239  -0.004827  -0.000330
    16  N    0.000573   0.013164  -0.002759   0.003493   0.000143   0.000001
    17  H    0.003023  -0.028038   0.312826   0.049114   0.004138   0.006504
    18  H    0.002850   0.050429  -0.044210   0.493754  -0.175824  -0.005033
    19  H    0.000570   0.011331  -0.004897   0.041933  -0.116133   0.190107
    20  H   -0.010026  -0.097195   0.014428  -0.156820   0.038094   0.004460
    21  H    0.003205   0.022040  -0.002092   0.045154  -0.060967  -0.008870
    22  H   -0.000660   0.004263   0.001491  -0.010243   0.000537  -0.003271
    23  H    0.000214   0.002493  -0.000177  -0.000856  -0.000479   0.000061
    24  H   -0.010231   0.012092   0.003332  -0.011659   0.004502  -0.000146
    25  H    0.001446  -0.080498   0.009121   0.009357  -0.003255   0.000027
    26  H    0.013679  -0.113864   0.005050  -0.008131  -0.012515  -0.000186
    27  H    0.004785   0.020119  -0.001429   0.004407  -0.000011   0.000002
    28  H   -0.012430   0.006417   0.003409  -0.003167   0.001096  -0.000027
    29  H    0.001015  -0.001299   0.000204  -0.000458  -0.000004  -0.000001
    30  H   -0.000167   0.007222  -0.000224   0.001338   0.000191   0.000000
               7          8          9         10         11         12
     1  O    0.000004   0.042676  -0.041645  -0.046162   0.000982   0.001317
     2  C    0.021000  -0.895869   0.425507   0.073085   0.000489   0.047416
     3  N   -0.018940   0.020225   0.041269   0.020775  -0.000359  -0.006273
     4  C   -0.012129  -1.180068  -0.172426   0.006214   0.024740   0.089469
     5  C    0.401439  -0.043917   0.059611   0.036754  -0.003069  -0.027777
     6  O   -0.062412   0.122710  -0.088335  -0.025827  -0.000154  -0.001448
     7  O    8.070720  -0.006536  -0.040463  -0.001569   0.000007  -0.000292
     8  C   -0.006536  12.048556  -3.074079  -1.045003  -0.070283  -0.287887
     9  C   -0.040463  -3.074079   9.145354  -0.370163  -0.066574  -0.064941
    10  C   -0.001569  -1.045003  -0.370163   7.070548   0.357375  -0.239611
    11  N    0.000007  -0.070283  -0.066574   0.357375   6.886223   0.256409
    12  C   -0.000292  -0.287887  -0.064941  -0.239611   0.256409   5.402867
    13  N    0.000072  -0.477018   0.286264   0.036838   0.059854   0.293101
    14  C   -0.035388   0.094396   0.076245  -0.013673  -0.000417   0.002348
    15  C   -0.002577  -0.049221   0.009934   0.000686   0.000226   0.003601
    16  N   -0.000023  -0.001284  -0.000199  -0.000065   0.000001   0.000097
    17  H    0.039526   0.008497  -0.048192   0.002295  -0.000200  -0.001223
    18  H   -0.007263  -0.030133  -0.090185   0.054323  -0.000351  -0.010078
    19  H    0.010016   0.063888   0.043378  -0.054386   0.000976   0.002656
    20  H   -0.002878   0.802051  -0.268784  -0.038459  -0.003180  -0.024389
    21  H    0.001639   0.252153   0.031343  -0.007419   0.002621   0.009995
    22  H   -0.000185  -0.101976  -0.103458   0.549996  -0.086360   0.036319
    23  H   -0.000003  -0.000033   0.037948   0.009437  -0.081718   0.450793
    24  H    0.000372  -0.080644  -0.052793   0.046928   0.014134  -0.062770
    25  H    0.000923   0.001145  -0.002269  -0.001098   0.000020   0.000176
    26  H   -0.003410  -0.001785   0.006806   0.000417   0.000023   0.000321
    27  H    0.000009   0.002561  -0.001004   0.000338  -0.000045   0.000040
    28  H    0.000075  -0.008887   0.005953   0.000341   0.000022   0.000646
    29  H   -0.000012  -0.000252   0.000127  -0.000012   0.000001   0.000030
    30  H    0.000022   0.000214  -0.000301   0.000001   0.000000  -0.000008
              13         14         15         16         17         18
     1  O    0.018301   0.122912  -0.010538   0.000573   0.003023   0.002850
     2  C    0.043595  -1.164725  -0.049765   0.013164  -0.028038   0.050429
     3  N   -0.002029   0.079192  -0.015875  -0.002759   0.312826  -0.044210
     4  C    0.054169  -0.312654  -0.053239   0.003493   0.049114   0.493754
     5  C   -0.029885  -0.098851  -0.004827   0.000143   0.004138  -0.175824
     6  O   -0.002336  -0.000918  -0.000330   0.000001   0.006504  -0.005033
     7  O    0.000072  -0.035388  -0.002577  -0.000023   0.039526  -0.007263
     8  C   -0.477018   0.094396  -0.049221  -0.001284   0.008497  -0.030133
     9  C    0.286264   0.076245   0.009934  -0.000199  -0.048192  -0.090185
    10  C    0.036838  -0.013673   0.000686  -0.000065   0.002295   0.054323
    11  N    0.059854  -0.000417   0.000226   0.000001  -0.000200  -0.000351
    12  C    0.293101   0.002348   0.003601   0.000097  -0.001223  -0.010078
    13  N    6.432861  -0.006400   0.004900   0.000134  -0.000963   0.008336
    14  C   -0.006400   6.375715   0.182104  -0.000446  -0.041277  -0.013382
    15  C    0.004900   0.182104   5.282786   0.216715  -0.019588   0.002284
    16  N    0.000134  -0.000446   0.216715   6.303033   0.000182   0.000105
    17  H   -0.000963  -0.041277  -0.019588   0.000182   0.578234   0.009751
    18  H    0.008336  -0.013382   0.002284   0.000105   0.009751   0.675978
    19  H    0.005582   0.006060   0.000314   0.000001  -0.007163  -0.017479
    20  H   -0.003303   0.027918  -0.009388  -0.000365  -0.001423   0.007591
    21  H    0.003604  -0.011901   0.002445   0.000004   0.002490  -0.001317
    22  H    0.028684   0.000865  -0.000051   0.000000  -0.000230  -0.000002
    23  H   -0.080359   0.000125  -0.000007  -0.000001   0.000037  -0.000064
    24  H    0.427059   0.001261   0.003217  -0.000333  -0.000808  -0.005149
    25  H    0.000457   0.434839  -0.070643   0.007106   0.002049   0.000243
    26  H    0.000319   0.425666   0.044276  -0.019026  -0.016932  -0.000105
    27  H   -0.000173  -0.063891   0.441449  -0.056054  -0.000395   0.000215
    28  H    0.000616   0.015256   0.323068  -0.068886   0.003339  -0.000279
    29  H    0.000021  -0.025434  -0.010332   0.386665  -0.000497  -0.000048
    30  H    0.000012  -0.004278  -0.061498   0.384498   0.000996   0.000045
              19         20         21         22         23         24
     1  O    0.000570  -0.010026   0.003205  -0.000660   0.000214  -0.010231
     2  C    0.011331  -0.097195   0.022040   0.004263   0.002493   0.012092
     3  N   -0.004897   0.014428  -0.002092   0.001491  -0.000177   0.003332
     4  C    0.041933  -0.156820   0.045154  -0.010243  -0.000856  -0.011659
     5  C   -0.116133   0.038094  -0.060967   0.000537  -0.000479   0.004502
     6  O    0.190107   0.004460  -0.008870  -0.003271   0.000061  -0.000146
     7  O    0.010016  -0.002878   0.001639  -0.000185  -0.000003   0.000372
     8  C    0.063888   0.802051   0.252153  -0.101976  -0.000033  -0.080644
     9  C    0.043378  -0.268784   0.031343  -0.103458   0.037948  -0.052793
    10  C   -0.054386  -0.038459  -0.007419   0.549996   0.009437   0.046928
    11  N    0.000976  -0.003180   0.002621  -0.086360  -0.081718   0.014134
    12  C    0.002656  -0.024389   0.009995   0.036319   0.450793  -0.062770
    13  N    0.005582  -0.003303   0.003604   0.028684  -0.080359   0.427059
    14  C    0.006060   0.027918  -0.011901   0.000865   0.000125   0.001261
    15  C    0.000314  -0.009388   0.002445  -0.000051  -0.000007   0.003217
    16  N    0.000001  -0.000365   0.000004   0.000000  -0.000001  -0.000333
    17  H   -0.007163  -0.001423   0.002490  -0.000230   0.000037  -0.000808
    18  H   -0.017479   0.007591  -0.001317  -0.000002  -0.000064  -0.005149
    19  H    0.607937   0.003612   0.001372  -0.002472  -0.000270   0.001464
    20  H    0.003612   0.733653  -0.066015   0.001972  -0.001602   0.003694
    21  H    0.001372  -0.066015   0.663839  -0.004885   0.000278  -0.001364
    22  H   -0.002472   0.001972  -0.004885   0.614641   0.000700   0.001851
    23  H   -0.000270  -0.001602   0.000278   0.000700   0.568158  -0.009643
    24  H    0.001464   0.003694  -0.001364   0.001851  -0.009643   0.450634
    25  H   -0.000003  -0.000415   0.000205  -0.000013   0.000003  -0.000419
    26  H    0.000521   0.000948  -0.000438   0.000031  -0.000024   0.000732
    27  H   -0.000032   0.000646  -0.000134   0.000003   0.000050  -0.000690
    28  H   -0.000037  -0.003543   0.000520  -0.000004   0.000119  -0.001366
    29  H    0.000002  -0.000114   0.000007   0.000000  -0.000001   0.000065
    30  H   -0.000005   0.000091   0.000009   0.000000   0.000001  -0.000059
              25         26         27         28         29         30
     1  O    0.001446   0.013679   0.004785  -0.012430   0.001015  -0.000167
     2  C   -0.080498  -0.113864   0.020119   0.006417  -0.001299   0.007222
     3  N    0.009121   0.005050  -0.001429   0.003409   0.000204  -0.000224
     4  C    0.009357  -0.008131   0.004407  -0.003167  -0.000458   0.001338
     5  C   -0.003255  -0.012515  -0.000011   0.001096  -0.000004   0.000191
     6  O    0.000027  -0.000186   0.000002  -0.000027  -0.000001   0.000000
     7  O    0.000923  -0.003410   0.000009   0.000075  -0.000012   0.000022
     8  C    0.001145  -0.001785   0.002561  -0.008887  -0.000252   0.000214
     9  C   -0.002269   0.006806  -0.001004   0.005953   0.000127  -0.000301
    10  C   -0.001098   0.000417   0.000338   0.000341  -0.000012   0.000001
    11  N    0.000020   0.000023  -0.000045   0.000022   0.000001   0.000000
    12  C    0.000176   0.000321   0.000040   0.000646   0.000030  -0.000008
    13  N    0.000457   0.000319  -0.000173   0.000616   0.000021   0.000012
    14  C    0.434839   0.425666  -0.063891   0.015256  -0.025434  -0.004278
    15  C   -0.070643   0.044276   0.441449   0.323068  -0.010332  -0.061498
    16  N    0.007106  -0.019026  -0.056054  -0.068886   0.386665   0.384498
    17  H    0.002049  -0.016932  -0.000395   0.003339  -0.000497   0.000996
    18  H    0.000243  -0.000105   0.000215  -0.000279  -0.000048   0.000045
    19  H   -0.000003   0.000521  -0.000032  -0.000037   0.000002  -0.000005
    20  H   -0.000415   0.000948   0.000646  -0.003543  -0.000114   0.000091
    21  H    0.000205  -0.000438  -0.000134   0.000520   0.000007   0.000009
    22  H   -0.000013   0.000031   0.000003  -0.000004   0.000000   0.000000
    23  H    0.000003  -0.000024   0.000050   0.000119  -0.000001   0.000001
    24  H   -0.000419   0.000732  -0.000690  -0.001366   0.000065  -0.000059
    25  H    0.661141  -0.059125  -0.013058   0.018977   0.001173  -0.001877
    26  H   -0.059125   0.745558   0.014601  -0.042052   0.004034   0.006063
    27  H   -0.013058   0.014601   0.652306  -0.063265  -0.010047   0.012492
    28  H    0.018977  -0.042052  -0.063265   0.789043  -0.002351  -0.009969
    29  H    0.001173   0.004034  -0.010047  -0.002351   0.606062  -0.055880
    30  H   -0.001877   0.006063   0.012492  -0.009969  -0.055880   0.627228
 Mulliken charges:
               1
     1  O   -0.441351
     2  C    0.001111
     3  N    0.043287
     4  C    0.198493
     5  C    0.109440
     6  O   -0.168608
     7  O   -0.351748
     8  C   -0.104198
     9  C    0.316069
    10  C   -0.422904
    11  N   -0.291391
    12  C    0.129099
    13  N   -0.102312
    14  C   -0.051266
    15  C   -0.160127
    16  N   -0.166477
    17  H    0.143926
    18  H    0.094999
    19  H    0.211159
    20  H    0.048740
    21  H    0.122478
    22  H    0.072457
    23  H    0.104821
    24  H    0.266737
    25  H    0.084264
    26  H    0.008545
    27  H    0.056208
    28  H    0.047365
    29  H    0.107337
    30  H    0.093844
 Sum of Mulliken charges =   0.00000
 Mulliken charges with hydrogens summed into heavy atoms:
               1
     1  O   -0.441351
     2  C    0.001111
     3  N    0.187213
     4  C    0.293492
     5  C    0.109440
     6  O    0.042551
     7  O   -0.351748
     8  C    0.067020
     9  C    0.316069
    10  C   -0.350447
    11  N   -0.291391
    12  C    0.233920
    13  N    0.164425
    14  C    0.041544
    15  C   -0.056554
    16  N    0.034705
 APT charges:
               1
     1  O   -0.528894
     2  C    0.054132
     3  N   -0.395769
     4  C    0.132528
     5  C   -0.276346
     6  O   -0.249371
     7  O   -0.138013
     8  C   -0.742270
     9  C    0.248480
    10  C   -0.440699
    11  N   -0.412043
    12  C   -0.141954
    13  N   -0.353040
    14  C   -0.730082
    15  C   -0.048884
    16  N   -1.386283
    17  H    0.516806
    18  H    0.235016
    19  H    0.384095
    20  H    0.126575
    21  H    0.488370
    22  H    0.644855
    23  H    0.634055
    24  H    0.114020
    25  H    0.377932
    26  H    0.334859
    27  H    0.188620
    28  H    0.158712
    29  H    0.764381
    30  H    0.440214
 Sum of APT charges =   0.00000
 APT charges with hydrogens summed into heavy atoms:
               1
     1  O   -0.528894
     2  C    0.054132
     3  N    0.121037
     4  C    0.367544
     5  C   -0.276346
     6  O    0.134724
     7  O   -0.138013
     8  C   -0.127325
     9  C    0.248480
    10  C    0.204156
    11  N   -0.412043
    12  C    0.492101
    13  N   -0.239020
    14  C   -0.017291
    15  C    0.298447
    16  N   -0.181689
 Electronic spatial extent (au):  <R**2>=           4806.6667
 Charge=              0.0000 electrons
 Dipole moment (field-independent basis, Debye):
    X=              3.3841    Y=             -1.8838    Z=              1.1665  Tot=              4.0450
 Quadrupole moment (field-independent basis, Debye-Ang):
   XX=           -114.4416   YY=           -104.8213   ZZ=            -92.2708
   XY=             -8.8589   XZ=              3.0937   YZ=             -3.4502
 Traceless Quadrupole moment (field-independent basis, Debye-Ang):
   XX=            -10.5971   YY=             -0.9767   ZZ=             11.5738
   XY=             -8.8589   XZ=              3.0937   YZ=             -3.4502
 Octapole moment (field-independent basis, Debye-Ang**2):
  XXX=            229.1836  YYY=           -174.5944  ZZZ=             -8.3715  XYY=             47.3377
  XXY=            -11.1380  XXZ=             44.8233  XZZ=             33.8741  YZZ=            -29.0138
  YYZ=            -23.8452  XYZ=            -18.3910
 Hexadecapole moment (field-independent basis, Debye-Ang**3):
 XXXX=          -5012.1564 YYYY=          -2212.7424 ZZZZ=           -324.9555 XXXY=            138.3828
 XXXZ=            -64.5580 YYYX=            256.9748 YYYZ=           -220.3908 ZZZX=            -75.8384
 ZZZY=           -153.0311 XXYY=           -889.6205 XXZZ=           -713.1826 YYZZ=           -368.4812
 XXYZ=            -69.3368 YYXZ=             -1.2102 ZZXY=            117.9848
 N-N= 1.115717790626D+03 E-N=-4.091562336622D+03  KE= 7.932785118983D+02
  Exact polarizability:   0.000   0.000   0.000   0.000   0.000   0.000
 Approx polarizability: 240.638   6.250 212.050  12.961  32.266 186.969
 Calling FoFJK, ICntrl=    100147 FMM=F ISym2X=0 I1Cent= 0 IOpClX= 0 NMat=1 NMatS=1 NMatT=0.
 -------------------------------------------------------------------
 Center     Atomic                   Forces (Hartrees/Bohr)
 Number     Number              X              Y              Z
 -------------------------------------------------------------------
      1        8           0.004633432    0.000153274    0.002897982
      2        6          -0.002454399   -0.000340381   -0.004002182
      3        7          -0.000975308   -0.000057782   -0.001422460
      4        6           0.008336214    0.001261252    0.000190710
      5        6          -0.003422214    0.001098322   -0.000540433
      6        8           0.004759459   -0.001893617    0.000482156
      7        8           0.000076687    0.001243634    0.000813840
      8        6          -0.008350237   -0.003429965   -0.003700429
      9        6           0.009111314    0.004707399    0.004223122
     10        6          -0.012473884    0.001269079   -0.002182532
     11        7           0.000696211    0.003552842    0.003149294
     12        6          -0.001317365   -0.001284400   -0.000662908
     13        7           0.001116924   -0.002066932   -0.000778516
     14        6          -0.002755106    0.001692280    0.000177603
     15        6           0.001143676   -0.000784338   -0.001444765
     16        7          -0.001715639   -0.002973711    0.001619020
     17        1           0.001247497   -0.000513404    0.001817827
     18        1          -0.001783408   -0.001457673    0.002993350
     19        1          -0.004757844   -0.000636092   -0.000705235
     20        1           0.002399456    0.000894215   -0.000414520
     21        1           0.000393451    0.000022868   -0.000546047
     22        1           0.001285878   -0.001838701   -0.000688340
     23        1          -0.001438003   -0.000539871   -0.000732408
     24        1           0.004036805    0.000784234    0.000113642
     25        1          -0.000224595    0.000044856    0.000459522
     26        1          -0.000154907    0.000454837   -0.000672141
     27        1           0.001276534   -0.000648937    0.002082696
     28        1          -0.000555792   -0.000225856   -0.000842643
     29        1           0.000599401    0.000431487   -0.001238762
     30        1           0.001265760    0.001081083   -0.000446442
 -------------------------------------------------------------------
 Cartesian Forces:  Max     0.012473884 RMS     0.002786836
 FormGI is forming the generalized inverse of G from B-inverse, IUseBI=4.

 GradGradGradGradGradGradGradGradGradGradGradGradGradGradGradGradGradGrad
 Berny optimization.
 Internal  Forces:  Max     0.008674934 RMS     0.001766679
 Search for a local minimum.
 Step number   1 out of a maximum of  160
 All quantities printed in internal units (Hartrees-Bohrs-Radians)
 Mixed Optimization -- RFO/linear search
 Second derivative matrix not updated -- analytic derivatives used.
 ITU=  0
     Eigenvalues ---   -0.00039   0.00169   0.00218   0.00245   0.00354
     Eigenvalues ---    0.00478   0.00613   0.00829   0.00886   0.01455
     Eigenvalues ---    0.01610   0.02051   0.02320   0.02753   0.03211
     Eigenvalues ---    0.03516   0.04069   0.04159   0.04258   0.04377
     Eigenvalues ---    0.04428   0.04514   0.05075   0.05376   0.05443
     Eigenvalues ---    0.05970   0.06180   0.06337   0.07526   0.07775
     Eigenvalues ---    0.08173   0.10463   0.10631   0.10854   0.11330
     Eigenvalues ---    0.11661   0.12462   0.13403   0.14940   0.15531
     Eigenvalues ---    0.16571   0.17159   0.17716   0.18797   0.18978
     Eigenvalues ---    0.19996   0.21114   0.21776   0.22746   0.22833
     Eigenvalues ---    0.23908   0.24594   0.24641   0.26825   0.28654
     Eigenvalues ---    0.30051   0.31063   0.31484   0.32272   0.32712
     Eigenvalues ---    0.33298   0.33407   0.33506   0.33625   0.34358
     Eigenvalues ---    0.35091   0.36255   0.36362   0.37159   0.37273
     Eigenvalues ---    0.41252   0.42616   0.43726   0.44435   0.44814
     Eigenvalues ---    0.45076   0.46197   0.46318   0.47521   0.51722
     Eigenvalues ---    0.58548   0.64408   0.76341   0.89089
 RFO step:  Lambda=-3.17650602D-03 EMin=-3.91324026D-04
 Linear search not attempted -- first point.
 Iteration  1 RMS(Cart)=  0.15417109 RMS(Int)=  0.04498813
 Iteration  2 RMS(Cart)=  0.10749685 RMS(Int)=  0.00685879
 Iteration  3 RMS(Cart)=  0.01161753 RMS(Int)=  0.00019208
 Iteration  4 RMS(Cart)=  0.00010001 RMS(Int)=  0.00018453
 Iteration  5 RMS(Cart)=  0.00000001 RMS(Int)=  0.00018453
 Variable       Old X    -DE/DX   Delta X   Delta X   Delta X     New X
                                 (Linear)    (Quad)   (Total)
    R1        2.32975  -0.00435   0.00000  -0.00501  -0.00501   2.32475
    R2        2.55235   0.00182   0.00000   0.00296   0.00296   2.55531
    R3        2.86258  -0.00094   0.00000  -0.00739  -0.00739   2.85519
    R4        2.73411   0.00163   0.00000  -0.01200  -0.01200   2.72212
    R5        1.90626   0.00100   0.00000   0.00036   0.00036   1.90662
    R6        2.87639  -0.00007   0.00000  -0.00995  -0.00995   2.86644
    R7        2.94890   0.00049   0.00000   0.01127   0.01127   2.96017
    R8        2.07161  -0.00223   0.00000  -0.00745  -0.00745   2.06416
    R9        2.54844  -0.00105   0.00000  -0.00662  -0.00662   2.54182
   R10        2.26526   0.00098   0.00000   0.00213   0.00213   2.26739
   R11        1.82263   0.00375   0.00000   0.00872   0.00872   1.83135
   R12        2.82468  -0.00398   0.00000  -0.02118  -0.02118   2.80350
   R13        2.05659   0.00044   0.00000   0.00089   0.00089   2.05749
   R14        2.06012  -0.00052   0.00000  -0.00205  -0.00205   2.05807
   R15        2.57451   0.00867   0.00000   0.01878   0.01880   2.59331
   R16        2.59571   0.00215   0.00000   0.00673   0.00674   2.60245
   R17        2.61661  -0.00403   0.00000  -0.01457  -0.01457   2.60204
   R18        2.04219  -0.00221   0.00000  -0.00577  -0.00577   2.03642
   R19        2.47775   0.00249   0.00000   0.00327   0.00325   2.48100
   R20        2.56249   0.00451   0.00000   0.00933   0.00932   2.57181
   R21        2.03291   0.00101   0.00000   0.00204   0.00204   2.03495
   R22        1.90722   0.00338   0.00000   0.00841   0.00841   1.91563
   R23        2.86968   0.00344   0.00000   0.01437   0.01437   2.88404
   R24        2.06660  -0.00044   0.00000  -0.00152  -0.00152   2.06508
   R25        2.06556  -0.00043   0.00000  -0.00274  -0.00274   2.06283
   R26        2.77025   0.00037   0.00000  -0.00852  -0.00852   2.76173
   R27        2.06198  -0.00197   0.00000  -0.00619  -0.00619   2.05579
   R28        2.07318  -0.00024   0.00000   0.00366   0.00366   2.07684
   R29        1.91439  -0.00017   0.00000  -0.00272  -0.00272   1.91167
   R30        1.91570   0.00028   0.00000  -0.00174  -0.00174   1.91396
    A1        2.11000   0.00445   0.00000   0.00835   0.00834   2.11835
    A2        2.14256  -0.00235   0.00000  -0.01158  -0.01159   2.13097
    A3        2.03048  -0.00208   0.00000   0.00332   0.00332   2.03380
    A4        2.10512   0.00413   0.00000  -0.00407  -0.00441   2.10071
    A5        2.13235  -0.00288   0.00000  -0.00298  -0.00336   2.12900
    A6        2.02313  -0.00114   0.00000   0.01675   0.01643   2.03956
    A7        1.87080   0.00156   0.00000   0.03371   0.03372   1.90451
    A8        1.95612   0.00401   0.00000   0.02113   0.02133   1.97744
    A9        1.88891  -0.00051   0.00000   0.00311   0.00320   1.89211
   A10        1.95654  -0.00436   0.00000  -0.02163  -0.02235   1.93420
   A11        1.87188   0.00119   0.00000   0.00298   0.00207   1.87395
   A12        1.91625  -0.00183   0.00000  -0.03783  -0.03804   1.87821
   A13        2.00649  -0.00104   0.00000  -0.00338  -0.00339   2.00310
   A14        2.15942   0.00164   0.00000   0.00290   0.00289   2.16231
   A15        2.11725  -0.00060   0.00000   0.00044   0.00043   2.11769
   A16        1.91515   0.00544   0.00000   0.03168   0.03168   1.94683
   A17        1.96595   0.00063   0.00000  -0.02183  -0.02182   1.94413
   A18        1.88741  -0.00226   0.00000  -0.01343  -0.01330   1.87411
   A19        1.93565  -0.00016   0.00000  -0.00519  -0.00515   1.93051
   A20        1.91551   0.00257   0.00000   0.02264   0.02240   1.93791
   A21        1.89730  -0.00123   0.00000   0.01193   0.01171   1.90902
   A22        1.85899   0.00050   0.00000   0.00781   0.00755   1.86654
   A23        2.31568   0.00042   0.00000   0.01873   0.01859   2.33426
   A24        2.13153  -0.00022   0.00000  -0.01824  -0.01835   2.11318
   A25        1.83568  -0.00020   0.00000  -0.00107  -0.00109   1.83458
   A26        1.93001  -0.00039   0.00000  -0.00247  -0.00249   1.92752
   A27        2.23493   0.00001   0.00000  -0.00338  -0.00348   2.23145
   A28        2.11824   0.00038   0.00000   0.00585   0.00576   2.12400
   A29        1.83130   0.00174   0.00000   0.00896   0.00898   1.84028
   A30        1.95155   0.00045   0.00000  -0.00250  -0.00249   1.94906
   A31        2.20622  -0.00162   0.00000  -0.01064  -0.01064   2.19558
   A32        2.12542   0.00116   0.00000   0.01314   0.01313   2.13855
   A33        1.87624  -0.00161   0.00000  -0.00293  -0.00291   1.87333
   A34        2.16756  -0.00131   0.00000  -0.01811  -0.01815   2.14941
   A35        2.23937   0.00292   0.00000   0.02098   0.02094   2.26031
   A36        1.95557   0.00210   0.00000  -0.00234  -0.00242   1.95315
   A37        1.89116  -0.00083   0.00000  -0.01346  -0.01352   1.87764
   A38        1.91596  -0.00081   0.00000   0.01775   0.01777   1.93373
   A39        1.90272  -0.00035   0.00000  -0.00703  -0.00712   1.89560
   A40        1.93063  -0.00023   0.00000  -0.00141  -0.00145   1.92918
   A41        1.86509   0.00002   0.00000   0.00639   0.00645   1.87153
   A42        1.90794   0.00121   0.00000   0.01049   0.01048   1.91842
   A43        1.89039   0.00095   0.00000   0.00216   0.00218   1.89257
   A44        1.90737  -0.00059   0.00000  -0.00446  -0.00449   1.90288
   A45        1.90479  -0.00149   0.00000  -0.00795  -0.00796   1.89683
   A46        1.98111   0.00029   0.00000   0.00404   0.00404   1.98514
   A47        1.87002  -0.00037   0.00000  -0.00466  -0.00466   1.86535
   A48        1.91980   0.00101   0.00000   0.01673   0.01631   1.93610
   A49        1.91777   0.00193   0.00000   0.02521   0.02479   1.94256
   A50        1.84636  -0.00006   0.00000   0.02110   0.02029   1.86665
    D1       -0.04727  -0.00118   0.00000  -0.03660  -0.03675  -0.08402
    D2       -2.95284  -0.00158   0.00000  -0.08879  -0.08867  -3.04151
    D3        3.07660  -0.00068   0.00000  -0.03114  -0.03126   3.04535
    D4        0.17103  -0.00108   0.00000  -0.08333  -0.08317   0.08786
    D5       -0.45061   0.00021   0.00000  -0.39296  -0.39299  -0.84360
    D6        1.64931   0.00053   0.00000  -0.41208  -0.41205   1.23726
    D7       -2.60295  -0.00037   0.00000  -0.40231  -0.40237  -3.00531
    D8        2.70907  -0.00037   0.00000  -0.39875  -0.39875   2.31032
    D9       -1.47420  -0.00006   0.00000  -0.41788  -0.41781  -1.89201
   D10        0.55673  -0.00095   0.00000  -0.40810  -0.40813   0.14860
   D11       -2.85284  -0.00114   0.00000  -0.02055  -0.02038  -2.87322
   D12        1.27663   0.00069   0.00000  -0.03017  -0.03053   1.24610
   D13       -0.83900   0.00079   0.00000   0.00170   0.00156  -0.83745
   D14        0.06689  -0.00106   0.00000   0.02615   0.02654   0.09343
   D15       -2.08683   0.00078   0.00000   0.01653   0.01639  -2.07044
   D16        2.08072   0.00087   0.00000   0.04840   0.04848   2.12920
   D17        3.06900  -0.00054   0.00000  -0.00024  -0.00005   3.06894
   D18       -0.07867  -0.00091   0.00000  -0.00821  -0.00802  -0.08670
   D19       -1.06073   0.00279   0.00000   0.03572   0.03567  -1.02507
   D20        2.07478   0.00241   0.00000   0.02775   0.02769   2.10248
   D21        1.04385  -0.00131   0.00000  -0.02206  -0.02219   1.02166
   D22       -2.10382  -0.00169   0.00000  -0.03003  -0.03017  -2.13398
   D23       -2.19201  -0.00159   0.00000  -0.07730  -0.07734  -2.26934
   D24       -0.07208   0.00049   0.00000  -0.07204  -0.07198  -0.14406
   D25        1.96023  -0.00033   0.00000  -0.07341  -0.07346   1.88677
   D26        1.98648  -0.00336   0.00000  -0.12052  -0.12021   1.86626
   D27       -2.17678  -0.00128   0.00000  -0.11526  -0.11485  -2.29164
   D28       -0.14447  -0.00210   0.00000  -0.11664  -0.11634  -0.26081
   D29       -0.09219  -0.00085   0.00000  -0.08530  -0.08565  -0.17785
   D30        2.02773   0.00122   0.00000  -0.08003  -0.08029   1.94744
   D31       -2.22314   0.00041   0.00000  -0.08141  -0.08178  -2.30492
   D32       -0.04418   0.00046   0.00000   0.03618   0.03618  -0.00800
   D33        3.10332   0.00082   0.00000   0.04392   0.04392  -3.13594
   D34       -2.04381   0.00005   0.00000   0.06445   0.06440  -1.97941
   D35        1.06733  -0.00006   0.00000   0.03481   0.03475   1.10208
   D36        2.13550   0.00071   0.00000   0.08022   0.08043   2.21593
   D37       -1.03654   0.00060   0.00000   0.05058   0.05078  -0.98576
   D38        0.10864  -0.00062   0.00000   0.05158   0.05142   0.16006
   D39       -3.06341  -0.00073   0.00000   0.02194   0.02177  -3.04163
   D40        3.11874  -0.00003   0.00000  -0.02566  -0.02593   3.09282
   D41       -0.02280  -0.00046   0.00000  -0.04803  -0.04818  -0.07098
   D42        0.00387   0.00007   0.00000   0.00064   0.00066   0.00453
   D43       -3.13767  -0.00036   0.00000  -0.02173  -0.02159   3.12392
   D44       -3.12170  -0.00007   0.00000   0.02050   0.02013  -3.10157
   D45        0.01448  -0.00027   0.00000   0.00917   0.00903   0.02350
   D46       -0.00330  -0.00014   0.00000  -0.00166  -0.00164  -0.00494
   D47        3.13287  -0.00034   0.00000  -0.01300  -0.01274   3.12013
   D48       -0.00292   0.00004   0.00000   0.00066   0.00061  -0.00231
   D49        3.13863   0.00043   0.00000   0.02129   0.02126  -3.12329
   D50        0.00074  -0.00014   0.00000  -0.00176  -0.00169  -0.00095
   D51        3.13941   0.00012   0.00000   0.00030   0.00031   3.13972
   D52        0.00164   0.00019   0.00000   0.00223   0.00217   0.00381
   D53       -3.13424   0.00041   0.00000   0.01435   0.01439  -3.11986
   D54       -3.13719  -0.00005   0.00000   0.00033   0.00029  -3.13690
   D55        0.01011   0.00017   0.00000   0.01244   0.01250   0.02262
   D56        3.08766  -0.00059   0.00000  -0.03054  -0.03051   3.05715
   D57        1.01403  -0.00005   0.00000  -0.02821  -0.02820   0.98583
   D58       -1.01766   0.00019   0.00000  -0.02143  -0.02142  -1.03908
   D59        0.99448  -0.00065   0.00000  -0.00757  -0.00757   0.98691
   D60       -1.07915  -0.00010   0.00000  -0.00524  -0.00526  -1.08441
   D61       -3.11084   0.00013   0.00000   0.00154   0.00152  -3.10932
   D62       -1.05147  -0.00032   0.00000  -0.01030  -0.01030  -1.06177
   D63       -3.12510   0.00022   0.00000  -0.00798  -0.00799  -3.13309
   D64        1.12639   0.00046   0.00000  -0.00120  -0.00121   1.12519
   D65       -3.02483   0.00059   0.00000   0.03268   0.03292  -2.99191
   D66        1.23254  -0.00105   0.00000  -0.01729  -0.01747   1.21506
   D67       -0.96017   0.00158   0.00000   0.03675   0.03695  -0.92322
   D68       -2.98599  -0.00007   0.00000  -0.01321  -0.01344  -2.99943
   D69        1.12409   0.00027   0.00000   0.02792   0.02812   1.15221
   D70       -0.90172  -0.00138   0.00000  -0.02205  -0.02228  -0.92400
         Item               Value     Threshold  Converged?
 Maximum Force            0.008675     0.000450     NO 
 RMS     Force            0.001767     0.000300     NO 
 Maximum Displacement     1.015865     0.001800     NO 
 RMS     Displacement     0.255142     0.001200     NO 
 Predicted change in Energy=-2.363778D-03
 GradGradGradGradGradGradGradGradGradGradGradGradGradGradGradGradGradGrad

                          Input orientation:                          
 ---------------------------------------------------------------------
 Center     Atomic      Atomic             Coordinates (Angstroms)
 Number     Number       Type             X           Y           Z
 ---------------------------------------------------------------------
      1          8           0        0.542477   -0.968320   -0.808061
      2          6           0        1.338848   -0.190217   -0.284850
      3          7           0        0.926229    0.971476    0.270747
      4          6           0       -0.452552    1.376621    0.171726
      5          6           0       -0.565087    2.847014    0.526879
      6          8           0       -1.797146    3.368039    0.386226
      7          8           0        0.352869    3.512746    0.919051
      8          6           0       -1.416579    0.514877    1.055938
      9          6           0       -2.579226    0.028728    0.273107
     10          6           0       -3.926666    0.285158    0.316853
     11          7           0       -4.578053   -0.392725   -0.689195
     12          6           0       -3.640099   -1.047057   -1.333994
     13          7           0       -2.410605   -0.824745   -0.794468
     14          6           0        2.823186   -0.469015   -0.241932
     15          6           0        3.122889   -1.884561    0.243458
     16          7           0        4.558243   -2.146294    0.159313
     17          1           0        1.577772    1.654966    0.626128
     18          1           0       -0.770561    1.266896   -0.867487
     19          1           0       -2.428919    2.706480    0.066269
     20          1           0       -0.837235   -0.317163    1.452802
     21          1           0       -1.771082    1.090633    1.909715
     22          1           0       -4.460192    0.900123    1.022861
     23          1           0       -3.791318   -1.688124   -2.185915
     24          1           0       -1.505456   -1.176228   -1.085625
     25          1           0        3.209062   -0.359909   -1.258492
     26          1           0        3.337732    0.265961    0.379876
     27          1           0        2.602038   -2.587482   -0.403145
     28          1           0        2.708277   -2.012394    1.253206
     29          1           0        4.759293   -3.120600    0.342802
     30          1           0        5.071738   -1.604772    0.844065
 ---------------------------------------------------------------------
                    Distance matrix (angstroms):
                    1          2          3          4          5
     1  O    0.000000
     2  C    1.230203   0.000000
     3  N    2.252532   1.352210   0.000000
     4  C    2.729253   2.423337   1.440481   0.000000
     5  C    4.191126   3.675411   2.409828   1.516856   0.000000
     6  O    5.069928   4.790197   3.629548   2.412402   1.345072
     7  O    4.806124   4.016649   2.684603   2.402130   1.199851
     8  C    3.084196   3.144399   2.512719   1.566455   2.538465
[...]
 24127,-0.00002026,0.00000341,-0.00013669,0.00001227,0.00004261,-0.0000
 4198,0.00002865,-0.00042229,-0.00123196,0.00031249,0.00023372,0.000092
 71,-0.00013455,0.00012097,0.00009060,0.00001302,0.00008057,0.00002244,
 0.00022943,0.00092692,0.00113045,-0.00054028,-0.00006576,-0.00097572,0
 .00044464,-0.13554832,0.09367816,0.00199116,0.00096443,-0.00236219,-0.
 00055462,-0.00063850,-0.00053527,-0.00004649,0.00022764,-0.00012283,-0
 .00021603,-0.00039112,0.00045323,0.00016222,-0.00027688,-0.00013632,-0
 .00015559,0.00014074,-0.00009172,-0.00000866,0.00014219,0.00005608,0.0
 0017361,0.00066654,0.00032029,0.02382796,-0.00204605,-0.00235930,0.000
 51670,-0.00493759,-0.00390465,-0.00690337,-0.00244911,0.00164097,-0.00
 654427,0.01401731,0.00866288,0.09165048,-0.07327735,-0.08852463,0.0000
 6475,-0.00009287,0.00037407,-0.00003295,0.00005964,0.00008036,0.000095
 08,-0.00003024,-0.00006539,-0.00001730,-0.00002809,-0.00001464,0.00001
 316,0.00015934,0.00014541,0.00007444,-0.00004373,0.00010759,-0.0006691
 6,-0.00004168,-0.00079081,0.00001099,0.00045954,0.00001663,0.00074701,
 -0.00084287,0.00095456,0.00032781,0.00031357,-0.00082732,-0.10451568,0
 .06796150,0.08689885,0.00103075,0.00130080,-0.00393630,-0.01342005,-0.
 00413210,0.03317563,-0.00239073,0.00083963,-0.00171620,-0.00002894,0.0
 0117467,-0.00070658,-0.00030995,-0.00032690,-0.00023094,-0.00015067,0.
 00022372,0.00007114,0.00007712,0.00014507,0.00002790,0.00021550,0.0000
 4086,-0.00005968,0.00000818,0.00000539,0.00002004,0.00001991,-0.000012
 68,-0.00000315,-0.00002363,-0.00001311,-0.00003209,-0.00001638,-0.0000
 0273,-0.00000492,-0.00000705,0.00002044,0.00003911,-0.08427261,-0.0139
 0683,0.09199675,0.00229229,0.00006574,-0.00518008,0.00072570,-0.000234
 77,-0.00051461,-0.00029899,-0.00007701,0.00028784,-0.00018185,0.000143
 68,0.00010008,0.00007037,0.00000669,0.00001483,0.00005122,-0.00002199,
 -0.00001129,-0.00001377,-0.00000336,-0.00000244,0.00000287,-0.00000047
 ,-0.00000165,-0.00000516,-0.00000338,-0.00000020,0.00004881,0.00003208
 ,-0.00002227,0.09004817,-0.00103846,-0.00008514,-0.00040192,0.00331335
 ,-0.00049816,-0.00695094,0.00153621,-0.00081845,0.00079991,-0.00008886
 ,-0.00054317,0.00078270,0.00012896,0.00022091,0.00008402,0.00009058,-0
 .00013018,-0.00003793,-0.00004282,-0.00012026,0.00002472,-0.00010552,-
 0.00002393,0.00003247,-0.00000656,-0.00000167,-0.00002029,-0.00001447,
 0.00000389,-0.00000218,0.00000762,0.00000848,0.00001673,0.00001513,0.0
 0000792,0.00001360,-0.00000407,-0.00000313,-0.00001970,-0.01226486,-0.
 04443792,0.02341744,-0.01201623,-0.00857666,0.03294125,-0.00102690,0.0
 0270477,-0.00155295,0.00008637,0.00049235,-0.00067691,0.00022752,-0.00
 009900,-0.00001102,-0.00004167,0.00000066,-0.00000685,-0.00002368,0.00
 000005,-0.00000605,-0.00000113,0.00000743,-0.00000378,-0.00000188,-0.0
 0000040,0.00000047,-0.00000074,0.00000050,0.00000046,0.00002183,-0.000
 00546,0.00001548,0.01169132,0.05363557,-0.00085600,-0.00005644,0.00000
 536,0.00082536,-0.00226290,0.00209868,0.00040421,0.00057542,0.00039865
 ,0.00011867,0.00008979,-0.00001637,0.00000416,-0.00001051,-0.00002475,
 -0.00002339,0.00001718,0.00001098,-0.00000789,0.00000289,0.00003856,-0
 .00002293,0.00002394,-0.00000225,0.00000673,-0.00002420,-0.00001385,-0
 .00001222,-0.00000204,-0.00000279,-0.00002667,0.00001054,0.00000960,0.
 00003648,0.00000687,0.00001991,-0.00003423,-0.00000171,0.00000596,0.08
 798838,0.02576815,-0.26503265,0.00451876,0.00365166,-0.01113406,-0.000
 25565,-0.00172475,0.00106033,-0.00013347,0.00035595,-0.00025708,0.0000
 6823,-0.00003768,-0.00002737,0.00000624,0.00000150,-0.00000417,0.00000
 730,0.00000476,-0.00004714,-0.00002026,0.00001862,0.00000123,-0.000001
 39,0.00000217,-0.00000089,0.00000017,0.00000170,-0.00000138,0.00009865
 ,0.00001851,-0.00000516,-0.09914561,-0.03047025,0.28809917,-0.00971403
 ,0.00106599,-0.00033202,-0.00956368,-0.02600036,-0.02224479,0.00128245
 ,0.00067240,0.00140169,0.00018224,-0.00006342,0.00019850,-0.00023637,-
 0.00009754,-0.00005050,0.00020909,-0.00005020,0.00001904,0.00022085,0.
 00009068,0.00008519,0.00005795,-0.00003078,0.00005688,0.00008326,-0.00
 011065,-0.00019136,-0.00008653,0.00003248,-0.00001202,-0.00013250,0.00
 009123,0.00007610,0.00021291,0.00004511,0.00014345,-0.00034759,-0.0000
 1937,-0.00004617,-0.10064886,-0.07062408,-0.06788912,0.00263128,0.0050
 6285,0.00454505,0.00126461,-0.00013465,0.00068947,-0.00131345,0.001451
 92,-0.00006797,0.00019132,-0.00016257,0.00000555,-0.00004598,-0.000050
 36,-0.00000875,0.00000001,0.00001660,-0.00009758,-0.00003054,0.0000526
 5,0.00000639,-0.00001304,0.00000223,0.00000561,0.00000007,0.00000087,-
 0.00000073,0.00054916,0.00006955,0.00005805,0.00616988,0.00863680,0.00
 695148,0.10930231,0.00231634,0.00195837,-0.00033998,0.00191851,0.00195
 313,0.00482367,0.00125934,-0.00050749,0.00026891,-0.00038402,0.0003938
 1,0.00034786,-0.00010487,-0.00001086,-0.00002427,0.00001428,0.00001127
 ,0.00000299,0.00001695,0.00000060,0.00003284,-0.00001514,-0.00001107,-
 0.00000224,-0.00001023,0.00000952,0.00000379,-0.00001098,0.00000569,-0
 .00000271,0.00001332,0.00001077,0.00001551,0.00001260,-0.00000357,-0.0
 0000953,0.00004919,0.00000614,-0.00000426,-0.07468687,-0.15632433,-0.1
 0222737,-0.01450537,-0.02285557,-0.02029100,-0.00083470,0.00246646,0.0
 0028767,0.00086648,0.00056012,-0.00016925,0.00010649,0.00000232,0.0000
 5252,-0.00000797,-0.00000084,-0.00000221,-0.00001091,-0.00000394,0.000
 00062,-0.00001122,0.00000632,-0.00000165,-0.00000144,-0.00000026,0.000
 00114,0.00000406,-0.00000126,0.00000325,-0.00003677,-0.00003430,-0.000
 02609,0.00200448,0.00228131,0.00191966,0.07919291,0.17373102,-0.000821
 79,0.00021954,0.00223340,0.00291179,-0.00157088,-0.00363562,0.00057226
 ,0.00054295,0.00039788,-0.00009001,0.00034989,0.00015213,-0.00025854,-
 0.00024742,-0.00007732,0.00007784,0.00006280,0.00002505,0.00018009,0.0
 0016865,0.00002131,0.00003936,-0.00001342,0.00004977,0.00005062,-0.000
 02433,-0.00006628,-0.00002390,0.00001601,-0.00000702,-0.00006000,0.000
 02402,0.00002012,0.00008236,0.00001471,0.00003894,-0.00009126,0.000004
 60,-0.00002131,-0.07198598,-0.10109064,-0.14354772,0.00481607,0.007661
 52,0.00683690,0.00111631,-0.00035434,0.00031573,-0.00028463,0.00038363
 ,0.00062499,0.00005702,-0.00001276,0.00003291,0.00000127,-0.00003391,0
 .00000467,0.00000369,0.00002551,-0.00004214,-0.00001623,0.00001679,0.0
 0000477,-0.00000359,-0.00000031,0.00000337,0.00000213,0.00000084,-0.00
 000016,0.00016812,0.00000041,0.00003724,-0.01413503,-0.01901942,-0.017
 34866,0.07750550,0.11169657,0.15227554,-0.00105720,0.00005844,-0.00021
 307,0.00051931,0.00109473,0.00112546,-0.00004657,-0.00057998,-0.000527
 27,-0.00008581,-0.00001110,-0.00002831,0.00002948,0.00006962,0.0000179
 7,-0.00000560,-0.00002304,-0.00000269,-0.00002624,-0.00005293,-0.00001
 861,-0.00001267,0.00000866,-0.00001040,-0.00001494,0.00003598,0.000042
 17,0.00001667,-0.00000693,0.00000260,0.00004109,-0.00002046,-0.0000138
 4,-0.00006438,-0.00000881,-0.00002908,0.00005838,-0.00002069,0.0000036
 0,0.00359944,0.00325524,0.00429972,-0.09813683,-0.07144368,-0.06954082
 ,-0.02390287,-0.02252914,-0.02186018,0.00021634,-0.00009772,0.00000025
 ,-0.00001128,0.00002611,0.00000885,-0.00000146,0.00001365,-0.00000081,
 0.00000563,0.00000553,0.00003194,0.00000955,-0.00001496,-0.00000084,0.
 00000247,-0.00000040,-0.00000170,-0.00000177,0.00000085,-0.00000236,-0
 .00009623,0.00003832,-0.00001772,0.00026736,-0.00052719,-0.00014711,-0
 .00031243,0.00187966,-0.00055264,0.11769615,0.00035471,0.00259645,0.00
 113475,-0.00296740,-0.00201343,-0.00223616,0.00030131,0.00060356,0.000
 37966,0.00005185,0.00010853,-0.00004338,-0.00011705,-0.00010645,-0.000
 02412,0.00005940,0.00001426,0.00001237,0.00009694,0.00008695,0.0000328
 9,0.00004342,-0.00002957,0.00001805,0.00002931,-0.00003084,-0.00005900
 ,-0.00002289,0.00001297,-0.00000328,-0.00004232,0.00002515,0.00002434,
 0.00007169,0.00000636,0.00003142,-0.00006837,0.00000508,0.00000281,-0.
 01229041,-0.02442670,-0.01936496,-0.07594835,-0.15444521,-0.10533936,0
 .00513904,0.00612332,0.00552607,-0.00025502,0.00026695,0.00012697,0.00
 004300,-0.00003133,0.00001226,-0.00000559,-0.00002119,-0.00000274,0.00
 000671,-0.00000185,-0.00003044,-0.00000770,0.00001676,0.00000005,-0.00
 000364,0.00000078,0.00000218,0.00000371,0.00000164,0.00000016,0.000126
 56,-0.00000478,-0.00000516,-0.00037816,0.00160134,-0.00009520,0.001783
 50,-0.00513474,0.00249648,0.07968094,0.16888369,0.00001686,0.00134134,
 -0.00043379,-0.00113344,-0.00108372,-0.00007102,0.00007469,-0.00002079
 ,0.00018985,-0.00004354,-0.00003093,-0.00002940,-0.00000753,-0.0000002
 9,-0.00000148,0.00002367,-0.00000797,0.00000064,0.00001440,0.00000832,
 0.00001046,-0.00001009,-0.00000157,-0.00000632,0.00000373,-0.00002024,
 -0.00001797,-0.00001063,0.00000408,-0.00000108,-0.00000457,0.00001610,
 0.00000979,0.00002967,0.00000363,0.00000984,-0.00000279,0.00002593,-0.
 00001334,0.00578991,0.00730437,0.00679895,-0.07416346,-0.10800660,-0.1
 5839037,-0.00006136,0.00280691,0.00286410,0.00014600,-0.00001535,-0.00
 001670,0.00000338,-0.00001546,0.00000153,-0.00001039,-0.00000897,-0.00
 000072,-0.00001122,-0.00002448,-0.00001927,-0.00000718,0.00001000,-0.0
 0000103,-0.00000223,-0.00000142,0.00000226,0.00000018,-0.00000434,0.00
 000520,0.00000109,-0.00004752,0.00003014,0.00057878,-0.00030610,0.0011
 2720,-0.00056349,0.00279892,0.00054916,0.08058285,0.11359103,0.1656166
 9,-0.00008535,-0.00012818,0.00025183,0.00089216,-0.00014862,-0.0004175
 8,0.00005638,-0.00004269,-0.00000177,0.00006313,-0.00001822,-0.0000027
 3,0.00005445,-0.00003704,0.00001070,-0.00003808,0.00002399,-0.00000746
 ,-0.00002313,0.00002521,-0.00001385,0.00000070,-0.00001857,-0.00000110
 ,0.00000975,0.00000110,-0.00000351,0.00000524,0.00000163,-0.00000099,-
 0.00002126,-0.00000244,-0.00001015,0.00001088,-0.00000086,0.00000287,-
 0.00002178,0.00000649,0.00000228,0.00323337,0.00043188,-0.00540082,-0.
 07703763,-0.01356942,0.07398695,-0.02969606,-0.00016225,0.03051278,0.0
 0001670,-0.00006224,0.00005131,-0.00000464,-0.00000711,-0.00001413,0.0
 0000892,-0.00000484,0.00000556,0.00000272,0.00002126,-0.00000096,0.000
 00456,-0.00000372,0.00000084,0.00000211,-0.00000150,0.00000124,0.00000
 017,-0.00000063,0.00000025,0.00002455,0.00000007,0.00000752,0.00005966
 ,0.00184983,-0.00050698,-0.00009015,-0.00010657,0.00046791,0.00638326,
 0.00237551,-0.01161102,0.09399893,0.00058991,0.00058738,0.00006884,-0.
 00276557,0.00043705,0.00081517,0.00047842,-0.00016325,-0.00067398,-0.0
 0011171,-0.00008711,0.00004249,0.00000839,0.00002471,0.00002627,0.0000
 2137,-0.00001979,-0.00001060,0.00001197,-0.00000853,-0.00003393,0.0000
 3271,-0.00001390,0.00002229,0.00000421,0.00002768,-0.00000422,0.000008
 45,0.00000543,-0.00000080,0.00000826,-0.00001351,-0.00000965,-0.000024
 58,-0.00000421,-0.00001186,0.00002212,0.00000001,-0.00000144,-0.008388
 88,-0.00794510,0.03119633,-0.01304470,-0.05703038,0.02734853,0.0057246
 2,0.00373427,-0.00659976,-0.00000910,-0.00004311,0.00017279,-0.0000049
 3,-0.00000086,0.00000581,-0.00000941,-0.00000385,0.00000852,0.00003231
 ,0.00001038,0.00002232,0.00001216,-0.00001037,-0.00000402,0.00000121,-
 0.00000157,0.00000076,-0.00000053,-0.00000057,-0.00000071,-0.00003036,
 -0.00000824,0.00000343,0.00145305,-0.00568425,0.00226155,-0.00061563,0
 .00156809,-0.00068305,0.00750559,0.00416392,-0.01923546,0.00978674,0.0
 6032767,-0.00134050,-0.00055935,0.00041428,0.00223843,0.00067706,-0.00
 043054,-0.00083428,0.00033622,0.00038158,0.00011758,0.00006178,-0.0000
 5370,0.00003416,0.00003799,0.00001682,-0.00005826,0.00000665,0.0000141
 4,-0.00006268,-0.00004062,0.00000772,-0.00007733,0.00012904,-0.0000755
 1,-0.00002671,-0.00005463,0.00003284,-0.00002005,-0.00001617,0.0000168
 0,0.00002250,0.00001928,0.00002533,0.00000012,-0.00000215,0.00000272,-
 0.00000851,-0.00004250,0.00001179,0.00180055,0.00222004,-0.00988701,0.
 07249586,0.02885620,-0.25011595,0.00517629,-0.00137183,0.00631495,0.00
 007571,0.00000676,-0.00017071,-0.00002191,0.00001440,0.00001149,0.0000
 1797,0.00003134,-0.00002140,-0.00003879,-0.00000711,0.00000139,-0.0000
 1108,-0.00000441,0.00001253,-0.00000179,0.00000751,-0.00000497,0.00000
 428,0.00000561,-0.00000410,0.00004899,0.00005085,-0.00007169,-0.000377
 15,0.00178513,0.00093123,0.00008792,0.00031873,0.00099480,0.00715074,0
 .00304660,-0.01976144,-0.08760777,-0.03482445,0.26923299,-0.00030058,-
 0.00053027,-0.00002633,0.00127145,0.00223108,-0.00047026,-0.00073393,0
 .00007796,0.00009991,0.00005994,0.00004041,0.00017904,-0.00002177,-0.0
 0008845,-0.00001334,-0.00004435,0.00004769,0.00000185,-0.00000212,0.00
 004120,0.00001629,-0.00003331,0.00004823,-0.00001689,-0.00000324,-0.00
 001029,0.00002587,0.00000408,-0.00000825,-0.00000032,-0.00000816,-0.00
 000737,-0.00000907,-0.00000959,0.00000348,0.00000143,-0.00001381,-0.00
 001801,0.00000832,-0.00738947,-0.00022881,0.00037352,-0.00883001,0.039
 35682,-0.00583972,-0.06375530,0.05448229,-0.02382127,-0.00003228,-0.00
 002973,-0.00010709,-0.00000214,-0.00000135,-0.00000508,0.00001986,0.00
 000652,-0.00000020,0.00000426,0.00000810,-0.00001264,-0.00001470,-0.00
 000263,0.00000820,0.00000058,0.00000218,-0.00000236,-0.00000230,0.0000
 0289,-0.00000396,0.00003492,0.00003775,-0.00000368,0.00005906,-0.00040
 945,-0.00005172,0.00009181,-0.00002622,0.00032592,0.00135339,-0.000493
 74,-0.00070744,0.00034120,0.00014654,0.00070934,0.07377659,0.00023518,
 0.00024843,0.00003420,-0.00061410,-0.00050787,-0.00000016,0.00023058,-
 0.00003658,0.00004535,-0.00005229,-0.00004325,-0.00002010,0.00001480,0
 .00003330,0.00001009,0.00001438,-0.00001915,-0.00000383,-0.00000037,-0
 .00001711,-0.00000863,0.00000450,-0.00000917,0.00000406,-0.00000082,0.
 00000880,0.00000075,0.00000213,0.00000091,-0.00000048,0.00000626,-0.00
 000452,-0.00000212,-0.00000819,-0.00000064,-0.00000347,0.00001365,0.00
 000031,-0.00000153,0.00233298,0.00117451,-0.00026658,-0.00329826,-0.00
 368912,0.00395767,0.07258941,-0.41059207,0.03375686,-0.00000219,0.0000
 1051,0.00000970,0.00000273,0.00000424,0.00000063,-0.00000556,0.0000005
 3,0.00000138,0.00000183,-0.00000058,0.00000701,0.00000516,-0.00000235,
 -0.00000170,0.00000026,-0.00000073,-0.00000002,-0.00000036,0.00000034,
 -0.00000036,-0.00001875,-0.00000390,0.00000155,-0.00009275,0.00014179,
 -0.00017188,-0.00015355,0.00039588,0.00003934,-0.00015613,0.00089724,0
 .00016296,-0.00082302,0.00029781,-0.00050305,-0.07442661,0.43177361,-0
 .00027381,-0.00026834,-0.00024928,0.00054460,0.00099840,0.00060326,-0.
 00062006,0.00009574,0.00000669,0.00010133,0.00008798,0.00008029,0.0000
 4898,-0.00012403,-0.00000843,-0.00009763,0.00007824,-0.00000898,-0.000
 03511,0.00006201,-0.00000080,0.00000037,-0.00000595,0.00000446,0.00001
 374,-0.00000468,0.00000901,0.00001306,-0.00000380,-0.00000487,-0.00003
 857,-0.00001224,-0.00002738,0.00001006,0.00000706,0.00001176,-0.000041
 44,0.00000289,0.00000512,-0.00234669,0.00087611,-0.00031199,0.00679520
 ,-0.00211009,-0.00384308,-0.03482869,0.07689806,-0.02843717,0.00000176
 ,-0.00008117,-0.00003250,-0.00001470,0.00000410,-0.00001136,0.00003013
 ,-0.00000138,0.00001070,-0.00000119,0.00001575,-0.00001110,-0.00000626
 ,-0.00000223,0.00000409,0.00000332,-0.00000184,-0.00000036,-0.00000444
 ,-0.00000006,-0.00000135,0.00005242,0.00002568,0.00002840,-0.00005981,
 -0.00033264,0.00043602,0.00011465,0.00007849,0.00002043,-0.00058240,0.
 00021247,0.00020630,0.00007252,-0.00077662,0.00018832,0.02500443,-0.04
 488111,0.03084574,0.00038685,0.00067432,0.00017726,-0.00090201,-0.0003
 0363,-0.00000121,0.00009058,0.00004126,0.00014074,-0.00004778,0.000020
 46,-0.00001652,-0.00004670,0.00005270,-0.00000270,0.00004502,-0.000031
 13,0.00000665,0.00002272,-0.00003009,0.00001275,-0.00000009,0.00000202
 ,-0.00000816,-0.00000835,-0.00000617,-0.00000438,-0.00001043,0.0000002
 9,0.00000252,0.00001736,0.00000771,0.00001552,0.00000143,0.00000040,0.
 00000059,0.00001820,-0.00000347,-0.00000259,0.00095579,-0.00101264,-0.
 00022748,-0.02124882,-0.02142209,-0.02944035,-0.12971151,-0.07567327,-
 0.12435628,-0.00001807,0.00009010,-0.00004261,0.00001981,-0.00000546,0
 .00000815,-0.00001170,0.00000402,-0.00000700,-0.00000526,-0.00001274,-
 0.00000526,-0.00000171,0.00000662,-0.00000242,-0.00000228,0.00000144,-
 0.00000062,0.00000127,0.00000061,0.00000034,-0.00001055,-0.00001221,-0
 .00001314,-0.00002709,0.00000897,0.00021070,0.00008595,0.00109865,-0.0
 0005467,-0.00642224,0.00243306,0.00108518,0.00184925,-0.00084262,0.000
 50640,0.00417994,0.00419914,0.00614421,0.15080043,-0.00035561,-0.00049
 112,-0.00011804,0.00050932,0.00013718,-0.00010826,-0.00011103,-0.00006
 055,0.00001354,0.00006162,-0.00001839,-0.00000912,0.00010511,0.0000211
 4,0.00002479,-0.00007544,0.00001261,-0.00000531,-0.00007595,-0.0000276
 8,-0.00001364,-0.00000947,0.00002139,-0.00001295,-0.00000251,-0.000011
 27,0.00001383,0.00000352,-0.00000770,0.00000290,-0.00000939,-0.0000047
 6,-0.00000383,0.00000031,0.00000069,0.00000043,-0.00001554,-0.00000921
 ,0.00000785,0.00036364,0.00233737,0.00106172,0.00273441,0.00450440,0.0
 0611591,-0.07603206,-0.14876661,-0.13131769,0.00009055,-0.00003741,-0.
 00002333,-0.00001375,0.00000334,-0.00000354,0.00001592,0.00001318,-0.0
 0000263,-0.00000294,0.00000308,-0.00000685,-0.00000430,0.00000126,0.00
 000179,0.00000164,0.00000286,-0.00000254,-0.00000023,0.00000219,-0.000
 00249,0.00002227,0.00002166,-0.00000557,0.00005865,-0.00007917,0.00012
 668,-0.00015461,-0.00047258,-0.00067379,0.00181985,0.00083113,0.000757
 60,0.00061424,-0.00014579,-0.00018494,-0.02025196,-0.02006120,-0.03083
 679,0.09071374,0.16227993,0.00045901,0.00021799,0.00016916,-0.00053637
 ,0.00009320,0.00016475,0.00008823,0.00000940,-0.00013041,-0.00002457,0
 .00000814,0.00000985,-0.00004406,-0.00003112,-0.00000833,0.00002722,0.
 00000483,-0.00000202,0.00003788,0.00002890,-0.00000635,0.00001036,-0.0
 0001952,0.00001309,0.00000527,0.00001056,-0.00001100,0.00000199,0.0000
 0650,-0.00000181,-0.00000208,0.00000086,-0.00000309,0.00000252,-0.0000
 0287,-0.00000324,0.00000631,0.00001412,-0.00000252,-0.00016657,-0.0002
 8757,-0.00015923,0.00840715,0.00277346,-0.00118040,-0.15832527,-0.1675
 9463,-0.22285063,-0.00004144,-0.00001108,0.00005633,0.00000144,0.00000
 106,-0.00000036,-0.00000657,-0.00001172,0.00000600,0.00000351,0.000002
 56,0.00000832,0.00000701,-0.00000463,-0.00000127,0.00000033,-0.0000026
 8,0.00000249,0.00000087,-0.00000224,0.00000228,-0.00001566,-0.00002189
 ,0.00000522,-0.00017211,-0.00009548,-0.00032432,-0.00044602,0.00044739
 ,0.00010712,0.00028371,0.00055323,0.00134182,0.00022628,0.00087547,0.0
 0198526,0.00433724,0.00783348,0.00048803,0.14587439,0.15520427,0.22032
 527\\0.00000147,-0.00000021,0.00000109,-0.00000095,-0.00000447,-0.0000
 0023,0.00000284,0.00000106,-0.00000271,-0.00000157,-0.00000105,-0.0000
 0181,0.00000095,-0.00000167,-0.00000092,0.00000050,-0.00000038,-0.0000
 0122,-0.00000141,0.00000320,-0.00000035,-0.00000073,-0.00000285,-0.000
 00304,0.00000119,0.00000519,-0.00000247,-0.00000106,-0.00000013,-0.000
 00116,-0.00000087,0.00000277,0.00000371,0.00000310,-0.00000049,0.00000
 137,-0.00000136,-0.00000300,-0.00000040,-0.00000103,0.00000116,0.00000
 065,-0.00000119,-0.00000075,-0.00000261,-0.00000136,-0.00000061,0.0000
 0073,0.00000238,-0.00000125,0.00000373,0.00000055,0.00000213,0.0000008
 9,-0.00000003,-0.00000026,0.00000616,0.00000047,-0.00000040,0.00000186
 ,-0.00000171,0.00000015,-0.00000030,0.00000113,0.00000120,-0.00000120,
 -0.00000013,0.00000081,-0.00000007,-0.00000036,0.00000096,0.00000060,-
 0.00000021,0.00000011,-0.00000119,0.00000006,-0.00000016,-0.00000102,-
 0.00000027,0.00000057,0.00000018,-0.00000057,-0.00000047,0.00000075,-0
 .00000009,-0.00000057,-0.00000054,0.00000026,-0.00000063,-0.00000049\\
 \@


 THERE ONCE WAS A GIRL NAMED IRENE,
 WHO LIVED ON DISTILLED KEROSENE,
      BUT SHE STARTED ABSORBIN'
      A NEW HYDROCARBON,
 AND SINCE THEN HAS NEVER BENZENE.
 Job cpu time:       1 days  0 hours 45 minutes 20.2 seconds.
 File lengths (MBytes):  RWF=   1142 Int=      0 D2E=      0 Chk=     42 Scr=      1
 Normal termination of Gaussian 09 at Sat Jul 24 17:26:11 2021.
