 Entering Gaussian System, Link 0=g09
 Input=opt_freq-conf-118.com
 Output=opt_freq-conf-118.log
 Initial command:
 /aerosol/software/g09/l1.exe "/scratch/nicole/10396/Gau-72829.inp" -scrdir="/scratch/nicole/10396/"
 Entering Link 1 = /aerosol/software/g09/l1.exe PID=     72833.
  
 Copyright (c) 1988,1990,1992,1993,1995,1998,2003,2009,2013,
            Gaussian, Inc.  All Rights Reserved.
  
 This is part of the Gaussian(R) 09 program.  It is based on
 the Gaussian(R) 03 system (copyright 2003, Gaussian, Inc.),
 the Gaussian(R) 98 system (copyright 1998, Gaussian, Inc.),
 the Gaussian(R) 94 system (copyright 1995, Gaussian, Inc.),
 the Gaussian 92(TM) system (copyright 1992, Gaussian, Inc.),
 the Gaussian 90(TM) system (copyright 1990, Gaussian, Inc.),
 the Gaussian 88(TM) system (copyright 1988, Gaussian, Inc.),
 the Gaussian 86(TM) system (copyright 1986, Carnegie Mellon
 University), and the Gaussian 82(TM) system (copyright 1983,
 Carnegie Mellon University). Gaussian is a federally registered
 trademark of Gaussian, Inc.
  
 This software contains proprietary and confidential information,
 including trade secrets, belonging to Gaussian, Inc.
  
 This software is provided under written license and may be
 used, copied, transmitted, or stored only in accord with that
 written license.
  
 The following legend is applicable only to US Government
 contracts under FAR:
  
                    RESTRICTED RIGHTS LEGEND
  
 Use, reproduction and disclosure by the US Government is
 subject to restrictions as set forth in subparagraphs (a)
 and (c) of the Commercial Computer Software - Restricted
 Rights clause in FAR 52.227-19.
  
 Gaussian, Inc.
 340 Quinnipiac St., Bldg. 40, Wallingford CT 06492
  
  
 ---------------------------------------------------------------
 Warning -- This program may not be used in any manner that
 competes with the business of Gaussian, Inc. or will provide
 assistance to any competitor of Gaussian, Inc.  The licensee
 of this program is prohibited from giving any competitor of
 Gaussian, Inc. access to this program.  By using this program,
 the user acknowledges that Gaussian, Inc. is engaged in the
 business of creating and licensing software in the field of
 computational chemistry and represents and warrants to the
 licensee that it is not a competitor of Gaussian, Inc. and that
 it will not use this program in any manner prohibited above.
 ---------------------------------------------------------------
  

 Cite this work as:
 Gaussian 09, Revision D.01,
 M. J. Frisch, G. W. Trucks, H. B. Schlegel, G. E. Scuseria, 
 M. A. Robb, J. R. Cheeseman, G. Scalmani, V. Barone, B. Mennucci, 
 G. A. Petersson, H. Nakatsuji, M. Caricato, X. Li, H. P. Hratchian, 
 A. F. Izmaylov, J. Bloino, G. Zheng, J. L. Sonnenberg, M. Hada, 
 M. Ehara, K. Toyota, R. Fukuda, J. Hasegawa, M. Ishida, T. Nakajima, 
 Y. Honda, O. Kitao, H. Nakai, T. Vreven, J. A. Montgomery, Jr., 
 J. E. Peralta, F. Ogliaro, M. Bearpark, J. J. Heyd, E. Brothers, 
 K. N. Kudin, V. N. Staroverov, T. Keith, R. Kobayashi, J. Normand, 
 K. Raghavachari, A. Rendell, J. C. Burant, S. S. Iyengar, J. Tomasi, 
 M. Cossi, N. Rega, J. M. Millam, M. Klene, J. E. Knox, J. B. Cross, 
 V. Bakken, C. Adamo, J. Jaramillo, R. Gomperts, R. E. Stratmann, 
 O. Yazyev, A. J. Austin, R. Cammi, C. Pomelli, J. W. Ochterski, 
 R. L. Martin, K. Morokuma, V. G. Zakrzewski, G. A. Voth, 
 P. Salvador, J. J. Dannenberg, S. Dapprich, A. D. Daniels, 
 O. Farkas, J. B. Foresman, J. V. Ortiz, J. Cioslowski, 
 and D. J. Fox, Gaussian, Inc., Wallingford CT, 2013.
 
 ******************************************
 Gaussian 09:  ES64L-G09RevD.01 24-Apr-2013
                24-Jul-2021 
 ******************************************
 %mem=2gb
 %nproc=4
 Will use up to    4 processors via shared memory.
 %chk=conf-118.chk
 ----------------------------------------------------------------------
 # B3LYP/6-311++G(2df,2pd) EmpiricalDispersion=GD3BJ opt=calcfc freq=no
 raman nosymm integral(ultrafinegrid)
 ----------------------------------------------------------------------
 1/10=4,14=-1,18=20,19=15,26=4,38=1/1,3;
 2/9=110,12=2,15=1,17=6,18=5,40=1/2;
 3/5=4,6=6,7=1414,11=2,16=1,25=1,30=1,71=2,74=-5,75=-5,124=41,140=1/1,2,3;
 4//1;
 5/5=2,38=5/2;
 8/6=4,10=90,11=11/1;
 11/6=1,8=1,9=11,15=111,16=1,31=1/1,2,10;
 10/6=1,13=1,31=1/2;
 6/7=2,8=2,9=2,10=2,28=1/1;
 7/10=1,18=20,25=1,30=1/1,2,3,16;
 1/10=4,14=-1,18=20,19=15,26=4/3(2);
 2/9=110,15=1/2;
 99//99;
 2/9=110,15=1/2;
 3/5=4,6=6,7=1414,11=2,16=1,25=1,30=1,71=1,74=-5,75=-5,124=41/1,2,3;
 4/5=5,16=3,69=1/1;
 5/5=2,38=5/2;
 7/30=1/1,2,3,16;
 1/14=-1,18=20,19=15,26=4/3(-5);
 2/9=110,15=1/2;
 6/7=2,8=2,9=2,10=2,19=2,28=1/1;
 99/9=1/99;
 ------------------------------------------------------------
 Candidate Structure: Conf:118 OPT and FREQ calc in gas phase
 ------------------------------------------------------------
 Symbolic Z-matrix:
 Charge =  0 Multiplicity = 1
 O                    -1.09191  -1.49774   1.89457 
 C                    -1.1329   -0.84889   0.84816 
 N                     0.0024   -0.36345   0.30113 
 C                     1.31616  -0.70184   0.84222 
 C                     1.64724   0.13858   2.0826 
 O                     0.82949  -0.05171   3.11585 
 O                     2.58036   0.90366   2.13873 
 C                     2.38232  -0.62065  -0.26115 
 C                     2.39816   0.65456  -1.03751 
 C                     2.19552   0.92086  -2.36066 
 N                     2.29483   2.27751  -2.60422 
 C                     2.56319   2.81405  -1.43534 
 N                     2.63864   1.87574  -0.46004 
 C                    -2.41621  -0.54902   0.10388 
 C                    -3.64785  -1.14676   0.78295 
 N                    -4.91229  -0.89688   0.0982 
 H                    -0.03659   0.23313  -0.50776 
 H                     1.26051  -1.73828   1.18222 
 H                     0.12995  -0.69885   2.87109 
 H                     2.19392  -1.44042  -0.95928 
 H                     3.35377  -0.80864   0.20316 
 H                     1.97224   0.21971  -3.15329 
 H                     2.71402   3.8582   -1.22877 
 H                     2.81452   2.00188   0.52833 
 H                    -2.32914  -0.93079  -0.9212 
 H                    -2.52727   0.53913   0.01542 
 H                    -3.51243  -2.2239    0.87785 
 H                    -3.72173  -0.75134   1.79546 
 H                    -5.07644   0.09998   0.0138 
 H                    -4.88239  -1.26779  -0.84492 
 

 GradGradGradGradGradGradGradGradGradGradGradGradGradGradGradGradGradGrad
 Berny optimization.
 Initialization pass.
                           ----------------------------
                           !    Initial Parameters    !
                           ! (Angstroms and Degrees)  !
 --------------------------                            --------------------------
 ! Name  Definition              Value          Derivative Info.                !
 --------------------------------------------------------------------------------
 ! R1    R(1,2)                  1.2319         calculate D2E/DX2 analytically  !
 ! R2    R(2,3)                  1.3505         calculate D2E/DX2 analytically  !
 ! R3    R(2,14)                 1.5135         calculate D2E/DX2 analytically  !
 ! R4    R(3,4)                  1.4606         calculate D2E/DX2 analytically  !
 ! R5    R(3,17)                 1.0058         calculate D2E/DX2 analytically  !
 ! R6    R(4,5)                  1.5344         calculate D2E/DX2 analytically  !
 ! R7    R(4,8)                  1.5365         calculate D2E/DX2 analytically  !
 ! R8    R(4,18)                 1.0922         calculate D2E/DX2 analytically  !
 ! R9    R(5,6)                  1.3314         calculate D2E/DX2 analytically  !
 ! R10   R(5,7)                  1.208          calculate D2E/DX2 analytically  !
 ! R11   R(6,19)                 0.9839         calculate D2E/DX2 analytically  !
 ! R12   R(8,9)                  1.493          calculate D2E/DX2 analytically  !
 ! R13   R(8,20)                 1.0931         calculate D2E/DX2 analytically  !
 ! R14   R(8,21)                 1.093          calculate D2E/DX2 analytically  !
 ! R15   R(9,10)                 1.3648         calculate D2E/DX2 analytically  !
 ! R16   R(9,13)                 1.3721         calculate D2E/DX2 analytically  !
 ! R17   R(10,11)                1.3819         calculate D2E/DX2 analytically  !
 ! R18   R(10,22)                1.0815         calculate D2E/DX2 analytically  !
 ! R19   R(11,12)                1.3138         calculate D2E/DX2 analytically  !
 ! R20   R(12,13)                1.3555         calculate D2E/DX2 analytically  !
 ! R21   R(12,23)                1.075          calculate D2E/DX2 analytically  !
 ! R22   R(13,24)                1.0118         calculate D2E/DX2 analytically  !
 ! R23   R(14,15)                1.5282         calculate D2E/DX2 analytically  !
 ! R24   R(14,25)                1.0973         calculate D2E/DX2 analytically  !
 ! R25   R(14,26)                1.0974         calculate D2E/DX2 analytically  !
 ! R26   R(15,16)                1.4595         calculate D2E/DX2 analytically  !
 ! R27   R(15,27)                1.0898         calculate D2E/DX2 analytically  !
 ! R28   R(15,28)                1.0895         calculate D2E/DX2 analytically  !
 ! R29   R(16,29)                1.0138         calculate D2E/DX2 analytically  !
 ! R30   R(16,30)                1.0139         calculate D2E/DX2 analytically  !
 ! A1    A(1,2,3)              120.3589         calculate D2E/DX2 analytically  !
 ! A2    A(1,2,14)             123.3848         calculate D2E/DX2 analytically  !
 ! A3    A(3,2,14)             116.2562         calculate D2E/DX2 analytically  !
 ! A4    A(2,3,4)              121.5221         calculate D2E/DX2 analytically  !
 ! A5    A(2,3,17)             120.421          calculate D2E/DX2 analytically  !
 ! A6    A(4,3,17)             118.0478         calculate D2E/DX2 analytically  !
 ! A7    A(3,4,5)              111.5098         calculate D2E/DX2 analytically  !
 ! A8    A(3,4,8)              110.2353         calculate D2E/DX2 analytically  !
 ! A9    A(3,4,18)             106.8192         calculate D2E/DX2 analytically  !
 ! A10   A(5,4,8)              113.6936         calculate D2E/DX2 analytically  !
 ! A11   A(5,4,18)             106.2061         calculate D2E/DX2 analytically  !
 ! A12   A(8,4,18)             108.0019         calculate D2E/DX2 analytically  !
 ! A13   A(4,5,6)              114.6171         calculate D2E/DX2 analytically  !
 ! A14   A(4,5,7)              123.4447         calculate D2E/DX2 analytically  !
 ! A15   A(6,5,7)              121.9325         calculate D2E/DX2 analytically  !
 ! A16   A(5,6,19)             109.7335         calculate D2E/DX2 analytically  !
 ! A17   A(4,8,9)              115.2081         calculate D2E/DX2 analytically  !
 ! A18   A(4,8,20)             107.4225         calculate D2E/DX2 analytically  !
 ! A19   A(4,8,21)             107.613          calculate D2E/DX2 analytically  !
 ! A20   A(9,8,20)             108.0754         calculate D2E/DX2 analytically  !
 ! A21   A(9,8,21)             111.0            calculate D2E/DX2 analytically  !
 ! A22   A(20,8,21)            107.1877         calculate D2E/DX2 analytically  !
 ! A23   A(8,9,10)             132.0047         calculate D2E/DX2 analytically  !
 ! A24   A(8,9,13)             122.9011         calculate D2E/DX2 analytically  !
 ! A25   A(10,9,13)            105.0931         calculate D2E/DX2 analytically  !
 ! A26   A(9,10,11)            110.5946         calculate D2E/DX2 analytically  !
 ! A27   A(9,10,22)            127.9267         calculate D2E/DX2 analytically  !
 ! A28   A(11,10,22)           121.474          calculate D2E/DX2 analytically  !
 ! A29   A(10,11,12)           104.9978         calculate D2E/DX2 analytically  !
 ! A30   A(11,12,13)           111.6429         calculate D2E/DX2 analytically  !
 ! A31   A(11,12,23)           126.6024         calculate D2E/DX2 analytically  !
 ! A32   A(13,12,23)           121.7547         calculate D2E/DX2 analytically  !
 ! A33   A(9,13,12)            107.669          calculate D2E/DX2 analytically  !
 ! A34   A(9,13,24)            123.5427         calculate D2E/DX2 analytically  !
 ! A35   A(12,13,24)           128.7737         calculate D2E/DX2 analytically  !
 ! A36   A(2,14,15)            112.7895         calculate D2E/DX2 analytically  !
 ! A37   A(2,14,25)            108.8547         calculate D2E/DX2 analytically  !
 ! A38   A(2,14,26)            108.779          calculate D2E/DX2 analytically  !
 ! A39   A(15,14,25)           110.0579         calculate D2E/DX2 analytically  !
 ! A40   A(15,14,26)           110.0054         calculate D2E/DX2 analytically  !
 ! A41   A(25,14,26)           106.1236         calculate D2E/DX2 analytically  !
 ! A42   A(14,15,16)           115.0106         calculate D2E/DX2 analytically  !
 ! A43   A(14,15,27)           108.9749         calculate D2E/DX2 analytically  !
 ! A44   A(14,15,28)           109.0053         calculate D2E/DX2 analytically  !
 ! A45   A(16,15,27)           108.5268         calculate D2E/DX2 analytically  !
 ! A46   A(16,15,28)           108.3686         calculate D2E/DX2 analytically  !
 ! A47   A(27,15,28)           106.6325         calculate D2E/DX2 analytically  !
 ! A48   A(15,16,29)           110.3457         calculate D2E/DX2 analytically  !
 ! A49   A(15,16,30)           110.3798         calculate D2E/DX2 analytically  !
 ! A50   A(29,16,30)           106.6816         calculate D2E/DX2 analytically  !
 ! D1    D(1,2,3,4)              6.4647         calculate D2E/DX2 analytically  !
 ! D2    D(1,2,3,17)          -174.6497         calculate D2E/DX2 analytically  !
 ! D3    D(14,2,3,4)          -173.4245         calculate D2E/DX2 analytically  !
 ! D4    D(14,2,3,17)            5.4611         calculate D2E/DX2 analytically  !
 ! D5    D(1,2,14,15)           -0.4965         calculate D2E/DX2 analytically  !
 ! D6    D(1,2,14,25)         -122.9478         calculate D2E/DX2 analytically  !
 ! D7    D(1,2,14,26)          121.8338         calculate D2E/DX2 analytically  !
 ! D8    D(3,2,14,15)          179.389          calculate D2E/DX2 analytically  !
 ! D9    D(3,2,14,25)           56.9378         calculate D2E/DX2 analytically  !
 ! D10   D(3,2,14,26)          -58.2807         calculate D2E/DX2 analytically  !
 ! D11   D(2,3,4,5)            -79.7678         calculate D2E/DX2 analytically  !
 ! D12   D(2,3,4,8)            152.9589         calculate D2E/DX2 analytically  !
 ! D13   D(2,3,4,18)            35.86           calculate D2E/DX2 analytically  !
 ! D14   D(17,3,4,5)           101.3211         calculate D2E/DX2 analytically  !
 ! D15   D(17,3,4,8)           -25.9523         calculate D2E/DX2 analytically  !
 ! D16   D(17,3,4,18)         -143.0511         calculate D2E/DX2 analytically  !
 ! D17   D(3,4,5,6)             62.9539         calculate D2E/DX2 analytically  !
 ! D18   D(3,4,5,7)           -117.8971         calculate D2E/DX2 analytically  !
 ! D19   D(8,4,5,6)           -171.6701         calculate D2E/DX2 analytically  !
 ! D20   D(8,4,5,7)              7.4788         calculate D2E/DX2 analytically  !
 ! D21   D(18,4,5,6)           -53.0496         calculate D2E/DX2 analytically  !
 ! D22   D(18,4,5,7)           126.0994         calculate D2E/DX2 analytically  !
 ! D23   D(3,4,8,9)             51.5157         calculate D2E/DX2 analytically  !
 ! D24   D(3,4,8,20)           -68.9577         calculate D2E/DX2 analytically  !
 ! D25   D(3,4,8,21)           175.919          calculate D2E/DX2 analytically  !
 ! D26   D(5,4,8,9)            -74.5362         calculate D2E/DX2 analytically  !
 ! D27   D(5,4,8,20)           164.9904         calculate D2E/DX2 analytically  !
 ! D28   D(5,4,8,21)            49.8671         calculate D2E/DX2 analytically  !
 ! D29   D(18,4,8,9)           167.8781         calculate D2E/DX2 analytically  !
 ! D30   D(18,4,8,20)           47.4047         calculate D2E/DX2 analytically  !
 ! D31   D(18,4,8,21)          -67.7186         calculate D2E/DX2 analytically  !
 ! D32   D(4,5,6,19)            -1.5849         calculate D2E/DX2 analytically  !
 ! D33   D(7,5,6,19)           179.2519         calculate D2E/DX2 analytically  !
 ! D34   D(4,8,9,10)          -118.2744         calculate D2E/DX2 analytically  !
 ! D35   D(4,8,9,13)            61.288          calculate D2E/DX2 analytically  !
 ! D36   D(20,8,9,10)            1.8412         calculate D2E/DX2 analytically  !
 ! D37   D(20,8,9,13)         -178.5964         calculate D2E/DX2 analytically  !
 ! D38   D(21,8,9,10)          119.1149         calculate D2E/DX2 analytically  !
 ! D39   D(21,8,9,13)          -61.3227         calculate D2E/DX2 analytically  !
 ! D40   D(8,9,10,11)          179.0972         calculate D2E/DX2 analytically  !
 ! D41   D(8,9,10,22)           -0.1142         calculate D2E/DX2 analytically  !
 ! D42   D(13,9,10,11)          -0.5223         calculate D2E/DX2 analytically  !
 ! D43   D(13,9,10,22)        -179.7337         calculate D2E/DX2 analytically  !
 ! D44   D(8,9,13,12)         -179.2098         calculate D2E/DX2 analytically  !
 ! D45   D(8,9,13,24)           -0.4902         calculate D2E/DX2 analytically  !
 ! D46   D(10,9,13,12)           0.4534         calculate D2E/DX2 analytically  !
 ! D47   D(10,9,13,24)         179.173          calculate D2E/DX2 analytically  !
 ! D48   D(9,10,11,12)           0.3856         calculate D2E/DX2 analytically  !
 ! D49   D(22,10,11,12)        179.6563         calculate D2E/DX2 analytically  !
 ! D50   D(10,11,12,13)         -0.0869         calculate D2E/DX2 analytically  !
 ! D51   D(10,11,12,23)        179.8016         calculate D2E/DX2 analytically  !
 ! D52   D(11,12,13,9)          -0.2354         calculate D2E/DX2 analytically  !
 ! D53   D(11,12,13,24)       -178.8665         calculate D2E/DX2 analytically  !
 ! D54   D(23,12,13,9)         179.87           calculate D2E/DX2 analytically  !
 ! D55   D(23,12,13,24)          1.2388         calculate D2E/DX2 analytically  !
 ! D56   D(2,14,15,16)        -179.4662         calculate D2E/DX2 analytically  !
 ! D57   D(2,14,15,27)         -57.3806         calculate D2E/DX2 analytically  !
 ! D58   D(2,14,15,28)          58.6314         calculate D2E/DX2 analytically  !
 ! D59   D(25,14,15,16)        -57.6922         calculate D2E/DX2 analytically  !
 ! D60   D(25,14,15,27)         64.3934         calculate D2E/DX2 analytically  !
 ! D61   D(25,14,15,28)       -179.5946         calculate D2E/DX2 analytically  !
 ! D62   D(26,14,15,16)         58.8948         calculate D2E/DX2 analytically  !
 ! D63   D(26,14,15,27)       -179.0196         calculate D2E/DX2 analytically  !
 ! D64   D(26,14,15,28)        -63.0076         calculate D2E/DX2 analytically  !
 ! D65   D(14,15,16,29)        -58.9619         calculate D2E/DX2 analytically  !
 ! D66   D(14,15,16,30)         58.7065         calculate D2E/DX2 analytically  !
 ! D67   D(27,15,16,29)        178.711          calculate D2E/DX2 analytically  !
 ! D68   D(27,15,16,30)        -63.6206         calculate D2E/DX2 analytically  !
 ! D69   D(28,15,16,29)         63.2841         calculate D2E/DX2 analytically  !
 ! D70   D(28,15,16,30)       -179.0475         calculate D2E/DX2 analytically  !
 --------------------------------------------------------------------------------
 Trust Radius=3.00D-01 FncErr=1.00D-07 GrdErr=1.00D-06
 Number of steps in this run=    160 maximum allowed number of steps=    180.
 GradGradGradGradGradGradGradGradGradGradGradGradGradGradGradGradGradGrad

                          Input orientation:                          
 ---------------------------------------------------------------------
 Center     Atomic      Atomic             Coordinates (Angstroms)
 Number     Number       Type             X           Y           Z
 ---------------------------------------------------------------------
      1          8           0       -1.091914   -1.497744    1.894566
      2          6           0       -1.132901   -0.848885    0.848165
      3          7           0        0.002404   -0.363454    0.301131
      4          6           0        1.316159   -0.701839    0.842219
      5          6           0        1.647238    0.138577    2.082596
      6          8           0        0.829491   -0.051707    3.115846
      7          8           0        2.580358    0.903658    2.138729
      8          6           0        2.382319   -0.620651   -0.261154
      9          6           0        2.398160    0.654561   -1.037507
     10          6           0        2.195523    0.920864   -2.360663
     11          7           0        2.294832    2.277508   -2.604224
     12          6           0        2.563187    2.814045   -1.435339
     13          7           0        2.638639    1.875738   -0.460036
     14          6           0       -2.416206   -0.549018    0.103885
     15          6           0       -3.647851   -1.146761    0.782954
     16          7           0       -4.912292   -0.896875    0.098203
     17          1           0       -0.036590    0.233126   -0.507759
     18          1           0        1.260513   -1.738284    1.182224
     19          1           0        0.129951   -0.698845    2.871087
     20          1           0        2.193921   -1.440421   -0.959280
     21          1           0        3.353770   -0.808644    0.203161
     22          1           0        1.972239    0.219708   -3.153286
     23          1           0        2.714018    3.858200   -1.228767
     24          1           0        2.814521    2.001875    0.528325
     25          1           0       -2.329135   -0.930794   -0.921196
     26          1           0       -2.527269    0.539126    0.015416
     27          1           0       -3.512426   -2.223902    0.877853
     28          1           0       -3.721732   -0.751344    1.795461
     29          1           0       -5.076436    0.099980    0.013796
     30          1           0       -4.882394   -1.267793   -0.844918
 ---------------------------------------------------------------------
                    Distance matrix (angstroms):
                    1          2          3          4          5
     1  O    0.000000
     2  C    1.231931   0.000000
     3  N    2.241246   1.350484   0.000000
     4  C    2.745854   2.453478   1.460558   0.000000
     5  C    3.196225   3.198137   2.476112   1.534421   0.000000
     6  O    2.697099   3.103040   2.950234   2.414311   1.331362
     7  O    4.394534   4.304098   3.410013   2.420074   1.207979
     8  C    4.181712   3.693163   2.458924   1.536464   2.570979
     9  C    5.040842   4.276038   2.927106   2.558107   3.250410
    10  C    5.896091   4.950455   3.680271   3.696607   4.544793
    11  N    6.779505   5.782964   4.546536   4.659643   5.192367
    12  C    6.560454   5.682651   4.435024   4.370788   4.513641
    13  N    5.553517   4.833164   3.541622   3.176274   3.235055
    14  C    2.420820   1.513520   2.433724   3.807760   4.571615
    15  C    2.809214   2.533368   3.764318   4.984261   5.601708
    16  N    4.264183   3.853381   4.947723   6.275763   6.930903
    17  H    3.143372   2.052115   1.005849   2.127564   3.090980
    18  H    2.469656   2.575083   2.061387   1.092208   2.117271
    19  H    1.756356   2.389461   2.594885   2.350193   1.903984
    20  H    4.352521   3.832038   2.747952   2.135736   3.470606
    21  H    4.806227   4.532976   3.382225   2.138145   2.709568
    22  H    6.149756   5.176427   4.019120   4.152559   5.246587
    23  H    7.275058   6.424102   5.245551   5.199706   5.093009
    24  H    5.419795   4.879679   3.681630   3.107038   2.692617
    25  H    3.127405   2.137363   2.692960   4.055887   5.096849
    26  H    3.120944   2.136424   2.701024   4.122564   4.675488
    27  H    2.723948   2.748398   4.018446   5.062922   5.801280
    28  H    2.735485   2.758429   4.031460   5.127520   5.449793
    29  H    4.686836   4.141012   5.108028   6.495726   7.034857
    30  H    4.682456   4.135301   5.098286   6.448937   7.292758
                    6          7          8          9         10
     6  O    0.000000
     7  O    2.221040   0.000000
     8  C    3.760200   2.849943   0.000000
     9  C    4.495540   3.191194   1.493030   0.000000
    10  C    5.727486   4.515853   2.611341   1.364816   0.000000
    11  N    6.347572   4.946169   3.727862   2.258149   1.381906
    12  C    5.650799   4.052633   3.634358   2.202017   2.139050
    13  N    4.446908   2.775232   2.517381   1.372069   2.172675
    14  C    4.455758   5.587174   4.812922   5.092101   5.431629
    15  C    5.166055   6.695740   6.142467   6.566055   6.949995
    16  N    6.541296   7.971542   7.308679   7.559068   7.737651
    17  H    3.736542   3.781790   2.576989   2.527103   2.981370
    18  H    2.601772   3.104312   2.142637   3.456465   4.527401
    19  H    0.983896   3.018089   3.858784   4.717371   5.853312
    20  H    4.516287   3.904062   1.093113   2.106367   2.745823
    21  H    3.927936   2.697512   1.092999   2.143226   3.302413
    22  H    6.378210   5.370570   3.039539   2.201597   1.081539
    23  H    6.141212   4.481876   4.594171   3.224849   3.190292
    24  H    3.853934   1.963240   2.772674   2.107235   3.146108
    25  H    5.200713   6.068895   4.767562   4.987404   5.096395
    26  H    4.607558   5.543392   5.052290   5.038038   5.300589
    27  H    5.345960   6.963725   6.214159   6.847567   7.277240
    28  H    4.790254   6.524815   6.442529   6.888784   7.421830
    29  H    6.672758   7.986722   7.498529   7.568512   7.693718
    30  H    7.056355   8.325264   7.316805   7.532530   7.562051
                   11         12         13         14         15
    11  N    0.000000
    12  C    1.313841   0.000000
    13  N    2.208430   1.355481   0.000000
    14  C    6.125110   6.202722   5.634616   0.000000
    15  C    7.649449   7.693231   7.085229   1.528196   0.000000
    16  N    8.326011   8.485604   8.063224   2.520216   1.459499
    17  H    3.743019   3.778941   3.139634   2.578454   4.075688
    18  H    5.615477   5.410388   4.202071   4.011910   4.959975
    19  H    6.597304   6.066823   4.900854   3.763346   4.339668
    20  H    4.066819   4.296914   3.382887   4.814373   6.103107
    21  H    4.304311   4.053835   2.856072   5.776667   7.033718
    22  H    2.154083   3.167199   3.231117   5.518926   6.996187
    23  H    2.136863   1.075026   2.127624   6.893383   8.340865
    24  H    3.187305   2.139805   1.011782   5.835041   7.193121
    25  H    5.874254   6.182474   5.724340   1.097325   2.165589
    26  H    5.756487   5.761310   5.357163   1.097369   2.164955
    27  H    8.130916   8.224649   7.512163   2.146150   1.089760
    28  H    8.045508   7.915193   7.241764   2.146338   1.089488
    29  H    8.119805   8.235896   7.930965   2.739734   2.046172
    30  H    8.196151   8.511562   8.160628   2.738421   2.046635
                   16         17         18         19         20
    16  N    0.000000
    17  H    5.041484   0.000000
    18  H    6.323495   2.902581   0.000000
    19  H    5.757805   3.508976   2.282731   0.000000
    20  H    7.204997   2.824856   2.354997   4.413799   0.000000
    21  H    8.267200   3.617352   2.490888   4.186036   1.759449
    22  H    7.695175   3.321805   4.810087   6.366384   2.760224
    23  H    9.084724   4.607262   6.264678   6.652283   5.330901
    24  H    8.263861   3.511521   4.102599   4.470944   3.800989
    25  H    2.777233   2.604112   4.238158   4.525739   4.551836
    26  H    2.785191   2.563363   4.571141   4.092462   5.211361
    27  H    2.080500   4.476420   4.807225   4.423312   6.045767
    28  H    2.078292   4.455813   5.115943   3.999398   6.561888
    29  H    1.013799   5.068510   6.700847   5.992387   7.495185
    30  H    1.013879   5.084117   6.485828   6.265461   7.079344
                   21         22         23         24         25
    21  H    0.000000
    22  H    3.772515   0.000000
    23  H    4.923326   4.182419   0.000000
    24  H    2.880198   4.176101   2.558010   0.000000
    25  H    5.794352   4.980734   6.961498   6.095806   0.000000
    26  H    6.036419   5.512557   6.327348   5.562143   1.754184
    27  H    7.042927   7.232072   8.955357   7.616404   2.511748
    28  H    7.252685   7.606204   8.474239   7.204752   3.058063
    29  H    8.481146   7.728426   8.738384   8.133212   3.079669
    30  H    8.315269   7.384255   9.172166   8.474611   2.576532
                   26         27         28         29         30
    26  H    0.000000
    27  H    3.057557   0.000000
    28  H    2.502122   1.747638   0.000000
    29  H    2.586716   2.931407   2.394641   0.000000
    30  H    3.090590   2.399770   2.930095   1.626606   0.000000
 Symmetry turned off by external request.
 Stoichiometry    C9H14N4O3
 Framework group  C1[X(C9H14N4O3)]
 Deg. of freedom    84
 Full point group                 C1      NOp   1
 Rotational constants (GHZ):      0.7486288      0.3003188      0.2383304
 Standard basis: 6-311++G(2df,2pd) (5D, 7F)
   754 basis functions,  1084 primitive gaussians,   848 cartesian basis functions
    60 alpha electrons       60 beta electrons
       nuclear repulsion energy      1127.6577624082 Hartrees.
 NAtoms=   30 NActive=   30 NUniq=   30 SFac= 1.00D+00 NAtFMM=   60 NAOKFM=F Big=F
 Integral buffers will be    131072 words long.
 Raffenetti 2 integral format.
 Two-electron integral symmetry is turned off.
 Nuclear repulsion after empirical dispersion term =     1127.6026722542 Hartrees.
 One-electron integrals computed using PRISM.
 NBasis=   754 RedAO= T EigKep=  2.43D-06  NBF=   754
 NBsUse=   754 1.00D-06 EigRej= -1.00D+00 NBFU=   754
 ExpMin= 3.60D-02 ExpMax= 8.59D+03 ExpMxC= 1.30D+03 IAcc=3 IRadAn=         5 AccDes= 0.00D+00
 Harris functional with IExCor=  402 and IRadAn=       5 diagonalized for initial guess.
 HarFok:  IExCor=  402 AccDes= 0.00D+00 IRadAn=         5 IDoV= 1 UseB2=F ITyADJ=14
 ICtDFT=  3500011 ScaDFX=  1.000000  1.000000  1.000000  1.000000
 FoFCou: FMM=F IPFlag=           0 FMFlag=      100000 FMFlg1=           0
         NFxFlg=           0 DoJE=T BraDBF=F KetDBF=T FulRan=T
         wScrn=  0.000000 ICntrl=     500 IOpCl=  0 I1Cent=   200000004 NGrid=           0
         NMat0=    1 NMatS0=      1 NMatT0=    0 NMatD0=    1 NMtDS0=    0 NMtDT0=    0
 Symmetry not used in FoFCou.
 Requested convergence on RMS density matrix=1.00D-08 within 128 cycles.
 Requested convergence on MAX density matrix=1.00D-06.
 Requested convergence on             energy=1.00D-06.
 No special actions if energy rises.
 SCF Done:  E(RB3LYP) =  -796.443523132     A.U. after   14 cycles
            NFock= 14  Conv=0.50D-08     -V/T= 2.0040
 DoSCS=F DFT=T ScalE2(SS,OS)=  1.000000  1.000000
 Range of M.O.s used for correlation:     1   754
 NBasis=   754 NAE=    60 NBE=    60 NFC=     0 NFV=     0
 NROrb=    754 NOA=    60 NOB=    60 NVA=   694 NVB=   694

 **** Warning!!: The largest alpha MO coefficient is  0.11547923D+03

 Symmetrizing basis deriv contribution to polar:
 IMax=3 JMax=2 DiffMx= 0.00D+00
 G2DrvN: will do    31 centers at a time, making    1 passes.
 Calling FoFCou, ICntrl=  3107 FMM=F I1Cent=   0 AccDes= 0.00D+00.
 End of G2Drv F.D. properties file   721 does not exist.
 End of G2Drv F.D. properties file   722 does not exist.
 End of G2Drv F.D. properties file   788 does not exist.
          IDoAtm=111111111111111111111111111111
          Differentiating once with respect to nuclear coordinates.
          There are    93 degrees of freedom in the 1st order CPHF.  IDoFFX=6 NUNeed=     0.
     87 vectors produced by pass  0 Test12= 4.48D-14 1.08D-09 XBig12= 1.71D-01 8.83D-02.
 AX will form    87 AO Fock derivatives at one time.
     87 vectors produced by pass  1 Test12= 4.48D-14 1.08D-09 XBig12= 2.24D-02 2.97D-02.
     87 vectors produced by pass  2 Test12= 4.48D-14 1.08D-09 XBig12= 4.83D-04 1.93D-03.
     87 vectors produced by pass  3 Test12= 4.48D-14 1.08D-09 XBig12= 1.99D-06 1.02D-04.
     87 vectors produced by pass  4 Test12= 4.48D-14 1.08D-09 XBig12= 5.94D-09 6.76D-06.
     83 vectors produced by pass  5 Test12= 4.48D-14 1.08D-09 XBig12= 1.23D-11 2.44D-07.
     46 vectors produced by pass  6 Test12= 4.48D-14 1.08D-09 XBig12= 1.98D-14 1.18D-08.
     11 vectors produced by pass  7 Test12= 4.48D-14 1.08D-09 XBig12= 5.59D-16 1.99D-09.
      8 vectors produced by pass  8 Test12= 4.48D-14 1.08D-09 XBig12= 5.19D-16 2.62D-09.
      8 vectors produced by pass  9 Test12= 4.48D-14 1.08D-09 XBig12= 9.20D-15 8.08D-09.
      5 vectors produced by pass 10 Test12= 4.48D-14 1.08D-09 XBig12= 5.27D-16 3.56D-09.
      5 vectors produced by pass 11 Test12= 4.48D-14 1.08D-09 XBig12= 9.92D-15 8.95D-09.
      5 vectors produced by pass 12 Test12= 4.48D-14 1.08D-09 XBig12= 2.89D-15 5.11D-09.
      5 vectors produced by pass 13 Test12= 4.48D-14 1.08D-09 XBig12= 1.06D-14 8.43D-09.
      5 vectors produced by pass 14 Test12= 4.48D-14 1.08D-09 XBig12= 5.32D-15 7.97D-09.
      5 vectors produced by pass 15 Test12= 4.48D-14 1.08D-09 XBig12= 2.89D-15 4.46D-09.
      5 vectors produced by pass 16 Test12= 4.48D-14 1.08D-09 XBig12= 6.99D-15 6.44D-09.
      5 vectors produced by pass 17 Test12= 4.48D-14 1.08D-09 XBig12= 5.41D-15 6.50D-09.
      2 vectors produced by pass 18 Test12= 4.48D-14 1.08D-09 XBig12= 1.25D-15 3.11D-09.
 InvSVY:  IOpt=1 It=  1 EMax= 4.44D-16
 Solved reduced A of dimension   633 with    93 vectors.
 End of Minotr F.D. properties file   721 does not exist.
 End of Minotr F.D. properties file   722 does not exist.
 End of Minotr F.D. properties file   788 does not exist.

 **********************************************************************

            Population analysis using the SCF density.

 **********************************************************************

 Alpha  occ. eigenvalues --  -19.17786 -19.13476 -19.13331 -14.37867 -14.36737
 Alpha  occ. eigenvalues --  -14.31069 -14.29920 -10.32624 -10.31182 -10.25879
 Alpha  occ. eigenvalues --  -10.22861 -10.21428 -10.21350 -10.21047 -10.20726
 Alpha  occ. eigenvalues --  -10.19138  -1.12658  -1.08481  -1.04555  -1.02608
 Alpha  occ. eigenvalues --   -0.97020  -0.90514  -0.87903  -0.82985  -0.78679
 Alpha  occ. eigenvalues --   -0.75474  -0.69260  -0.66268  -0.63439  -0.62374
 Alpha  occ. eigenvalues --   -0.61690  -0.60332  -0.57424  -0.56088  -0.53288
 Alpha  occ. eigenvalues --   -0.52830  -0.51513  -0.48929  -0.47456  -0.47061
 Alpha  occ. eigenvalues --   -0.46384  -0.46105  -0.45192  -0.44323  -0.43582
 Alpha  occ. eigenvalues --   -0.41970  -0.41839  -0.41468  -0.40428  -0.40223
 Alpha  occ. eigenvalues --   -0.39093  -0.36897  -0.34522  -0.33002  -0.30900
 Alpha  occ. eigenvalues --   -0.29384  -0.28966  -0.27953  -0.26283  -0.24439
 Alpha virt. eigenvalues --   -0.03725  -0.02874  -0.02316  -0.01319  -0.00645
 Alpha virt. eigenvalues --    0.00115   0.00592   0.00706   0.01225   0.01977
 Alpha virt. eigenvalues --    0.02579   0.03123   0.03685   0.03733   0.04469
 Alpha virt. eigenvalues --    0.04856   0.04978   0.05952   0.06097   0.06567
 Alpha virt. eigenvalues --    0.07525   0.07781   0.07990   0.08238   0.09132
 Alpha virt. eigenvalues --    0.09292   0.09848   0.10437   0.10630   0.10999
 Alpha virt. eigenvalues --    0.11070   0.11699   0.11863   0.12179   0.12695
 Alpha virt. eigenvalues --    0.12827   0.12912   0.13522   0.13899   0.14235
 Alpha virt. eigenvalues --    0.14374   0.14835   0.14947   0.15069   0.15330
 Alpha virt. eigenvalues --    0.15685   0.16199   0.16632   0.16711   0.17153
 Alpha virt. eigenvalues --    0.17687   0.17991   0.18367   0.18603   0.19013
 Alpha virt. eigenvalues --    0.19596   0.19841   0.20614   0.20924   0.21340
 Alpha virt. eigenvalues --    0.21662   0.21959   0.22320   0.22511   0.22995
 Alpha virt. eigenvalues --    0.23336   0.23630   0.23999   0.24429   0.24611
 Alpha virt. eigenvalues --    0.25246   0.25805   0.26215   0.26457   0.26972
 Alpha virt. eigenvalues --    0.27612   0.27824   0.28207   0.28393   0.29042
 Alpha virt. eigenvalues --    0.29243   0.29443   0.29598   0.30410   0.30643
 Alpha virt. eigenvalues --    0.30902   0.31050   0.31366   0.32295   0.32599
 Alpha virt. eigenvalues --    0.32654   0.33911   0.33987   0.34282   0.34691
 Alpha virt. eigenvalues --    0.35294   0.35552   0.36752   0.37123   0.38359
 Alpha virt. eigenvalues --    0.39315   0.39541   0.39848   0.40202   0.40710
 Alpha virt. eigenvalues --    0.42537   0.43142   0.44131   0.44468   0.45423
 Alpha virt. eigenvalues --    0.46728   0.47004   0.47755   0.48547   0.49236
 Alpha virt. eigenvalues --    0.49672   0.51014   0.51667   0.52178   0.52902
 Alpha virt. eigenvalues --    0.54277   0.54421   0.55308   0.55593   0.56411
 Alpha virt. eigenvalues --    0.56978   0.57580   0.58332   0.58897   0.59305
 Alpha virt. eigenvalues --    0.59888   0.60166   0.61317   0.61397   0.62044
 Alpha virt. eigenvalues --    0.62420   0.63072   0.63357   0.63736   0.64449
 Alpha virt. eigenvalues --    0.64863   0.65514   0.65753   0.66804   0.67236
 Alpha virt. eigenvalues --    0.67435   0.67486   0.68639   0.69172   0.70016
 Alpha virt. eigenvalues --    0.70318   0.70431   0.71729   0.71864   0.72732
 Alpha virt. eigenvalues --    0.72786   0.74543   0.75173   0.75555   0.76805
 Alpha virt. eigenvalues --    0.77147   0.77439   0.77663   0.79505   0.80668
 Alpha virt. eigenvalues --    0.80838   0.82307   0.82838   0.83535   0.84602
 Alpha virt. eigenvalues --    0.84767   0.85452   0.85895   0.86824   0.87993
 Alpha virt. eigenvalues --    0.88575   0.89359   0.90277   0.90467   0.91911
 Alpha virt. eigenvalues --    0.92367   0.93600   0.94383   0.95272   0.95998
 Alpha virt. eigenvalues --    0.96987   0.97420   0.98203   0.99250   1.00051
 Alpha virt. eigenvalues --    1.00713   1.02267   1.03828   1.04042   1.04903
 Alpha virt. eigenvalues --    1.06235   1.07184   1.07396   1.08206   1.08667
 Alpha virt. eigenvalues --    1.09374   1.10214   1.11669   1.12399   1.12715
 Alpha virt. eigenvalues --    1.13721   1.13836   1.14922   1.15478   1.16020
 Alpha virt. eigenvalues --    1.16476   1.16877   1.17705   1.19003   1.19341
 Alpha virt. eigenvalues --    1.19759   1.20444   1.21081   1.21149   1.21842
 Alpha virt. eigenvalues --    1.22891   1.24183   1.24753   1.25549   1.26003
 Alpha virt. eigenvalues --    1.26703   1.27437   1.28402   1.29984   1.30068
 Alpha virt. eigenvalues --    1.31527   1.31946   1.32300   1.33966   1.34304
 Alpha virt. eigenvalues --    1.35146   1.36150   1.37475   1.37843   1.38407
 Alpha virt. eigenvalues --    1.39404   1.40955   1.42456   1.42697   1.43505
 Alpha virt. eigenvalues --    1.44856   1.45261   1.45768   1.47202   1.47631
 Alpha virt. eigenvalues --    1.47835   1.49511   1.50024   1.51322   1.51715
 Alpha virt. eigenvalues --    1.52749   1.53390   1.54365   1.54679   1.55251
 Alpha virt. eigenvalues --    1.56159   1.56472   1.57237   1.57478   1.61102
 Alpha virt. eigenvalues --    1.61451   1.63124   1.63743   1.64755   1.65786
 Alpha virt. eigenvalues --    1.66635   1.67448   1.68919   1.69787   1.70355
 Alpha virt. eigenvalues --    1.70680   1.72035   1.75767   1.77060   1.77435
 Alpha virt. eigenvalues --    1.79062   1.81620   1.82011   1.83072   1.83910
 Alpha virt. eigenvalues --    1.84909   1.87496   1.88372   1.89238   1.91584
 Alpha virt. eigenvalues --    1.93676   1.94898   1.96596   1.99928   2.00917
 Alpha virt. eigenvalues --    2.04258   2.05073   2.07877   2.09259   2.10304
 Alpha virt. eigenvalues --    2.13302   2.15999   2.21225   2.26098   2.27551
 Alpha virt. eigenvalues --    2.31121   2.34642   2.36417   2.43063   2.44421
 Alpha virt. eigenvalues --    2.46441   2.48188   2.51069   2.52986   2.55663
 Alpha virt. eigenvalues --    2.56620   2.58974   2.60463   2.62306   2.62964
 Alpha virt. eigenvalues --    2.64198   2.66365   2.67455   2.68739   2.69257
 Alpha virt. eigenvalues --    2.70930   2.71668   2.72485   2.73164   2.73546
 Alpha virt. eigenvalues --    2.73914   2.74847   2.75917   2.78485   2.79546
 Alpha virt. eigenvalues --    2.80180   2.80907   2.82637   2.83526   2.84517
 Alpha virt. eigenvalues --    2.84817   2.86157   2.87785   2.88832   2.89264
 Alpha virt. eigenvalues --    2.89680   2.91400   2.92368   2.93332   2.93588
 Alpha virt. eigenvalues --    2.94192   2.95449   2.95835   2.96498   2.97918
 Alpha virt. eigenvalues --    2.98663   3.00132   3.01005   3.01657   3.02074
 Alpha virt. eigenvalues --    3.02652   3.03887   3.04013   3.04924   3.05830
 Alpha virt. eigenvalues --    3.07218   3.07857   3.08545   3.08685   3.09525
 Alpha virt. eigenvalues --    3.09976   3.10784   3.11246   3.11609   3.11836
 Alpha virt. eigenvalues --    3.13622   3.15038   3.15415   3.16151   3.16882
 Alpha virt. eigenvalues --    3.17795   3.18996   3.19639   3.20249   3.20700
 Alpha virt. eigenvalues --    3.21563   3.22329   3.23771   3.24477   3.25604
 Alpha virt. eigenvalues --    3.25880   3.26313   3.27472   3.28317   3.29048
 Alpha virt. eigenvalues --    3.29936   3.31395   3.32076   3.32624   3.33370
 Alpha virt. eigenvalues --    3.34065   3.34552   3.35257   3.35483   3.36415
 Alpha virt. eigenvalues --    3.37711   3.37822   3.38324   3.38590   3.40413
 Alpha virt. eigenvalues --    3.41079   3.41726   3.42723   3.43183   3.44665
 Alpha virt. eigenvalues --    3.44836   3.45957   3.46095   3.46529   3.47055
 Alpha virt. eigenvalues --    3.48307   3.49128   3.49889   3.50960   3.52451
 Alpha virt. eigenvalues --    3.52797   3.54235   3.55107   3.56037   3.56546
 Alpha virt. eigenvalues --    3.57255   3.57883   3.58659   3.59255   3.59788
 Alpha virt. eigenvalues --    3.60143   3.62562   3.62790   3.63802   3.64345
 Alpha virt. eigenvalues --    3.65445   3.65792   3.67718   3.68605   3.69188
 Alpha virt. eigenvalues --    3.69396   3.70531   3.71084   3.71579   3.72192
 Alpha virt. eigenvalues --    3.73778   3.74872   3.75079   3.75795   3.76351
 Alpha virt. eigenvalues --    3.77275   3.78795   3.78981   3.80346   3.81678
 Alpha virt. eigenvalues --    3.82128   3.82969   3.84458   3.85074   3.86282
 Alpha virt. eigenvalues --    3.88499   3.88595   3.89343   3.90156   3.90477
 Alpha virt. eigenvalues --    3.91046   3.92874   3.93245   3.93776   3.94234
 Alpha virt. eigenvalues --    3.94454   3.95778   3.96889   3.97451   3.97927
 Alpha virt. eigenvalues --    3.98298   4.00256   4.01189   4.01409   4.02070
 Alpha virt. eigenvalues --    4.02583   4.04673   4.05359   4.06061   4.06847
 Alpha virt. eigenvalues --    4.08016   4.08834   4.09238   4.10684   4.11438
 Alpha virt. eigenvalues --    4.11847   4.12802   4.13961   4.15331   4.17191
 Alpha virt. eigenvalues --    4.18032   4.19855   4.21235   4.22652   4.23257
 Alpha virt. eigenvalues --    4.24369   4.25212   4.27069   4.27798   4.29530
 Alpha virt. eigenvalues --    4.29606   4.31213   4.31916   4.32506   4.33478
 Alpha virt. eigenvalues --    4.34398   4.35615   4.36464   4.38284   4.38700
 Alpha virt. eigenvalues --    4.40555   4.41006   4.42900   4.46470   4.47087
 Alpha virt. eigenvalues --    4.48009   4.48161   4.50481   4.52828   4.53799
 Alpha virt. eigenvalues --    4.55573   4.56713   4.58343   4.60117   4.60513
 Alpha virt. eigenvalues --    4.62642   4.64066   4.65133   4.68603   4.69807
 Alpha virt. eigenvalues --    4.72438   4.72943   4.74420   4.75396   4.77570
 Alpha virt. eigenvalues --    4.78923   4.80959   4.81329   4.82872   4.85147
 Alpha virt. eigenvalues --    4.85499   4.86203   4.87050   4.89399   4.90226
 Alpha virt. eigenvalues --    4.93791   4.94467   4.95930   4.96872   4.98383
 Alpha virt. eigenvalues --    4.98981   4.99814   5.01507   5.03345   5.03944
 Alpha virt. eigenvalues --    5.04350   5.05383   5.06177   5.07690   5.08164
 Alpha virt. eigenvalues --    5.08787   5.09808   5.10507   5.11296   5.12249
 Alpha virt. eigenvalues --    5.12961   5.13480   5.15259   5.15597   5.16289
 Alpha virt. eigenvalues --    5.17665   5.18277   5.20104   5.20537   5.21152
 Alpha virt. eigenvalues --    5.22150   5.22791   5.23791   5.24926   5.25968
 Alpha virt. eigenvalues --    5.26616   5.27124   5.28490   5.28855   5.31633
 Alpha virt. eigenvalues --    5.31914   5.33961   5.34444   5.35490   5.37337
 Alpha virt. eigenvalues --    5.39218   5.41484   5.44007   5.46369   5.48490
 Alpha virt. eigenvalues --    5.49198   5.49899   5.52636   5.53316   5.55460
 Alpha virt. eigenvalues --    5.57127   5.58038   5.58283   5.59806   5.62688
 Alpha virt. eigenvalues --    5.65454   5.67600   5.68724   5.70891   5.72570
 Alpha virt. eigenvalues --    5.73509   5.79642   5.80170   5.82006   5.84379
 Alpha virt. eigenvalues --    5.85356   5.85441   5.86958   5.90583   5.91106
 Alpha virt. eigenvalues --    5.95478   5.98291   6.01762   6.04803   6.06927
 Alpha virt. eigenvalues --    6.07186   6.10167   6.17175   6.19955   6.23092
 Alpha virt. eigenvalues --    6.27007   6.27484   6.32721   6.33727   6.38106
 Alpha virt. eigenvalues --    6.40348   6.42872   6.44146   6.47325   6.48256
 Alpha virt. eigenvalues --    6.51458   6.56179   6.57320   6.68960   6.74720
 Alpha virt. eigenvalues --    6.85131   6.94007   6.97508   6.98904   7.00677
 Alpha virt. eigenvalues --    7.03669   7.08471   7.13053   7.18271   7.21737
 Alpha virt. eigenvalues --    7.24816   7.25759   7.27358   7.31632   7.34543
 Alpha virt. eigenvalues --    7.45052   7.50587   7.54534   7.66514   7.72244
 Alpha virt. eigenvalues --    7.74141   7.80343   8.09521  24.54616  24.74417
 Alpha virt. eigenvalues --   24.83580  24.88351  25.04770  25.08002  25.10243
 Alpha virt. eigenvalues --   25.13984  25.14692  35.98456  36.25846  36.30765
 Alpha virt. eigenvalues --   36.47559  50.19496  50.21333  50.28972
          Condensed to atoms (all electrons):
               1          2          3          4          5          6
     1  O    8.155167   0.180961  -0.040650  -0.014330  -0.033339  -0.041258
     2  C    0.180961   9.085927  -0.021587  -0.902227   0.048670   0.036744
     3  N   -0.040650  -0.021587   6.505032   0.216969  -0.027467   0.015746
     4  C   -0.014330  -0.902227   0.216969   7.893695  -0.438783  -0.123326
     5  C   -0.033339   0.048670  -0.027467  -0.438783   5.772958   0.392707
     6  O   -0.041258   0.036744   0.015746  -0.123326   0.392707   7.783277
     7  O    0.001887  -0.019352  -0.007766   0.098497   0.272748  -0.063284
     8  C    0.033865  -0.275387   0.036957  -0.497536  -0.210730   0.011426
     9  C    0.005582  -0.131858  -0.118487  -0.500497   0.176631  -0.027364
    10  C   -0.002454   0.147713   0.008495   0.059072   0.069671   0.001930
    11  N    0.000039  -0.002877  -0.002519   0.019847  -0.004219   0.000038
    12  C    0.000062  -0.000410   0.008162  -0.059609   0.018624   0.000272
    13  N    0.000725   0.004340   0.006501  -0.039155   0.040361   0.000125
    14  C    0.220491  -2.070399   0.052635  -0.313501  -0.000237   0.001549
    15  C   -0.102532   0.257168  -0.068111  -0.169610  -0.003823   0.003903
    16  N    0.001216  -0.016827   0.004202   0.008053  -0.000111  -0.000077
    17  H    0.010958  -0.029084   0.361508  -0.033033   0.007413  -0.005295
    18  H   -0.005836   0.022703  -0.037767   0.501720  -0.122021   0.001000
    19  H    0.061472  -0.003311  -0.000206   0.032641  -0.053321   0.209655
    20  H    0.000501  -0.008917  -0.007865  -0.010027  -0.003427   0.000704
    21  H    0.001123  -0.002640   0.002174  -0.009131  -0.041475  -0.002415
    22  H   -0.000133   0.005958   0.000390  -0.007457   0.004564  -0.000073
    23  H    0.000015   0.000203   0.001251  -0.009456   0.004525  -0.000096
    24  H    0.000240  -0.012586  -0.004965   0.018316   0.002913   0.001152
    25  H    0.003219  -0.124976   0.023609   0.029346   0.001318  -0.000947
    26  H    0.001484  -0.139348   0.010623   0.005171  -0.001294   0.001780
    27  H   -0.000488   0.012471   0.000654  -0.003657   0.000553   0.000361
    28  H   -0.001284   0.033651   0.002747   0.013171   0.001565  -0.001130
    29  H    0.000373   0.006497  -0.000367   0.000031   0.000094  -0.000021
    30  H    0.000092   0.007164  -0.000533  -0.000249   0.000102   0.000012
               7          8          9         10         11         12
     1  O    0.001887   0.033865   0.005582  -0.002454   0.000039   0.000062
     2  C   -0.019352  -0.275387  -0.131858   0.147713  -0.002877  -0.000410
     3  N   -0.007766   0.036957  -0.118487   0.008495  -0.002519   0.008162
     4  C    0.098497  -0.497536  -0.500497   0.059072   0.019847  -0.059609
     5  C    0.272748  -0.210730   0.176631   0.069671  -0.004219   0.018624
     6  O   -0.063284   0.011426  -0.027364   0.001930   0.000038   0.000272
     7  O    8.110545   0.062598  -0.041777  -0.016394   0.000203   0.007055
     8  C    0.062598   8.598324  -1.528368  -0.272987  -0.080666   0.018753
     9  C   -0.041777  -1.528368   8.454897  -0.475329   0.012200  -0.165196
    10  C   -0.016394  -0.272987  -0.475329   6.474600   0.296531  -0.293090
    11  N    0.000203  -0.080666   0.012200   0.296531   6.882845   0.260712
    12  C    0.007055   0.018753  -0.165196  -0.293090   0.260712   5.352991
    13  N   -0.029540  -0.327584   0.347310  -0.138967   0.045782   0.335272
    14  C   -0.003256  -0.036694   0.019088   0.024803  -0.002518  -0.013187
    15  C    0.000458   0.008923  -0.009837   0.013323  -0.001004   0.000164
    16  N    0.000001   0.001330   0.000384  -0.000951   0.000022   0.000026
    17  H   -0.013318  -0.042737   0.062408  -0.098899   0.012152   0.014131
    18  H    0.004064   0.022891  -0.125100   0.006209  -0.000603  -0.004621
    19  H    0.010094   0.027651   0.015185  -0.001921   0.000008   0.001146
    20  H    0.004087   0.351029  -0.014626   0.004067  -0.001068   0.008555
    21  H   -0.006560   0.464189  -0.085828  -0.016125   0.000329  -0.011691
    22  H   -0.000682  -0.051302  -0.130663   0.540050  -0.092134   0.027087
    23  H    0.000599   0.012073   0.040500   0.009159  -0.081714   0.446954
    24  H    0.005837  -0.056611  -0.034876   0.042879   0.005429  -0.054651
    25  H    0.000199   0.014677   0.007868  -0.006346  -0.000115   0.000347
    26  H   -0.000417  -0.002524  -0.004349   0.007458  -0.000688  -0.002515
    27  H   -0.000020  -0.002301  -0.001160   0.000315  -0.000009  -0.000051
    28  H   -0.000004   0.002009   0.001174  -0.000632   0.000023   0.000124
    29  H   -0.000001  -0.000106   0.000029  -0.000128   0.000008   0.000009
    30  H   -0.000002  -0.000076  -0.000015  -0.000028   0.000006   0.000009
              13         14         15         16         17         18
     1  O    0.000725   0.220491  -0.102532   0.001216   0.010958  -0.005836
     2  C    0.004340  -2.070399   0.257168  -0.016827  -0.029084   0.022703
     3  N    0.006501   0.052635  -0.068111   0.004202   0.361508  -0.037767
     4  C   -0.039155  -0.313501  -0.169610   0.008053  -0.033033   0.501720
     5  C    0.040361  -0.000237  -0.003823  -0.000111   0.007413  -0.122021
     6  O    0.000125   0.001549   0.003903  -0.000077  -0.005295   0.001000
     7  O   -0.029540  -0.003256   0.000458   0.000001  -0.013318   0.004064
     8  C   -0.327584  -0.036694   0.008923   0.001330  -0.042737   0.022891
     9  C    0.347310   0.019088  -0.009837   0.000384   0.062408  -0.125100
    10  C   -0.138967   0.024803   0.013323  -0.000951  -0.098899   0.006209
    11  N    0.045782  -0.002518  -0.001004   0.000022   0.012152  -0.000603
    12  C    0.335272  -0.013187   0.000164   0.000026   0.014131  -0.004621
    13  N    6.381881  -0.022233  -0.002030   0.000032   0.053928  -0.000812
    14  C   -0.022233   7.526268  -0.529480  -0.045800   0.021212   0.002706
    15  C   -0.002030  -0.529480   6.387228   0.276234  -0.136445   0.001806
    16  N    0.000032  -0.045800   0.276234   6.267014   0.008946  -0.000176
    17  H    0.053928   0.021212  -0.136445   0.008946   0.672486  -0.001306
    18  H   -0.000812   0.002706   0.001806  -0.000176  -0.001306   0.634959
    19  H    0.000462  -0.039794   0.004170  -0.000098   0.002683  -0.011747
    20  H    0.006381   0.001404  -0.001599   0.000220  -0.003311  -0.016240
    21  H   -0.004631   0.008498   0.000963  -0.000025  -0.001381   0.004855
    22  H    0.020359  -0.000921   0.000970  -0.000109  -0.005526   0.000203
    23  H   -0.081778  -0.000380   0.000073   0.000001  -0.001813  -0.000322
    24  H    0.413514   0.002356  -0.000910   0.000030  -0.001561  -0.000479
    25  H   -0.000404   0.420242  -0.052914   0.003343  -0.003903  -0.000933
    26  H   -0.003336   0.455609   0.014237  -0.004132  -0.017197   0.000997
    27  H   -0.000059   0.017223   0.328489  -0.046294   0.002306   0.000477
    28  H    0.000177  -0.006748   0.288391  -0.043493   0.005718  -0.000549
    29  H    0.000007   0.048738  -0.109258   0.373839   0.002266  -0.000020
    30  H    0.000005   0.046232  -0.108666   0.374986   0.002117  -0.000027
              19         20         21         22         23         24
     1  O    0.061472   0.000501   0.001123  -0.000133   0.000015   0.000240
     2  C   -0.003311  -0.008917  -0.002640   0.005958   0.000203  -0.012586
     3  N   -0.000206  -0.007865   0.002174   0.000390   0.001251  -0.004965
     4  C    0.032641  -0.010027  -0.009131  -0.007457  -0.009456   0.018316
     5  C   -0.053321  -0.003427  -0.041475   0.004564   0.004525   0.002913
     6  O    0.209655   0.000704  -0.002415  -0.000073  -0.000096   0.001152
     7  O    0.010094   0.004087  -0.006560  -0.000682   0.000599   0.005837
     8  C    0.027651   0.351029   0.464189  -0.051302   0.012073  -0.056611
     9  C    0.015185  -0.014626  -0.085828  -0.130663   0.040500  -0.034876
    10  C   -0.001921   0.004067  -0.016125   0.540050   0.009159   0.042879
    11  N    0.000008  -0.001068   0.000329  -0.092134  -0.081714   0.005429
    12  C    0.001146   0.008555  -0.011691   0.027087   0.446954  -0.054651
    13  N    0.000462   0.006381  -0.004631   0.020359  -0.081778   0.413514
    14  C   -0.039794   0.001404   0.008498  -0.000921  -0.000380   0.002356
    15  C    0.004170  -0.001599   0.000963   0.000970   0.000073  -0.000910
    16  N   -0.000098   0.000220  -0.000025  -0.000109   0.000001   0.000030
    17  H    0.002683  -0.003311  -0.001381  -0.005526  -0.001813  -0.001561
    18  H   -0.011747  -0.016240   0.004855   0.000203  -0.000322  -0.000479
    19  H    0.516719   0.000453  -0.002005  -0.000015   0.000134  -0.000903
    20  H    0.000453   0.674390  -0.052722   0.001191   0.000312  -0.001452
    21  H   -0.002005  -0.052722   0.671595   0.001849  -0.001041   0.003981
    22  H   -0.000015   0.001191   0.001849   0.617834   0.000445   0.002188
    23  H    0.000134   0.000312  -0.001041   0.000445   0.571878  -0.007526
    24  H   -0.000903  -0.001452   0.003981   0.002188  -0.007526   0.470226
    25  H   -0.000716  -0.000397   0.000242  -0.000461   0.000083   0.000143
    26  H    0.000668   0.000216   0.000085   0.000267  -0.000049  -0.000114
    27  H    0.000108   0.000090  -0.000071   0.000026  -0.000003  -0.000027
    28  H   -0.001797   0.000034  -0.000017  -0.000041   0.000007   0.000047
    29  H   -0.000019   0.000012  -0.000003  -0.000010   0.000000   0.000002
    30  H   -0.000077   0.000021  -0.000004  -0.000019   0.000000   0.000001
              25         26         27         28         29         30
     1  O    0.003219   0.001484  -0.000488  -0.001284   0.000373   0.000092
     2  C   -0.124976  -0.139348   0.012471   0.033651   0.006497   0.007164
     3  N    0.023609   0.010623   0.000654   0.002747  -0.000367  -0.000533
     4  C    0.029346   0.005171  -0.003657   0.013171   0.000031  -0.000249
     5  C    0.001318  -0.001294   0.000553   0.001565   0.000094   0.000102
     6  O   -0.000947   0.001780   0.000361  -0.001130  -0.000021   0.000012
     7  O    0.000199  -0.000417  -0.000020  -0.000004  -0.000001  -0.000002
     8  C    0.014677  -0.002524  -0.002301   0.002009  -0.000106  -0.000076
     9  C    0.007868  -0.004349  -0.001160   0.001174   0.000029  -0.000015
    10  C   -0.006346   0.007458   0.000315  -0.000632  -0.000128  -0.000028
    11  N   -0.000115  -0.000688  -0.000009   0.000023   0.000008   0.000006
    12  C    0.000347  -0.002515  -0.000051   0.000124   0.000009   0.000009
    13  N   -0.000404  -0.003336  -0.000059   0.000177   0.000007   0.000005
    14  C    0.420242   0.455609   0.017223  -0.006748   0.048738   0.046232
    15  C   -0.052914   0.014237   0.328489   0.288391  -0.109258  -0.108666
    16  N    0.003343  -0.004132  -0.046294  -0.043493   0.373839   0.374986
    17  H   -0.003903  -0.017197   0.002306   0.005718   0.002266   0.002117
    18  H   -0.000933   0.000997   0.000477  -0.000549  -0.000020  -0.000027
    19  H   -0.000716   0.000668   0.000108  -0.001797  -0.000019  -0.000077
    20  H   -0.000397   0.000216   0.000090   0.000034   0.000012   0.000021
    21  H    0.000242   0.000085  -0.000071  -0.000017  -0.000003  -0.000004
    22  H   -0.000461   0.000267   0.000026  -0.000041  -0.000010  -0.000019
    23  H    0.000083  -0.000049  -0.000003   0.000007   0.000000   0.000000
    24  H    0.000143  -0.000114  -0.000027   0.000047   0.000002   0.000001
    25  H    0.725944  -0.076081  -0.026426   0.019888  -0.008641   0.007574
    26  H   -0.076081   0.729721   0.017835  -0.027194   0.005774  -0.009199
    27  H   -0.026426   0.017835   0.665823  -0.038506   0.014657  -0.012547
    28  H    0.019888  -0.027194  -0.038506   0.669019  -0.011538   0.015280
    29  H   -0.008641   0.005774   0.014657  -0.011538   0.619387  -0.050132
    30  H    0.007574  -0.009199  -0.012547   0.015280  -0.050132   0.621252
 Mulliken charges:
               1
     1  O   -0.437169
     2  C   -0.088384
     3  N    0.080635
     4  C    0.235055
     5  C    0.124829
     6  O   -0.197099
     7  O   -0.376501
     8  C   -0.281085
     9  C    0.252076
    10  C   -0.382023
    11  N   -0.266037
    12  C    0.104563
    13  N   -0.006635
    14  C    0.216094
    15  C   -0.290281
    16  N   -0.161786
    17  H    0.154578
    18  H    0.123967
    19  H    0.232681
    20  H    0.067985
    21  H    0.077883
    22  H    0.066167
    23  H    0.095964
    24  H    0.207408
    25  H    0.045218
    26  H    0.036512
    27  H    0.070232
    28  H    0.079910
    29  H    0.108520
    30  H    0.106720
 Sum of Mulliken charges =   0.00000
 Mulliken charges with hydrogens summed into heavy atoms:
               1
     1  O   -0.437169
     2  C   -0.088384
     3  N    0.235214
     4  C    0.359022
     5  C    0.124829
     6  O    0.035583
     7  O   -0.376501
     8  C   -0.135217
     9  C    0.252076
    10  C   -0.315856
    11  N   -0.266037
    12  C    0.200527
    13  N    0.200772
    14  C    0.297825
    15  C   -0.140140
    16  N    0.053455
 APT charges:
               1
     1  O   -0.401130
     2  C   -0.008273
     3  N   -0.227373
     4  C   -0.180844
     5  C    0.024048
     6  O   -0.258819
     7  O   -0.163947
     8  C   -1.128053
     9  C    0.199331
    10  C   -0.415835
    11  N   -0.498811
    12  C   -0.279534
    13  N   -0.310568
    14  C   -0.026161
    15  C   -0.715073
    16  N   -0.759244
    17  H    0.287980
    18  H    0.404995
    19  H    0.351266
    20  H    0.286654
    21  H    0.516809
    22  H    0.364963
    23  H    0.753821
    24  H    0.419820
    25  H    0.201367
    26  H    0.176316
    27  H    0.353694
    28  H    0.335479
    29  H    0.335530
    30  H    0.361590
 Sum of APT charges =   0.00000
 APT charges with hydrogens summed into heavy atoms:
               1
     1  O   -0.401130
     2  C   -0.008273
     3  N    0.060607
     4  C    0.224151
     5  C    0.024048
     6  O    0.092447
     7  O   -0.163947
     8  C   -0.324589
     9  C    0.199331
    10  C   -0.050872
    11  N   -0.498811
    12  C    0.474288
    13  N    0.109252
    14  C    0.351523
    15  C   -0.025901
    16  N   -0.062125
 Electronic spatial extent (au):  <R**2>=           4683.0022
 Charge=              0.0000 electrons
 Dipole moment (field-independent basis, Debye):
    X=             -1.2731    Y=             -1.4551    Z=             -1.5459  Tot=              2.4755
 Quadrupole moment (field-independent basis, Debye-Ang):
   XX=           -105.1826   YY=            -95.4170   ZZ=           -116.7752
   XY=            -11.1260   XZ=              8.0618   YZ=              9.9294
 Traceless Quadrupole moment (field-independent basis, Debye-Ang):
   XX=              0.6090   YY=             10.3746   ZZ=            -10.9836
   XY=            -11.1260   XZ=              8.0618   YZ=              9.9294
 Octapole moment (field-independent basis, Debye-Ang**2):
  XXX=            -59.4060  YYY=            -28.8561  ZZZ=            -68.4711  XYY=            -22.9741
  XXY=              4.6294  XXZ=            -42.1253  XZZ=            -79.9448  YZZ=            -56.1091
  YYZ=             -8.1573  XYZ=             -0.5510
 Hexadecapole moment (field-independent basis, Debye-Ang**3):
 XXXX=          -4153.3326 YYYY=           -969.1564 ZZZZ=          -1761.4845 XXXY=           -815.3592
 XXXZ=            403.0032 YYYX=           -550.5485 YYYZ=            348.4988 ZZZX=            267.5046
 ZZZY=            391.2572 XXYY=           -762.8036 XXZZ=           -957.7843 YYZZ=           -533.0412
 XXYZ=            169.1342 YYXZ=            138.5565 ZZXY=           -304.4364
 N-N= 1.127602672254D+03 E-N=-4.115170750048D+03  KE= 7.932907526129D+02
  Exact polarizability:   0.000   0.000   0.000   0.000   0.000   0.000
 Approx polarizability: 197.158  19.682 215.775   1.405 -14.941 225.911
 Calling FoFJK, ICntrl=    100147 FMM=F ISym2X=0 I1Cent= 0 IOpClX= 0 NMat=1 NMatS=1 NMatT=0.
 -------------------------------------------------------------------
 Center     Atomic                   Forces (Hartrees/Bohr)
 Number     Number              X              Y              Z
 -------------------------------------------------------------------
      1        8          -0.003326374   -0.000077738    0.002081569
      2        6           0.002491292    0.001633804   -0.001991233
      3        7           0.000818787   -0.002036441    0.004090928
      4        6           0.000673286   -0.001673011   -0.006619709
      5        6          -0.000606040    0.001031511    0.003070819
      6        8           0.004692724    0.002093131   -0.002332089
      7        8          -0.001523164   -0.000656737    0.002996929
      8        6           0.000971158   -0.000899521   -0.000864205
      9        6           0.000524280   -0.007325736    0.007376282
     10        6          -0.004751706    0.003328675   -0.009331719
     11        7           0.000340764   -0.002668755    0.000628969
     12        6           0.000327425    0.000565182   -0.002205115
     13        7           0.001016227    0.003764116    0.003713233
     14        6          -0.000230038    0.000310986   -0.001919668
     15        6          -0.001346927   -0.000830202    0.001519358
     16        7           0.002690966    0.001549789   -0.002157856
     17        1           0.001671331    0.001175798   -0.002892218
     18        1          -0.000372214    0.000212467    0.000366777
     19        1          -0.003328440   -0.002020989   -0.000229542
     20        1           0.000883264    0.001902365    0.001088811
     21        1          -0.001130220    0.000486498   -0.000592047
     22        1           0.001268807    0.001705723    0.002154251
     23        1          -0.000085363    0.001752445   -0.001326902
     24        1           0.000603903   -0.000824052   -0.000816704
     25        1           0.000490497    0.000891767    0.002180889
     26        1           0.001124086   -0.001921417    0.000320714
     27        1          -0.000493241    0.000414764    0.001006330
     28        1          -0.000069358   -0.001238439    0.000293792
     29        1          -0.001659169   -0.000449891    0.000099979
     30        1          -0.001666541   -0.000196087    0.000289375
 -------------------------------------------------------------------
 Cartesian Forces:  Max     0.009331719 RMS     0.002400825
 FormGI is forming the generalized inverse of G from B-inverse, IUseBI=4.
 GSVD:  received Info=                   1 from GESDD.

 GradGradGradGradGradGradGradGradGradGradGradGradGradGradGradGradGradGrad
 Berny optimization.
 Internal  Forces:  Max     0.007261490 RMS     0.001772204
 Search for a local minimum.
 Step number   1 out of a maximum of  160
 All quantities printed in internal units (Hartrees-Bohrs-Radians)
 Mixed Optimization -- RFO/linear search
 Second derivative matrix not updated -- analytic derivatives used.
 ITU=  0
     Eigenvalues ---   -0.00121   0.00232   0.00267   0.00316   0.00408
     Eigenvalues ---    0.00464   0.00681   0.00909   0.01061   0.01672
     Eigenvalues ---    0.02027   0.02100   0.02639   0.02957   0.03292
     Eigenvalues ---    0.03831   0.03927   0.04157   0.04268   0.04347
     Eigenvalues ---    0.04609   0.04927   0.05114   0.05423   0.05657
     Eigenvalues ---    0.06299   0.06548   0.07479   0.07631   0.08259
     Eigenvalues ---    0.08690   0.10156   0.10669   0.10748   0.11646
     Eigenvalues ---    0.11710   0.12097   0.13566   0.14539   0.15752
     Eigenvalues ---    0.17750   0.18190   0.18220   0.19050   0.20248
     Eigenvalues ---    0.20542   0.21606   0.22269   0.22909   0.23458
     Eigenvalues ---    0.24773   0.25209   0.26775   0.28138   0.28768
     Eigenvalues ---    0.30323   0.31760   0.32068   0.32665   0.32850
     Eigenvalues ---    0.33136   0.33298   0.33512   0.33754   0.33823
     Eigenvalues ---    0.36052   0.36150   0.37297   0.37367   0.38137
     Eigenvalues ---    0.40978   0.43980   0.44355   0.44439   0.44502
     Eigenvalues ---    0.45399   0.46852   0.47208   0.49266   0.57027
     Eigenvalues ---    0.58312   0.66397   0.78548   0.84995
 RFO step:  Lambda=-3.10025547D-03 EMin=-1.20510195D-03
 Linear search not attempted -- first point.
 Iteration  1 RMS(Cart)=  0.16577708 RMS(Int)=  0.02831741
 Iteration  2 RMS(Cart)=  0.07012925 RMS(Int)=  0.00288044
 Iteration  3 RMS(Cart)=  0.00398589 RMS(Int)=  0.00011873
 Iteration  4 RMS(Cart)=  0.00001112 RMS(Int)=  0.00011860
 Iteration  5 RMS(Cart)=  0.00000000 RMS(Int)=  0.00011860
 Variable       Old X    -DE/DX   Delta X   Delta X   Delta X     New X
                                 (Linear)    (Quad)   (Total)
    R1        2.32801   0.00170   0.00000   0.00470   0.00470   2.33271
    R2        2.55205   0.00234   0.00000  -0.00350  -0.00350   2.54855
    R3        2.86014  -0.00011   0.00000  -0.00042  -0.00042   2.85971
    R4        2.76005  -0.00171   0.00000  -0.00342  -0.00342   2.75663
    R5        1.90078   0.00296   0.00000   0.00847   0.00847   1.90925
    R6        2.89964   0.00291   0.00000   0.01695   0.01695   2.91658
    R7        2.90350   0.00020   0.00000  -0.00168  -0.00168   2.90182
    R8        2.06397  -0.00007   0.00000   0.00169   0.00169   2.06566
    R9        2.51591  -0.00284   0.00000  -0.01375  -0.01375   2.50216
   R10        2.28275  -0.00145   0.00000   0.00049   0.00049   2.28323
   R11        1.85929   0.00375   0.00000   0.01684   0.01684   1.87613
   R12        2.82142   0.00015   0.00000  -0.00533  -0.00533   2.81609
   R13        2.06569  -0.00227   0.00000  -0.00653  -0.00653   2.05916
   R14        2.06547  -0.00134   0.00000  -0.00644  -0.00644   2.05903
   R15        2.57913   0.00726   0.00000   0.01632   0.01635   2.59548
   R16        2.59284   0.00506   0.00000   0.00998   0.01000   2.60284
   R17        2.61142  -0.00302   0.00000  -0.01188  -0.01188   2.59954
   R18        2.04381  -0.00295   0.00000  -0.00747  -0.00747   2.03635
   R19        2.48280  -0.00018   0.00000  -0.00082  -0.00085   2.48195
   R20        2.56149   0.00433   0.00000   0.00823   0.00822   2.56970
   R21        2.03150   0.00144   0.00000   0.00339   0.00339   2.03490
   R22        1.91199  -0.00080   0.00000  -0.00198  -0.00198   1.91001
   R23        2.88787   0.00281   0.00000   0.00738   0.00738   2.89525
   R24        2.07364  -0.00231   0.00000  -0.00551  -0.00551   2.06813
   R25        2.07373  -0.00204   0.00000  -0.00735  -0.00735   2.06638
   R26        2.75805   0.00153   0.00000  -0.00273  -0.00273   2.75532
   R27        2.05935  -0.00038   0.00000  -0.00290  -0.00290   2.05645
   R28        2.05883  -0.00017   0.00000   0.00163   0.00163   2.06047
   R29        1.91580  -0.00018   0.00000  -0.00273  -0.00273   1.91308
   R30        1.91595  -0.00025   0.00000  -0.00297  -0.00297   1.91299
    A1        2.10066   0.00404   0.00000   0.01416   0.01415   2.11481
    A2        2.15347  -0.00354   0.00000  -0.01289  -0.01289   2.14058
    A3        2.02905  -0.00050   0.00000  -0.00128  -0.00129   2.02777
    A4        2.12096   0.00418   0.00000   0.03280   0.03280   2.15376
    A5        2.10174  -0.00040   0.00000  -0.00124  -0.00124   2.10051
    A6        2.06032  -0.00378   0.00000  -0.03159  -0.03159   2.02873
    A7        1.94621  -0.00147   0.00000   0.00336   0.00310   1.94932
    A8        1.92397  -0.00273   0.00000  -0.01757  -0.01764   1.90633
    A9        1.86435   0.00118   0.00000   0.01175   0.01184   1.87618
   A10        1.98433   0.00476   0.00000  -0.01114  -0.01124   1.97309
   A11        1.85365  -0.00219   0.00000  -0.00483  -0.00479   1.84886
   A12        1.88499   0.00037   0.00000   0.02146   0.02154   1.90653
   A13        2.00045  -0.00216   0.00000   0.00343   0.00342   2.00387
   A14        2.15452   0.00454   0.00000  -0.00318  -0.00320   2.15132
   A15        2.12812  -0.00238   0.00000  -0.00038  -0.00039   2.12774
   A16        1.91521   0.00175   0.00000   0.01381   0.01381   1.92902
   A17        2.01076   0.00101   0.00000  -0.02289  -0.02290   1.98786
   A18        1.87488  -0.00092   0.00000   0.00608   0.00593   1.88080
   A19        1.87820   0.00085   0.00000   0.01278   0.01278   1.89098
   A20        1.88627  -0.00126   0.00000  -0.00389  -0.00393   1.88234
   A21        1.93732   0.00016   0.00000   0.00513   0.00522   1.94254
   A22        1.87078   0.00008   0.00000   0.00448   0.00441   1.87519
   A23        2.30392  -0.00317   0.00000  -0.00687  -0.00696   2.29696
   A24        2.14503   0.00558   0.00000   0.01245   0.01235   2.15738
   A25        1.83422  -0.00241   0.00000  -0.00568  -0.00564   1.82858
   A26        1.93024   0.00104   0.00000   0.00210   0.00201   1.93225
   A27        2.23274  -0.00069   0.00000  -0.00560  -0.00579   2.22696
   A28        2.12012  -0.00034   0.00000   0.00389   0.00370   2.12382
   A29        1.83256   0.00175   0.00000   0.00558   0.00561   1.83817
   A30        1.94854   0.00050   0.00000  -0.00020  -0.00019   1.94835
   A31        2.20963  -0.00195   0.00000  -0.01256  -0.01257   2.19706
   A32        2.12502   0.00144   0.00000   0.01277   0.01276   2.13778
   A33        1.87918  -0.00089   0.00000  -0.00171  -0.00175   1.87743
   A34        2.15623  -0.00017   0.00000  -0.00501  -0.00512   2.15111
   A35        2.24752   0.00107   0.00000   0.00618   0.00605   2.25357
   A36        1.96855   0.00216   0.00000   0.01287   0.01282   1.98137
   A37        1.89987  -0.00103   0.00000  -0.01900  -0.01899   1.88089
   A38        1.89855  -0.00137   0.00000   0.00283   0.00271   1.90126
   A39        1.92087  -0.00007   0.00000   0.00005   0.00011   1.92098
   A40        1.91996  -0.00004   0.00000   0.00462   0.00453   1.92449
   A41        1.85221   0.00022   0.00000  -0.00248  -0.00250   1.84971
   A42        2.00731  -0.00046   0.00000  -0.00136  -0.00136   2.00595
   A43        1.90197   0.00060   0.00000   0.00523   0.00522   1.90719
   A44        1.90250   0.00053   0.00000   0.00430   0.00430   1.90680
   A45        1.89415  -0.00005   0.00000   0.00279   0.00278   1.89694
   A46        1.89139   0.00013   0.00000  -0.00054  -0.00054   1.89085
   A47        1.86109  -0.00079   0.00000  -0.01139  -0.01139   1.84970
   A48        1.92590   0.00231   0.00000   0.02489   0.02442   1.95031
   A49        1.92649   0.00228   0.00000   0.02240   0.02193   1.94842
   A50        1.86195  -0.00100   0.00000   0.01402   0.01314   1.87509
    D1        0.11283   0.00088   0.00000   0.02661   0.02658   0.13941
    D2       -3.04821   0.00110   0.00000   0.02467   0.02463  -3.02358
    D3       -3.02683   0.00026   0.00000   0.03252   0.03255  -2.99428
    D4        0.09531   0.00048   0.00000   0.03058   0.03060   0.12592
    D5       -0.00867  -0.00019   0.00000   0.29796   0.29790   0.28924
    D6       -2.14584  -0.00081   0.00000   0.30285   0.30286  -1.84298
    D7        2.12640   0.00022   0.00000   0.31446   0.31445   2.44085
    D8        3.13093   0.00046   0.00000   0.29189   0.29187  -2.86039
    D9        0.99375  -0.00016   0.00000   0.29677   0.29683   1.29058
   D10       -1.01719   0.00087   0.00000   0.30839   0.30841  -0.70878
   D11       -1.39221   0.00317   0.00000   0.07279   0.07277  -1.31944
   D12        2.66964   0.00014   0.00000   0.09854   0.09853   2.76817
   D13        0.62588   0.00046   0.00000   0.07562   0.07565   0.70152
   D14        1.76839   0.00292   0.00000   0.07438   0.07436   1.84274
   D15       -0.45295  -0.00011   0.00000   0.10013   0.10012  -0.35284
   D16       -2.49671   0.00021   0.00000   0.07720   0.07723  -2.41948
   D17        1.09875  -0.00002   0.00000  -0.03478  -0.03477   1.06398
   D18       -2.05769  -0.00033   0.00000  -0.04422  -0.04420  -2.10190
   D19       -2.99621  -0.00113   0.00000  -0.06462  -0.06465  -3.06086
   D20        0.13053  -0.00144   0.00000  -0.07406  -0.07408   0.05645
   D21       -0.92589   0.00060   0.00000  -0.04772  -0.04771  -0.97360
   D22        2.20085   0.00030   0.00000  -0.05716  -0.05714   2.14371
   D23        0.89912  -0.00185   0.00000  -0.03100  -0.03089   0.86823
   D24       -1.20354  -0.00021   0.00000  -0.01580  -0.01568  -1.21922
   D25        3.07037  -0.00026   0.00000  -0.03037  -0.03033   3.04004
   D26       -1.30090  -0.00135   0.00000  -0.01261  -0.01268  -1.31359
   D27        2.87963   0.00029   0.00000   0.00258   0.00252   2.88215
   D28        0.87034   0.00024   0.00000  -0.01198  -0.01212   0.85822
   D29        2.93003  -0.00171   0.00000  -0.01423  -0.01421   2.91582
   D30        0.82737  -0.00007   0.00000   0.00097   0.00100   0.82837
   D31       -1.18191  -0.00012   0.00000  -0.01360  -0.01365  -1.19556
   D32       -0.02766  -0.00055   0.00000  -0.03786  -0.03787  -0.06553
   D33        3.12854  -0.00031   0.00000  -0.02856  -0.02855   3.09998
   D34       -2.06428   0.00231   0.00000   0.14346   0.14343  -1.92085
   D35        1.06968   0.00240   0.00000   0.12250   0.12244   1.19212
   D36        0.03214   0.00086   0.00000   0.13353   0.13360   0.16573
   D37       -3.11709   0.00095   0.00000   0.11257   0.11261  -3.00449
   D38        2.07895   0.00029   0.00000   0.13953   0.13953   2.21847
   D39       -1.07028   0.00037   0.00000   0.11857   0.11854  -0.95175
   D40        3.12584   0.00050   0.00000  -0.00926  -0.00909   3.11675
   D41       -0.00199  -0.00028   0.00000  -0.04167  -0.04152  -0.04351
   D42       -0.00912   0.00039   0.00000   0.00891   0.00892  -0.00019
   D43       -3.13695  -0.00038   0.00000  -0.02351  -0.02350   3.12274
   D44       -3.12780  -0.00043   0.00000   0.00847   0.00859  -3.11921
   D45       -0.00856   0.00019   0.00000  -0.01501  -0.01483  -0.02339
   D46        0.00791  -0.00038   0.00000  -0.00769  -0.00767   0.00025
   D47        3.12716   0.00024   0.00000  -0.03117  -0.03109   3.09607
   D48        0.00673  -0.00025   0.00000  -0.00663  -0.00667   0.00006
   D49        3.13559   0.00046   0.00000   0.02326   0.02344  -3.12415
   D50       -0.00152   0.00002   0.00000   0.00160   0.00162   0.00010
   D51        3.13813  -0.00004   0.00000   0.00567   0.00570  -3.13936
   D52       -0.00411   0.00022   0.00000   0.00387   0.00388  -0.00023
   D53       -3.12181  -0.00042   0.00000   0.02917   0.02933  -3.09248
   D54        3.13932   0.00027   0.00000   0.00005   0.00000   3.13932
   D55        0.02162  -0.00037   0.00000   0.02536   0.02544   0.04706
   D56       -3.13228  -0.00011   0.00000   0.00897   0.00899  -3.12329
   D57       -1.00148  -0.00004   0.00000   0.01567   0.01569  -0.98579
   D58        1.02331  -0.00036   0.00000   0.00734   0.00736   1.03067
   D59       -1.00692   0.00000   0.00000  -0.00655  -0.00655  -1.01347
   D60        1.12388   0.00007   0.00000   0.00015   0.00016   1.12404
   D61       -3.13452  -0.00025   0.00000  -0.00818  -0.00818   3.14049
   D62        1.02791   0.00020   0.00000  -0.00681  -0.00684   1.02107
   D63       -3.12448   0.00027   0.00000  -0.00011  -0.00014  -3.12462
   D64       -1.09969  -0.00005   0.00000  -0.00845  -0.00847  -1.10816
   D65       -1.02908  -0.00082   0.00000  -0.00545  -0.00568  -1.03476
   D66        1.02462   0.00077   0.00000   0.04083   0.04106   1.06568
   D67        3.11909  -0.00124   0.00000  -0.01345  -0.01368   3.10541
   D68       -1.11039   0.00035   0.00000   0.03283   0.03306  -1.07733
   D69        1.10452  -0.00034   0.00000  -0.00121  -0.00144   1.10308
   D70       -3.12497   0.00124   0.00000   0.04507   0.04530  -3.07966
         Item               Value     Threshold  Converged?
 Maximum Force            0.007261     0.000450     NO 
 RMS     Force            0.001772     0.000300     NO 
 Maximum Displacement     1.060966     0.001800     NO 
 RMS     Displacement     0.225553     0.001200     NO 
 Predicted change in Energy=-2.315766D-03
 GradGradGradGradGradGradGradGradGradGradGradGradGradGradGradGradGradGrad

                          Input orientation:                          
 ---------------------------------------------------------------------
 Center     Atomic      Atomic             Coordinates (Angstroms)
 Number     Number       Type             X           Y           Z
 ---------------------------------------------------------------------
      1          8           0       -1.089089   -1.531676    1.908700
      2          6           0       -1.079091   -0.952700    0.818531
      3          7           0        0.070892   -0.498651    0.279837
      4          6           0        1.388041   -0.792065    0.833889
      5          6           0        1.671992    0.041033    2.101709
      6          8           0        0.831357   -0.167240    3.103285
      7          8           0        2.600797    0.807964    2.196433
      8          6           0        2.449805   -0.603987   -0.259397
      9          6           0        2.344064    0.692242   -0.986955
     10          6           0        1.966434    0.987468   -2.274063
     11          7           0        1.994324    2.345777   -2.489797
     12          6           0        2.383481    2.870187   -1.350258
     13          7           0        2.608165    1.914454   -0.409393
     14          6           0       -2.334666   -0.719071    0.006733
     15          6           0       -3.625531   -0.890745    0.813907
     16          7           0       -4.855334   -0.696015    0.055234
     17          1           0        0.054617    0.061458   -0.560868
     18          1           0        1.383857   -1.836634    1.155956
     19          1           0        0.113916   -0.796890    2.830374
     20          1           0        2.324324   -1.406137   -0.986146
     21          1           0        3.433456   -0.724558    0.193482
     22          1           0        1.693630    0.295936   -3.054164
     23          1           0        2.516158    3.920118   -1.151302
     24          1           0        2.875169    2.023505    0.559316
     25          1           0       -2.322699   -1.417899   -0.835423
[...]
 0377702,0.00574869,0.00257691,0.01475090,0.01845263,-0.00420005,-0.077
 15979,-0.04069827,0.00016262,-0.00008582,-0.00011056,-0.00013711,0.000
 12143,0.00008052,0.00016662,-0.00008559,0.00000188,0.00026233,0.000216
 84,-0.00032096,0.00001172,0.00010613,0.00033563,-0.00048317,-0.0007175
 8,-0.00054109,0.00014291,0.00023192,0.00019879,0.00046930,-0.00069769,
 0.00004715,-0.00040269,0.00076663,-0.00114904,-0.00017047,-0.00044483,
 -0.00055385,0.00835655,0.06448140,-0.00044652,-0.00016761,-0.00122648,
 -0.00022282,-0.00038479,0.00079657,0.00035744,0.00010132,-0.00099669,-
 0.00016541,-0.00023987,0.00090158,0.00752999,0.00731936,0.00146122,-0.
 00414849,-0.00283776,0.00123025,-0.00331224,-0.00631264,-0.00547874,0.
 00022255,-0.00051264,0.00072019,-0.00027846,-0.00070707,-0.00617084,0.
 00041320,-0.00077893,0.00158766,-0.00089095,0.00245582,0.00289160,-0.0
 0004824,-0.00228999,-0.00807587,-0.09914695,-0.04859019,-0.41257287,-0
 .00011892,0.00009214,0.00011586,0.00007394,-0.00003870,-0.00003527,-0.
 00009505,0.00003478,-0.00003594,-0.00058563,-0.00049301,0.00040236,0.0
 0010981,-0.00006813,-0.00049273,0.00080267,0.00118945,0.00093320,0.000
 03605,0.00035875,-0.00030516,-0.00018433,0.00005515,0.00021811,-0.0004
 1333,0.00006608,0.00044503,0.00029386,0.00011281,0.00022481,0.10022784
 ,0.05162480,0.42353829,0.00204458,0.00258008,0.00245340,-0.01504555,-0
 .02992166,-0.00386984,-0.00394964,0.00214529,-0.00265130,-0.00062844,0
 .00036974,0.00098492,-0.00003113,0.00015951,0.00065185,0.00042787,0.00
 033218,-0.00011870,0.00001000,-0.00008217,-0.00015510,-0.00034197,0.00
 009986,-0.00037798,-0.00001178,0.00002650,0.00001486,-0.00003699,-0.00
 000740,-0.00005713,0.00000644,-0.00004976,0.00002348,0.00001657,-0.000
 02097,0.00001653,0.00000440,0.00004464,0.00003382,-0.08494613,-0.09756
 311,-0.01751883,0.00697942,0.02251028,0.00421542,0.00311008,-0.0005697
 1,0.00005605,0.00042121,-0.00011303,-0.00066430,-0.00025095,-0.0000408
 1,-0.00007036,-0.00038640,-0.00039425,-0.00021191,0.00000132,0.0000042
 9,0.00001959,-0.00011130,-0.00005299,0.00014018,0.00000111,-0.00000207
 ,-0.00000035,-0.00000116,-0.00000206,0.00000234,0.00000851,0.00002205,
 0.00000046,0.09747894,0.00071755,0.00070833,-0.00012777,0.00115249,0.0
 0349867,0.00203135,0.00036005,-0.00028651,-0.00039243,0.00042648,-0.00
 009123,-0.00022147,-0.00013686,-0.00004763,0.00011142,0.00014581,0.000
 09988,-0.00000728,0.00002866,0.00002620,-0.00005194,0.00006032,-0.0000
 2133,0.00002683,-0.00000174,-0.00000291,0.00002264,-0.00002639,-0.0000
 2036,-0.00001001,-0.00002271,0.00001760,0.00001112,0.00000226,0.000016
 62,-0.00000820,-0.00001398,-0.00000764,0.00000128,-0.09802018,-0.25985
 298,-0.02900291,-0.00640080,-0.01980042,-0.00493697,-0.00107565,0.0027
 4482,0.00106537,0.00035974,0.00011514,-0.00000064,-0.00007174,-0.00000
 530,-0.00001367,-0.00017665,-0.00010687,-0.00015071,0.00000061,-0.0000
 0006,0.00000307,0.00001392,0.00000809,-0.00001551,0.00001094,-0.000002
 05,-0.00000739,0.00000658,0.00000320,-0.00000294,0.00001801,-0.0000039
 5,0.00000850,0.10302581,0.28335240,0.00038171,0.00224439,0.00039131,-0
 .00522350,-0.01714470,-0.00194791,-0.00139083,0.00083605,-0.00095858,-
 0.00015516,-0.00015754,0.00062819,0.00012002,0.00011663,0.00013237,0.0
 0002379,0.00010790,-0.00002384,-0.00007050,-0.00010053,-0.00004257,-0.
 00019051,0.00011109,-0.00017844,-0.00000632,0.00000400,-0.00005785,0.0
 0002951,0.00003408,-0.00000961,0.00004386,-0.00005518,0.00001136,-0.00
 000491,-0.00002167,-0.00000833,0.00000902,0.00002975,0.00005801,-0.016
 90153,-0.02793069,-0.05247377,-0.00538543,-0.01916245,-0.00422121,-0.0
 0133530,0.00190207,0.00011413,-0.00050544,-0.00002612,-0.00002189,-0.0
 0001208,-0.00001709,0.00004196,-0.00002484,-0.00018089,0.00000083,0.00
 001250,-0.00000020,-0.00000138,-0.00004676,-0.00003345,0.00006637,-0.0
 0002192,0.00000864,0.00001080,-0.00000162,-0.00000121,0.00000247,-0.00
 000041,0.00002036,-0.00002339,0.01605907,0.03514848,0.05360809,-0.0064
 5597,0.00142044,-0.00608119,0.00940225,0.01281547,-0.02443599,-0.00028
 328,-0.00008222,0.00077415,0.00045294,0.00005783,0.00001300,0.00037701
 ,0.00011320,-0.00037237,-0.00056111,-0.00058785,0.00004195,-0.00017762
 ,-0.00011988,0.00010111,0.00003886,0.00000251,0.00006027,-0.00001019,0
 .00000319,-0.00010447,0.00009333,0.00001019,0.00001967,0.00001569,-0.0
 0003378,-0.00000414,-0.00000264,0.00001317,0.00003968,0.00000468,0.000
 03729,0.00003537,-0.05815491,-0.02345583,0.04043644,-0.00507643,-0.008
 63544,0.02083182,0.00228177,-0.00108372,-0.00057689,-0.00137196,-0.000
 35315,-0.00066049,0.00011040,-0.00000283,0.00000406,0.00058603,0.00088
 741,0.00046641,-0.00001124,0.00000678,0.00000866,0.00002455,-0.0000000
 9,-0.00001790,-0.00004009,0.00000313,0.00003389,0.00000142,0.00000022,
 0.00000393,-0.00000311,0.00002263,-0.00003938,-0.00235837,-0.00457081,
 0.01224325,0.06359347,0.00201229,0.00235363,0.00164170,-0.00272867,-0.
 00510535,0.00231610,-0.00039516,0.00002076,-0.00097641,0.00024639,-0.0
 0010790,-0.00021800,-0.00033383,-0.00009122,0.00022188,0.00043964,0.00
 035434,0.00000218,0.00014994,0.00009195,-0.00006723,0.00000187,0.00003
 571,0.00007585,0.00003421,0.00002545,0.00000036,0.00001495,0.00005312,
 0.00006493,0.00000718,-0.00000891,-0.00003351,-0.00000426,-0.00003413,
 -0.00001380,0.00000158,-0.00002758,-0.00005534,-0.01981444,-0.09354155
 ,0.09651892,0.00490984,0.00769998,-0.01850260,-0.00217371,0.00073462,-
 0.00025596,-0.00014761,0.00086717,-0.00001241,0.00000446,0.00003368,0.
 00000500,-0.00042829,-0.00046251,-0.00035469,0.00001915,-0.00001684,-0
 .00001285,0.00000633,-0.00000060,-0.00001525,0.00002585,0.00000024,-0.
 00002488,-0.00000594,-0.00000468,-0.00000208,-0.00001404,-0.00001939,0
 .00002514,-0.00388674,-0.01073826,0.02577357,0.01983217,0.09826002,-0.
 00474767,0.00047527,-0.00147497,0.00926246,0.00727245,-0.01467008,0.00
 071521,-0.00050856,0.00149401,-0.00037017,-0.00011645,0.00035810,0.000
 61217,0.00020460,-0.00049731,-0.00062643,-0.00047956,0.00015751,-0.000
 25019,-0.00017547,0.00014503,-0.00003934,0.00002724,-0.00004868,-0.000
 02796,-0.00002223,-0.00009495,0.00007370,0.00003326,0.00000083,0.00007
 615,-0.00004795,0.00002081,-0.00002362,-0.00001235,-0.00002321,0.00002
 232,0.00002485,0.00008752,0.03539788,0.09629015,-0.25166524,0.00298602
 ,0.00695071,-0.01687650,-0.00100859,-0.00033029,0.00242549,-0.00134550
 ,-0.00060553,0.00039551,0.00014110,-0.00006719,0.00008045,0.00054196,0
 .00066623,0.00041505,-0.00001203,0.00000716,0.00000888,0.00000799,-0.0
 0000891,0.00001174,-0.00003618,0.00000933,0.00003012,-0.00000646,-0.00
 000225,0.00000419,-0.00001632,0.00003327,-0.00006948,-0.00049575,-0.00
 163504,0.00479069,-0.04317681,-0.10515625,0.27470750,0.00058170,0.0004
 0717,-0.00191437,0.00038643,-0.00188959,0.00367604,-0.00007328,0.00036
 850,-0.00059817,0.00005954,-0.00000312,-0.00001391,-0.00035756,-0.0001
 4109,0.00032749,0.00035476,0.00012285,-0.00018960,0.00014577,0.0001080
 6,-0.00008693,-0.00001619,0.00000409,-0.00001180,0.00001910,0.00000774
 ,0.00004275,-0.00002819,-0.00000306,0.00000127,-0.00002780,0.00001702,
 -0.00001511,0.00000695,-0.00000154,0.00000467,-0.00000861,-0.00001640,
 -0.00004246,-0.00552833,-0.00731950,0.01928960,-0.05499548,-0.02333112
 ,0.04130618,-0.00100116,0.01905886,-0.03295137,0.00029058,0.00011500,0
 .00004309,-0.00004977,0.00001924,-0.00001479,-0.00032946,-0.00009610,-
 0.00007908,0.00001020,-0.00000227,-0.00000970,-0.00000967,0.00000237,0
 .00000232,0.00001927,-0.00000217,-0.00001353,0.00000246,0.00000120,-0.
 00000234,0.00000309,-0.00002105,0.00003801,0.00099377,0.00003688,-0.00
 079038,-0.00253421,0.00295943,0.00177570,0.06755702,-0.00030257,-0.000
 60902,-0.00000466,-0.00050228,0.00086679,-0.00074528,0.00013584,0.0002
 1914,0.00029504,-0.00002333,0.00006482,0.00005596,-0.00008546,-0.00010
 277,0.00010449,0.00007985,-0.00009740,-0.00012080,0.00005443,0.0000679
 5,-0.00002059,-0.00000748,-0.00002583,0.00000171,0.00000608,0.00000318
 ,-0.00001046,0.00001691,-0.00001656,-0.00000437,-0.00002184,0.00000691
 ,-0.00001228,0.00000517,0.00001077,0.00002698,-0.00000957,0.00000635,-
 0.00000922,0.00608142,0.00662875,-0.01870260,-0.02062355,-0.09920513,0
 .10092245,0.00131541,-0.00127976,0.00394226,-0.00011370,-0.00019131,-0
 .00009875,0.00000234,-0.00001399,-0.00000074,0.00002750,0.00021453,0.0
 0014738,-0.00000241,0.00000530,-0.00000376,-0.00000028,0.00000659,-0.0
 0000026,-0.00000975,0.00000127,0.00000944,0.00000704,0.00000322,0.0000
 0051,0.00000369,-0.00001073,0.00002021,-0.00088581,0.00124208,0.000130
 02,0.00319464,-0.00132840,-0.00240840,0.01524868,0.10357247,-0.0011566
 8,-0.00034399,0.00165849,-0.00080981,0.00113895,-0.00256126,0.00011147
 ,-0.00002311,0.00037647,-0.00002038,0.00006931,0.00008855,0.00015677,0
 .00001889,-0.00014949,-0.00013144,-0.00005242,0.00006238,-0.00004339,-
 0.00000667,0.00004979,0.00000772,-0.00001271,0.00000654,-0.00000959,-0
 .00001036,-0.00002217,0.00001705,0.00000060,-0.00000574,0.00001569,-0.
 00000546,0.00001013,-0.00000540,0.00000383,-0.00000594,0.00000357,0.00
 001045,0.00003092,0.00753442,0.00559395,-0.01689228,0.03674990,0.09816
 890,-0.25503894,-0.00370281,0.00868055,-0.01342266,-0.00009876,-0.0001
 7619,-0.00001171,0.00003371,-0.00000363,-0.00000191,0.00011199,0.00006
 574,0.00007497,-0.00000715,0.00000367,0.00000222,0.00000610,0.,-0.0000
 0126,-0.00001541,0.00000285,0.00000952,0.00000066,0.00000136,0.0000004
 0,0.00000024,0.00000475,-0.00001576,-0.00064547,0.00012954,0.00062101,
 0.00177033,-0.00209282,-0.00054067,-0.03741064,-0.10817910,0.27981044,
 -0.00012881,-0.00020651,-0.00046532,0.00200757,0.00083031,0.00072668,0
 .00010958,-0.00035633,-0.00009985,-0.00010843,-0.00001309,0.00002915,0
 .00000657,0.00001079,-0.00006421,-0.00003754,-0.00003509,0.00003614,0.
 00000977,0.00001591,0.00002897,-0.00000956,0.00000223,0.00000936,0.000
 00211,0.00001689,-0.00000009,0.00000761,0.00000259,0.00000766,-0.00000
 320,0.00000564,-0.00000772,0.00000073,-0.00001773,0.00000936,0.0000104
 3,-0.00000324,-0.00001655,0.00657444,0.02083695,0.00387928,-0.08430854
 ,-0.08733640,-0.01387445,-0.02293289,-0.02901375,-0.00579686,-0.000068
 06,0.00009526,0.00014689,0.00004340,0.00000356,0.00001188,0.00003131,0
 .00003448,0.00000283,0.00000193,-0.00000007,-0.00000262,0.00000129,0.0
 0000136,-0.00000195,0.00000170,0.00000114,-0.00000176,0.00000260,-0.00
 000034,-0.00000075,-0.00000996,-0.00000627,0.00000021,-0.00276187,0.00
 293041,0.00251521,0.00076768,-0.00081763,-0.00046964,-0.00169895,-0.00
 458958,-0.00017578,0.10560785,0.00083698,0.00009552,0.00086405,-0.0022
 8062,-0.00087929,-0.00135826,0.00092787,0.00080722,0.00029957,0.000128
 08,-0.00002822,-0.00004696,0.00024699,-0.00008246,-0.00021613,-0.00015
 232,0.00022869,0.00015174,-0.00006465,0.00003643,0.00004973,0.00003538
 ,-0.00001039,0.00002163,-0.00000382,-0.00004172,-0.00001334,-0.0000029
 9,-0.00001917,-0.00001225,-0.00001634,0.00001412,0.00002907,-0.0000101
 7,0.00004966,-0.00002572,-0.00002417,0.00000323,0.00005408,-0.00351902
 ,-0.01776787,-0.00257661,-0.09316990,-0.26098133,-0.03223758,0.0015171
 1,0.00728695,0.00027597,0.00011804,-0.00024549,-0.00018360,-0.00001190
 ,0.00000330,-0.00000985,-0.00005913,-0.00035880,-0.00013211,-0.0000082
 5,0.00000387,0.00001326,0.00000973,0.00000282,-0.00001354,-0.00000206,
 0.00000215,0.00000617,0.00001135,0.00000761,-0.00000443,0.00004111,0.0
 0000533,-0.00001822,0.00266514,-0.00042413,-0.00185486,0.00002988,0.00
 107810,-0.00024767,-0.00513556,-0.01192870,-0.00175301,0.09655522,0.28
 082979,-0.00005439,-0.00009349,0.00029890,-0.00151460,-0.00027037,-0.0
 0033550,0.00020066,0.00043985,0.00001585,0.00006895,0.00001573,-0.0000
 5342,-0.00022148,-0.00009595,0.00020424,0.00021781,-0.00000278,-0.0001
 2099,0.00009322,0.00007238,-0.00006077,0.00001473,-0.00003519,0.000006
 84,0.00001278,0.00000239,0.00003634,-0.00002085,-0.00003322,-0.0000113
 3,-0.00005751,0.00002408,-0.00002042,0.00001387,0.00002106,0.00004183,
 -0.00001877,-0.00000718,-0.00004319,-0.00301228,-0.01877493,-0.0031210
 2,-0.01268360,-0.02887592,-0.05637300,-0.01195161,-0.01413194,-0.00157
 412,0.00016262,-0.00015182,-0.00005570,-0.00001391,0.00000742,-0.00002
 366,-0.00010029,0.00005156,0.00001305,0.00000101,0.00000321,-0.0000032
 4,-0.00000262,0.00001097,-0.00000626,0.00000915,-0.00000168,-0.0000012
 5,0.00001057,0.00000472,-0.00000096,0.00000949,-0.00001669,0.00004135,
 0.00232711,-0.00215498,-0.00095786,-0.00100460,0.00039633,0.00049813,0
 .01170030,0.02569640,0.00613032,0.01809158,0.03868286,0.05695868,0.000
 04722,-0.00013021,0.00098081,-0.00075218,-0.00005051,-0.00096475,0.000
 29633,0.00006552,0.00011189,-0.00011424,0.00003313,-0.00000384,-0.0000
 0324,-0.00010922,-0.00013019,0.00003367,0.00007675,0.00009225,0.000054
 02,0.00009205,0.00006700,-0.00000143,-0.00000404,0.00003543,0.00001051
 ,-0.00000234,-0.00004712,0.00004888,0.00001335,0.00001056,0.00003766,0
 .00001349,-0.00000680,-0.00001026,-0.00001545,-0.00000837,0.00001363,0
 .00001345,0.00001459,0.00215031,0.00015208,-0.00172980,-0.00014028,0.0
 1969474,-0.03387938,-0.04981786,-0.04619808,0.03195207,-0.00014199,-0.
 00003567,0.00002691,0.00002156,-0.00001379,0.00001577,-0.00006192,-0.0
 0009215,-0.00010440,-0.00001013,0.00000286,0.00000114,0.00001390,0.000
 00602,-0.00000564,-0.00002604,0.00000328,0.00001732,-0.00000353,-0.000
 00090,0.00000316,-0.00001836,-0.00001368,-0.00000886,-0.00015146,0.000
 06988,0.00019145,-0.00053085,-0.00002256,0.00091902,-0.00511197,0.0006
 0057,-0.00249879,0.00102304,-0.00054147,0.00060695,0.05535217,-0.00046
 140,0.00010557,-0.00072978,0.00119040,0.00050780,0.00069125,-0.0006237
 8,-0.00040017,-0.00006208,0.00014275,-0.00008115,0.00001322,0.00013891
 ,0.00028294,0.00007155,-0.00017909,-0.00018681,-0.00005459,-0.00013920
 ,-0.00023471,-0.00005714,-0.00000560,0.00003999,-0.00005620,-0.0000303
 6,-0.00000363,0.00002761,-0.00004513,0.00003964,-0.00000440,0.00004584
 ,-0.00005611,0.00002380,0.00000061,-0.00001096,-0.00004536,0.00000991,
 -0.00000745,0.00002858,-0.00219762,0.00009138,0.00038490,0.00357605,-0
 .00262345,0.00379165,-0.03196516,-0.10840989,0.13963319,0.00006742,0.0
 0016684,-0.00004259,-0.00001091,0.00001202,-0.00000662,0.00020293,0.00
 018705,0.00017814,0.00001292,-0.00000921,-0.00000236,-0.00001653,-0.00
 002018,0.00001873,0.00001781,-0.00000279,-0.00001980,-0.00001775,-0.00
 000760,0.00000009,-0.00000273,0.00003908,-0.00002308,0.00015034,-0.000
 32088,0.00006307,0.00057899,-0.00001555,-0.00017938,-0.00021349,0.0015
 7891,-0.00095593,0.00009265,0.00037496,-0.00068551,0.03210622,0.125469
 90,-0.00005468,-0.00005402,0.00031737,0.00045878,-0.00003747,-0.000358
 54,-0.00009789,-0.00012308,0.00006801,0.00004035,0.00000309,0.00000825
 ,0.00006833,0.00008679,-0.00001602,-0.00006398,-0.00003684,0.00001966,
 -0.00004326,-0.00006750,-0.00000667,0.00000141,0.00001077,-0.00000882,
 -0.00000678,-0.00000045,0.00000761,-0.00001032,0.00000989,0.00000467,0
 .00001019,-0.00001582,-0.00000097,0.00000200,-0.00000200,-0.00000511,0
 .00000297,-0.00000223,-0.00000529,0.00054120,-0.00043013,0.00232189,0.
 00663043,0.00392228,-0.01645819,0.01200017,0.17959690,-0.34353693,0.00
 000051,0.00004932,0.00000825,-0.00000164,0.00000080,0.00000012,0.00006
 445,0.00001795,0.00001619,0.00000303,-0.00000320,-0.00000039,-0.000001
 85,-0.00000448,0.00000303,0.00000673,-0.00000306,-0.00000463,-0.000007
 86,-0.00000365,0.00000112,-0.00000427,0.00001209,-0.00000684,-0.000020
 62,0.00004241,-0.00001025,-0.00055877,0.00063450,0.00036168,-0.0043521
 4,-0.00057557,-0.00014217,0.00014140,-0.00035840,0.00000352,-0.0151911
 1,-0.17457566,0.35387518,0.00034517,-0.00002802,0.00062151,-0.00039777
 ,0.00025940,-0.00103029,0.00065964,0.00019599,0.00028768,-0.00004373,0
 .00004833,-0.00008151,-0.00005093,-0.00018510,-0.00014038,0.00008752,0
 .00013547,0.00010340,0.00008582,0.00014402,0.00007180,0.00002481,-0.00
 001870,0.00006168,0.00002010,-0.00001066,-0.00003154,0.00003985,-0.000
 00492,0.00001051,0.00001250,0.00002968,-0.00000810,-0.00000870,0.00000
 612,-0.00000233,0.00000681,0.00000498,0.00000134,0.00158114,-0.0017799
 2,0.00073360,-0.02081777,-0.03122321,-0.00590947,-0.11225232,-0.143445
 66,-0.03498056,-0.00007318,-0.00010923,0.00002495,0.00000779,-0.000006
 79,0.00000476,-0.00014859,-0.00016735,-0.00016821,-0.00001405,0.000003
 99,0.00000210,0.00002294,0.00001512,-0.00001815,-0.00001910,0.00000158
 ,0.00001541,-0.00000122,0.00000191,0.00000089,-0.00001035,-0.00002121,
 -0.00000045,-0.00049107,0.00115111,0.00043806,-0.00017809,0.00010763,0
 .00012099,0.00134000,0.00039804,0.00021187,-0.00414180,0.00187948,-0.0
 0288432,-0.00220716,-0.00242501,0.00044321,0.13662174,-0.00009692,-0.0
 0005179,-0.00000409,0.00040904,-0.00013187,-0.00001440,-0.00001243,-0.
 00002746,0.00001435,0.00000573,0.00002025,0.00001821,0.00003632,0.0000
 2589,0.00000200,-0.00003216,-0.00001558,-0.00000456,-0.00002150,-0.000
 01828,-0.00000582,-0.00000044,0.00000163,-0.00000671,-0.00000462,0.000
 00013,0.00000401,-0.00000680,-0.00000215,-0.00000447,-0.00000624,-0.00
 000453,0.00000634,0.00000070,0.00000224,-0.00000111,-0.00000448,-0.000
 00171,0.00000755,0.00095620,0.00187259,0.00103927,0.00886048,0.0040729
 2,-0.00111670,-0.17948233,-0.33778775,-0.01847869,0.00001707,0.0000023
 6,-0.00000804,-0.00000046,-0.00000152,-0.00000017,0.00002797,0.0000213
 5,0.00002521,0.00000237,0.00000004,-0.00000031,-0.00000255,-0.00000243
 ,0.00000156,0.00000236,0.00000096,-0.00000261,0.00000343,0.00000117,-0
 .00000105,0.00000677,0.00000379,-0.00000165,-0.00054319,-0.00010052,0.
 00015647,-0.00010353,-0.00010592,0.00000900,-0.00030104,0.00031056,-0.
 00027795,0.00096063,0.00193784,-0.00009732,-0.00571333,-0.01650554,-0.
 00809324,0.17504294,0.34648333,-0.00005240,0.00020125,-0.00041039,0.00
 040438,-0.00037063,0.00059970,-0.00012348,0.00004520,-0.00013976,0.000
 06605,-0.00003638,0.00001727,0.00006495,0.00007240,0.00006570,-0.00006
 918,-0.00000781,-0.00005942,-0.00005696,-0.00006535,-0.00004208,-0.000
 00505,0.00001174,-0.00002558,-0.00001260,-0.00000707,0.00001426,-0.000
 02189,0.00000830,-0.00000435,-0.00000452,-0.00001694,0.00001062,0.0000
 0084,0.00000803,-0.00001351,-0.00001208,-0.00000524,0.00001372,0.00010
 601,0.00111735,0.00026441,-0.00453738,-0.01874143,-0.00267841,-0.05316
 142,-0.04207326,-0.05155188,0.00006610,0.00003109,-0.00005840,-0.00001
 355,0.00000320,-0.00000130,0.00005982,0.00000116,0.00008779,0.00000831
 ,-0.00000247,0.00000069,-0.00001076,-0.00000871,0.00000627,0.00001124,
 -0.00000023,-0.00000774,0.00000300,0.00000079,-0.00000218,0.00001892,0
 .00001156,-0.00000203,-0.00014145,0.00013783,0.00045927,0.00014898,0.0
 0011762,-0.00003216,0.00028890,-0.00045600,-0.00012020,-0.00465906,0.0
 0061441,-0.00148637,0.01953271,0.03257471,0.00354427,0.04210156,0.0268
 3491,0.05155176\\-0.00000092,-0.00000032,-0.00000129,0.00000205,0.0000
 0033,-0.00000134,0.00000040,-0.00000079,0.00000075,-0.00000035,0.00000
 024,-0.00000004,0.,-0.00000131,0.00000010,0.00000063,-0.00000046,-0.00
 000043,-0.00000009,-0.00000118,0.00000100,-0.00000022,-0.00000041,-0.0
 0000061,0.00000053,-0.00000037,0.00000002,0.00000035,0.00000065,-0.000
 00026,0.00000037,-0.00000004,0.00000049,0.00000053,-0.00000047,0.00000
 057,0.00000002,0.00000055,0.00000019,-0.00000203,0.00000024,-0.0000003
 9,-0.00000005,0.00000075,-0.00000060,-0.00000036,0.00000099,0.00000066
 ,-0.00000036,0.00000009,0.00000007,-0.00000064,-0.00000061,-0.00000040
 ,0.00000005,-0.00000087,-0.00000012,-0.00000050,0.00000008,-0.00000040
 ,0.00000001,-0.00000081,-0.00000044,-0.00000009,0.00000066,0.00000027,
 0.00000067,0.00000002,0.00000096,0.00000047,-0.00000087,0.00000055,-0.
 00000004,0.00000107,0.00000030,-0.00000044,0.00000079,0.00000023,-0.00
 000027,0.00000010,-0.00000001,0.00000012,0.,0.00000011,0.00000016,0.00
 000095,0.00000032,-0.00000002,0.00000100,-0.00000026\\\@


 SUPPORT THE RIGHT TO ARM BEARS!
 (ADD A CLAWS TO THE BILL OF RIGHTS)
 Job cpu time:       1 days  1 hours 47 minutes 13.9 seconds.
 File lengths (MBytes):  RWF=   1142 Int=      0 D2E=      0 Chk=     42 Scr=      1
 Normal termination of Gaussian 09 at Sat Jul 24 19:44:07 2021.
