 Entering Gaussian System, Link 0=g09
 Input=opt_freq-conf-609.com
 Output=opt_freq-conf-609.log
 Initial command:
 /aerosol/software/g09/l1.exe "/scratch/nicole/10388/Gau-72989.inp" -scrdir="/scratch/nicole/10388/"
 Entering Link 1 = /aerosol/software/g09/l1.exe PID=     72992.
  
 Copyright (c) 1988,1990,1992,1993,1995,1998,2003,2009,2013,
            Gaussian, Inc.  All Rights Reserved.
  
 This is part of the Gaussian(R) 09 program.  It is based on
 the Gaussian(R) 03 system (copyright 2003, Gaussian, Inc.),
 the Gaussian(R) 98 system (copyright 1998, Gaussian, Inc.),
 the Gaussian(R) 94 system (copyright 1995, Gaussian, Inc.),
 the Gaussian 92(TM) system (copyright 1992, Gaussian, Inc.),
 the Gaussian 90(TM) system (copyright 1990, Gaussian, Inc.),
 the Gaussian 88(TM) system (copyright 1988, Gaussian, Inc.),
 the Gaussian 86(TM) system (copyright 1986, Carnegie Mellon
 University), and the Gaussian 82(TM) system (copyright 1983,
 Carnegie Mellon University). Gaussian is a federally registered
 trademark of Gaussian, Inc.
  
 This software contains proprietary and confidential information,
 including trade secrets, belonging to Gaussian, Inc.
  
 This software is provided under written license and may be
 used, copied, transmitted, or stored only in accord with that
 written license.
  
 The following legend is applicable only to US Government
 contracts under FAR:
  
                    RESTRICTED RIGHTS LEGEND
  
 Use, reproduction and disclosure by the US Government is
 subject to restrictions as set forth in subparagraphs (a)
 and (c) of the Commercial Computer Software - Restricted
 Rights clause in FAR 52.227-19.
  
 Gaussian, Inc.
 340 Quinnipiac St., Bldg. 40, Wallingford CT 06492
  
  
 ---------------------------------------------------------------
 Warning -- This program may not be used in any manner that
 competes with the business of Gaussian, Inc. or will provide
 assistance to any competitor of Gaussian, Inc.  The licensee
 of this program is prohibited from giving any competitor of
 Gaussian, Inc. access to this program.  By using this program,
 the user acknowledges that Gaussian, Inc. is engaged in the
 business of creating and licensing software in the field of
 computational chemistry and represents and warrants to the
 licensee that it is not a competitor of Gaussian, Inc. and that
 it will not use this program in any manner prohibited above.
 ---------------------------------------------------------------
  

 Cite this work as:
 Gaussian 09, Revision D.01,
 M. J. Frisch, G. W. Trucks, H. B. Schlegel, G. E. Scuseria, 
 M. A. Robb, J. R. Cheeseman, G. Scalmani, V. Barone, B. Mennucci, 
 G. A. Petersson, H. Nakatsuji, M. Caricato, X. Li, H. P. Hratchian, 
 A. F. Izmaylov, J. Bloino, G. Zheng, J. L. Sonnenberg, M. Hada, 
 M. Ehara, K. Toyota, R. Fukuda, J. Hasegawa, M. Ishida, T. Nakajima, 
 Y. Honda, O. Kitao, H. Nakai, T. Vreven, J. A. Montgomery, Jr., 
 J. E. Peralta, F. Ogliaro, M. Bearpark, J. J. Heyd, E. Brothers, 
 K. N. Kudin, V. N. Staroverov, T. Keith, R. Kobayashi, J. Normand, 
 K. Raghavachari, A. Rendell, J. C. Burant, S. S. Iyengar, J. Tomasi, 
 M. Cossi, N. Rega, J. M. Millam, M. Klene, J. E. Knox, J. B. Cross, 
 V. Bakken, C. Adamo, J. Jaramillo, R. Gomperts, R. E. Stratmann, 
 O. Yazyev, A. J. Austin, R. Cammi, C. Pomelli, J. W. Ochterski, 
 R. L. Martin, K. Morokuma, V. G. Zakrzewski, G. A. Voth, 
 P. Salvador, J. J. Dannenberg, S. Dapprich, A. D. Daniels, 
 O. Farkas, J. B. Foresman, J. V. Ortiz, J. Cioslowski, 
 and D. J. Fox, Gaussian, Inc., Wallingford CT, 2013.
 
 ******************************************
 Gaussian 09:  ES64L-G09RevD.01 24-Apr-2013
                24-Jul-2021 
 ******************************************
 %mem=2gb
 %nproc=4
 Will use up to    4 processors via shared memory.
 %chk=conf-609.chk
 ----------------------------------------------------------------------
 # B3LYP/6-311++G(2df,2pd) EmpiricalDispersion=GD3BJ opt=calcfc freq=no
 raman nosymm integral(ultrafinegrid)
 ----------------------------------------------------------------------
 1/10=4,14=-1,18=20,19=15,26=4,38=1/1,3;
 2/9=110,12=2,15=1,17=6,18=5,40=1/2;
 3/5=4,6=6,7=1414,11=2,16=1,25=1,30=1,71=2,74=-5,75=-5,124=41,140=1/1,2,3;
 4//1;
 5/5=2,38=5/2;
 8/6=4,10=90,11=11/1;
 11/6=1,8=1,9=11,15=111,16=1,31=1/1,2,10;
 10/6=1,13=1,31=1/2;
 6/7=2,8=2,9=2,10=2,28=1/1;
 7/10=1,18=20,25=1,30=1/1,2,3,16;
 1/10=4,14=-1,18=20,19=15,26=4/3(2);
 2/9=110,15=1/2;
 99//99;
 2/9=110,15=1/2;
 3/5=4,6=6,7=1414,11=2,16=1,25=1,30=1,71=1,74=-5,75=-5,124=41/1,2,3;
 4/5=5,16=3,69=1/1;
 5/5=2,38=5/2;
 7/30=1/1,2,3,16;
 1/14=-1,18=20,19=15,26=4/3(-5);
 2/9=110,15=1/2;
 6/7=2,8=2,9=2,10=2,19=2,28=1/1;
 99/9=1/99;
 ------------------------------------------------------------
 Candidate Structure: Conf:609 OPT and FREQ calc in gas phase
 ------------------------------------------------------------
 Symbolic Z-matrix:
 Charge =  0 Multiplicity = 1
 O                     1.4177    0.85748  -0.67657 
 C                     1.59436  -0.0041    0.17026 
 N                     0.53894  -0.70679   0.68996 
 C                    -0.76947  -0.61446   0.04509 
 C                    -0.64827  -1.10746  -1.38772 
 O                    -1.61879  -0.61874  -2.20018 
 O                     0.17932  -1.88567  -1.77113 
 C                    -1.37787   0.79834   0.19937 
 C                    -2.85873   0.80124   0.37903 
 C                    -3.64977   1.26082   1.39423 
 N                    -4.98461   1.02988   1.11578 
 C                    -4.99278   0.43648  -0.05264 
 N                    -3.73342   0.27218  -0.53474 
 C                     2.94924  -0.35503   0.76111 
 C                     4.10813   0.28615  -0.00412 
 N                     5.43796  -0.03063   0.50635 
 H                     0.73699  -1.56765   1.16964 
 H                    -1.39207  -1.34935   0.56809 
 H                    -1.43624  -0.99233  -3.07559 
 H                    -0.94483   1.25313   1.08786 
 H                    -1.07567   1.42915  -0.63282 
 H                    -3.34519   1.74821   2.30793 
 H                    -5.85793   0.10731  -0.60024 
 H                    -3.44962  -0.1468   -1.40521 
 H                     2.9628   -0.0272    1.80781 
 H                     3.05558  -1.44622   0.77465 
 H                     4.05694  -0.02324  -1.04839 
 H                     3.98105   1.36867   0.00486 
 H                     5.59424  -1.03199   0.48736 
 H                     5.52208   0.25863   1.47443 
 

 GradGradGradGradGradGradGradGradGradGradGradGradGradGradGradGradGradGrad
 Berny optimization.
 Initialization pass.
                           ----------------------------
                           !    Initial Parameters    !
                           ! (Angstroms and Degrees)  !
 --------------------------                            --------------------------
 ! Name  Definition              Value          Derivative Info.                !
 --------------------------------------------------------------------------------
 ! R1    R(1,2)                  1.2209         calculate D2E/DX2 analytically  !
 ! R2    R(2,3)                  1.3703         calculate D2E/DX2 analytically  !
 ! R3    R(2,14)                 1.5192         calculate D2E/DX2 analytically  !
 ! R4    R(3,4)                  1.4616         calculate D2E/DX2 analytically  !
 ! R5    R(3,17)                 1.0052         calculate D2E/DX2 analytically  !
 ! R6    R(4,5)                  1.5201         calculate D2E/DX2 analytically  !
 ! R7    R(4,8)                  1.5459         calculate D2E/DX2 analytically  !
 ! R8    R(4,18)                 1.096          calculate D2E/DX2 analytically  !
 ! R9    R(5,6)                  1.3568         calculate D2E/DX2 analytically  !
 ! R10   R(5,7)                  1.199          calculate D2E/DX2 analytically  !
 ! R11   R(6,19)                 0.9691         calculate D2E/DX2 analytically  !
 ! R12   R(8,9)                  1.4917         calculate D2E/DX2 analytically  !
 ! R13   R(8,20)                 1.088          calculate D2E/DX2 analytically  !
 ! R14   R(8,21)                 1.0871         calculate D2E/DX2 analytically  !
 ! R15   R(9,10)                 1.3666         calculate D2E/DX2 analytically  !
 ! R16   R(9,13)                 1.3711         calculate D2E/DX2 analytically  !
 ! R17   R(10,11)                1.383          calculate D2E/DX2 analytically  !
 ! R18   R(10,22)                1.0794         calculate D2E/DX2 analytically  !
 ! R19   R(11,12)                1.3105         calculate D2E/DX2 analytically  !
 ! R20   R(12,13)                1.3584         calculate D2E/DX2 analytically  !
 ! R21   R(12,23)                1.0755         calculate D2E/DX2 analytically  !
 ! R22   R(13,24)                1.0069         calculate D2E/DX2 analytically  !
 ! R23   R(14,15)                1.5296         calculate D2E/DX2 analytically  !
 ! R24   R(14,25)                1.0969         calculate D2E/DX2 analytically  !
 ! R25   R(14,26)                1.0964         calculate D2E/DX2 analytically  !
 ! R26   R(15,16)                1.4592         calculate D2E/DX2 analytically  !
 ! R27   R(15,27)                1.0903         calculate D2E/DX2 analytically  !
 ! R28   R(15,28)                1.09           calculate D2E/DX2 analytically  !
 ! R29   R(16,29)                1.0137         calculate D2E/DX2 analytically  !
 ! R30   R(16,30)                1.0139         calculate D2E/DX2 analytically  !
 ! A1    A(1,2,3)              120.8952         calculate D2E/DX2 analytically  !
 ! A2    A(1,2,14)             124.1813         calculate D2E/DX2 analytically  !
 ! A3    A(3,2,14)             114.8943         calculate D2E/DX2 analytically  !
 ! A4    A(2,3,4)              119.3244         calculate D2E/DX2 analytically  !
 ! A5    A(2,3,17)             117.9301         calculate D2E/DX2 analytically  !
 ! A6    A(4,3,17)             116.1694         calculate D2E/DX2 analytically  !
 ! A7    A(3,4,5)              108.9051         calculate D2E/DX2 analytically  !
 ! A8    A(3,4,8)              111.4689         calculate D2E/DX2 analytically  !
 ! A9    A(3,4,18)             104.8106         calculate D2E/DX2 analytically  !
 ! A10   A(5,4,8)              114.9501         calculate D2E/DX2 analytically  !
 ! A11   A(5,4,18)             106.1182         calculate D2E/DX2 analytically  !
 ! A12   A(8,4,18)             109.9739         calculate D2E/DX2 analytically  !
 ! A13   A(4,5,6)              112.9903         calculate D2E/DX2 analytically  !
 ! A14   A(4,5,7)              124.5388         calculate D2E/DX2 analytically  !
 ! A15   A(6,5,7)              122.4154         calculate D2E/DX2 analytically  !
 ! A16   A(5,6,19)             105.5045         calculate D2E/DX2 analytically  !
 ! A17   A(4,8,9)              113.8582         calculate D2E/DX2 analytically  !
 ! A18   A(4,8,20)             107.8698         calculate D2E/DX2 analytically  !
 ! A19   A(4,8,21)             110.151          calculate D2E/DX2 analytically  !
 ! A20   A(9,8,20)             107.2145         calculate D2E/DX2 analytically  !
 ! A21   A(9,8,21)             111.5329         calculate D2E/DX2 analytically  !
 ! A22   A(20,8,21)            105.7795         calculate D2E/DX2 analytically  !
 ! A23   A(8,9,10)             131.6629         calculate D2E/DX2 analytically  !
 ! A24   A(8,9,13)             123.5236         calculate D2E/DX2 analytically  !
 ! A25   A(10,9,13)            104.8078         calculate D2E/DX2 analytically  !
 ! A26   A(9,10,11)            110.668          calculate D2E/DX2 analytically  !
 ! A27   A(9,10,22)            128.1211         calculate D2E/DX2 analytically  !
 ! A28   A(11,10,22)           121.2102         calculate D2E/DX2 analytically  !
 ! A29   A(10,11,12)           105.1382         calculate D2E/DX2 analytically  !
 ! A30   A(11,12,13)           111.4322         calculate D2E/DX2 analytically  !
 ! A31   A(11,12,23)           126.6952         calculate D2E/DX2 analytically  !
 ! A32   A(13,12,23)           121.8722         calculate D2E/DX2 analytically  !
 ! A33   A(9,13,12)            107.9521         calculate D2E/DX2 analytically  !
 ! A34   A(9,13,24)            123.8417         calculate D2E/DX2 analytically  !
 ! A35   A(12,13,24)           128.2027         calculate D2E/DX2 analytically  !
 ! A36   A(2,14,15)            112.5997         calculate D2E/DX2 analytically  !
 ! A37   A(2,14,25)            108.2457         calculate D2E/DX2 analytically  !
 ! A38   A(2,14,26)            108.7351         calculate D2E/DX2 analytically  !
 ! A39   A(15,14,25)           110.0428         calculate D2E/DX2 analytically  !
 ! A40   A(15,14,26)           110.4801         calculate D2E/DX2 analytically  !
 ! A41   A(25,14,26)           106.5261         calculate D2E/DX2 analytically  !
 ! A42   A(14,15,16)           115.1154         calculate D2E/DX2 analytically  !
 ! A43   A(14,15,27)           108.9426         calculate D2E/DX2 analytically  !
 ! A44   A(14,15,28)           108.8971         calculate D2E/DX2 analytically  !
 ! A45   A(16,15,27)           108.4343         calculate D2E/DX2 analytically  !
 ! A46   A(16,15,28)           108.6001         calculate D2E/DX2 analytically  !
 ! A47   A(27,15,28)           106.5126         calculate D2E/DX2 analytically  !
 ! A48   A(15,16,29)           110.3896         calculate D2E/DX2 analytically  !
 ! A49   A(15,16,30)           110.346          calculate D2E/DX2 analytically  !
 ! A50   A(29,16,30)           106.6742         calculate D2E/DX2 analytically  !
 ! D1    D(1,2,3,4)             12.0744         calculate D2E/DX2 analytically  !
 ! D2    D(1,2,3,17)           162.572          calculate D2E/DX2 analytically  !
 ! D3    D(14,2,3,4)          -169.8126         calculate D2E/DX2 analytically  !
 ! D4    D(14,2,3,17)          -19.315          calculate D2E/DX2 analytically  !
 ! D5    D(1,2,14,15)          -11.2469         calculate D2E/DX2 analytically  !
 ! D6    D(1,2,14,25)          110.6307         calculate D2E/DX2 analytically  !
 ! D7    D(1,2,14,26)         -134.0235         calculate D2E/DX2 analytically  !
 ! D8    D(3,2,14,15)          170.7105         calculate D2E/DX2 analytically  !
 ! D9    D(3,2,14,25)          -67.4119         calculate D2E/DX2 analytically  !
 ! D10   D(3,2,14,26)           47.9339         calculate D2E/DX2 analytically  !
 ! D11   D(2,3,4,5)             60.0931         calculate D2E/DX2 analytically  !
 ! D12   D(2,3,4,8)            -67.7728         calculate D2E/DX2 analytically  !
 ! D13   D(2,3,4,18)           173.3023         calculate D2E/DX2 analytically  !
 ! D14   D(17,3,4,5)           -90.908          calculate D2E/DX2 analytically  !
 ! D15   D(17,3,4,8)           141.2261         calculate D2E/DX2 analytically  !
 ! D16   D(17,3,4,18)           22.3011         calculate D2E/DX2 analytically  !
 ! D17   D(3,4,5,6)           -156.8426         calculate D2E/DX2 analytically  !
 ! D18   D(3,4,5,7)             25.8192         calculate D2E/DX2 analytically  !
 ! D19   D(8,4,5,6)            -30.9674         calculate D2E/DX2 analytically  !
 ! D20   D(8,4,5,7)            151.6944         calculate D2E/DX2 analytically  !
 ! D21   D(18,4,5,6)            90.8097         calculate D2E/DX2 analytically  !
 ! D22   D(18,4,5,7)           -86.5285         calculate D2E/DX2 analytically  !
 ! D23   D(3,4,8,9)           -143.8929         calculate D2E/DX2 analytically  !
 ! D24   D(3,4,8,20)           -25.0377         calculate D2E/DX2 analytically  !
 ! D25   D(3,4,8,21)            89.965          calculate D2E/DX2 analytically  !
 ! D26   D(5,4,8,9)             91.5679         calculate D2E/DX2 analytically  !
 ! D27   D(5,4,8,20)          -149.5769         calculate D2E/DX2 analytically  !
 ! D28   D(5,4,8,21)           -34.5742         calculate D2E/DX2 analytically  !
 ! D29   D(18,4,8,9)           -28.0945         calculate D2E/DX2 analytically  !
 ! D30   D(18,4,8,20)           90.7606         calculate D2E/DX2 analytically  !
 ! D31   D(18,4,8,21)         -154.2367         calculate D2E/DX2 analytically  !
 ! D32   D(4,5,6,19)           179.6235         calculate D2E/DX2 analytically  !
 ! D33   D(7,5,6,19)            -2.9738         calculate D2E/DX2 analytically  !
 ! D34   D(4,8,9,10)           119.8815         calculate D2E/DX2 analytically  !
 ! D35   D(4,8,9,13)           -59.1069         calculate D2E/DX2 analytically  !
 ! D36   D(20,8,9,10)            0.6533         calculate D2E/DX2 analytically  !
 ! D37   D(20,8,9,13)         -178.3351         calculate D2E/DX2 analytically  !
 ! D38   D(21,8,9,10)         -114.7065         calculate D2E/DX2 analytically  !
 ! D39   D(21,8,9,13)           66.3052         calculate D2E/DX2 analytically  !
 ! D40   D(8,9,10,11)         -179.4414         calculate D2E/DX2 analytically  !
 ! D41   D(8,9,10,22)            0.862          calculate D2E/DX2 analytically  !
 ! D42   D(13,9,10,11)          -0.3138         calculate D2E/DX2 analytically  !
 ! D43   D(13,9,10,22)         179.9897         calculate D2E/DX2 analytically  !
 ! D44   D(8,9,13,12)          179.6249         calculate D2E/DX2 analytically  !
 ! D45   D(8,9,13,24)           -1.0112         calculate D2E/DX2 analytically  !
 ! D46   D(10,9,13,12)           0.4067         calculate D2E/DX2 analytically  !
 ! D47   D(10,9,13,24)         179.7705         calculate D2E/DX2 analytically  !
 ! D48   D(9,10,11,12)           0.0957         calculate D2E/DX2 analytically  !
 ! D49   D(22,10,11,12)        179.8165         calculate D2E/DX2 analytically  !
 ! D50   D(10,11,12,13)          0.172          calculate D2E/DX2 analytically  !
 ! D51   D(10,11,12,23)       -179.599          calculate D2E/DX2 analytically  !
 ! D52   D(11,12,13,9)          -0.3752         calculate D2E/DX2 analytically  !
 ! D53   D(11,12,13,24)       -179.7028         calculate D2E/DX2 analytically  !
 ! D54   D(23,12,13,9)         179.4086         calculate D2E/DX2 analytically  !
 ! D55   D(23,12,13,24)          0.081          calculate D2E/DX2 analytically  !
 ! D56   D(2,14,15,16)        -179.1721         calculate D2E/DX2 analytically  !
 ! D57   D(2,14,15,27)         -57.159          calculate D2E/DX2 analytically  !
 ! D58   D(2,14,15,28)          58.633          calculate D2E/DX2 analytically  !
 ! D59   D(25,14,15,16)         59.9738         calculate D2E/DX2 analytically  !
 ! D60   D(25,14,15,27)       -178.0131         calculate D2E/DX2 analytically  !
 ! D61   D(25,14,15,28)        -62.2211         calculate D2E/DX2 analytically  !
 ! D62   D(26,14,15,16)        -57.3794         calculate D2E/DX2 analytically  !
 ! D63   D(26,14,15,27)         64.6337         calculate D2E/DX2 analytically  !
 ! D64   D(26,14,15,28)       -179.5743         calculate D2E/DX2 analytically  !
 ! D65   D(14,15,16,29)         59.1042         calculate D2E/DX2 analytically  !
 ! D66   D(14,15,16,30)        -58.5613         calculate D2E/DX2 analytically  !
 ! D67   D(27,15,16,29)        -63.1825         calculate D2E/DX2 analytically  !
 ! D68   D(27,15,16,30)        179.152          calculate D2E/DX2 analytically  !
 ! D69   D(28,15,16,29)       -178.5413         calculate D2E/DX2 analytically  !
 ! D70   D(28,15,16,30)         63.7932         calculate D2E/DX2 analytically  !
 --------------------------------------------------------------------------------
 Trust Radius=3.00D-01 FncErr=1.00D-07 GrdErr=1.00D-06
 Number of steps in this run=    160 maximum allowed number of steps=    180.
 GradGradGradGradGradGradGradGradGradGradGradGradGradGradGradGradGradGrad

                          Input orientation:                          
 ---------------------------------------------------------------------
 Center     Atomic      Atomic             Coordinates (Angstroms)
 Number     Number       Type             X           Y           Z
 ---------------------------------------------------------------------
      1          8           0        1.417701    0.857484   -0.676571
      2          6           0        1.594364   -0.004096    0.170265
      3          7           0        0.538935   -0.706795    0.689955
      4          6           0       -0.769472   -0.614461    0.045092
      5          6           0       -0.648268   -1.107456   -1.387719
      6          8           0       -1.618787   -0.618740   -2.200176
      7          8           0        0.179315   -1.885674   -1.771125
      8          6           0       -1.377870    0.798338    0.199367
      9          6           0       -2.858733    0.801239    0.379029
     10          6           0       -3.649774    1.260823    1.394234
     11          7           0       -4.984605    1.029882    1.115776
     12          6           0       -4.992777    0.436482   -0.052640
     13          7           0       -3.733425    0.272184   -0.534742
     14          6           0        2.949245   -0.355035    0.761106
     15          6           0        4.108125    0.286154   -0.004116
     16          7           0        5.437961   -0.030629    0.506347
     17          1           0        0.736987   -1.567649    1.169641
     18          1           0       -1.392069   -1.349352    0.568090
     19          1           0       -1.436240   -0.992330   -3.075593
     20          1           0       -0.944825    1.253127    1.087858
     21          1           0       -1.075666    1.429147   -0.632825
     22          1           0       -3.345191    1.748206    2.307926
     23          1           0       -5.857934    0.107305   -0.600236
     24          1           0       -3.449616   -0.146799   -1.405213
     25          1           0        2.962802   -0.027195    1.807808
     26          1           0        3.055580   -1.446224    0.774651
     27          1           0        4.056937   -0.023239   -1.048389
     28          1           0        3.981055    1.368669    0.004859
     29          1           0        5.594239   -1.031986    0.487363
     30          1           0        5.522075    0.258626    1.474429
 ---------------------------------------------------------------------
                    Distance matrix (angstroms):
                    1          2          3          4          5
     1  O    0.000000
     2  C    1.220926   0.000000
     3  N    2.255347   1.370326   0.000000
     4  C    2.733340   2.444573   1.461610   0.000000
     5  C    2.938529   2.945185   2.426255   1.520092   0.000000
     6  O    3.704169   4.039940   3.607821   2.400537   1.356774
     7  O    3.202588   3.051507   2.752454   2.411395   1.198965
     8  C    2.930185   3.078786   2.486009   1.545946   2.585191
     9  C    4.405150   4.530146   3.730281   2.545728   3.413308
    10  C    5.489100   5.531646   4.681113   3.692291   4.728324
    11  N    6.650696   6.726510   5.805762   4.649470   5.444219
    12  C    6.454516   6.605621   5.697225   4.353199   4.800098
    13  N    5.186212   5.381329   4.550972   3.147596   3.485566
    14  C    2.425437   1.519195   2.436881   3.795898   4.257427
    15  C    2.831430   2.536464   3.769191   4.960291   5.145851
    16  N    4.283751   3.858354   4.948875   6.251867   6.464459
    17  H    3.123001   2.044149   1.005183   2.107747   2.944622
    18  H    3.783400   3.299509   2.038752   1.096001   2.106405
    19  H    4.161983   4.549369   4.261713   3.213415   1.866299
    20  H    2.975109   2.978266   2.490214   2.146159   3.433480
    21  H    2.558435   3.134995   2.986458   2.174778   2.680837
    22  H    5.690848   5.660332   4.871478   4.163765   5.393143
    23  H    7.314606   7.492851   6.576267   5.179752   5.407069
    24  H    5.022975   5.286230   4.540029   3.083060   2.961540
    25  H    3.056490   2.134175   2.754375   4.169163   4.941476
    26  H    3.177383   2.140133   2.624391   3.981848   4.302220
    27  H    2.807042   2.747681   3.983143   4.983921   4.840416
    28  H    2.701192   2.758285   4.077388   5.148003   5.431491
    29  H    4.729515   4.141994   5.069802   6.392711   6.518475
    30  H    4.672399   4.146900   5.136061   6.510673   6.937666
                    6          7          8          9         10
     6  O    0.000000
     7  O    2.241066   0.000000
     8  C    2.797134   3.675811   0.000000
     9  C    3.194700   4.590469   1.491725   0.000000
    10  C    4.536238   5.880635   2.608284   1.366603   0.000000
    11  N    5.004221   6.595509   3.728533   2.261505   1.382985
    12  C    4.136329   5.924200   3.641703   2.207607   2.139309
    13  N    2.835333   4.636220   2.522775   1.371116   2.169182
    14  C    5.450289   4.053093   4.513285   5.934270   6.823408
    15  C    6.199922   4.824387   5.513609   6.996373   7.942944
    16  N    7.580820   6.023407   6.872916   8.339266   9.221883
    17  H    4.219687   3.010024   3.318425   4.377888   5.224402
    18  H    2.872018   2.868592   2.179158   2.609959   3.548628
    19  H    0.969148   2.260469   3.732997   4.144248   5.473188
    20  H    3.843082   4.391988   1.088015   2.090380   2.722255
    21  H    2.635415   3.722733   1.087102   2.144165   3.280752
    22  H    5.376420   6.501222   3.036218   2.203187   1.079419
    23  H    4.588826   6.464621   4.603027   3.230434   3.191313
    24  H    2.051007   4.040634   2.785694   2.105098   3.139804
    25  H    6.115947   4.900051   4.702129   6.051280   6.749533
    26  H    5.602145   3.866134   5.002448   6.339299   7.257669
    27  H    5.821947   4.361991   5.636401   7.109415   8.185879
    28  H    6.337996   5.310188   5.392698   6.873477   7.757032
    29  H    7.708526   5.928824   7.214107   8.650156   9.567192
    30  H    8.078639   6.608837   7.037494   8.469491   9.226790
                   11         12         13         14         15
    11  N    0.000000
    12  C    1.310491   0.000000
    13  N    2.205395   1.358449   0.000000
    14  C    8.061623   8.022743   6.835986   0.000000
    15  C    9.191574   9.102273   7.859495   1.529605   0.000000
    16  N   10.494092  10.456145   9.235252   2.522667   1.459242
    17  H    6.283844   6.191988   5.125865   2.555664   4.022296
    18  H    4.343620   4.066892   3.054106   4.457907   5.766666
    19  H    5.852164   4.881466   3.651299   5.861645   6.465947
    20  H    4.046040   4.284106   3.372146   4.225723   5.259254
    21  H    4.300793   4.082372   2.900322   4.618036   5.345409
    22  H    2.150556   3.163453   3.226473   6.814411   7.939462
    23  H    2.135075   1.075506   2.131903   8.923755   9.985473
    24  H    3.177445   2.133312   1.006884   6.758826   7.698699
    25  H    8.047211   8.183368   7.100466   1.096926   2.166338
    26  H    8.419741   8.306928   7.124466   1.096442   2.171513
    27  H    9.356397   9.115930   7.812864   2.147404   1.090344
    28  H    9.040574   9.022303   7.810675   2.146555   1.089984
    29  H   10.796210  10.702005   9.473694   2.743937   2.046358
    30  H   10.541053  10.626650   9.471073   2.739501   2.045998
                   16         17         18         19         20
    16  N    0.000000
    17  H    4.990145   0.000000
    18  H    6.956447   2.223151   0.000000
    19  H    7.810877   4.803740   3.661399   0.000000
    20  H    6.536524   3.285112   2.691298   4.755827   0.000000
    21  H    6.771705   3.938956   3.043413   3.458422   1.734604
    22  H    9.140771   5.380963   4.054205   6.335370   2.737777
    23  H   11.350806   7.030712   4.840535   5.185361   5.319887
    24  H    9.091566   5.116281   3.094117   2.749323   3.801207
    25  H    2.796466   2.781098   4.716980   6.643091   4.174578
    26  H    2.784176   2.355129   4.453497   5.933536   4.836097
    27  H    2.079540   4.280996   5.836373   5.934954   5.586617
    28  H    2.081370   4.527986   6.047754   6.664126   5.044852
    29  H    1.013657   4.934099   6.993979   7.881869   6.952820
    30  H    1.013867   5.130813   7.156287   8.407481   6.554332
                   21         22         23         24         25
    21  H    0.000000
    22  H    3.728345   0.000000
    23  H    4.961694   4.178975   0.000000
    24  H    2.952258   4.170054   2.551970   0.000000
    25  H    4.938303   6.572134   9.144514   7.173347   0.000000
    26  H    5.226465   7.316090   9.151748   6.982685   1.757743
    27  H    5.350302   8.318315   9.925852   7.516044   3.058596
    28  H    5.097129   7.689086   9.937951   7.713612   2.497179
    29  H    7.197196   9.537155  11.559979   9.282064   3.110891
    30  H    7.024302   9.030059  11.568567   9.431222   2.596674
                   26         27         28         29         30
    26  H    0.000000
    27  H    2.520135   0.000000
    28  H    3.061488   1.747140   0.000000
    29  H    2.588227   2.395706   2.932290   0.000000
    30  H    3.078929   2.930988   2.401370   1.626404   0.000000
 Symmetry turned off by external request.
 Stoichiometry    C9H14N4O3
 Framework group  C1[X(C9H14N4O3)]
 Deg. of freedom    84
 Full point group                 C1      NOp   1
 Rotational constants (GHZ):      1.2523698      0.2304720      0.2066994
 Standard basis: 6-311++G(2df,2pd) (5D, 7F)
   754 basis functions,  1084 primitive gaussians,   848 cartesian basis functions
    60 alpha electrons       60 beta electrons
       nuclear repulsion energy      1113.3337131870 Hartrees.
 NAtoms=   30 NActive=   30 NUniq=   30 SFac= 1.00D+00 NAtFMM=   60 NAOKFM=F Big=F
 Integral buffers will be    131072 words long.
 Raffenetti 2 integral format.
 Two-electron integral symmetry is turned off.
 Nuclear repulsion after empirical dispersion term =     1113.2796995233 Hartrees.
 One-electron integrals computed using PRISM.
 NBasis=   754 RedAO= T EigKep=  2.71D-06  NBF=   754
 NBsUse=   753 1.00D-06 EigRej=  5.84D-07 NBFU=   753
 ExpMin= 3.60D-02 ExpMax= 8.59D+03 ExpMxC= 1.30D+03 IAcc=3 IRadAn=         5 AccDes= 0.00D+00
 Harris functional with IExCor=  402 and IRadAn=       5 diagonalized for initial guess.
 HarFok:  IExCor=  402 AccDes= 0.00D+00 IRadAn=         5 IDoV= 1 UseB2=F ITyADJ=14
 ICtDFT=  3500011 ScaDFX=  1.000000  1.000000  1.000000  1.000000
 FoFCou: FMM=F IPFlag=           0 FMFlag=      100000 FMFlg1=           0
         NFxFlg=           0 DoJE=T BraDBF=F KetDBF=T FulRan=T
         wScrn=  0.000000 ICntrl=     500 IOpCl=  0 I1Cent=   200000004 NGrid=           0
         NMat0=    1 NMatS0=      1 NMatT0=    0 NMatD0=    1 NMtDS0=    0 NMtDT0=    0
 Symmetry not used in FoFCou.
 Requested convergence on RMS density matrix=1.00D-08 within 128 cycles.
 Requested convergence on MAX density matrix=1.00D-06.
 Requested convergence on             energy=1.00D-06.
 No special actions if energy rises.
 SCF Done:  E(RB3LYP) =  -796.427772940     A.U. after   14 cycles
            NFock= 14  Conv=0.43D-08     -V/T= 2.0040
 DoSCS=F DFT=T ScalE2(SS,OS)=  1.000000  1.000000
 Range of M.O.s used for correlation:     1   753
 NBasis=   754 NAE=    60 NBE=    60 NFC=     0 NFV=     0
 NROrb=    753 NOA=    60 NOB=    60 NVA=   693 NVB=   693

 **** Warning!!: The largest alpha MO coefficient is  0.95634782D+02

 Symmetrizing basis deriv contribution to polar:
 IMax=3 JMax=2 DiffMx= 0.00D+00
 G2DrvN: will do    31 centers at a time, making    1 passes.
 Calling FoFCou, ICntrl=  3107 FMM=F I1Cent=   0 AccDes= 0.00D+00.
 End of G2Drv F.D. properties file   721 does not exist.
 End of G2Drv F.D. properties file   722 does not exist.
 End of G2Drv F.D. properties file   788 does not exist.
          IDoAtm=111111111111111111111111111111
          Differentiating once with respect to nuclear coordinates.
          There are    93 degrees of freedom in the 1st order CPHF.  IDoFFX=6 NUNeed=     0.
     87 vectors produced by pass  0 Test12= 4.47D-14 1.08D-09 XBig12= 1.79D-01 1.13D-01.
 AX will form    87 AO Fock derivatives at one time.
     87 vectors produced by pass  1 Test12= 4.47D-14 1.08D-09 XBig12= 2.64D-02 4.13D-02.
     87 vectors produced by pass  2 Test12= 4.47D-14 1.08D-09 XBig12= 3.90D-04 2.50D-03.
     87 vectors produced by pass  3 Test12= 4.47D-14 1.08D-09 XBig12= 1.94D-06 1.40D-04.
     87 vectors produced by pass  4 Test12= 4.47D-14 1.08D-09 XBig12= 5.80D-09 6.96D-06.
     85 vectors produced by pass  5 Test12= 4.47D-14 1.08D-09 XBig12= 1.02D-11 2.65D-07.
     45 vectors produced by pass  6 Test12= 4.47D-14 1.08D-09 XBig12= 1.60D-14 1.02D-08.
      4 vectors produced by pass  7 Test12= 4.47D-14 1.08D-09 XBig12= 2.17D-16 1.67D-09.
      2 vectors produced by pass  8 Test12= 4.47D-14 1.08D-09 XBig12= 3.96D-16 2.16D-09.
 InvSVY:  IOpt=1 It=  1 EMax= 7.22D-16
 Solved reduced A of dimension   571 with    93 vectors.
 End of Minotr F.D. properties file   721 does not exist.
 End of Minotr F.D. properties file   722 does not exist.
 End of Minotr F.D. properties file   788 does not exist.

 **********************************************************************

            Population analysis using the SCF density.

 **********************************************************************

 Alpha  occ. eigenvalues --  -19.20812 -19.14362 -19.10926 -14.36383 -14.35752
 Alpha  occ. eigenvalues --  -14.30155 -14.29099 -10.33395 -10.28917 -10.25548
 Alpha  occ. eigenvalues --  -10.22099 -10.20406 -10.19878 -10.19613 -10.19206
 Alpha  occ. eigenvalues --  -10.17924  -1.14708  -1.06407  -1.05433  -1.01935
 Alpha  occ. eigenvalues --   -0.95055  -0.89496  -0.87296  -0.81986  -0.77343
 Alpha  occ. eigenvalues --   -0.74765  -0.69093  -0.66494  -0.62595  -0.61814
 Alpha  occ. eigenvalues --   -0.59971  -0.59326  -0.55539  -0.53562  -0.52599
 Alpha  occ. eigenvalues --   -0.52068  -0.51529  -0.49205  -0.48278  -0.46333
 Alpha  occ. eigenvalues --   -0.45790  -0.44443  -0.44156  -0.43505  -0.42847
 Alpha  occ. eigenvalues --   -0.41722  -0.41034  -0.40031  -0.39809  -0.39013
 Alpha  occ. eigenvalues --   -0.38874  -0.36096  -0.35452  -0.31486  -0.29497
 Alpha  occ. eigenvalues --   -0.28539  -0.28253  -0.27154  -0.25171  -0.23146
 Alpha virt. eigenvalues --   -0.03804  -0.02595  -0.01936  -0.01278  -0.00595
 Alpha virt. eigenvalues --    0.00676   0.00908   0.01353   0.01803   0.01973
 Alpha virt. eigenvalues --    0.02347   0.03076   0.03911   0.04374   0.04783
 Alpha virt. eigenvalues --    0.04916   0.05178   0.06077   0.06391   0.07085
 Alpha virt. eigenvalues --    0.07530   0.07900   0.08261   0.08585   0.08781
 Alpha virt. eigenvalues --    0.08931   0.09771   0.10256   0.10674   0.11167
 Alpha virt. eigenvalues --    0.11737   0.12107   0.12386   0.12420   0.12710
 Alpha virt. eigenvalues --    0.12722   0.12908   0.13334   0.14065   0.14415
 Alpha virt. eigenvalues --    0.14807   0.15057   0.15215   0.15897   0.15921
 Alpha virt. eigenvalues --    0.16047   0.16406   0.16663   0.17193   0.17783
 Alpha virt. eigenvalues --    0.18040   0.18184   0.18646   0.19023   0.19181
 Alpha virt. eigenvalues --    0.19424   0.19782   0.20766   0.20959   0.21525
 Alpha virt. eigenvalues --    0.21865   0.22386   0.22757   0.23211   0.23480
 Alpha virt. eigenvalues --    0.24005   0.24409   0.24887   0.24938   0.25677
 Alpha virt. eigenvalues --    0.25781   0.26332   0.26958   0.27142   0.27533
 Alpha virt. eigenvalues --    0.27834   0.28518   0.29103   0.29350   0.29475
 Alpha virt. eigenvalues --    0.30016   0.30328   0.30555   0.30720   0.31121
 Alpha virt. eigenvalues --    0.31736   0.31858   0.33013   0.33434   0.33505
 Alpha virt. eigenvalues --    0.33968   0.34183   0.35045   0.35133   0.35628
 Alpha virt. eigenvalues --    0.36231   0.36630   0.36918   0.37617   0.38237
 Alpha virt. eigenvalues --    0.38754   0.39980   0.40892   0.41724   0.42939
 Alpha virt. eigenvalues --    0.43987   0.44175   0.45242   0.45699   0.46418
 Alpha virt. eigenvalues --    0.47304   0.47645   0.47981   0.50281   0.50456
 Alpha virt. eigenvalues --    0.50852   0.52444   0.52945   0.53959   0.54262
 Alpha virt. eigenvalues --    0.54952   0.55140   0.55752   0.56368   0.56695
 Alpha virt. eigenvalues --    0.57641   0.57901   0.59477   0.59816   0.60200
 Alpha virt. eigenvalues --    0.60574   0.60813   0.61243   0.62023   0.62311
 Alpha virt. eigenvalues --    0.63601   0.63773   0.65210   0.65442   0.65949
 Alpha virt. eigenvalues --    0.66113   0.66806   0.67181   0.68103   0.68788
 Alpha virt. eigenvalues --    0.69212   0.69585   0.69852   0.69973   0.70223
 Alpha virt. eigenvalues --    0.71174   0.71787   0.72490   0.74150   0.74978
 Alpha virt. eigenvalues --    0.75644   0.75772   0.76356   0.77033   0.77155
 Alpha virt. eigenvalues --    0.77700   0.78419   0.79178   0.79390   0.80392
 Alpha virt. eigenvalues --    0.81343   0.81682   0.82378   0.83233   0.84692
 Alpha virt. eigenvalues --    0.84811   0.85242   0.86479   0.87704   0.88634
 Alpha virt. eigenvalues --    0.89849   0.90091   0.90800   0.92225   0.92876
 Alpha virt. eigenvalues --    0.93470   0.94501   0.95339   0.96300   0.97156
 Alpha virt. eigenvalues --    0.97751   0.98289   0.99010   1.00120   1.00563
 Alpha virt. eigenvalues --    1.03328   1.03896   1.04435   1.04801   1.05648
 Alpha virt. eigenvalues --    1.05796   1.07863   1.08261   1.08719   1.09059
 Alpha virt. eigenvalues --    1.10619   1.11457   1.12367   1.13403   1.13574
 Alpha virt. eigenvalues --    1.14371   1.15011   1.15599   1.16008   1.16822
 Alpha virt. eigenvalues --    1.17711   1.17997   1.18497   1.19585   1.20871
 Alpha virt. eigenvalues --    1.21424   1.22339   1.22788   1.23609   1.24186
 Alpha virt. eigenvalues --    1.25198   1.26477   1.27296   1.27704   1.28269
 Alpha virt. eigenvalues --    1.29043   1.29858   1.30694   1.31189   1.32111
 Alpha virt. eigenvalues --    1.32489   1.34096   1.34823   1.35322   1.36749
 Alpha virt. eigenvalues --    1.37224   1.38615   1.39645   1.39713   1.41299
 Alpha virt. eigenvalues --    1.41450   1.42386   1.43363   1.43805   1.44498
 Alpha virt. eigenvalues --    1.44693   1.45669   1.46582   1.47777   1.47991
 Alpha virt. eigenvalues --    1.49563   1.50911   1.51659   1.52129   1.52505
 Alpha virt. eigenvalues --    1.53653   1.54422   1.55081   1.55227   1.56098
 Alpha virt. eigenvalues --    1.56899   1.58867   1.59723   1.60035   1.61666
 Alpha virt. eigenvalues --    1.62511   1.63072   1.64301   1.65296   1.66450
 Alpha virt. eigenvalues --    1.67732   1.68060   1.68331   1.69173   1.70368
 Alpha virt. eigenvalues --    1.72291   1.73480   1.74910   1.77458   1.79267
 Alpha virt. eigenvalues --    1.80055   1.82345   1.83194   1.84507   1.84706
 Alpha virt. eigenvalues --    1.86382   1.88454   1.88984   1.90083   1.90805
 Alpha virt. eigenvalues --    1.94657   1.95947   1.96332   1.96883   1.98351
 Alpha virt. eigenvalues --    2.03313   2.04623   2.08188   2.09745   2.11785
 Alpha virt. eigenvalues --    2.12325   2.16125   2.17844   2.20251   2.24484
 Alpha virt. eigenvalues --    2.28764   2.35016   2.42929   2.45056   2.47300
 Alpha virt. eigenvalues --    2.49188   2.51374   2.53150   2.54277   2.58166
 Alpha virt. eigenvalues --    2.59916   2.60867   2.61754   2.62385   2.64282
 Alpha virt. eigenvalues --    2.66250   2.67672   2.69129   2.69824   2.71438
 Alpha virt. eigenvalues --    2.72029   2.72858   2.73328   2.74261   2.75282
 Alpha virt. eigenvalues --    2.76405   2.77077   2.78513   2.79892   2.80295
 Alpha virt. eigenvalues --    2.81840   2.83281   2.83946   2.85107   2.86257
 Alpha virt. eigenvalues --    2.87281   2.88509   2.89122   2.89475   2.89957
 Alpha virt. eigenvalues --    2.91159   2.91923   2.92742   2.93874   2.94645
 Alpha virt. eigenvalues --    2.95190   2.96087   2.96885   2.98198   2.98976
 Alpha virt. eigenvalues --    3.00136   3.00914   3.01085   3.01391   3.02440
 Alpha virt. eigenvalues --    3.02987   3.03972   3.05352   3.06115   3.07280
 Alpha virt. eigenvalues --    3.08014   3.08332   3.09463   3.09882   3.10410
 Alpha virt. eigenvalues --    3.11062   3.11157   3.12700   3.12844   3.13589
 Alpha virt. eigenvalues --    3.14361   3.14643   3.15732   3.16762   3.18324
 Alpha virt. eigenvalues --    3.19262   3.19790   3.19886   3.21444   3.21874
 Alpha virt. eigenvalues --    3.22434   3.23219   3.23829   3.24874   3.25355
 Alpha virt. eigenvalues --    3.27099   3.27667   3.28380   3.28988   3.29403
 Alpha virt. eigenvalues --    3.31049   3.31517   3.32442   3.33207   3.33425
 Alpha virt. eigenvalues --    3.34523   3.35417   3.35624   3.36476   3.37514
 Alpha virt. eigenvalues --    3.38410   3.39193   3.39696   3.41010   3.41799
 Alpha virt. eigenvalues --    3.42020   3.43203   3.43584   3.44693   3.45171
 Alpha virt. eigenvalues --    3.45285   3.46337   3.46980   3.48854   3.50114
 Alpha virt. eigenvalues --    3.51133   3.51404   3.52972   3.53001   3.53724
 Alpha virt. eigenvalues --    3.55053   3.55189   3.56698   3.57307   3.58901
 Alpha virt. eigenvalues --    3.58999   3.59818   3.60264   3.60775   3.61750
 Alpha virt. eigenvalues --    3.62074   3.62774   3.64695   3.64930   3.66386
 Alpha virt. eigenvalues --    3.67197   3.67433   3.68645   3.69180   3.69704
 Alpha virt. eigenvalues --    3.69895   3.70899   3.71450   3.72246   3.73171
 Alpha virt. eigenvalues --    3.74059   3.75568   3.76046   3.76479   3.77375
 Alpha virt. eigenvalues --    3.77858   3.78753   3.79364   3.79857   3.80391
 Alpha virt. eigenvalues --    3.81342   3.81676   3.84502   3.85761   3.87114
 Alpha virt. eigenvalues --    3.87278   3.88108   3.88573   3.90027   3.90709
 Alpha virt. eigenvalues --    3.91444   3.92368   3.92633   3.93509   3.95136
 Alpha virt. eigenvalues --    3.95546   3.95733   3.96751   3.98599   3.99411
 Alpha virt. eigenvalues --    4.00414   4.00900   4.01821   4.02516   4.03707
 Alpha virt. eigenvalues --    4.04503   4.05185   4.06772   4.07308   4.07690
 Alpha virt. eigenvalues --    4.08887   4.09669   4.10491   4.10644   4.12484
 Alpha virt. eigenvalues --    4.13219   4.14512   4.14937   4.16090   4.17867
 Alpha virt. eigenvalues --    4.20138   4.21258   4.21967   4.23285   4.24006
 Alpha virt. eigenvalues --    4.25366   4.26565   4.27980   4.30077   4.30596
 Alpha virt. eigenvalues --    4.31048   4.31881   4.33559   4.33861   4.34895
 Alpha virt. eigenvalues --    4.35534   4.36399   4.37586   4.38813   4.40593
 Alpha virt. eigenvalues --    4.41584   4.42943   4.43926   4.47110   4.47522
 Alpha virt. eigenvalues --    4.49617   4.50371   4.52301   4.54426   4.55769
 Alpha virt. eigenvalues --    4.56818   4.58142   4.59970   4.61416   4.62357
 Alpha virt. eigenvalues --    4.63309   4.64508   4.66429   4.67513   4.68551
 Alpha virt. eigenvalues --    4.71060   4.73282   4.75774   4.78149   4.78951
 Alpha virt. eigenvalues --    4.80791   4.83284   4.84840   4.84984   4.85647
 Alpha virt. eigenvalues --    4.87705   4.88893   4.90495   4.92989   4.93894
 Alpha virt. eigenvalues --    4.95438   4.96523   4.96927   4.98442   5.00878
 Alpha virt. eigenvalues --    5.01601   5.02299   5.02980   5.03566   5.04562
 Alpha virt. eigenvalues --    5.05561   5.06172   5.06926   5.08939   5.09647
 Alpha virt. eigenvalues --    5.10578   5.11545   5.12588   5.13442   5.13904
 Alpha virt. eigenvalues --    5.14745   5.15690   5.16909   5.18092   5.18318
 Alpha virt. eigenvalues --    5.19564   5.20384   5.20819   5.21782   5.22129
 Alpha virt. eigenvalues --    5.23458   5.24069   5.25186   5.27073   5.27282
 Alpha virt. eigenvalues --    5.28062   5.28707   5.32188   5.32424   5.33282
 Alpha virt. eigenvalues --    5.34980   5.35353   5.36986   5.38284   5.40455
 Alpha virt. eigenvalues --    5.41031   5.44198   5.45247   5.47800   5.48650
 Alpha virt. eigenvalues --    5.49256   5.50313   5.52473   5.55449   5.55932
 Alpha virt. eigenvalues --    5.57837   5.58992   5.60491   5.60966   5.62085
 Alpha virt. eigenvalues --    5.65722   5.68186   5.71201   5.72615   5.73080
 Alpha virt. eigenvalues --    5.80118   5.80973   5.81622   5.83187   5.85083
 Alpha virt. eigenvalues --    5.86370   5.88407   5.90198   5.91008   5.94943
 Alpha virt. eigenvalues --    5.95563   6.00672   6.01929   6.08253   6.08523
 Alpha virt. eigenvalues --    6.11945   6.14786   6.17196   6.23943   6.28071
 Alpha virt. eigenvalues --    6.31077   6.32999   6.34330   6.37585   6.41851
 Alpha virt. eigenvalues --    6.42656   6.44762   6.46304   6.49351   6.51348
 Alpha virt. eigenvalues --    6.57359   6.58006   6.66363   6.76364   6.84087
 Alpha virt. eigenvalues --    6.87956   6.90951   6.94785   6.98085   7.00925
 Alpha virt. eigenvalues --    7.03552   7.09101   7.14209   7.17733   7.22339
 Alpha virt. eigenvalues --    7.25402   7.26445   7.26916   7.29964   7.31962
 Alpha virt. eigenvalues --    7.56387   7.59779   7.61504   7.66380   7.74007
 Alpha virt. eigenvalues --    7.75371   7.96279  24.55678  24.72846  24.82754
 Alpha virt. eigenvalues --   24.83368  25.06520  25.08524  25.11474  25.14117
 Alpha virt. eigenvalues --   25.16602  35.99272  36.24084  36.31223  36.48415
 Alpha virt. eigenvalues --   50.20414  50.21568  50.27764
          Condensed to atoms (all electrons):
               1          2          3          4          5          6
     1  O    8.095926   0.232740  -0.142625   0.109888  -0.020717  -0.001055
     2  C    0.232740   8.038576   0.281275  -0.969790  -0.021809  -0.026758
     3  N   -0.142625   0.281275   6.681789  -0.390641   0.186856  -0.001838
     4  C    0.109888  -0.969790  -0.390641  10.107509  -2.043529   0.330378
     5  C   -0.020717  -0.021809   0.186856  -2.043529   6.724644   0.109386
     6  O   -0.001055  -0.026758  -0.001838   0.330378   0.109386   7.906534
     7  O   -0.003580   0.058158  -0.000482  -0.079319   0.442174  -0.101234
     8  C   -0.021965   0.163776   0.130327  -0.982764   0.393684  -0.073218
     9  C   -0.003798   0.045217   0.090784  -1.156344   0.362478  -0.078660
    10  C   -0.004169  -0.039348   0.028724   0.131593  -0.036433  -0.000988
    11  N   -0.000022   0.002434  -0.000505   0.003770  -0.005504   0.000959
    12  C    0.000249   0.007320  -0.003298   0.028111  -0.001574   0.000369
    13  N    0.000557   0.012011  -0.000760  -0.002655  -0.002793   0.019551
    14  C    0.207652  -1.752724  -0.209698   0.491706  -0.215333  -0.001918
    15  C   -0.063703   0.234012  -0.041904  -0.113004   0.024321   0.001065
    16  N    0.001339  -0.018122   0.001895   0.011528  -0.001301  -0.000019
    17  H    0.002280  -0.049605   0.334580  -0.019041   0.002018  -0.000810
    18  H   -0.001368   0.001719  -0.056915   0.520252  -0.070627   0.003366
    19  H    0.000074  -0.004679   0.005177  -0.139993   0.096384   0.214331
    20  H   -0.002931  -0.039303  -0.041834   0.144989  -0.066162  -0.002141
    21  H   -0.019345   0.022729   0.016570  -0.078971  -0.035533   0.003462
    22  H    0.000102   0.002000   0.002460  -0.011388   0.005178  -0.000363
    23  H    0.000017   0.000450  -0.000323   0.000461   0.000246   0.000404
    24  H    0.000748   0.004015   0.001676  -0.000247  -0.029744  -0.018930
    25  H    0.001019  -0.096726   0.024946   0.009781  -0.001194   0.000075
    26  H    0.004249  -0.130316  -0.012144   0.029665  -0.006223  -0.000141
    27  H   -0.002780   0.016341   0.004363   0.007982  -0.001597   0.000118
    28  H    0.002126   0.018435   0.000424   0.004755   0.000887  -0.000109
    29  H    0.000309   0.009638   0.000407   0.000719   0.000389  -0.000004
    30  H    0.000226   0.014796   0.000098  -0.000345   0.000172   0.000000
               7          8          9         10         11         12
     1  O   -0.003580  -0.021965  -0.003798  -0.004169  -0.000022   0.000249
     2  C    0.058158   0.163776   0.045217  -0.039348   0.002434   0.007320
     3  N   -0.000482   0.130327   0.090784   0.028724  -0.000505  -0.003298
     4  C   -0.079319  -0.982764  -1.156344   0.131593   0.003770   0.028111
     5  C    0.442174   0.393684   0.362478  -0.036433  -0.005504  -0.001574
     6  O   -0.101234  -0.073218  -0.078660  -0.000988   0.000959   0.000369
     7  O    8.090656  -0.001433   0.000370   0.000548  -0.000001   0.000164
     8  C   -0.001433   5.612505   0.643339  -0.116748   0.005813  -0.056022
     9  C    0.000370   0.643339   6.760025  -0.601106  -0.056580  -0.144510
    10  C    0.000548  -0.116748  -0.601106   6.612098   0.353232  -0.257503
    11  N   -0.000001   0.005813  -0.056580   0.353232   6.886845   0.226339
    12  C    0.000164  -0.056022  -0.144510  -0.257503   0.226339   5.391263
    13  N    0.000854  -0.072388   0.203853  -0.186721   0.045705   0.267146
    14  C   -0.042347  -0.235516  -0.017957  -0.005530   0.000052  -0.000593
    15  C    0.002445  -0.016777   0.001689   0.000306   0.000013   0.000113
    16  N   -0.000066   0.000812  -0.000256   0.000015   0.000000  -0.000004
    17  H   -0.002282   0.026450   0.003372  -0.000964  -0.000021   0.000049
    18  H   -0.002322  -0.074769  -0.055235   0.009020  -0.001160  -0.005284
    19  H    0.009517   0.019390   0.015740  -0.002298  -0.000231  -0.000616
    20  H   -0.000079   0.350552  -0.049117  -0.066590   0.002514   0.002619
    21  H   -0.003404   0.383504  -0.032478   0.013278  -0.000136  -0.002715
    22  H    0.000016  -0.018945  -0.143296   0.515311  -0.093165   0.034226
    23  H   -0.000024   0.003330   0.045904  -0.007699  -0.080200   0.458972
    24  H    0.004827  -0.012172  -0.089714   0.051305   0.007191  -0.047020
    25  H   -0.000271   0.005432   0.000049   0.000237  -0.000017  -0.000007
    26  H   -0.002571  -0.007176  -0.000709  -0.001228   0.000012   0.000031
    27  H   -0.001349   0.002771   0.000102   0.000134  -0.000003  -0.000008
    28  H    0.000530  -0.001073  -0.000420  -0.000016   0.000001  -0.000006
    29  H    0.000007  -0.000080  -0.000015   0.000013   0.000000  -0.000001
    30  H   -0.000013   0.000359   0.000011   0.000019   0.000000  -0.000001
              13         14         15         16         17         18
     1  O    0.000557   0.207652  -0.063703   0.001339   0.002280  -0.001368
     2  C    0.012011  -1.752724   0.234012  -0.018122  -0.049605   0.001719
     3  N   -0.000760  -0.209698  -0.041904   0.001895   0.334580  -0.056915
     4  C   -0.002655   0.491706  -0.113004   0.011528  -0.019041   0.520252
     5  C   -0.002793  -0.215333   0.024321  -0.001301   0.002018  -0.070627
     6  O    0.019551  -0.001918   0.001065  -0.000019  -0.000810   0.003366
     7  O    0.000854  -0.042347   0.002445  -0.000066  -0.002282  -0.002322
     8  C   -0.072388  -0.235516  -0.016777   0.000812   0.026450  -0.074769
     9  C    0.203853  -0.017957   0.001689  -0.000256   0.003372  -0.055235
    10  C   -0.186721  -0.005530   0.000306   0.000015  -0.000964   0.009020
    11  N    0.045705   0.000052   0.000013   0.000000  -0.000021  -0.001160
    12  C    0.267146  -0.000593   0.000113  -0.000004   0.000049  -0.005284
    13  N    6.403390  -0.003656   0.000075  -0.000002   0.000882   0.004714
    14  C   -0.003656   6.893838  -0.153988  -0.040131  -0.010398   0.006114
    15  C    0.000075  -0.153988   5.714109   0.251081  -0.006765  -0.000638
    16  N   -0.000002  -0.040131   0.251081   6.297519   0.001580   0.000228
    17  H    0.000882  -0.010398  -0.006765   0.001580   0.585351  -0.008577
    18  H    0.004714   0.006114  -0.000638   0.000228  -0.008577   0.673027
    19  H   -0.005414   0.000045   0.000189  -0.000009  -0.000522  -0.000964
    20  H    0.010238   0.029592  -0.002124   0.000134   0.002174  -0.002646
    21  H    0.000106  -0.004288   0.002314  -0.000138  -0.001530   0.011400
    22  H    0.024176  -0.002128   0.000068  -0.000002   0.000026  -0.001739
    23  H   -0.087303   0.000133   0.000001   0.000000  -0.000028  -0.000294
    24  H    0.429322  -0.001500  -0.000024   0.000001   0.000640   0.000897
    25  H    0.000029   0.450222  -0.062004  -0.001235  -0.000445  -0.000137
    26  H    0.000005   0.468250  -0.008631  -0.001481   0.003906  -0.000422
    27  H    0.000004  -0.018705   0.333246  -0.044119   0.000639   0.000065
    28  H    0.000003  -0.026825   0.355902  -0.042603  -0.000281   0.000257
    29  H   -0.000002   0.022191  -0.092314   0.379871   0.000072   0.000058
    30  H   -0.000001   0.014865  -0.085788   0.378347   0.000106   0.000004
              19         20         21         22         23         24
     1  O    0.000074  -0.002931  -0.019345   0.000102   0.000017   0.000748
     2  C   -0.004679  -0.039303   0.022729   0.002000   0.000450   0.004015
     3  N    0.005177  -0.041834   0.016570   0.002460  -0.000323   0.001676
     4  C   -0.139993   0.144989  -0.078971  -0.011388   0.000461  -0.000247
     5  C    0.096384  -0.066162  -0.035533   0.005178   0.000246  -0.029744
     6  O    0.214331  -0.002141   0.003462  -0.000363   0.000404  -0.018930
     7  O    0.009517  -0.000079  -0.003404   0.000016  -0.000024   0.004827
     8  C    0.019390   0.350552   0.383504  -0.018945   0.003330  -0.012172
     9  C    0.015740  -0.049117  -0.032478  -0.143296   0.045904  -0.089714
    10  C   -0.002298  -0.066590   0.013278   0.515311  -0.007699   0.051305
    11  N   -0.000231   0.002514  -0.000136  -0.093165  -0.080200   0.007191
    12  C   -0.000616   0.002619  -0.002715   0.034226   0.458972  -0.047020
    13  N   -0.005414   0.010238   0.000106   0.024176  -0.087303   0.429322
    14  C    0.000045   0.029592  -0.004288  -0.002128   0.000133  -0.001500
    15  C    0.000189  -0.002124   0.002314   0.000068   0.000001  -0.000024
    16  N   -0.000009   0.000134  -0.000138  -0.000002   0.000000   0.000001
    17  H   -0.000522   0.002174  -0.001530   0.000026  -0.000028   0.000640
    18  H   -0.000964  -0.002646   0.011400  -0.001739  -0.000294   0.000897
    19  H    0.520117  -0.001266  -0.003524   0.000098  -0.000025   0.003397
    20  H   -0.001266   0.711077  -0.044972  -0.004772   0.000557  -0.000649
    21  H   -0.003524  -0.044972   0.658444   0.002270  -0.000527  -0.000188
    22  H    0.000098  -0.004772   0.002270   0.619869   0.000148   0.002124
    23  H   -0.000025   0.000557  -0.000527   0.000148   0.582011  -0.008026
    24  H    0.003397  -0.000649  -0.000188   0.002124  -0.008026   0.510759
    25  H   -0.000018  -0.000109   0.000252   0.000073  -0.000001  -0.000027
    26  H    0.000006   0.001899  -0.000604  -0.000119   0.000006  -0.000013
    27  H    0.000021  -0.000511  -0.000062   0.000020  -0.000001  -0.000020
    28  H    0.000002  -0.000230  -0.000375  -0.000009   0.000000   0.000023
    29  H    0.000001  -0.000022  -0.000013   0.000000   0.000000   0.000000
    30  H    0.000001  -0.000041  -0.000032   0.000001   0.000000   0.000000
              25         26         27         28         29         30
     1  O    0.001019   0.004249  -0.002780   0.002126   0.000309   0.000226
     2  C   -0.096726  -0.130316   0.016341   0.018435   0.009638   0.014796
     3  N    0.024946  -0.012144   0.004363   0.000424   0.000407   0.000098
     4  C    0.009781   0.029665   0.007982   0.004755   0.000719  -0.000345
     5  C   -0.001194  -0.006223  -0.001597   0.000887   0.000389   0.000172
     6  O    0.000075  -0.000141   0.000118  -0.000109  -0.000004   0.000000
     7  O   -0.000271  -0.002571  -0.001349   0.000530   0.000007  -0.000013
     8  C    0.005432  -0.007176   0.002771  -0.001073  -0.000080   0.000359
     9  C    0.000049  -0.000709   0.000102  -0.000420  -0.000015   0.000011
    10  C    0.000237  -0.001228   0.000134  -0.000016   0.000013   0.000019
    11  N   -0.000017   0.000012  -0.000003   0.000001   0.000000   0.000000
    12  C   -0.000007   0.000031  -0.000008  -0.000006  -0.000001  -0.000001
    13  N    0.000029   0.000005   0.000004   0.000003  -0.000002  -0.000001
    14  C    0.450222   0.468250  -0.018705  -0.026825   0.022191   0.014865
    15  C   -0.062004  -0.008631   0.333246   0.355902  -0.092314  -0.085788
    16  N   -0.001235  -0.001481  -0.044119  -0.042603   0.379871   0.378347
    17  H   -0.000445   0.003906   0.000639  -0.000281   0.000072   0.000106
    18  H   -0.000137  -0.000422   0.000065   0.000257   0.000058   0.000004
    19  H   -0.000018   0.000006   0.000021   0.000002   0.000001   0.000001
    20  H   -0.000109   0.001899  -0.000511  -0.000230  -0.000022  -0.000041
    21  H    0.000252  -0.000604  -0.000062  -0.000375  -0.000013  -0.000032
    22  H    0.000073  -0.000119   0.000020  -0.000009   0.000000   0.000001
    23  H   -0.000001   0.000006  -0.000001   0.000000   0.000000   0.000000
    24  H   -0.000027  -0.000013  -0.000020   0.000023   0.000000   0.000000
    25  H    0.717788  -0.082387   0.016940  -0.019949  -0.004541   0.007213
    26  H   -0.082387   0.750144  -0.021999   0.017044   0.006435  -0.006594
    27  H    0.016940  -0.021999   0.666441  -0.032325  -0.010687   0.013975
    28  H   -0.019949   0.017044  -0.032325   0.651279   0.012873  -0.011637
    29  H   -0.004541   0.006435  -0.010687   0.012873   0.620185  -0.052746
    30  H    0.007213  -0.006594   0.013975  -0.011637  -0.052746   0.621226
 Mulliken charges:
               1
     1  O   -0.371443
     2  C   -0.016458
     3  N    0.110615
     4  C    0.054945
     5  C    0.211258
     6  O   -0.281811
     7  O   -0.369490
     8  C   -0.050999
     9  C    0.257262
    10  C   -0.388491
    11  N   -0.297333
    12  C    0.102192
    13  N   -0.060924
    14  C    0.158576
    15  C   -0.273282
    16  N   -0.174864
    17  H    0.137144
    18  H    0.051980
    19  H    0.275068
    20  H    0.069155
    21  H    0.114508
    22  H    0.067761
    23  H    0.091809
    24  H    0.191347
    25  H    0.035016
    26  H    0.001105
    27  H    0.071004
    28  H    0.071317
    29  H    0.107256
    30  H    0.105778
 Sum of Mulliken charges =   0.00000
 Mulliken charges with hydrogens summed into heavy atoms:
               1
     1  O   -0.371443
     2  C   -0.016458
     3  N    0.247759
     4  C    0.106924
     5  C    0.211258
     6  O   -0.006743
     7  O   -0.369490
     8  C    0.132664
     9  C    0.257262
    10  C   -0.320730
    11  N   -0.297333
    12  C    0.194001
    13  N    0.130423
    14  C    0.194697
    15  C   -0.130961
    16  N    0.038169
 APT charges:
               1
     1  O   -0.449969
     2  C    0.070104
     3  N   -0.294662
     4  C   -0.832997
     5  C    0.319853
     6  O   -0.672470
     7  O   -0.331111
     8  C   -0.218169
     9  C   -0.004393
    10  C   -0.185206
    11  N   -0.508010
    12  C   -0.329381
    13  N   -0.428151
    14  C   -0.251493
    15  C   -0.402064
    16  N   -1.067352
    17  H    0.476532
    18  H    0.330798
    19  H    0.814927
    20  H    0.200785
    21  H    0.265142
    22  H    0.378576
    23  H    0.939806
    24  H    0.213048
    25  H    0.307107
    26  H    0.281390
    27  H    0.226081
    28  H    0.238427
    29  H    0.456561
    30  H    0.456292
 Sum of APT charges =   0.00000
 APT charges with hydrogens summed into heavy atoms:
               1
     1  O   -0.449969
     2  C    0.070104
     3  N    0.181870
     4  C   -0.502198
     5  C    0.319853
     6  O    0.142457
     7  O   -0.331111
     8  C    0.247758
     9  C   -0.004393
    10  C    0.193370
    11  N   -0.508010
    12  C    0.610425
    13  N   -0.215103
    14  C    0.337003
    15  C    0.062443
    16  N   -0.154498
 Electronic spatial extent (au):  <R**2>=           5201.9897
 Charge=              0.0000 electrons
 Dipole moment (field-independent basis, Debye):
    X=              1.0564    Y=             -3.6306    Z=             -0.0981  Tot=              3.7825
 Quadrupole moment (field-independent basis, Debye-Ang):
   XX=           -120.6175   YY=            -97.7247   ZZ=            -87.8601
   XY=              4.1577   XZ=             25.6348   YZ=             -1.0834
 Traceless Quadrupole moment (field-independent basis, Debye-Ang):
   XX=            -18.5500   YY=              4.3427   ZZ=             14.2073
   XY=              4.1577   XZ=             25.6348   YZ=             -1.0834
 Octapole moment (field-independent basis, Debye-Ang**2):
  XXX=            164.0069  YYY=             -9.2775  ZZZ=            -12.1050  XYY=             53.9568
  XXY=            -84.2741  XXZ=            -44.4873  XZZ=             41.3309  YZZ=             -6.3378
  YYZ=             17.5795  XYZ=              1.4965
 Hexadecapole moment (field-independent basis, Debye-Ang**3):
 XXXX=          -6979.6981 YYYY=           -554.5007 ZZZZ=           -583.2611 XXXY=            346.7992
 XXXZ=            592.3284 YYYX=            264.0415 YYYZ=           -164.1703 ZZZX=             79.9487
 ZZZY=           -103.8842 XXYY=          -1083.9579 XXZZ=          -1060.6137 YYZZ=           -206.3030
 XXYZ=            -73.8730 YYXZ=             19.2725 ZZXY=            112.1003
 N-N= 1.113279699523D+03 E-N=-4.087390959721D+03  KE= 7.932817341835D+02
  Exact polarizability:   0.000   0.000   0.000   0.000   0.000   0.000
 Approx polarizability: 232.460  -5.075 189.815  -1.621   6.895 214.360
 Calling FoFJK, ICntrl=    100147 FMM=F ISym2X=0 I1Cent= 0 IOpClX= 0 NMat=1 NMatS=1 NMatT=0.
 -------------------------------------------------------------------
 Center     Atomic                   Forces (Hartrees/Bohr)
 Number     Number              X              Y              Z
 -------------------------------------------------------------------
      1        8           0.003520979   -0.003882561    0.002892906
      2        6          -0.001391583    0.001776892    0.000087460
      3        7          -0.003990365   -0.000918405   -0.004017825
      4        6           0.009034862    0.001751536    0.010204417
      5        6           0.000985690   -0.001501981   -0.000565024
      6        8           0.003708169   -0.002920803   -0.003466214
      7        8          -0.001374807    0.000109421   -0.001567785
      8        6          -0.006710187    0.001546059    0.002284252
      9        6           0.006765728    0.000363526    0.001974082
     10        6          -0.006066304    0.001276734    0.004296596
     11        7           0.002895103    0.001026375    0.000412998
     12        6          -0.002571355    0.000083865    0.001069494
     13        7          -0.000094729   -0.002245533   -0.006493102
     14        6          -0.001222120    0.000673479   -0.000035501
     15        6          -0.000694240    0.000786026   -0.001339647
     16        7          -0.001296258   -0.001542424    0.002279656
     17        1           0.001610323    0.000150658    0.000581881
     18        1          -0.002210258    0.004042779   -0.002477346
     19        1          -0.001957176    0.000882560   -0.000994738
     20        1           0.000518259   -0.001754377    0.000082825
     21        1           0.000597013   -0.001504339   -0.001378041
     22        1           0.000168133   -0.000941123   -0.001755760
     23        1          -0.001764052   -0.000171830    0.000623485
     24        1          -0.001690113    0.001115295    0.000317767
     25        1          -0.000270178   -0.000738279   -0.001602915
     26        1           0.000273410    0.001734816    0.000003314
     27        1           0.000180296    0.001011885    0.000171594
     28        1           0.000191907   -0.000743760   -0.000970610
     29        1           0.001368014    0.000347078   -0.000173015
     30        1           0.001485839    0.000186431   -0.000445205
 -------------------------------------------------------------------
 Cartesian Forces:  Max     0.010204417 RMS     0.002607174
 FormGI is forming the generalized inverse of G from B-inverse, IUseBI=4.

 GradGradGradGradGradGradGradGradGradGradGradGradGradGradGradGradGradGrad
 Berny optimization.
 Internal  Forces:  Max     0.007436402 RMS     0.001979267
 Search for a local minimum.
 Step number   1 out of a maximum of  160
 All quantities printed in internal units (Hartrees-Bohrs-Radians)
 Mixed Optimization -- RFO/linear search
 Second derivative matrix not updated -- analytic derivatives used.
 ITU=  0
     Eigenvalues ---   -0.00092   0.00004   0.00212   0.00222   0.00266
     Eigenvalues ---    0.00393   0.00574   0.00929   0.01023   0.01116
     Eigenvalues ---    0.01845   0.01951   0.02004   0.02500   0.02947
     Eigenvalues ---    0.03301   0.04073   0.04106   0.04194   0.04330
     Eigenvalues ---    0.04344   0.04629   0.04949   0.05026   0.05382
     Eigenvalues ---    0.05504   0.06203   0.06283   0.07565   0.07962
     Eigenvalues ---    0.08640   0.10317   0.10597   0.10784   0.11608
     Eigenvalues ---    0.11756   0.11963   0.13496   0.14476   0.15371
     Eigenvalues ---    0.16441   0.17768   0.18174   0.18412   0.18674
     Eigenvalues ---    0.20570   0.20800   0.22322   0.22758   0.23036
     Eigenvalues ---    0.23811   0.24588   0.24993   0.26446   0.27877
     Eigenvalues ---    0.29599   0.31862   0.32239   0.32626   0.32873
     Eigenvalues ---    0.33178   0.33232   0.33603   0.33986   0.34364
     Eigenvalues ---    0.34953   0.36380   0.36624   0.36682   0.37152
     Eigenvalues ---    0.37799   0.40919   0.43399   0.44323   0.44428
     Eigenvalues ---    0.44510   0.46414   0.47226   0.47253   0.50702
     Eigenvalues ---    0.57270   0.58918   0.79911   0.88922
 RFO step:  Lambda=-2.95878673D-03 EMin=-9.17899854D-04
 Linear search not attempted -- first point.
 Iteration  1 RMS(Cart)=  0.16830475 RMS(Int)=  0.02471829
 Iteration  2 RMS(Cart)=  0.05645454 RMS(Int)=  0.00176524
 Iteration  3 RMS(Cart)=  0.00248714 RMS(Int)=  0.00013177
 Iteration  4 RMS(Cart)=  0.00000433 RMS(Int)=  0.00013175
 Iteration  5 RMS(Cart)=  0.00000000 RMS(Int)=  0.00013175
 Variable       Old X    -DE/DX   Delta X   Delta X   Delta X     New X
                                 (Linear)    (Quad)   (Total)
    R1        2.30721  -0.00526   0.00000  -0.00396  -0.00396   2.30326
    R2        2.58954   0.00113   0.00000  -0.00281  -0.00281   2.58674
    R3        2.87086  -0.00120   0.00000  -0.00652  -0.00652   2.86434
    R4        2.76204  -0.00127   0.00000  -0.01796  -0.01796   2.74408
    R5        1.89952   0.00047   0.00000  -0.00033  -0.00033   1.89919
    R6        2.87256   0.00744   0.00000   0.02373   0.02373   2.89629
    R7        2.92141   0.00217   0.00000   0.00577   0.00577   2.92718
    R8        2.07114  -0.00264   0.00000  -0.00794  -0.00794   2.06320
    R9        2.56393   0.00068   0.00000  -0.00091  -0.00091   2.56302
   R10        2.26572  -0.00052   0.00000  -0.00042  -0.00042   2.26529
   R11        1.83142   0.00019   0.00000  -0.00099  -0.00099   1.83043
   R12        2.81895   0.00240   0.00000  -0.00508  -0.00508   2.81388
   R13        2.05605  -0.00046   0.00000   0.00001   0.00001   2.05606
   R14        2.05432   0.00035   0.00000   0.00138   0.00138   2.05570
   R15        2.58251   0.00436   0.00000   0.00883   0.00883   2.59134
   R16        2.59103   0.00722   0.00000   0.01540   0.01541   2.60645
   R17        2.61346  -0.00293   0.00000  -0.01279  -0.01281   2.60065
   R18        2.03981  -0.00186   0.00000  -0.00446  -0.00446   2.03535
   R19        2.47647   0.00011   0.00000   0.00060   0.00059   2.47706
   R20        2.56710   0.00456   0.00000   0.00883   0.00884   2.57593
   R21        2.03241   0.00115   0.00000   0.00274   0.00274   2.03515
   R22        1.90273  -0.00121   0.00000  -0.00217  -0.00217   1.90056
   R23        2.89054   0.00119   0.00000   0.00670   0.00670   2.89724
   R24        2.07289  -0.00175   0.00000  -0.00430  -0.00430   2.06859
   R25        2.07197  -0.00170   0.00000  -0.00656  -0.00656   2.06541
   R26        2.75757   0.00222   0.00000  -0.00058  -0.00058   2.75699
   R27        2.06045  -0.00046   0.00000   0.00048   0.00048   2.06093
   R28        2.05977  -0.00077   0.00000  -0.00390  -0.00390   2.05587
   R29        1.91553  -0.00013   0.00000  -0.00236  -0.00236   1.91317
   R30        1.91593  -0.00025   0.00000  -0.00270  -0.00270   1.91323
    A1        2.11002   0.00226   0.00000   0.00148   0.00148   2.11150
    A2        2.16737  -0.00396   0.00000  -0.01703  -0.01703   2.15034
    A3        2.00528   0.00171   0.00000   0.01545   0.01545   2.02073
    A4        2.08260   0.00295   0.00000   0.00239   0.00193   2.08454
    A5        2.05827  -0.00306   0.00000  -0.00113  -0.00172   2.05655
    A6        2.02754   0.00053   0.00000   0.02375   0.02338   2.05092
    A7        1.90075  -0.00394   0.00000  -0.00357  -0.00383   1.89692
    A8        1.94550   0.00166   0.00000   0.01644   0.01638   1.96188
    A9        1.82929   0.00204   0.00000   0.03013   0.03040   1.85969
   A10        2.00626   0.00417   0.00000   0.01450   0.01430   2.02056
   A11        1.85211   0.00013   0.00000  -0.01516  -0.01528   1.83684
   A12        1.91941  -0.00433   0.00000  -0.04238  -0.04246   1.87695
   A13        1.97205   0.00444   0.00000   0.01152   0.01151   1.98357
   A14        2.17361   0.00001   0.00000  -0.00581  -0.00581   2.16780
   A15        2.13655  -0.00445   0.00000  -0.00587  -0.00587   2.13068
   A16        1.84140   0.00430   0.00000   0.01763   0.01763   1.85903
   A17        1.98720   0.00619   0.00000   0.00999   0.01001   1.99721
   A18        1.88268  -0.00359   0.00000  -0.02535  -0.02538   1.85730
   A19        1.92250  -0.00246   0.00000  -0.00980  -0.00988   1.91261
   A20        1.87125  -0.00181   0.00000   0.00015   0.00017   1.87142
   A21        1.94662  -0.00047   0.00000   0.00879   0.00879   1.95541
   A22        1.84620   0.00173   0.00000   0.01572   0.01555   1.86176
   A23        2.29795  -0.00369   0.00000  -0.00676  -0.00681   2.29114
   A24        2.15589   0.00588   0.00000   0.01168   0.01163   2.16752
   A25        1.82924  -0.00219   0.00000  -0.00472  -0.00472   1.82452
   A26        1.93152   0.00170   0.00000   0.00447   0.00447   1.93600
   A27        2.23614  -0.00159   0.00000  -0.01204  -0.01204   2.22409
   A28        2.11552  -0.00012   0.00000   0.00755   0.00755   2.12307
   A29        1.83501   0.00187   0.00000   0.00480   0.00478   1.83979
   A30        1.94486   0.00011   0.00000  -0.00002  -0.00002   1.94484
   A31        2.21125  -0.00152   0.00000  -0.01098  -0.01098   2.20026
   A32        2.12707   0.00141   0.00000   0.01102   0.01101   2.13808
   A33        1.88412  -0.00150   0.00000  -0.00448  -0.00449   1.87963
   A34        2.16144   0.00203   0.00000   0.00809   0.00803   2.16948
   A35        2.23756  -0.00053   0.00000  -0.00343  -0.00349   2.23407
   A36        1.96523   0.00106   0.00000  -0.00012  -0.00018   1.96505
   A37        1.88924  -0.00063   0.00000  -0.01279  -0.01280   1.87645
   A38        1.89779   0.00008   0.00000   0.02536   0.02537   1.92316
   A39        1.92061   0.00008   0.00000  -0.00448  -0.00455   1.91606
   A40        1.92824  -0.00072   0.00000  -0.00547  -0.00558   1.92267
   A41        1.85923   0.00007   0.00000  -0.00251  -0.00247   1.85676
   A42        2.00914  -0.00015   0.00000   0.00060   0.00059   2.00973
   A43        1.90141   0.00039   0.00000   0.00286   0.00287   1.90427
   A44        1.90061   0.00037   0.00000   0.00248   0.00247   1.90308
   A45        1.89253  -0.00001   0.00000  -0.00207  -0.00207   1.89046
   A46        1.89543  -0.00003   0.00000   0.00282   0.00281   1.89824
   A47        1.85899  -0.00061   0.00000  -0.00742  -0.00742   1.85158
   A48        1.92666   0.00192   0.00000   0.02201   0.02163   1.94829
   A49        1.92590   0.00210   0.00000   0.02009   0.01971   1.94561
   A50        1.86182  -0.00089   0.00000   0.01271   0.01201   1.87382
    D1        0.21074  -0.00120   0.00000  -0.06729  -0.06712   0.14362
    D2        2.83742  -0.00020   0.00000  -0.00849  -0.00864   2.82878
    D3       -2.96379  -0.00094   0.00000  -0.07068  -0.07053  -3.03432
    D4       -0.33711   0.00006   0.00000  -0.01188  -0.01205  -0.34916
    D5       -0.19629   0.00002   0.00000  -0.27314  -0.27311  -0.46940
    D6        1.93087   0.00038   0.00000  -0.28776  -0.28770   1.64317
    D7       -2.33915   0.00017   0.00000  -0.28419  -0.28426  -2.62341
    D8        2.97946  -0.00039   0.00000  -0.27005  -0.27003   2.70943
    D9       -1.17656  -0.00003   0.00000  -0.28467  -0.28462  -1.46118
   D10        0.83660  -0.00024   0.00000  -0.28110  -0.28118   0.55542
   D11        1.04882   0.00092   0.00000  -0.02315  -0.02296   1.02586
   D12       -1.18286  -0.00275   0.00000  -0.05149  -0.05121  -1.23406
   D13        3.02470   0.00035   0.00000  -0.02739  -0.02735   2.99735
   D14       -1.58664   0.00098   0.00000  -0.07395  -0.07410  -1.66075
   D15        2.46486  -0.00269   0.00000  -0.10229  -0.10235   2.36251
   D16        0.38923   0.00041   0.00000  -0.07819  -0.07849   0.31074
   D17       -2.73742  -0.00021   0.00000   0.10025   0.10029  -2.63713
   D18        0.45063  -0.00022   0.00000   0.10421   0.10425   0.55488
   D19       -0.54048   0.00195   0.00000   0.13033   0.13034  -0.41015
   D20        2.64757   0.00194   0.00000   0.13429   0.13430   2.78186
   D21        1.58493  -0.00083   0.00000   0.07463   0.07459   1.65952
   D22       -1.51021  -0.00084   0.00000   0.07859   0.07855  -1.43166
   D23       -2.51140   0.00123   0.00000  -0.02493  -0.02475  -2.53615
   D24       -0.43699   0.00030   0.00000  -0.03593  -0.03579  -0.47278
   D25        1.57019  -0.00094   0.00000  -0.03649  -0.03625   1.53394
   D26        1.59816   0.00187   0.00000  -0.04536  -0.04540   1.55277
   D27       -2.61061   0.00093   0.00000  -0.05637  -0.05644  -2.66704
   D28       -0.60343  -0.00030   0.00000  -0.05693  -0.05690  -0.66033
   D29       -0.49034   0.00207   0.00000  -0.00413  -0.00431  -0.49465
   D30        1.58407   0.00113   0.00000  -0.01514  -0.01535   1.56872
   D31       -2.69194  -0.00011   0.00000  -0.01570  -0.01581  -2.70775
   D32        3.13502   0.00013   0.00000   0.00489   0.00489   3.13991
   D33       -0.05190   0.00026   0.00000   0.00101   0.00101  -0.05089
   D34        2.09233  -0.00168   0.00000  -0.13684  -0.13686   1.95547
   D35       -1.03161  -0.00211   0.00000  -0.15471  -0.15475  -1.18636
   D36        0.01140   0.00031   0.00000  -0.11131  -0.11128  -0.09988
   D37       -3.11253  -0.00012   0.00000  -0.12918  -0.12917   3.04148
   D38       -2.00201  -0.00046   0.00000  -0.13489  -0.13488  -2.13688
   D39        1.15724  -0.00089   0.00000  -0.15277  -0.15276   1.00448
   D40       -3.13184  -0.00020   0.00000  -0.01081  -0.01067   3.14067
   D41        0.01505  -0.00025   0.00000  -0.00819  -0.00811   0.00693
   D42       -0.00548   0.00024   0.00000   0.00474   0.00475  -0.00073
   D43        3.14141   0.00019   0.00000   0.00736   0.00731  -3.13446
   D44        3.13505  -0.00010   0.00000   0.00744   0.00752  -3.14062
   D45       -0.01765  -0.00019   0.00000   0.02250   0.02263   0.00498
   D46        0.00710  -0.00039   0.00000  -0.00631  -0.00630   0.00080
   D47        3.13759  -0.00049   0.00000   0.00875   0.00881  -3.13679
   D48        0.00167   0.00000   0.00000  -0.00130  -0.00130   0.00037
   D49        3.13839   0.00004   0.00000  -0.00379  -0.00376   3.13463
   D50        0.00300  -0.00024   0.00000  -0.00281  -0.00284   0.00017
   D51       -3.13459  -0.00005   0.00000  -0.00759  -0.00753   3.14106
   D52       -0.00655   0.00041   0.00000   0.00591   0.00592  -0.00063
   D53       -3.13641   0.00049   0.00000  -0.01011  -0.01001   3.13677
   D54        3.13127   0.00022   0.00000   0.01037   0.01036  -3.14155
   D55        0.00141   0.00030   0.00000  -0.00565  -0.00557  -0.00416
   D56       -3.12714  -0.00019   0.00000  -0.03746  -0.03744   3.11860
   D57       -0.99761  -0.00001   0.00000  -0.03756  -0.03754  -1.03515
   D58        1.02334  -0.00032   0.00000  -0.04347  -0.04345   0.97989
   D59        1.04674  -0.00016   0.00000  -0.01792  -0.01792   1.02882
   D60       -3.10691   0.00002   0.00000  -0.01802  -0.01801  -3.12493
   D61       -1.08596  -0.00029   0.00000  -0.02393  -0.02392  -1.10989
   D62       -1.00146   0.00014   0.00000  -0.00882  -0.00884  -1.01030
   D63        1.12807   0.00031   0.00000  -0.00891  -0.00894   1.11913
   D64       -3.13416   0.00000   0.00000  -0.01482  -0.01485   3.13417
   D65        1.03156   0.00067   0.00000   0.00006   0.00024   1.03180
   D66       -1.02209  -0.00070   0.00000  -0.04142  -0.04160  -1.06369
   D67       -1.10274   0.00028   0.00000  -0.00249  -0.00231  -1.10505
   D68        3.12679  -0.00109   0.00000  -0.04397  -0.04416   3.08264
   D69       -3.11613   0.00102   0.00000   0.00587   0.00606  -3.11008
   D70        1.11340  -0.00035   0.00000  -0.03561  -0.03579   1.07761
         Item               Value     Threshold  Converged?
 Maximum Force            0.007436     0.000450     NO 
 RMS     Force            0.001979     0.000300     NO 
 Maximum Displacement     0.979954     0.001800     NO 
 RMS     Displacement     0.211024     0.001200     NO 
 Predicted change in Energy=-2.150909D-03
 GradGradGradGradGradGradGradGradGradGradGradGradGradGradGradGradGradGrad

                          Input orientation:                          
 ---------------------------------------------------------------------
 Center     Atomic      Atomic             Coordinates (Angstroms)
 Number     Number       Type             X           Y           Z
 ---------------------------------------------------------------------
      1          8           0        1.434613    0.844117   -0.712131
      2          6           0        1.605275    0.034761    0.183060
      3          7           0        0.554799   -0.671338    0.704263
      4          6           0       -0.747347   -0.587903    0.067031
      5          6           0       -0.613796   -1.056395   -1.386137
      6          8           0       -1.508448   -0.481103   -2.227664
      7          8           0        0.163429   -1.890473   -1.756562
      8          6           0       -1.416678    0.794164    0.270206
      9          6           0       -2.898505    0.746447    0.408589
     10          6           0       -3.715972    1.007269    1.478223
     11          7           0       -5.038518    0.832491    1.140182
     12          6           0       -5.031092    0.469121   -0.119229
     13          7           0       -3.761391    0.401040   -0.610487
     14          6           0        2.955098   -0.223529    0.822393
     15          6           0        4.122684    0.081872   -0.123137
     16          7           0        5.450694   -0.119091    0.446505
     17          1           0        0.762643   -1.503263    1.228422
     18          1           0       -1.379495   -1.334193    0.552281
     19          1           0       -1.332457   -0.845552   -3.107685
     20          1           0       -1.018963    1.194651    1.200380
     21          1           0       -1.102221    1.471432   -0.520870
     22          1           0       -3.421615    1.316714    2.466989
     23          1           0       -5.896645    0.244767   -0.719494
     24          1           0       -3.469316    0.145976   -1.538460
     25          1           0        3.024276    0.409262    1.712927
     26          1           0        3.014798   -1.256974    1.173117
     27          1           0        4.033655   -0.541808   -1.013360
     28          1           0        4.041351    1.110935   -0.466628
     29          1           0        5.584006   -1.074264    0.754470
     30          1           0        5.605204    0.480875    1.247254
 ---------------------------------------------------------------------
                    Distance matrix (angstroms):
                    1          2          3          4          5
     1  O    0.000000
     2  C    1.218831   0.000000
     3  N    2.253186   1.368842   0.000000
     4  C    2.723733   2.436391   1.452105   0.000000
     5  C    2.874406   2.928699   2.425625   1.532651   0.000000
     6  O    3.565762   3.971521   3.590178   2.419981   1.356293
     7  O    3.191352   3.089916   2.774008   2.419028   1.198741
     8  C    3.016180   3.117128   2.494559   1.548997   2.610107
[...]
 2420,-0.02240228,-0.00002608,0.00001936,0.00004997,0.00002800,0.000019
 36,-0.00000234,-0.00003928,-0.00000963,-0.00000110,0.00001242,-0.00000
 503,0.00001929,0.00008709,-0.00011505,0.00017800,0.00029622,0.00033173
 ,-0.00038274,0.00002535,-0.00026020,0.00011295,-0.00068338,-0.00021873
 ,0.00001214,-0.00011466,0.00179911,-0.00019114,0.00014930,-0.00131831,
 -0.00003995,0.00036584,0.01641541,0.00006964,0.00002494,-0.00027311,-0
 .00019196,-0.00019668,0.00028531,0.00036515,-0.00008148,-0.00030917,-0
 .00050055,0.00044870,0.00004160,0.00102786,-0.00129590,0.00326943,0.00
 071902,0.00037400,-0.00520299,-0.00078304,0.00075403,-0.00070382,-0.00
 031845,0.00017708,0.00074176,0.01264462,0.00099628,-0.01352688,-0.0027
 9865,-0.00094092,-0.00307828,-0.00099008,-0.00071675,0.00345788,0.0013
 9979,0.00129938,0.00124073,0.12500488,-0.02066108,-0.40773826,0.000023
 85,0.00002616,-0.00000783,-0.00002495,0.00003284,0.00004615,0.00002682
 ,-0.00001868,-0.00002771,0.00001695,0.00001611,0.00002588,-0.00010736,
 0.00003038,-0.00015430,0.00134675,-0.00031969,-0.00015918,0.00033263,-
 0.00003796,0.00006927,-0.00027931,-0.00006547,0.00007420,0.00063999,-0
 .00004451,-0.00011558,-0.00004139,0.00017543,-0.00005487,-0.13757971,0
 .02001862,0.42209619,0.00222933,0.00228974,0.00278136,-0.01376238,-0.0
 3156040,-0.00812997,-0.00460635,0.00196730,-0.00198000,-0.00070909,0.0
 0017987,0.00114536,0.00001539,0.00001277,0.00055409,-0.00002830,0.0000
 5676,-0.00019972,0.00006109,-0.00003723,-0.00020133,-0.00028611,-0.000
 24378,-0.00015222,-0.00005399,0.00017572,0.00002168,0.00002252,0.00002
 517,-0.00004141,-0.00006216,-0.00002174,-0.00001777,-0.00004154,-0.000
 01462,0.00001909,0.00002842,0.00002334,0.00004761,-0.07699387,-0.08481
 913,-0.02812983,0.00568368,0.02036670,0.00692371,0.00297429,-0.0002130
 6,-0.00043460,0.00031943,0.00016277,-0.00066592,-0.00024914,-0.0000131
 9,-0.00011598,-0.00001676,-0.00000912,-0.00000183,-0.00002553,-0.00003
 334,0.00000861,-0.00001314,0.00002426,-0.00003153,0.00000014,-0.000005
 38,0.00000266,-0.00000191,-0.00000398,0.00000093,0.00001671,-0.0000125
 8,0.00000794,0.08808029,0.00064667,0.00088328,-0.00036657,0.00121682,0
 .00330723,0.00303916,0.00024461,0.00000192,-0.00062986,0.00032108,0.00
 007584,-0.00004620,0.00006669,-0.00014880,0.00003920,-0.00007654,0.000
 07898,-0.00009440,-0.00009639,0.00007665,-0.00001451,-0.00005033,-0.00
 005467,-0.00002856,0.00000606,0.00003464,-0.00000954,0.00000302,0.0000
 0432,-0.00001184,-0.00001928,-0.00000302,0.00000207,-0.00000249,-0.000
 00078,-0.00000064,-0.00000549,0.00000735,0.00001844,-0.08590328,-0.257
 91750,-0.05775279,-0.00443076,-0.01338116,-0.00564762,-0.00045003,0.00
 200477,0.00149504,0.00045098,0.00020640,-0.00008974,0.00003572,0.00000
 706,-0.00000912,0.00000483,-0.00000819,0.00000875,-0.00000105,-0.00001
 528,-0.00000423,-0.00001668,0.00001508,-0.00000485,0.00000063,-0.00000
 286,0.00000011,-0.00000029,-0.00000231,0.00000037,0.00001271,-0.000007
 74,-0.00000068,0.09101756,0.27901064,0.00013867,0.00179649,0.00047901,
 -0.00246341,-0.01204656,-0.00302937,-0.00099379,0.00071886,-0.00030485
 ,0.00006233,-0.00027829,0.00027746,0.00006801,-0.00010862,0.00009102,-
 0.00005217,0.00005839,-0.00008427,-0.00008176,0.00002557,-0.00001197,-
 0.00002641,-0.00001035,0.00004957,0.00000163,0.00001264,-0.00001321,0.
 00000425,0.00000178,-0.00000102,-0.00001635,-0.00000390,-0.00000085,-0
 .00000459,-0.00000221,-0.00000423,-0.00000735,0.00000459,0.00001036,-0
 .02747034,-0.05654232,-0.06337888,-0.00678182,-0.02421717,-0.00918345,
 -0.00182726,0.00210316,0.00098225,-0.00038556,-0.00021089,0.00006180,-
 0.00008995,0.00001513,-0.00003623,0.00000328,-0.00000572,0.00001394,0.
 00000625,-0.00000429,-0.00001636,0.00000996,-0.00000613,-0.00000476,0.
 00000184,0.00000109,-0.00000151,-0.00000139,-0.00000076,-0.00000006,0.
 00001018,-0.00000541,0.00000189,0.02621929,0.06650377,0.06795688,-0.00
 819596,0.00216847,-0.00446212,0.00738208,0.01913173,-0.02410102,-0.000
 25274,-0.00059442,0.00148919,0.00051658,0.00018437,0.00009215,0.000245
 09,0.00043167,-0.00017379,-0.00006074,-0.00011983,0.00005940,-0.000000
 24,-0.00015528,0.00004049,0.00002277,0.00008671,-0.00002363,0.00001482
 ,-0.00007082,0.00001641,-0.00000844,-0.00001490,-0.00001146,-0.0000161
 3,0.00000567,0.00001001,0.00000704,0.00000277,-0.00000217,-0.00000554,
 0.00000057,0.00001751,-0.05013099,-0.00879924,0.00455413,-0.00190143,-
 0.01191970,0.01817317,0.00235312,-0.00093581,-0.00067437,-0.00147621,-
 0.00057707,-0.00066476,0.00005033,-0.00001429,0.00005479,0.00000952,0.
 00001114,0.00002933,-0.00000535,0.00000595,0.00000058,0.00008459,-0.00
 007405,0.00002110,-0.00000205,0.00000358,0.00000269,-0.00000048,0.0000
 0021,0.00000067,0.00001622,0.00000492,-0.00000537,-0.00043095,-0.00620
 919,0.01022985,0.05415013,0.00248848,0.00229773,0.00115604,-0.00298992
 ,-0.00622999,0.00239075,-0.00058285,0.00010358,-0.00120850,0.00034744,
 0.00016046,-0.00021558,-0.00028369,-0.00015846,-0.00003442,0.00009233,
 0.00001295,-0.00001698,0.00006867,0.00006777,-0.00001595,0.00002250,0.
 00001460,0.00006443,-0.00000919,0.00001126,-0.00000904,0.00000852,0.00
 000872,0.00002607,0.00002965,0.00000188,-0.00001863,-0.00000964,-0.000
 00100,0.00000415,0.00000638,-0.00000581,-0.00003774,-0.00468275,-0.136
 62343,0.12107585,0.00179047,0.00799372,-0.01223455,-0.00192470,0.00071
 215,-0.00041495,-0.00018840,0.00098249,0.00011217,0.00004669,0.0000108
 3,0.00001192,-0.00002743,-0.00001262,-0.00003274,0.00000894,-0.0000169
 1,0.00000681,-0.00004662,0.00002832,-0.00000554,0.00000275,-0.00000353
 ,-0.00000342,0.00000025,0.00000018,-0.00000109,-0.00002499,0.00000189,
 0.00000685,0.00010759,-0.01555891,0.02340229,0.00447709,0.14533630,-0.
 00385717,0.00053554,0.00019736,0.00635358,0.00734113,-0.01061051,0.000
 52410,-0.00037879,0.00128650,-0.00030407,-0.00026335,0.00010079,0.0002
 2228,0.00021816,-0.00010220,-0.00003784,-0.00006671,0.00009444,-0.0000
 5617,-0.00014320,0.00010369,0.00003215,0.00004547,0.00000623,0.0000088
 7,-0.00005983,0.00001346,-0.00000905,-0.00001481,-0.00000972,-0.000016
 93,0.00000060,0.00001612,0.00001337,0.00000372,-0.00000840,-0.00000963
 ,-0.00000295,0.00002093,0.00109689,0.12095092,-0.21264901,0.00069154,0
 .01382711,-0.02095505,-0.00133428,-0.00063571,0.00253085,-0.00106351,-
 0.00082754,0.00029256,-0.00004245,0.00000593,0.00000739,0.00003871,0.0
 0002551,0.00002245,0.00000063,0.00002044,-0.00000702,0.00007326,-0.000
 06013,0.00001304,-0.00000145,0.00000584,0.00000230,-0.00000048,0.00000
 161,0.00000017,0.00001801,0.00000588,-0.00000819,0.00032006,-0.0044649
 0,0.00727396,-0.00597411,-0.13304521,0.23331195,-0.00029051,-0.0001387
 5,-0.00044916,0.00195099,0.00082874,0.00063515,0.00000879,-0.00034116,
 -0.00013416,-0.00006590,-0.00000323,0.00002451,-0.00026967,0.00031180,
 0.00004700,0.00014251,-0.00016125,0.00010700,0.00023387,-0.00013995,-0
 .00004516,0.00001387,0.00001856,0.00000357,-0.00000074,-0.00001708,0.0
 0001146,0.00000055,-0.00000064,0.00000458,0.00001110,0.00000244,-0.000
 00600,-0.00000557,-0.00000086,0.00000151,0.00000646,-0.00000446,-0.000
 01404,0.00580838,0.01884742,0.00633165,-0.07729909,-0.07684319,-0.0239
 5986,-0.02249204,-0.03112555,-0.00873121,-0.00005496,0.00005768,0.0002
 0253,-0.00001239,-0.00000720,-0.00000873,-0.00000694,0.00000577,-0.000
 03207,0.00000891,0.00000294,-0.00000739,0.00001018,-0.00000260,0.00000
 643,0.00000030,0.00000053,-0.00000073,0.00000036,0.00000070,-0.0000002
 8,-0.00001781,0.00000656,0.00000363,-0.00239693,0.00194307,0.00327706,
 0.00061639,-0.00069967,-0.00060230,0.09790527,0.00088763,0.00002550,0.
 00056006,-0.00185576,-0.00065024,-0.00111245,0.00085248,0.00059459,0.0
 0025067,0.00001706,-0.00001809,-0.00008064,0.00068101,-0.00076839,-0.0
 0025731,-0.00028710,0.00034047,-0.00015288,-0.00076098,0.00029336,0.00
 022554,0.00003810,-0.00000321,0.00003392,-0.00000039,0.00000829,-0.000
 03324,-0.00000351,0.00000274,-0.00000165,-0.00001292,0.00000155,0.0000
 2177,0.00002827,0.00000411,-0.00000935,-0.00001979,0.00001214,0.000027
 62,-0.00179151,-0.01181822,-0.00359773,-0.08275844,-0.25731792,-0.0607
 6775,0.00158856,0.00743988,0.00136150,0.00010951,-0.00011959,-0.000234
 25,0.00003858,0.00002232,0.00002500,0.00004241,-0.00002908,0.00005346,
 -0.00001957,0.00000925,0.00001889,-0.00002077,0.00000007,-0.00001295,-
 0.00000023,-0.00000252,0.00000204,0.00000091,-0.00000222,0.00000028,0.
 00004074,-0.00002109,-0.00001468,0.00169781,0.00067975,-0.00164096,0.0
 0018670,0.00102595,-0.00024036,0.08665385,0.27444889,0.00016185,-0.000
 11150,0.00042879,-0.00197579,-0.00049551,-0.00040783,0.00028651,0.0004
 7390,0.00010704,0.00013161,0.00001716,-0.00003350,-0.00013425,0.000078
 20,0.00013870,0.00004054,-0.00001169,-0.00002021,0.00015388,-0.0000113
 4,-0.00016630,-0.00002421,-0.00001377,-0.00002911,-0.00000394,0.000014
 08,0.00000341,0.00000060,0.00000354,-0.00000144,0.00000540,0.00000235,
 -0.00000629,-0.00000739,-0.00000160,0.00000490,0.00000586,0.00000152,-
 0.00000700,-0.00366936,-0.02327215,-0.00795855,-0.02411491,-0.05869038
 ,-0.06913249,-0.00782057,-0.00900702,-0.00147257,0.00022501,-0.0001231
 3,-0.00019635,0.00002860,-0.00000604,0.00000068,-0.00002078,0.00000297
 ,-0.00000590,-0.00000161,-0.00001505,0.00000213,-0.00001222,0.00001140
 ,-0.00000511,-0.00000017,-0.00000303,-0.00000011,0.00000023,-0.0000010
 7,0.00000033,-0.00000919,0.,0.00000440,0.00299644,-0.00191544,-0.00242
 727,-0.00105392,0.00053134,0.00076716,0.02663668,0.07021800,0.07249836
 ,0.00024056,0.00072675,-0.00170008,0.00082469,-0.00239540,0.00302442,-
 0.00016631,0.00046259,-0.00044961,0.00007554,-0.00000408,0.00001494,-0
 .00026508,0.00001178,0.00013199,0.00006494,-0.00000608,-0.00003209,0.0
 0015617,0.00004362,-0.00012960,-0.00002345,-0.00001940,0.00000858,-0.0
 0000552,0.00001976,0.00000030,0.00000477,0.00000460,0.00000667,0.00001
 259,-0.00000035,-0.00001197,-0.00001304,-0.00000214,0.00000418,0.00000
 751,-0.00000288,-0.00001802,-0.00200497,-0.01044798,0.01667183,-0.0472
 4262,-0.00759168,0.00516043,-0.00745064,0.02568839,-0.02954214,0.00027
 418,0.00016255,0.00006515,0.00000067,0.00000210,-0.00001857,-0.0000432
 3,-0.00001714,-0.00002072,0.00000787,-0.00001110,-0.00000633,-0.000019
 31,0.00002441,-0.00000532,0.00000086,-0.00000134,-0.00000166,0.0000000
 5,-0.00000019,-0.00000025,-0.00001918,0.00000239,0.00000731,0.00083991
 ,0.00020280,-0.00080486,-0.00236366,0.00207250,0.00269235,0.00037995,-
 0.00666709,0.00978986,0.06131201,-0.00016362,-0.00038193,-0.00045472,-
 0.00024184,0.00051225,0.00011529,0.00007251,0.00012626,0.00018798,0.00
 000925,0.00001602,0.00009681,-0.00015172,0.00021090,0.00012225,0.00006
 278,-0.00005708,0.00002470,0.00022249,-0.00002030,-0.00015671,-0.00002
 641,-0.00000615,-0.00002087,-0.00000270,-0.00000293,0.00001322,0.00000
 049,-0.00000075,-0.00000130,0.00000685,0.00000115,-0.00000967,-0.00001
 162,-0.00000139,0.00000599,0.00000845,-0.00000255,-0.00001203,0.001886
 98,0.00760114,-0.01260195,-0.00371624,-0.14461400,0.12657136,0.0022495
 6,-0.00161882,0.00283967,-0.00005714,-0.00011301,-0.00014936,-0.000004
 18,-0.00001143,-0.00000845,-0.00003668,-0.00000200,-0.00000031,0.00000
 309,-0.00000440,-0.00000732,0.00001065,0.00000029,0.00000569,-0.000000
 49,0.00000022,-0.00000043,-0.00000033,0.00000021,0.00000022,-0.0000162
 7,0.00000700,0.00000744,-0.00074422,0.00111750,0.00024651,0.00231850,0
 .00003461,-0.00252721,-0.00047242,-0.01671137,0.02277230,-0.00198166,0
 .15161870,-0.00084591,-0.00100468,0.00188077,-0.00151804,0.00200324,-0
 .00254615,0.00018614,-0.00014718,0.00045506,-0.00005849,0.00007425,0.0
 0006828,0.00013922,0.00001220,-0.00007965,-0.00002005,-0.00000238,0.00
 004072,-0.00006310,0.00000156,0.00004579,0.00000646,0.00002456,-0.0000
 1693,0.00000254,-0.00002062,0.00000464,-0.00000351,-0.00000474,-0.0000
 0424,-0.00000092,0.00000043,0.00000585,0.00000596,0.00000168,-0.000000
 33,-0.00000033,-0.00000069,0.00000621,0.00566616,0.01238301,-0.0214713
 7,0.00155671,0.12404856,-0.21723439,-0.00461592,0.00686501,-0.00652426
 ,-0.00011967,-0.00023397,-0.00008907,0.00000984,-0.00000315,0.00001527
 ,0.00000659,0.00000318,0.00001011,-0.00000689,0.00001059,0.00000201,0.
 00001425,-0.00001479,0.00000852,-0.00000168,0.00000247,0.00000152,0.00
 000023,0.00000072,0.00000027,0.00000399,0.00000324,-0.00000363,-0.0008
 3968,0.00011726,0.00088680,0.00263075,-0.00212211,-0.00206209,0.000616
 70,-0.00512321,0.00860885,-0.00124013,-0.13599702,0.23790499,0.0002331
 0,-0.00036113,0.00097084,-0.00092871,0.00004064,-0.00095419,0.00032496
 ,0.00002534,0.00010451,-0.00013608,0.00003780,-0.00002276,0.00001238,-
 0.00005577,-0.00019647,0.00004890,-0.00001651,0.00011207,-0.00002524,0
 .00003859,0.00011184,0.00001427,0.00001735,0.00001500,-0.00001822,-0.0
 0002277,0.00000270,-0.00000743,-0.00000466,0.00000771,0.00003605,0.000
 00539,0.00000328,0.00001003,0.00000337,0.00000600,0.00000748,-0.000002
 65,-0.00001896,0.00217828,0.00055783,-0.00163020,-0.00534006,0.0262503
 1,-0.03139842,-0.04694460,-0.01492451,-0.01879657,-0.00010984,-0.00003
 664,0.00001167,0.00001192,0.00000716,0.00001078,-0.00000081,-0.0000040
 0,-0.00001635,-0.00001047,0.00001013,0.00001001,-0.00000158,-0.0000035
 5,-0.00000132,-0.00000421,0.00000268,0.00000373,0.00000202,0.00000083,
 0.00000055,-0.00001499,0.00000409,-0.00000650,-0.00014114,0.00004318,0
 .00022029,-0.00047437,-0.00020599,0.00106841,0.00115783,-0.00064290,0.
 00039996,-0.00598123,0.00038857,-0.00160467,0.05545766,-0.00051714,0.0
 0021796,-0.00056270,0.00107711,0.00043917,0.00061420,-0.00052226,-0.00
 027812,-0.00006490,0.00013798,-0.00005307,0.00001314,-0.00005602,0.000
 17374,0.00020987,-0.00001711,-0.00003350,-0.00009168,0.00005339,-0.000
 15147,-0.00011799,-0.00001601,-0.00000926,-0.00001751,0.00002440,0.000
 01495,0.00000194,0.00000764,-0.00000006,-0.00000654,-0.00003834,-0.000
 00944,-0.00000497,-0.00001402,-0.00000311,-0.00000569,-0.00000659,-0.0
 0000209,0.00001816,-0.00208697,0.00000492,0.00000382,0.00271190,-0.002
 08738,0.00338789,-0.00189021,-0.17739526,0.17232846,0.00000399,0.00009
 272,0.00002309,-0.00003050,-0.00000831,-0.00001090,0.00000738,0.000019
 88,0.00001371,0.00001563,-0.00000830,-0.00001437,0.00001008,-0.0000049
 9,0.00000616,0.00000397,0.00000117,-0.00000400,-0.00000288,0.00000091,
 -0.00000067,0.00001363,0.00000197,0.00000725,0.00016717,-0.00030724,0.
 00001110,0.00060455,-0.00005628,-0.00028538,0.00002586,0.00047864,-0.0
 0054838,0.00000754,0.00186216,-0.00075247,-0.00226575,0.19846610,-0.00
 012889,-0.00004030,0.00009057,0.00074972,0.00013186,-0.00017570,-0.000
 25153,-0.00017196,0.00004233,0.00010996,-0.00000064,0.00001230,-0.0000
 0506,0.00007876,0.00008787,-0.00001549,-0.00001858,-0.00004822,-0.0000
 0025,-0.00008964,-0.00004596,-0.00000896,-0.00000470,-0.00001023,0.000
 01363,0.00000944,-0.00000099,0.00000447,0.00000006,-0.00000335,-0.0000
 2450,-0.00000556,-0.00000144,-0.00000609,-0.00000178,-0.00000442,-0.00
 000556,-0.00000123,0.00001251,0.00024720,-0.00090106,0.00240222,0.0054
 9288,0.00381905,-0.01179383,-0.03920716,0.21304979,-0.27582742,0.00000
 351,0.00005363,0.00002909,-0.00001044,-0.00000314,0.00000059,0.0000122
 8,0.00001611,0.00000711,0.00000890,-0.00000583,-0.00000772,0.00000518,
 -0.00000314,0.00000195,0.00000257,0.00000011,-0.00000240,-0.00000164,0
 .00000061,-0.00000053,0.00001094,0.00000105,0.00000304,0.00002660,-0.0
 0001833,-0.00002676,-0.00041627,0.00053679,0.00039536,-0.00003363,-0.0
 0022127,-0.00026498,-0.00364400,-0.00070650,0.00040120,0.03527666,-0.2
 0408562,0.27960822,0.00039144,-0.00009437,0.00045497,-0.00053553,0.000
 36577,-0.00086740,0.00068310,0.00014760,0.00022269,-0.00008421,0.00004
 537,-0.00011246,0.00006325,-0.00018661,-0.00022520,0.00000837,0.000048
 60,0.00008270,-0.00010153,0.00010735,0.00014355,0.00002194,0.00001533,
 0.00002166,-0.00002072,-0.00002056,-0.00000471,-0.00000902,-0.00000355
 ,0.00000920,0.00004052,0.00000635,0.00000709,0.00001613,0.00000416,0.0
 0000458,0.00000501,-0.00000089,-0.00001813,0.00176235,-0.00173072,0.00
 019526,-0.02004855,-0.03401066,-0.01000610,-0.10107082,-0.12327582,-0.
 05030737,-0.00002057,-0.00006875,-0.00003258,0.00004170,0.00001251,0.0
 0002081,-0.00000129,-0.00001036,-0.00001287,-0.00001518,0.00000736,0.0
 0001617,-0.00001236,0.00000197,-0.00000783,-0.00000461,0.00000161,0.00
 000438,0.00000248,0.00000063,0.00000064,-0.00001191,0.00000107,-0.0000
 0948,-0.00045188,0.00104537,0.00075413,-0.00014341,0.00010557,0.000155
 21,-0.00534314,0.00197732,-0.00201474,0.00139599,0.00038738,0.00009346
 ,0.00064412,0.00259157,0.00179496,0.12279837,-0.00003726,-0.00011089,0
 .00012292,0.00025192,0.00003011,-0.00026769,0.00006333,-0.00003083,0.0
 0006103,-0.00000170,0.00002626,0.00001098,0.00002449,-0.00001015,-0.00
 002775,-0.00000598,-0.00000301,0.00000944,-0.00001678,0.00001416,0.000
 01105,0.00000242,0.00000378,-0.00000127,0.00000068,-0.00000123,-0.0000
 0129,-0.00000013,-0.00000141,-0.00000119,-0.00000283,-0.00000048,0.000
 00227,0.00000227,0.00000007,-0.00000167,-0.00000163,-0.00000067,0.0000
 0396,0.00114537,0.00140303,0.00120165,0.00692859,0.00525305,-0.0011898
 7,-0.15229653,-0.34180769,-0.05601129,0.00000110,-0.00001151,0.0000010
 1,0.00000564,-0.00000128,0.00000386,0.00000341,0.00000104,0.00000052,-
 0.00000027,0.00000250,-0.00000066,0.00000224,-0.00000055,0.00000147,0.
 00000018,0.00000046,-0.00000014,0.00000016,0.00000028,-0.00000011,0.00
 000227,0.00000091,-0.00000102,-0.00054275,-0.00010295,0.00018222,-0.00
 014000,-0.00013845,0.00002823,0.00125209,0.00207441,0.00010031,-0.0002
 8325,0.00043972,-0.00012493,-0.00888642,-0.02136640,-0.01141797,0.1525
 2940,0.35433772,-0.00017447,0.00028396,-0.00038656,0.00067318,-0.00050
 236,0.00052182,-0.00025411,0.00005755,-0.00013578,0.00008610,-0.000027
 24,0.00005033,0.00017721,-0.00012691,0.00012032,-0.00011318,0.00009090
 ,-0.00014182,-0.00016319,0.00004605,-0.00005990,-0.00001128,-0.0000191
 2,-0.00000103,0.00001696,0.00002130,-0.00000234,0.00000690,0.00000422,
 -0.00000544,-0.00003519,-0.00000444,-0.00000372,-0.00000913,-0.0000024
 9,-0.00000427,-0.00000891,0.00000504,0.00001666,0.00005392,0.00158032,
 0.00064239,0.00015436,-0.01313250,-0.00463690,-0.07258697,-0.08584444,
 -0.05746748,0.00004798,0.00003934,-0.00004148,-0.00001768,-0.00000297,
 -0.00000855,0.00000641,-0.00001035,0.00003596,0.00000865,-0.00000430,-
 0.00000878,0.00000317,-0.00000182,0.00000283,0.00000391,-0.00000258,-0
 .00000357,-0.00000216,-0.00000159,-0.00000047,0.00002000,-0.00000951,0
 .00000609,-0.00013364,-0.00011437,0.00044014,0.00014081,0.00009099,-0.
 00004452,-0.00388474,0.00070196,-0.00042975,0.00004734,-0.00035557,-0.
 00031476,0.01631039,0.02993499,0.00511959,0.05963738,0.06730594,0.0567
 4101\\-0.00000451,-0.00000129,0.00000062,0.00000457,0.00000747,-0.0000
 0640,0.00000203,-0.00000154,0.00000180,0.00000288,-0.00000025,0.000003
 30,0.00000042,-0.00000142,0.00000261,0.00000111,-0.00000025,-0.0000050
 1,-0.00000123,0.00000145,-0.00000178,-0.00000402,0.00000144,0.00000118
 ,0.00000368,-0.00000077,0.00000191,-0.00000162,-0.00000115,0.00000152,
 -0.00000008,-0.00000050,0.00000030,-0.00000033,0.00000048,0.00000111,-
 0.00000245,0.00000193,-0.00000398,0.00000008,-0.00000847,0.00000071,-0
 .00000288,0.00000338,0.00000041,0.00000020,0.00000072,0.00000131,0.000
 00060,-0.00000078,0.00000024,-0.00000039,0.00000080,-0.00000100,0.0000
 0035,0.00000146,-0.00000076,-0.00000111,-0.00000111,-0.00000012,0.0000
 0041,0.00000013,-0.00000027,0.00000013,-0.00000077,-0.00000069,-0.0000
 0062,-0.00000012,-0.00000021,0.00000206,-0.00000148,0.00000087,0.00000
 210,-0.00000089,0.00000271,-0.00000274,0.00000223,0.00000069,0.0000001
 3,0.00000127,-0.00000160,0.00000041,-0.00000193,-0.00000026,0.00000047
 ,0.00000032,0.00000022,0.00000038,-0.00000037,0.00000058\\\@


 AN OPTIMIST IS A GUY
 THAT HAS NEVER HAD
 MUCH EXPERIENCE
   (CERTAIN MAXIMS OF ARCHY  -- DON MARQUIS)
 Job cpu time:       1 days  0 hours  7 minutes 40.4 seconds.
 File lengths (MBytes):  RWF=   1141 Int=      0 D2E=      0 Chk=     42 Scr=      1
 Normal termination of Gaussian 09 at Sat Jul 24 19:16:19 2021.
