 Entering Gaussian System, Link 0=g09
 Input=opt_freq-conf-900.com
 Output=opt_freq-conf-900.log
 Initial command:
 /aerosol/software/g09/l1.exe "/scratch/nicole/10393/Gau-73197.inp" -scrdir="/scratch/nicole/10393/"
 Entering Link 1 = /aerosol/software/g09/l1.exe PID=     73202.
  
 Copyright (c) 1988,1990,1992,1993,1995,1998,2003,2009,2013,
            Gaussian, Inc.  All Rights Reserved.
  
 This is part of the Gaussian(R) 09 program.  It is based on
 the Gaussian(R) 03 system (copyright 2003, Gaussian, Inc.),
 the Gaussian(R) 98 system (copyright 1998, Gaussian, Inc.),
 the Gaussian(R) 94 system (copyright 1995, Gaussian, Inc.),
 the Gaussian 92(TM) system (copyright 1992, Gaussian, Inc.),
 the Gaussian 90(TM) system (copyright 1990, Gaussian, Inc.),
 the Gaussian 88(TM) system (copyright 1988, Gaussian, Inc.),
 the Gaussian 86(TM) system (copyright 1986, Carnegie Mellon
 University), and the Gaussian 82(TM) system (copyright 1983,
 Carnegie Mellon University). Gaussian is a federally registered
 trademark of Gaussian, Inc.
  
 This software contains proprietary and confidential information,
 including trade secrets, belonging to Gaussian, Inc.
  
 This software is provided under written license and may be
 used, copied, transmitted, or stored only in accord with that
 written license.
  
 The following legend is applicable only to US Government
 contracts under FAR:
  
                    RESTRICTED RIGHTS LEGEND
  
 Use, reproduction and disclosure by the US Government is
 subject to restrictions as set forth in subparagraphs (a)
 and (c) of the Commercial Computer Software - Restricted
 Rights clause in FAR 52.227-19.
  
 Gaussian, Inc.
 340 Quinnipiac St., Bldg. 40, Wallingford CT 06492
  
  
 ---------------------------------------------------------------
 Warning -- This program may not be used in any manner that
 competes with the business of Gaussian, Inc. or will provide
 assistance to any competitor of Gaussian, Inc.  The licensee
 of this program is prohibited from giving any competitor of
 Gaussian, Inc. access to this program.  By using this program,
 the user acknowledges that Gaussian, Inc. is engaged in the
 business of creating and licensing software in the field of
 computational chemistry and represents and warrants to the
 licensee that it is not a competitor of Gaussian, Inc. and that
 it will not use this program in any manner prohibited above.
 ---------------------------------------------------------------
  

 Cite this work as:
 Gaussian 09, Revision D.01,
 M. J. Frisch, G. W. Trucks, H. B. Schlegel, G. E. Scuseria, 
 M. A. Robb, J. R. Cheeseman, G. Scalmani, V. Barone, B. Mennucci, 
 G. A. Petersson, H. Nakatsuji, M. Caricato, X. Li, H. P. Hratchian, 
 A. F. Izmaylov, J. Bloino, G. Zheng, J. L. Sonnenberg, M. Hada, 
 M. Ehara, K. Toyota, R. Fukuda, J. Hasegawa, M. Ishida, T. Nakajima, 
 Y. Honda, O. Kitao, H. Nakai, T. Vreven, J. A. Montgomery, Jr., 
 J. E. Peralta, F. Ogliaro, M. Bearpark, J. J. Heyd, E. Brothers, 
 K. N. Kudin, V. N. Staroverov, T. Keith, R. Kobayashi, J. Normand, 
 K. Raghavachari, A. Rendell, J. C. Burant, S. S. Iyengar, J. Tomasi, 
 M. Cossi, N. Rega, J. M. Millam, M. Klene, J. E. Knox, J. B. Cross, 
 V. Bakken, C. Adamo, J. Jaramillo, R. Gomperts, R. E. Stratmann, 
 O. Yazyev, A. J. Austin, R. Cammi, C. Pomelli, J. W. Ochterski, 
 R. L. Martin, K. Morokuma, V. G. Zakrzewski, G. A. Voth, 
 P. Salvador, J. J. Dannenberg, S. Dapprich, A. D. Daniels, 
 O. Farkas, J. B. Foresman, J. V. Ortiz, J. Cioslowski, 
 and D. J. Fox, Gaussian, Inc., Wallingford CT, 2013.
 
 ******************************************
 Gaussian 09:  ES64L-G09RevD.01 24-Apr-2013
                24-Jul-2021 
 ******************************************
 %mem=2gb
 %nproc=4
 Will use up to    4 processors via shared memory.
 %chk=conf-900.chk
 ----------------------------------------------------------------------
 # B3LYP/6-311++G(2df,2pd) EmpiricalDispersion=GD3BJ opt=calcfc freq=no
 raman nosymm integral(ultrafinegrid)
 ----------------------------------------------------------------------
 1/10=4,14=-1,18=20,19=15,26=4,38=1/1,3;
 2/9=110,12=2,15=1,17=6,18=5,40=1/2;
 3/5=4,6=6,7=1414,11=2,16=1,25=1,30=1,71=2,74=-5,75=-5,124=41,140=1/1,2,3;
 4//1;
 5/5=2,38=5/2;
 8/6=4,10=90,11=11/1;
 11/6=1,8=1,9=11,15=111,16=1,31=1/1,2,10;
 10/6=1,13=1,31=1/2;
 6/7=2,8=2,9=2,10=2,28=1/1;
 7/10=1,18=20,25=1,30=1/1,2,3,16;
 1/10=4,14=-1,18=20,19=15,26=4/3(2);
 2/9=110,15=1/2;
 99//99;
 2/9=110,15=1/2;
 3/5=4,6=6,7=1414,11=2,16=1,25=1,30=1,71=1,74=-5,75=-5,124=41/1,2,3;
 4/5=5,16=3,69=1/1;
 5/5=2,38=5/2;
 7/30=1/1,2,3,16;
 1/14=-1,18=20,19=15,26=4/3(-5);
 2/9=110,15=1/2;
 6/7=2,8=2,9=2,10=2,19=2,28=1/1;
 99/9=1/99;
 ------------------------------------------------------------
 Candidate Structure: Conf:900 OPT and FREQ calc in gas phase
 ------------------------------------------------------------
 Symbolic Z-matrix:
 Charge =  0 Multiplicity = 1
 O                    -0.82672   0.57174  -0.96785 
 C                    -1.22909  -0.54922  -0.64952 
 N                    -0.43138  -1.42426  -0.00173 
 C                     0.95992  -1.12022   0.27281 
 C                     1.61867  -2.41781   0.68934 
 O                     2.92994  -2.25252   0.9456 
 O                     1.05262  -3.47689   0.78607 
 C                     1.13632  -0.01601   1.36123 
 C                     1.95978   1.13444   0.8748 
 C                     3.19006   1.59905   1.2347 
 N                     3.54237   2.69371   0.46381 
 C                     2.53244   2.87303  -0.35249 
 N                     1.55281   1.95523  -0.14982 
 C                    -2.63628  -1.03664  -0.95808 
 C                    -3.55512   0.07309  -1.43111 
 N                    -3.82051   1.00949  -0.33497 
 H                    -0.72051  -2.37758   0.15843 
 H                     1.43873  -0.80577  -0.66191 
 H                     3.27157  -3.11944   1.20092 
 H                     0.14997   0.336     1.65821 
 H                     1.60794  -0.42166   2.25634 
 H                     3.8462    1.20985   1.99991 
 H                     2.44361   3.63558  -1.10536 
 H                     0.68931   1.84637  -0.65881 
 H                    -3.04854  -1.50417  -0.05902 
 H                    -2.56143  -1.81752  -1.72349 
 H                    -4.50577  -0.3706   -1.73887 
 H                    -3.10828   0.55223  -2.31242 
 H                    -2.96873   1.53246  -0.16398 
 H                    -4.50977   1.68835  -0.63264 
 

 GradGradGradGradGradGradGradGradGradGradGradGradGradGradGradGradGradGrad
 Berny optimization.
 Initialization pass.
                           ----------------------------
                           !    Initial Parameters    !
                           ! (Angstroms and Degrees)  !
 --------------------------                            --------------------------
 ! Name  Definition              Value          Derivative Info.                !
 --------------------------------------------------------------------------------
 ! R1    R(1,2)                  1.2328         calculate D2E/DX2 analytically  !
 ! R2    R(2,3)                  1.3497         calculate D2E/DX2 analytically  !
 ! R3    R(2,14)                 1.5208         calculate D2E/DX2 analytically  !
 ! R4    R(3,4)                  1.4504         calculate D2E/DX2 analytically  !
 ! R5    R(3,17)                 1.009          calculate D2E/DX2 analytically  !
 ! R6    R(4,5)                  1.5137         calculate D2E/DX2 analytically  !
 ! R7    R(4,8)                  1.5605         calculate D2E/DX2 analytically  !
 ! R8    R(4,18)                 1.0963         calculate D2E/DX2 analytically  !
 ! R9    R(5,6)                  1.3463         calculate D2E/DX2 analytically  !
 ! R10   R(5,7)                  1.2047         calculate D2E/DX2 analytically  !
 ! R11   R(6,19)                 0.9661         calculate D2E/DX2 analytically  !
 ! R12   R(8,9)                  1.4961         calculate D2E/DX2 analytically  !
 ! R13   R(8,20)                 1.0886         calculate D2E/DX2 analytically  !
 ! R14   R(8,21)                 1.09           calculate D2E/DX2 analytically  !
 ! R15   R(9,10)                 1.3634         calculate D2E/DX2 analytically  !
 ! R16   R(9,13)                 1.3745         calculate D2E/DX2 analytically  !
 ! R17   R(10,11)                1.3844         calculate D2E/DX2 analytically  !
 ! R18   R(10,22)                1.0805         calculate D2E/DX2 analytically  !
 ! R19   R(11,12)                1.3109         calculate D2E/DX2 analytically  !
 ! R20   R(12,13)                1.3576         calculate D2E/DX2 analytically  !
 ! R21   R(12,23)                1.0753         calculate D2E/DX2 analytically  !
 ! R22   R(13,24)                1.0082         calculate D2E/DX2 analytically  !
 ! R23   R(14,15)                1.5164         calculate D2E/DX2 analytically  !
 ! R24   R(14,25)                1.094          calculate D2E/DX2 analytically  !
 ! R25   R(14,26)                1.096          calculate D2E/DX2 analytically  !
 ! R26   R(15,16)                1.4659         calculate D2E/DX2 analytically  !
 ! R27   R(15,27)                1.0933         calculate D2E/DX2 analytically  !
 ! R28   R(15,28)                1.0982         calculate D2E/DX2 analytically  !
 ! R29   R(16,29)                1.014          calculate D2E/DX2 analytically  !
 ! R30   R(16,30)                1.0122         calculate D2E/DX2 analytically  !
 ! A1    A(1,2,3)              121.3681         calculate D2E/DX2 analytically  !
 ! A2    A(1,2,14)             122.7535         calculate D2E/DX2 analytically  !
 ! A3    A(3,2,14)             115.8782         calculate D2E/DX2 analytically  !
 ! A4    A(2,3,4)              121.4608         calculate D2E/DX2 analytically  !
 ! A5    A(2,3,17)             121.2899         calculate D2E/DX2 analytically  !
 ! A6    A(4,3,17)             116.2892         calculate D2E/DX2 analytically  !
 ! A7    A(3,4,5)              106.8498         calculate D2E/DX2 analytically  !
 ! A8    A(3,4,8)              112.8802         calculate D2E/DX2 analytically  !
 ! A9    A(3,4,18)             108.5241         calculate D2E/DX2 analytically  !
 ! A10   A(5,4,8)              111.4368         calculate D2E/DX2 analytically  !
 ! A11   A(5,4,18)             106.8843         calculate D2E/DX2 analytically  !
 ! A12   A(8,4,18)             110.0208         calculate D2E/DX2 analytically  !
 ! A13   A(4,5,6)              111.7786         calculate D2E/DX2 analytically  !
 ! A14   A(4,5,7)              124.835          calculate D2E/DX2 analytically  !
 ! A15   A(6,5,7)              123.3863         calculate D2E/DX2 analytically  !
 ! A16   A(5,6,19)             106.5317         calculate D2E/DX2 analytically  !
 ! A17   A(4,8,9)              112.3075         calculate D2E/DX2 analytically  !
 ! A18   A(4,8,20)             108.4622         calculate D2E/DX2 analytically  !
 ! A19   A(4,8,21)             110.9981         calculate D2E/DX2 analytically  !
 ! A20   A(9,8,20)             109.8016         calculate D2E/DX2 analytically  !
 ! A21   A(9,8,21)             108.362          calculate D2E/DX2 analytically  !
 ! A22   A(20,8,21)            106.7591         calculate D2E/DX2 analytically  !
 ! A23   A(8,9,10)             132.2888         calculate D2E/DX2 analytically  !
 ! A24   A(8,9,13)             122.5895         calculate D2E/DX2 analytically  !
 ! A25   A(10,9,13)            105.0974         calculate D2E/DX2 analytically  !
 ! A26   A(9,10,11)            110.6144         calculate D2E/DX2 analytically  !
 ! A27   A(9,10,22)            127.7431         calculate D2E/DX2 analytically  !
 ! A28   A(11,10,22)           121.642          calculate D2E/DX2 analytically  !
 ! A29   A(10,11,12)           105.0013         calculate D2E/DX2 analytically  !
 ! A30   A(11,12,13)           111.7452         calculate D2E/DX2 analytically  !
 ! A31   A(11,12,23)           126.6302         calculate D2E/DX2 analytically  !
 ! A32   A(13,12,23)           121.6246         calculate D2E/DX2 analytically  !
 ! A33   A(9,13,12)            107.5381         calculate D2E/DX2 analytically  !
 ! A34   A(9,13,24)            124.433          calculate D2E/DX2 analytically  !
 ! A35   A(12,13,24)           127.9973         calculate D2E/DX2 analytically  !
 ! A36   A(2,14,15)            112.9165         calculate D2E/DX2 analytically  !
 ! A37   A(2,14,25)            108.5965         calculate D2E/DX2 analytically  !
 ! A38   A(2,14,26)            107.8686         calculate D2E/DX2 analytically  !
 ! A39   A(15,14,25)           109.924          calculate D2E/DX2 analytically  !
 ! A40   A(15,14,26)           110.1777         calculate D2E/DX2 analytically  !
 ! A41   A(25,14,26)           107.1681         calculate D2E/DX2 analytically  !
 ! A42   A(14,15,16)           110.1156         calculate D2E/DX2 analytically  !
 ! A43   A(14,15,27)           108.5228         calculate D2E/DX2 analytically  !
 ! A44   A(14,15,28)           108.8501         calculate D2E/DX2 analytically  !
 ! A45   A(16,15,27)           108.1986         calculate D2E/DX2 analytically  !
 ! A46   A(16,15,28)           113.2703         calculate D2E/DX2 analytically  !
 ! A47   A(27,15,28)           107.7561         calculate D2E/DX2 analytically  !
 ! A48   A(15,16,29)           107.666          calculate D2E/DX2 analytically  !
 ! A49   A(15,16,30)           109.3782         calculate D2E/DX2 analytically  !
 ! A50   A(29,16,30)           106.0034         calculate D2E/DX2 analytically  !
 ! D1    D(1,2,3,4)             -4.0497         calculate D2E/DX2 analytically  !
 ! D2    D(1,2,3,17)          -172.4215         calculate D2E/DX2 analytically  !
 ! D3    D(14,2,3,4)           175.7875         calculate D2E/DX2 analytically  !
 ! D4    D(14,2,3,17)            7.4157         calculate D2E/DX2 analytically  !
 ! D5    D(1,2,14,15)          -11.5739         calculate D2E/DX2 analytically  !
 ! D6    D(1,2,14,25)         -133.7551         calculate D2E/DX2 analytically  !
 ! D7    D(1,2,14,26)          110.4154         calculate D2E/DX2 analytically  !
 ! D8    D(3,2,14,15)          168.5914         calculate D2E/DX2 analytically  !
 ! D9    D(3,2,14,25)           46.4101         calculate D2E/DX2 analytically  !
 ! D10   D(3,2,14,26)          -69.4193         calculate D2E/DX2 analytically  !
 ! D11   D(2,3,4,5)           -166.4882         calculate D2E/DX2 analytically  !
 ! D12   D(2,3,4,8)             70.6718         calculate D2E/DX2 analytically  !
 ! D13   D(2,3,4,18)           -51.557          calculate D2E/DX2 analytically  !
 ! D14   D(17,3,4,5)             2.4357         calculate D2E/DX2 analytically  !
 ! D15   D(17,3,4,8)          -120.4043         calculate D2E/DX2 analytically  !
 ! D16   D(17,3,4,18)          117.3668         calculate D2E/DX2 analytically  !
 ! D17   D(3,4,5,6)            178.8366         calculate D2E/DX2 analytically  !
 ! D18   D(3,4,5,7)             -1.2448         calculate D2E/DX2 analytically  !
 ! D19   D(8,4,5,6)            -57.4281         calculate D2E/DX2 analytically  !
 ! D20   D(8,4,5,7)            122.4904         calculate D2E/DX2 analytically  !
 ! D21   D(18,4,5,6)            62.807          calculate D2E/DX2 analytically  !
 ! D22   D(18,4,5,7)          -117.2745         calculate D2E/DX2 analytically  !
 ! D23   D(3,4,8,9)           -124.279          calculate D2E/DX2 analytically  !
 ! D24   D(3,4,8,20)            -2.7444         calculate D2E/DX2 analytically  !
 ! D25   D(3,4,8,21)           114.2409         calculate D2E/DX2 analytically  !
 ! D26   D(5,4,8,9)            115.476          calculate D2E/DX2 analytically  !
 ! D27   D(5,4,8,20)          -122.9893         calculate D2E/DX2 analytically  !
 ! D28   D(5,4,8,21)            -6.004          calculate D2E/DX2 analytically  !
 ! D29   D(18,4,8,9)            -2.894          calculate D2E/DX2 analytically  !
 ! D30   D(18,4,8,20)          118.6406         calculate D2E/DX2 analytically  !
 ! D31   D(18,4,8,21)         -124.374          calculate D2E/DX2 analytically  !
 ! D32   D(4,5,6,19)          -179.9334         calculate D2E/DX2 analytically  !
 ! D33   D(7,5,6,19)             0.1467         calculate D2E/DX2 analytically  !
 ! D34   D(4,8,9,10)          -113.4026         calculate D2E/DX2 analytically  !
 ! D35   D(4,8,9,13)            64.522          calculate D2E/DX2 analytically  !
 ! D36   D(20,8,9,10)          125.8315         calculate D2E/DX2 analytically  !
 ! D37   D(20,8,9,13)          -56.2439         calculate D2E/DX2 analytically  !
 ! D38   D(21,8,9,10)            9.5732         calculate D2E/DX2 analytically  !
 ! D39   D(21,8,9,13)         -172.5022         calculate D2E/DX2 analytically  !
 ! D40   D(8,9,10,11)          178.7649         calculate D2E/DX2 analytically  !
 ! D41   D(8,9,10,22)           -0.9809         calculate D2E/DX2 analytically  !
 ! D42   D(13,9,10,11)           0.5759         calculate D2E/DX2 analytically  !
 ! D43   D(13,9,10,22)        -179.1699         calculate D2E/DX2 analytically  !
 ! D44   D(8,9,13,12)         -178.9923         calculate D2E/DX2 analytically  !
 ! D45   D(8,9,13,24)           -0.8995         calculate D2E/DX2 analytically  !
 ! D46   D(10,9,13,12)          -0.5824         calculate D2E/DX2 analytically  !
 ! D47   D(10,9,13,24)         177.5105         calculate D2E/DX2 analytically  !
 ! D48   D(9,10,11,12)          -0.3412         calculate D2E/DX2 analytically  !
 ! D49   D(22,10,11,12)        179.4226         calculate D2E/DX2 analytically  !
 ! D50   D(10,11,12,13)         -0.0436         calculate D2E/DX2 analytically  !
 ! D51   D(10,11,12,23)        179.9924         calculate D2E/DX2 analytically  !
 ! D52   D(11,12,13,9)           0.4032         calculate D2E/DX2 analytically  !
 ! D53   D(11,12,13,24)       -177.6006         calculate D2E/DX2 analytically  !
 ! D54   D(23,12,13,9)        -179.6307         calculate D2E/DX2 analytically  !
 ! D55   D(23,12,13,24)          2.3654         calculate D2E/DX2 analytically  !
 ! D56   D(2,14,15,16)         -68.0822         calculate D2E/DX2 analytically  !
 ! D57   D(2,14,15,27)         173.6574         calculate D2E/DX2 analytically  !
 ! D58   D(2,14,15,28)          56.6415         calculate D2E/DX2 analytically  !
 ! D59   D(25,14,15,16)         53.3511         calculate D2E/DX2 analytically  !
 ! D60   D(25,14,15,27)        -64.9094         calculate D2E/DX2 analytically  !
 ! D61   D(25,14,15,28)        178.0747         calculate D2E/DX2 analytically  !
 ! D62   D(26,14,15,16)        171.2363         calculate D2E/DX2 analytically  !
 ! D63   D(26,14,15,27)         52.9758         calculate D2E/DX2 analytically  !
 ! D64   D(26,14,15,28)        -64.0401         calculate D2E/DX2 analytically  !
 ! D65   D(14,15,16,29)         71.1881         calculate D2E/DX2 analytically  !
 ! D66   D(14,15,16,30)       -174.0572         calculate D2E/DX2 analytically  !
 ! D67   D(27,15,16,29)       -170.3521         calculate D2E/DX2 analytically  !
 ! D68   D(27,15,16,30)        -55.5974         calculate D2E/DX2 analytically  !
 ! D69   D(28,15,16,29)        -50.9567         calculate D2E/DX2 analytically  !
 ! D70   D(28,15,16,30)         63.7981         calculate D2E/DX2 analytically  !
 --------------------------------------------------------------------------------
 Trust Radius=3.00D-01 FncErr=1.00D-07 GrdErr=1.00D-06
 Number of steps in this run=    160 maximum allowed number of steps=    180.
 GradGradGradGradGradGradGradGradGradGradGradGradGradGradGradGradGradGrad

                          Input orientation:                          
 ---------------------------------------------------------------------
 Center     Atomic      Atomic             Coordinates (Angstroms)
 Number     Number       Type             X           Y           Z
 ---------------------------------------------------------------------
      1          8           0       -0.826723    0.571738   -0.967851
      2          6           0       -1.229094   -0.549225   -0.649519
      3          7           0       -0.431377   -1.424261   -0.001728
      4          6           0        0.959925   -1.120223    0.272813
      5          6           0        1.618670   -2.417810    0.689338
      6          8           0        2.929943   -2.252524    0.945600
      7          8           0        1.052621   -3.476888    0.786072
      8          6           0        1.136320   -0.016008    1.361235
      9          6           0        1.959780    1.134444    0.874800
     10          6           0        3.190060    1.599053    1.234702
     11          7           0        3.542369    2.693712    0.463813
     12          6           0        2.532436    2.873028   -0.352489
     13          7           0        1.552808    1.955230   -0.149818
     14          6           0       -2.636284   -1.036645   -0.958076
     15          6           0       -3.555117    0.073091   -1.431113
     16          7           0       -3.820507    1.009488   -0.334969
     17          1           0       -0.720507   -2.377581    0.158427
     18          1           0        1.438730   -0.805768   -0.661906
     19          1           0        3.271568   -3.119437    1.200919
     20          1           0        0.149967    0.336002    1.658207
     21          1           0        1.607938   -0.421655    2.256343
     22          1           0        3.846198    1.209845    1.999911
     23          1           0        2.443610    3.635583   -1.105356
     24          1           0        0.689308    1.846367   -0.658808
     25          1           0       -3.048535   -1.504174   -0.059019
     26          1           0       -2.561425   -1.817523   -1.723489
     27          1           0       -4.505767   -0.370602   -1.738872
     28          1           0       -3.108278    0.552227   -2.312420
     29          1           0       -2.968731    1.532462   -0.163977
     30          1           0       -4.509771    1.688346   -0.632639
 ---------------------------------------------------------------------
                    Distance matrix (angstroms):
                    1          2          3          4          5
     1  O    0.000000
     2  C    1.232799   0.000000
     3  N    2.252488   1.349694   0.000000
     4  C    2.755738   2.443059   1.450356   0.000000
     5  C    4.202810   3.659769   2.380631   1.513661   0.000000
     6  O    5.074474   4.768985   3.589139   2.369750   1.346263
     7  O    4.795785   3.979743   2.652576   2.413689   1.204747
     8  C    3.102196   3.150021   2.509684   1.560470   2.540228
     9  C    3.387713   3.914998   3.610111   2.538824   3.573411
    10  C    4.694802   5.262538   4.876883   3.645984   4.347629
    11  N    5.063734   5.875628   5.741522   4.609946   5.466180
    12  C    4.118077   5.094030   5.232008   4.337033   5.469309
    13  N    2.871480   3.776371   3.921719   3.160466   4.453313
    14  C    2.421053   1.520845   2.434432   3.801945   4.767203
    15  C    2.812009   2.531511   3.747393   4.971214   6.121190
    16  N    3.091102   3.040387   4.185736   5.268548   6.510010
    17  H    3.158838   2.062601   1.008992   2.101875   2.399007
    18  H    2.668970   2.680159   2.077419   1.096284   2.111141
    19  H    5.926578   5.503278   4.246385   3.194046   1.867102
    20  H    2.811703   2.830377   2.488347   2.167011   3.267916
    21  H    4.160509   4.063134   3.203578   2.200525   2.537766
    22  H    5.572341   5.989357   5.407654   4.091780   4.454140
    23  H    4.483429   5.586516   5.923307   5.168982   6.367497
    24  H    2.004629   3.069073   3.519189   3.121187   4.567758
    25  H    3.173616   2.137986   2.619005   4.040456   4.814309
    26  H    3.047745   2.130047   2.766988   4.107476   4.863669
    27  H    3.875286   3.457627   4.552859   5.872189   6.898985
    28  H    2.648346   2.740396   4.051123   5.102038   6.338431
    29  H    2.481412   2.755995   3.899577   4.760448   6.113677
    30  H    3.863163   3.971127   5.169107   6.214940   7.494393
                    6          7          8          9         10
     6  O    0.000000
     7  O    2.246965   0.000000
     8  C    2.896867   3.509346   0.000000
     9  C    3.523887   4.700553   1.496077   0.000000
    10  C    3.871161   5.525857   2.615776   1.363444   0.000000
    11  N    5.007237   6.661756   3.733231   2.259383   1.384438
    12  C    5.302295   6.618732   3.637653   2.203826   2.138845
    13  N    4.560881   5.534798   2.518437   1.374466   2.173557
    14  C    6.007097   4.754457   4.544605   5.403412   6.760286
    15  C    7.287883   6.224911   5.460286   6.071062   7.411649
    16  N    7.605863   6.718012   5.338435   5.906850   7.208295
    17  H    3.736450   2.178623   3.235981   4.475650   5.680186
    18  H    2.626955   3.062777   2.192777   2.529305   3.528094
    19  H    0.966145   2.285518   3.770445   4.463480   4.719315
    20  H    3.864782   4.014167   1.088575   2.127594   3.319159
    21  H    2.611096   3.435771   1.090042   2.110426   2.762267
    22  H    3.733510   5.589539   3.042049   2.197756   1.080530
    23  H    6.254018   7.489967   4.596433   3.226578   3.190692
    24  H    4.939177   5.527813   2.783672   2.114920   3.146475
    25  H    6.108313   4.628743   4.663129   5.737382   7.086876
    26  H    6.121142   4.702417   5.141429   5.992205   7.314607
    27  H    8.126364   6.849820   6.447445   7.134406   8.482184
    28  H    7.412248   6.568676   5.642273   6.015194   7.303902
    29  H    7.095888   6.493648   4.644941   5.052494   6.315968
    30  H    8.565666   7.722214   6.225648   6.665904   7.923531
                   11         12         13         14         15
    11  N    0.000000
    12  C    1.310904   0.000000
    13  N    2.209129   1.357608   0.000000
    14  C    7.356159   6.509066   5.210862   0.000000
    15  C    7.799532   6.786853   5.592411   1.516421   0.000000
    16  N    7.595170   6.620647   5.459050   2.444853   1.465880
    17  H    6.631996   6.197706   4.902675   2.591310   4.070313
    18  H    4.235433   3.850386   2.810402   4.092280   5.128604
    19  H    5.865949   6.234504   5.525475   6.625858   7.982698
    20  H    4.300437   4.019397   2.803358   4.061070   4.831218
    21  H    4.081751   4.302980   3.382637   5.359489   6.363902
    22  H    2.157259   3.166376   3.230568   7.471210   8.236722
    23  H    2.134639   1.075262   2.128419   6.903385   6.984425
    24  H    3.180916   2.131897   1.008243   4.411448   4.664344
    25  H    7.831706   7.098821   5.757437   1.094001   2.151054
    26  H    7.898850   7.058918   5.799744   1.096007   2.155766
    27  H    8.889001   7.872706   6.681387   2.132657   1.093305
    28  H    7.518280   6.406645   5.326442   2.140453   1.098152
    29  H    6.643572   5.665288   4.541283   2.709506   2.019714
    30  H    8.188402   7.146652   6.087628   3.322866   2.039111
                   16         17         18         19         20
    16  N    0.000000
    17  H    4.617973   0.000000
    18  H    5.573295   2.793894   0.000000
    19  H    8.348923   4.192112   3.490341   0.000000
    20  H    4.493440   3.220341   2.889199   4.679056   0.000000
    21  H    6.183130   3.694395   2.948280   3.340601   1.748568
    22  H    8.016868   6.092247   4.116293   4.439739   3.813461
    23  H    6.835864   6.911362   4.575154   7.185731   4.877019
    24  H    4.598225   4.527381   2.755987   5.897954   2.817915
    25  H    2.643972   2.495964   4.581135   6.643811   4.070078
    26  H    3.391941   2.691515   4.260499   6.653643   4.839957
    27  H    2.084508   4.685712   6.056919   8.757021   5.806488
    28  H    2.150970   4.515563   5.024303   8.156415   5.140894
    29  H    1.014033   4.521824   5.014077   7.902180   3.805017
    30  H    1.012196   5.613917   6.450281   9.328770   5.365629
                   21         22         23         24         25
    21  H    0.000000
    22  H    2.781610   0.000000
    23  H    5.334843   4.182600   0.000000
    24  H    3.806036   4.176111   2.545246   0.000000
    25  H    5.311826   7.690412   7.594445   5.055427   0.000000
    26  H    5.930523   8.005392   7.427573   5.012475   1.762363
    27  H    7.303544   9.286099   8.046410   5.750678   2.496080
    28  H    6.638128   8.209348   6.464329   4.339457   3.051257
    29  H    5.533754   7.157496   5.882411   3.704679   3.039497
    30  H    7.086938   8.773910   7.236346   5.201546   3.557588
                   26         27         28         29         30
    26  H    0.000000
    27  H    2.423691   0.000000
    28  H    2.502319   1.770183   0.000000
    29  H    3.717576   2.909369   2.365617   0.000000
    30  H    4.156576   2.337314   2.465079   1.618254   0.000000
 Symmetry turned off by external request.
 Stoichiometry    C9H14N4O3
 Framework group  C1[X(C9H14N4O3)]
 Deg. of freedom    84
 Full point group                 C1      NOp   1
 Rotational constants (GHZ):      0.6120385      0.3669297      0.2426803
 Standard basis: 6-311++G(2df,2pd) (5D, 7F)
   754 basis functions,  1084 primitive gaussians,   848 cartesian basis functions
    60 alpha electrons       60 beta electrons
       nuclear repulsion energy      1127.3674257685 Hartrees.
 NAtoms=   30 NActive=   30 NUniq=   30 SFac= 1.00D+00 NAtFMM=   60 NAOKFM=F Big=F
 Integral buffers will be    131072 words long.
 Raffenetti 2 integral format.
 Two-electron integral symmetry is turned off.
 Nuclear repulsion after empirical dispersion term =     1127.3132326002 Hartrees.
 One-electron integrals computed using PRISM.
 NBasis=   754 RedAO= T EigKep=  2.14D-06  NBF=   754
 NBsUse=   754 1.00D-06 EigRej= -1.00D+00 NBFU=   754
 ExpMin= 3.60D-02 ExpMax= 8.59D+03 ExpMxC= 1.30D+03 IAcc=3 IRadAn=         5 AccDes= 0.00D+00
 Harris functional with IExCor=  402 and IRadAn=       5 diagonalized for initial guess.
 HarFok:  IExCor=  402 AccDes= 0.00D+00 IRadAn=         5 IDoV= 1 UseB2=F ITyADJ=14
 ICtDFT=  3500011 ScaDFX=  1.000000  1.000000  1.000000  1.000000
 FoFCou: FMM=F IPFlag=           0 FMFlag=      100000 FMFlg1=           0
         NFxFlg=           0 DoJE=T BraDBF=F KetDBF=T FulRan=T
         wScrn=  0.000000 ICntrl=     500 IOpCl=  0 I1Cent=   200000004 NGrid=           0
         NMat0=    1 NMatS0=      1 NMatT0=    0 NMatD0=    1 NMtDS0=    0 NMtDT0=    0
 Symmetry not used in FoFCou.
 Requested convergence on RMS density matrix=1.00D-08 within 128 cycles.
 Requested convergence on MAX density matrix=1.00D-06.
 Requested convergence on             energy=1.00D-06.
 No special actions if energy rises.
 SCF Done:  E(RB3LYP) =  -796.441329659     A.U. after   14 cycles
            NFock= 14  Conv=0.52D-08     -V/T= 2.0040
 DoSCS=F DFT=T ScalE2(SS,OS)=  1.000000  1.000000
 Range of M.O.s used for correlation:     1   754
 NBasis=   754 NAE=    60 NBE=    60 NFC=     0 NFV=     0
 NROrb=    754 NOA=    60 NOB=    60 NVA=   694 NVB=   694

 **** Warning!!: The largest alpha MO coefficient is  0.12733556D+03

 Symmetrizing basis deriv contribution to polar:
 IMax=3 JMax=2 DiffMx= 0.00D+00
 G2DrvN: will do    31 centers at a time, making    1 passes.
 Calling FoFCou, ICntrl=  3107 FMM=F I1Cent=   0 AccDes= 0.00D+00.
 End of G2Drv F.D. properties file   721 does not exist.
 End of G2Drv F.D. properties file   722 does not exist.
 End of G2Drv F.D. properties file   788 does not exist.
          IDoAtm=111111111111111111111111111111
          Differentiating once with respect to nuclear coordinates.
          There are    93 degrees of freedom in the 1st order CPHF.  IDoFFX=6 NUNeed=     0.
     87 vectors produced by pass  0 Test12= 4.48D-14 1.08D-09 XBig12= 1.72D-01 8.79D-02.
 AX will form    87 AO Fock derivatives at one time.
     87 vectors produced by pass  1 Test12= 4.48D-14 1.08D-09 XBig12= 2.84D-02 5.64D-02.
     87 vectors produced by pass  2 Test12= 4.48D-14 1.08D-09 XBig12= 5.62D-04 4.23D-03.
     87 vectors produced by pass  3 Test12= 4.48D-14 1.08D-09 XBig12= 3.42D-06 2.91D-04.
     87 vectors produced by pass  4 Test12= 4.48D-14 1.08D-09 XBig12= 1.03D-08 1.54D-05.
     87 vectors produced by pass  5 Test12= 4.48D-14 1.08D-09 XBig12= 1.94D-11 4.35D-07.
     44 vectors produced by pass  6 Test12= 4.48D-14 1.08D-09 XBig12= 2.72D-14 1.40D-08.
      8 vectors produced by pass  7 Test12= 4.48D-14 1.08D-09 XBig12= 5.47D-16 2.31D-09.
      5 vectors produced by pass  8 Test12= 4.48D-14 1.08D-09 XBig12= 3.57D-16 2.23D-09.
      5 vectors produced by pass  9 Test12= 4.48D-14 1.08D-09 XBig12= 3.53D-15 4.47D-09.
      5 vectors produced by pass 10 Test12= 4.48D-14 1.08D-09 XBig12= 7.86D-15 8.25D-09.
      5 vectors produced by pass 11 Test12= 4.48D-14 1.08D-09 XBig12= 3.17D-15 4.39D-09.
      5 vectors produced by pass 12 Test12= 4.48D-14 1.08D-09 XBig12= 5.35D-15 6.19D-09.
      4 vectors produced by pass 13 Test12= 4.48D-14 1.08D-09 XBig12= 1.64D-15 3.30D-09.
      4 vectors produced by pass 14 Test12= 4.48D-14 1.08D-09 XBig12= 4.89D-15 7.11D-09.
      4 vectors produced by pass 15 Test12= 4.48D-14 1.08D-09 XBig12= 4.39D-15 6.02D-09.
      4 vectors produced by pass 16 Test12= 4.48D-14 1.08D-09 XBig12= 3.52D-15 4.87D-09.
      4 vectors produced by pass 17 Test12= 4.48D-14 1.08D-09 XBig12= 3.00D-15 3.84D-09.
      4 vectors produced by pass 18 Test12= 4.48D-14 1.08D-09 XBig12= 5.10D-15 5.70D-09.
      3 vectors produced by pass 19 Test12= 4.48D-14 1.08D-09 XBig12= 1.74D-15 3.11D-09.
      3 vectors produced by pass 20 Test12= 4.48D-14 1.08D-09 XBig12= 3.33D-15 3.96D-09.
      3 vectors produced by pass 21 Test12= 4.48D-14 1.08D-09 XBig12= 2.73D-15 4.25D-09.
      3 vectors produced by pass 22 Test12= 4.48D-14 1.08D-09 XBig12= 2.61D-15 4.40D-09.
      3 vectors produced by pass 23 Test12= 4.48D-14 1.08D-09 XBig12= 3.91D-15 5.90D-09.
      3 vectors produced by pass 24 Test12= 4.48D-14 1.08D-09 XBig12= 8.12D-16 2.73D-09.
      3 vectors produced by pass 25 Test12= 4.48D-14 1.08D-09 XBig12= 3.93D-15 5.00D-09.
      3 vectors produced by pass 26 Test12= 4.48D-14 1.08D-09 XBig12= 3.31D-15 3.75D-09.
      3 vectors produced by pass 27 Test12= 4.48D-14 1.08D-09 XBig12= 6.60D-16 2.27D-09.
      3 vectors produced by pass 28 Test12= 4.48D-14 1.08D-09 XBig12= 4.03D-15 5.15D-09.
      3 vectors produced by pass 29 Test12= 4.48D-14 1.08D-09 XBig12= 2.22D-15 3.40D-09.
      3 vectors produced by pass 30 Test12= 4.48D-14 1.08D-09 XBig12= 2.02D-15 3.28D-09.
      3 vectors produced by pass 31 Test12= 4.48D-14 1.08D-09 XBig12= 2.83D-15 3.11D-09.
      3 vectors produced by pass 32 Test12= 4.48D-14 1.08D-09 XBig12= 1.74D-15 2.92D-09.
      3 vectors produced by pass 33 Test12= 4.48D-14 1.08D-09 XBig12= 5.42D-15 5.82D-09.
      3 vectors produced by pass 34 Test12= 4.48D-14 1.08D-09 XBig12= 1.15D-15 2.31D-09.
      3 vectors produced by pass 35 Test12= 4.48D-14 1.08D-09 XBig12= 4.57D-15 6.73D-09.
      3 vectors produced by pass 36 Test12= 4.48D-14 1.08D-09 XBig12= 4.65D-15 5.66D-09.
      2 vectors produced by pass 37 Test12= 4.48D-14 1.08D-09 XBig12= 2.65D-15 3.39D-09.
 InvSVY:  IOpt=1 It=  1 EMax= 6.11D-16
 Solved reduced A of dimension   679 with    93 vectors.
 End of Minotr F.D. properties file   721 does not exist.
 End of Minotr F.D. properties file   722 does not exist.
 End of Minotr F.D. properties file   788 does not exist.

 **********************************************************************

            Population analysis using the SCF density.

 **********************************************************************

 Alpha  occ. eigenvalues --  -19.20422 -19.15164 -19.11738 -14.36238 -14.35200
 Alpha  occ. eigenvalues --  -14.29900 -14.28362 -10.33919 -10.29772 -10.25455
 Alpha  occ. eigenvalues --  -10.21334 -10.20460 -10.20374 -10.19793 -10.19443
 Alpha  occ. eigenvalues --  -10.17364  -1.14837  -1.06876  -1.05990  -1.00979
 Alpha  occ. eigenvalues --   -0.95741  -0.89488  -0.86408  -0.82133  -0.77596
 Alpha  occ. eigenvalues --   -0.74956  -0.69145  -0.66623  -0.62123  -0.61287
 Alpha  occ. eigenvalues --   -0.60543  -0.58636  -0.54949  -0.53986  -0.52667
 Alpha  occ. eigenvalues --   -0.51552  -0.50479  -0.49639  -0.48938  -0.48031
 Alpha  occ. eigenvalues --   -0.46063  -0.44925  -0.44172  -0.43747  -0.42533
 Alpha  occ. eigenvalues --   -0.40882  -0.40422  -0.40123  -0.39956  -0.39042
 Alpha  occ. eigenvalues --   -0.37765  -0.37487  -0.36308  -0.32323  -0.29491
 Alpha  occ. eigenvalues --   -0.29051  -0.27592  -0.26469  -0.25654  -0.22666
 Alpha virt. eigenvalues --   -0.03597  -0.02304  -0.01720  -0.01198  -0.00098
 Alpha virt. eigenvalues --    0.00564   0.00748   0.01624   0.01907   0.02291
 Alpha virt. eigenvalues --    0.02842   0.03186   0.03645   0.04170   0.04975
 Alpha virt. eigenvalues --    0.05242   0.05510   0.06729   0.06890   0.07268
 Alpha virt. eigenvalues --    0.07357   0.07790   0.08413   0.08918   0.09026
 Alpha virt. eigenvalues --    0.09319   0.10040   0.10378   0.10401   0.11116
 Alpha virt. eigenvalues --    0.11469   0.11747   0.11902   0.11948   0.12856
 Alpha virt. eigenvalues --    0.13274   0.13499   0.13578   0.14009   0.14297
 Alpha virt. eigenvalues --    0.14673   0.14921   0.15091   0.15199   0.15823
 Alpha virt. eigenvalues --    0.16345   0.16661   0.17059   0.17271   0.17929
 Alpha virt. eigenvalues --    0.18271   0.18504   0.19003   0.19541   0.19843
 Alpha virt. eigenvalues --    0.20444   0.20718   0.21025   0.21567   0.21875
 Alpha virt. eigenvalues --    0.22254   0.22337   0.22766   0.23002   0.23460
 Alpha virt. eigenvalues --    0.23683   0.24032   0.24735   0.24972   0.25559
 Alpha virt. eigenvalues --    0.25637   0.26226   0.26503   0.27120   0.27407
 Alpha virt. eigenvalues --    0.27674   0.28210   0.28489   0.28676   0.29442
 Alpha virt. eigenvalues --    0.29689   0.29954   0.30614   0.30764   0.31289
 Alpha virt. eigenvalues --    0.31677   0.32202   0.32484   0.32729   0.33328
 Alpha virt. eigenvalues --    0.33410   0.34000   0.34264   0.34933   0.35171
 Alpha virt. eigenvalues --    0.35867   0.36135   0.37116   0.37604   0.38623
 Alpha virt. eigenvalues --    0.38846   0.39373   0.40155   0.41593   0.42314
 Alpha virt. eigenvalues --    0.44148   0.44286   0.44601   0.45959   0.46942
 Alpha virt. eigenvalues --    0.47690   0.48027   0.48786   0.49524   0.50688
 Alpha virt. eigenvalues --    0.50798   0.52234   0.52714   0.53124   0.53915
 Alpha virt. eigenvalues --    0.54741   0.55063   0.55648   0.56002   0.56387
 Alpha virt. eigenvalues --    0.57814   0.58102   0.58229   0.59044   0.59422
 Alpha virt. eigenvalues --    0.60186   0.60625   0.61384   0.61584   0.62579
 Alpha virt. eigenvalues --    0.62758   0.62776   0.63594   0.64068   0.64805
 Alpha virt. eigenvalues --    0.65416   0.65702   0.66255   0.67101   0.68389
 Alpha virt. eigenvalues --    0.68875   0.69488   0.70442   0.70540   0.71152
 Alpha virt. eigenvalues --    0.71812   0.72324   0.73160   0.74008   0.74824
 Alpha virt. eigenvalues --    0.75399   0.76145   0.76938   0.77192   0.78046
 Alpha virt. eigenvalues --    0.78234   0.78504   0.80069   0.81026   0.81569
 Alpha virt. eigenvalues --    0.82238   0.82724   0.83252   0.83635   0.84243
 Alpha virt. eigenvalues --    0.86013   0.86978   0.87606   0.88083   0.90075
 Alpha virt. eigenvalues --    0.90198   0.90854   0.91532   0.92503   0.93012
 Alpha virt. eigenvalues --    0.93276   0.94527   0.94972   0.96621   0.97869
 Alpha virt. eigenvalues --    0.98415   0.98847   0.99408   1.00135   1.00637
 Alpha virt. eigenvalues --    1.01554   1.02228   1.02736   1.03950   1.05470
 Alpha virt. eigenvalues --    1.05723   1.06087   1.06256   1.07488   1.07861
 Alpha virt. eigenvalues --    1.08955   1.09386   1.10614   1.11298   1.12551
 Alpha virt. eigenvalues --    1.12639   1.13382   1.14549   1.15726   1.16617
 Alpha virt. eigenvalues --    1.17265   1.17809   1.18244   1.18899   1.19551
 Alpha virt. eigenvalues --    1.20085   1.21209   1.21674   1.22361   1.23258
 Alpha virt. eigenvalues --    1.24215   1.25592   1.26510   1.27360   1.27550
 Alpha virt. eigenvalues --    1.29488   1.29684   1.30686   1.31041   1.31870
 Alpha virt. eigenvalues --    1.33317   1.34008   1.34646   1.35116   1.36798
 Alpha virt. eigenvalues --    1.37737   1.38552   1.39362   1.39963   1.40762
 Alpha virt. eigenvalues --    1.41482   1.41813   1.41996   1.43195   1.44066
 Alpha virt. eigenvalues --    1.44285   1.44867   1.45028   1.45974   1.47353
 Alpha virt. eigenvalues --    1.47709   1.48749   1.49895   1.50937   1.51497
 Alpha virt. eigenvalues --    1.53131   1.53179   1.53623   1.53996   1.55078
 Alpha virt. eigenvalues --    1.56319   1.56567   1.57655   1.58792   1.59269
 Alpha virt. eigenvalues --    1.60981   1.62225   1.63334   1.64970   1.65560
 Alpha virt. eigenvalues --    1.66267   1.69416   1.69931   1.70350   1.71163
 Alpha virt. eigenvalues --    1.73004   1.74605   1.76008   1.76851   1.77463
 Alpha virt. eigenvalues --    1.78075   1.78727   1.80938   1.81813   1.83812
 Alpha virt. eigenvalues --    1.85012   1.86603   1.89491   1.91688   1.92072
 Alpha virt. eigenvalues --    1.93249   1.95364   1.96544   1.98383   2.01327
 Alpha virt. eigenvalues --    2.03005   2.05062   2.05740   2.07906   2.09836
 Alpha virt. eigenvalues --    2.12103   2.13337   2.16785   2.17580   2.19084
 Alpha virt. eigenvalues --    2.25086   2.29882   2.31375   2.44550   2.46072
 Alpha virt. eigenvalues --    2.49251   2.51904   2.53390   2.55076   2.56609
 Alpha virt. eigenvalues --    2.56949   2.58224   2.59410   2.60330   2.61522
 Alpha virt. eigenvalues --    2.63162   2.64780   2.65508   2.67181   2.70979
 Alpha virt. eigenvalues --    2.71624   2.71912   2.72897   2.74127   2.74508
 Alpha virt. eigenvalues --    2.75884   2.76297   2.77852   2.78566   2.79536
 Alpha virt. eigenvalues --    2.80341   2.81662   2.82388   2.83472   2.84500
 Alpha virt. eigenvalues --    2.85446   2.85664   2.86822   2.88166   2.89931
 Alpha virt. eigenvalues --    2.90634   2.91592   2.92606   2.93412   2.94507
 Alpha virt. eigenvalues --    2.94826   2.95973   2.96876   2.97561   2.98742
 Alpha virt. eigenvalues --    2.99222   3.00330   3.00728   3.02106   3.02576
 Alpha virt. eigenvalues --    3.03806   3.04237   3.04617   3.05870   3.06451
 Alpha virt. eigenvalues --    3.07166   3.07363   3.08299   3.08952   3.09224
 Alpha virt. eigenvalues --    3.10485   3.10980   3.12787   3.13620   3.13832
 Alpha virt. eigenvalues --    3.14349   3.15652   3.16501   3.16971   3.17946
 Alpha virt. eigenvalues --    3.18930   3.20109   3.20890   3.21900   3.22562
 Alpha virt. eigenvalues --    3.23088   3.23823   3.25028   3.25291   3.25605
 Alpha virt. eigenvalues --    3.26193   3.26664   3.27433   3.28382   3.29022
 Alpha virt. eigenvalues --    3.29774   3.29857   3.30506   3.31168   3.32536
 Alpha virt. eigenvalues --    3.33110   3.33991   3.35181   3.36122   3.37504
 Alpha virt. eigenvalues --    3.37903   3.38550   3.39020   3.40132   3.40567
 Alpha virt. eigenvalues --    3.41811   3.42607   3.43128   3.43978   3.44575
 Alpha virt. eigenvalues --    3.45186   3.47239   3.47603   3.48026   3.49243
 Alpha virt. eigenvalues --    3.50075   3.51111   3.51579   3.52109   3.53025
 Alpha virt. eigenvalues --    3.53534   3.54149   3.54987   3.56187   3.57235
 Alpha virt. eigenvalues --    3.57676   3.58584   3.58934   3.60238   3.60600
 Alpha virt. eigenvalues --    3.62047   3.63209   3.64132   3.65427   3.65925
 Alpha virt. eigenvalues --    3.66251   3.67685   3.68450   3.68613   3.69324
 Alpha virt. eigenvalues --    3.70146   3.70831   3.72356   3.72624   3.73021
 Alpha virt. eigenvalues --    3.73790   3.74301   3.76046   3.77109   3.77687
 Alpha virt. eigenvalues --    3.78113   3.79056   3.79833   3.80943   3.82358
 Alpha virt. eigenvalues --    3.82575   3.82832   3.83552   3.84899   3.85810
 Alpha virt. eigenvalues --    3.86959   3.87426   3.87677   3.88675   3.88896
 Alpha virt. eigenvalues --    3.90494   3.91711   3.92037   3.92745   3.94149
 Alpha virt. eigenvalues --    3.94932   3.95307   3.96053   3.96790   3.97697
 Alpha virt. eigenvalues --    3.98875   4.00114   4.00866   4.01266   4.02150
 Alpha virt. eigenvalues --    4.03542   4.04044   4.04858   4.06438   4.07931
 Alpha virt. eigenvalues --    4.08224   4.10146   4.10287   4.10772   4.11667
 Alpha virt. eigenvalues --    4.13132   4.13975   4.15205   4.16618   4.17552
 Alpha virt. eigenvalues --    4.18357   4.20319   4.21084   4.22493   4.22603
 Alpha virt. eigenvalues --    4.23567   4.25236   4.26011   4.28326   4.28787
 Alpha virt. eigenvalues --    4.30381   4.31583   4.32195   4.34113   4.34960
 Alpha virt. eigenvalues --    4.36738   4.36856   4.38595   4.39227   4.41059
 Alpha virt. eigenvalues --    4.42814   4.43641   4.43964   4.45732   4.47140
 Alpha virt. eigenvalues --    4.50457   4.52195   4.52390   4.52694   4.53249
 Alpha virt. eigenvalues --    4.54875   4.57661   4.58544   4.59055   4.61871
 Alpha virt. eigenvalues --    4.64013   4.64639   4.66497   4.68229   4.69383
 Alpha virt. eigenvalues --    4.70579   4.72538   4.76137   4.76866   4.79678
 Alpha virt. eigenvalues --    4.80729   4.81742   4.83821   4.85370   4.85546
 Alpha virt. eigenvalues --    4.87088   4.87908   4.88967   4.91105   4.93568
 Alpha virt. eigenvalues --    4.94418   4.95717   4.96104   4.97109   4.98127
 Alpha virt. eigenvalues --    4.99922   5.00880   5.01716   5.03026   5.03214
 Alpha virt. eigenvalues --    5.03991   5.05850   5.06504   5.06879   5.07680
 Alpha virt. eigenvalues --    5.08285   5.08795   5.09318   5.11147   5.12085
 Alpha virt. eigenvalues --    5.12199   5.13504   5.13925   5.15783   5.16472
 Alpha virt. eigenvalues --    5.17792   5.19492   5.20108   5.21173   5.22341
 Alpha virt. eigenvalues --    5.23073   5.23404   5.24056   5.26517   5.27149
 Alpha virt. eigenvalues --    5.28171   5.29899   5.30330   5.31258   5.31967
 Alpha virt. eigenvalues --    5.33868   5.35063   5.36767   5.37126   5.38813
 Alpha virt. eigenvalues --    5.39716   5.42022   5.43787   5.44630   5.46271
 Alpha virt. eigenvalues --    5.46736   5.48342   5.51490   5.52109   5.53872
 Alpha virt. eigenvalues --    5.54662   5.58015   5.59020   5.62533   5.63117
 Alpha virt. eigenvalues --    5.64038   5.67804   5.68449   5.69447   5.70323
 Alpha virt. eigenvalues --    5.73971   5.77316   5.78754   5.81202   5.81948
 Alpha virt. eigenvalues --    5.84165   5.88338   5.91235   5.92524   5.93811
 Alpha virt. eigenvalues --    5.94944   5.97365   6.01542   6.04076   6.10623
 Alpha virt. eigenvalues --    6.12854   6.14839   6.16722   6.23971   6.24753
 Alpha virt. eigenvalues --    6.28672   6.30143   6.32060   6.33120   6.38960
 Alpha virt. eigenvalues --    6.39798   6.42225   6.45854   6.47189   6.49272
 Alpha virt. eigenvalues --    6.53032   6.56537   6.57128   6.69164   6.76539
 Alpha virt. eigenvalues --    6.78734   6.88573   6.94579   6.95025   6.96051
 Alpha virt. eigenvalues --    7.00058   7.04315   7.09993   7.14324   7.17378
 Alpha virt. eigenvalues --    7.23389   7.24125   7.28402   7.28890   7.30982
 Alpha virt. eigenvalues --    7.34050   7.57797   7.60072   7.63631   7.65874
 Alpha virt. eigenvalues --    7.74284   7.75934   7.97979  24.56080  24.72348
 Alpha virt. eigenvalues --   24.83091  24.87959  25.05626  25.06410  25.11514
 Alpha virt. eigenvalues --   25.14156  25.15165  35.99984  36.26164  36.32633
 Alpha virt. eigenvalues --   36.47855  50.17966  50.20443  50.27672
          Condensed to atoms (all electrons):
               1          2          3          4          5          6
     1  O    8.274065   0.197549  -0.058405  -0.057831  -0.008703   0.000405
     2  C    0.197549   7.362566   0.117586  -0.547500   0.054309   0.020715
     3  N   -0.058405   0.117586   6.521386  -0.144432   0.038440   0.000265
     4  C   -0.057831  -0.547500  -0.144432  10.227506  -2.586760   0.180302
     5  C   -0.008703   0.054309   0.038440  -2.586760   7.836722   0.048949
     6  O    0.000405   0.020715   0.000265   0.180302   0.048949   7.839101
     7  O   -0.000217   0.042337  -0.002480  -0.078702   0.446799  -0.097206
     8  C    0.031552  -0.167548   0.087735  -0.697213  -0.120969   0.121680
     9  C   -0.017277   0.072437  -0.028310  -0.123442   0.107229  -0.076441
    10  C   -0.043645   0.019262   0.031544  -0.161169   0.046315  -0.043030
    11  N    0.000940  -0.000979  -0.000860   0.021554  -0.004028  -0.000325
    12  C    0.000413   0.012737  -0.010490   0.106272  -0.045649  -0.000761
    13  N    0.017278   0.024028  -0.000636  -0.012995  -0.019716   0.002128
    14  C    0.153782  -1.229399   0.038006  -0.156785  -0.209153  -0.000475
    15  C   -0.000146   0.108812  -0.021962  -0.064946   0.013625   0.000054
    16  N   -0.020394   0.069216  -0.004391   0.007956   0.001024   0.000004
    17  H    0.004148  -0.068440   0.348407  -0.000011   0.008014  -0.001665
    18  H    0.008117   0.048522  -0.032294   0.408528  -0.063907  -0.008787
    19  H   -0.000065  -0.002759   0.005680  -0.209969   0.195724   0.192269
    20  H   -0.007134  -0.013988   0.023997  -0.136226   0.032776   0.004326
    21  H    0.001797  -0.009782  -0.011360   0.047806  -0.052687   0.003771
    22  H   -0.000437   0.002341   0.002352  -0.026917   0.003299  -0.003794
    23  H    0.000309   0.001359  -0.000353  -0.001265  -0.000872  -0.000016
    24  H   -0.016899   0.003835   0.004333  -0.019464   0.016007   0.000794
    25  H    0.002257  -0.094061  -0.000434   0.007244  -0.002234   0.000043
    26  H    0.007145  -0.046010   0.002021   0.017463  -0.006125   0.000066
    27  H    0.005067  -0.036102   0.000627  -0.007684  -0.000707  -0.000011
    28  H   -0.009248   0.120561  -0.001053   0.014636   0.000433   0.000012
    29  H    0.009434  -0.041136  -0.000692  -0.004209  -0.000343  -0.000033
    30  H   -0.000808  -0.023138   0.000795  -0.001714   0.000154   0.000001
               7          8          9         10         11         12
     1  O   -0.000217   0.031552  -0.017277  -0.043645   0.000940   0.000413
     2  C    0.042337  -0.167548   0.072437   0.019262  -0.000979   0.012737
     3  N   -0.002480   0.087735  -0.028310   0.031544  -0.000860  -0.010490
     4  C   -0.078702  -0.697213  -0.123442  -0.161169   0.021554   0.106272
     5  C    0.446799  -0.120969   0.107229   0.046315  -0.004028  -0.045649
     6  O   -0.097206   0.121680  -0.076441  -0.043030  -0.000325  -0.000761
     7  O    8.129568  -0.000858  -0.032485   0.001735  -0.000024   0.000025
     8  C   -0.000858   8.910030  -1.971282  -0.694590  -0.026553  -0.100312
     9  C   -0.032485  -1.971282   8.414552  -0.184846  -0.089288  -0.118697
    10  C    0.001735  -0.694590  -0.184846   6.677219   0.365671  -0.262889
    11  N   -0.000024  -0.026553  -0.089288   0.365671   6.883573   0.261876
    12  C    0.000025  -0.100312  -0.118697  -0.262889   0.261876   5.363391
    13  N    0.000341  -0.250545   0.169164   0.013334   0.047773   0.281147
    14  C   -0.027923   0.084505   0.041212  -0.016564  -0.000409   0.005368
    15  C    0.000097  -0.011498  -0.000938  -0.001365   0.000148   0.000420
    16  N   -0.000028  -0.003799   0.002222   0.000841   0.000001  -0.000089
    17  H    0.025962   0.021301  -0.030094  -0.001870  -0.000057   0.000114
    18  H   -0.010759  -0.139047   0.010422   0.047003   0.000003  -0.009306
    19  H    0.018825   0.002914  -0.006259   0.006003   0.000001  -0.000784
    20  H   -0.000997   0.479796  -0.092887  -0.017199   0.000012  -0.001909
    21  H   -0.003587   0.390839  -0.057481   0.002388   0.000213   0.002923
    22  H    0.000113  -0.079782  -0.100105   0.536601  -0.091130   0.033011
    23  H   -0.000008   0.005313   0.044225   0.006273  -0.080288   0.445362
    24  H    0.000303  -0.024250  -0.096173   0.046718   0.012948  -0.065040
    25  H   -0.000656  -0.001887   0.000879   0.000966  -0.000009  -0.000185
    26  H    0.000696  -0.000968  -0.002573  -0.000947   0.000011   0.000165
    27  H   -0.000045   0.001308   0.000030  -0.000221   0.000000   0.000069
    28  H    0.000007  -0.001024   0.000134   0.000951  -0.000023  -0.000328
    29  H   -0.000003  -0.001252   0.000831  -0.000172  -0.000083   0.000393
    30  H   -0.000002  -0.000045   0.000431  -0.000040   0.000006   0.000111
              13         14         15         16         17         18
     1  O    0.017278   0.153782  -0.000146  -0.020394   0.004148   0.008117
     2  C    0.024028  -1.229399   0.108812   0.069216  -0.068440   0.048522
     3  N   -0.000636   0.038006  -0.021962  -0.004391   0.348407  -0.032294
     4  C   -0.012995  -0.156785  -0.064946   0.007956  -0.000011   0.408528
     5  C   -0.019716  -0.209153   0.013625   0.001024   0.008014  -0.063907
     6  O    0.002128  -0.000475   0.000054   0.000004  -0.001665  -0.008787
     7  O    0.000341  -0.027923   0.000097  -0.000028   0.025962  -0.010759
     8  C   -0.250545   0.084505  -0.011498  -0.003799   0.021301  -0.139047
     9  C    0.169164   0.041212  -0.000938   0.002222  -0.030094   0.010422
    10  C    0.013334  -0.016564  -0.001365   0.000841  -0.001870   0.047003
    11  N    0.047773  -0.000409   0.000148   0.000001  -0.000057   0.000003
    12  C    0.281147   0.005368   0.000420  -0.000089   0.000114  -0.009306
    13  N    6.435883   0.003301   0.002693  -0.000272   0.000531   0.011742
    14  C    0.003301   6.537628   0.153163  -0.119612  -0.003323  -0.015132
    15  C    0.002693   0.153163   5.152730   0.201123  -0.006292   0.002187
    16  N   -0.000272  -0.119612   0.201123   6.457745   0.001834   0.000120
    17  H    0.000531  -0.003323  -0.006292   0.001834   0.547141   0.004089
    18  H    0.011742  -0.015132   0.002187   0.000120   0.004089   0.661091
    19  H    0.000110  -0.001361   0.000058  -0.000006   0.002784   0.001498
    20  H    0.013491   0.016069   0.000133  -0.000726  -0.001628  -0.001541
    21  H   -0.001021  -0.003384   0.000329  -0.000191   0.001264  -0.001281
    22  H    0.029116   0.000418  -0.000032   0.000015  -0.000178   0.001187
    23  H   -0.082040   0.000607   0.000004   0.000042  -0.000002  -0.000180
    24  H    0.422533  -0.005314   0.000245  -0.000168  -0.000211  -0.001128
    25  H   -0.000055   0.452460  -0.031594   0.001845   0.001748   0.001039
    26  H    0.000236   0.390150  -0.031342   0.011255   0.000153  -0.000054
    27  H    0.000060   0.039188   0.416648  -0.080599  -0.000228  -0.000556
    28  H   -0.000518  -0.207185   0.401492  -0.028551   0.001186   0.000620
    29  H   -0.000031   0.046920  -0.043266   0.367789  -0.000224   0.000178
    30  H    0.000158   0.021276  -0.016924   0.332612  -0.000111  -0.000089
              19         20         21         22         23         24
     1  O   -0.000065  -0.007134   0.001797  -0.000437   0.000309  -0.016899
     2  C   -0.002759  -0.013988  -0.009782   0.002341   0.001359   0.003835
     3  N    0.005680   0.023997  -0.011360   0.002352  -0.000353   0.004333
     4  C   -0.209969  -0.136226   0.047806  -0.026917  -0.001265  -0.019464
     5  C    0.195724   0.032776  -0.052687   0.003299  -0.000872   0.016007
     6  O    0.192269   0.004326   0.003771  -0.003794  -0.000016   0.000794
     7  O    0.018825  -0.000997  -0.003587   0.000113  -0.000008   0.000303
     8  C    0.002914   0.479796   0.390839  -0.079782   0.005313  -0.024250
     9  C   -0.006259  -0.092887  -0.057481  -0.100105   0.044225  -0.096173
    10  C    0.006003  -0.017199   0.002388   0.536601   0.006273   0.046718
    11  N    0.000001   0.000012   0.000213  -0.091130  -0.080288   0.012948
    12  C   -0.000784  -0.001909   0.002923   0.033011   0.445362  -0.065040
    13  N    0.000110   0.013491  -0.001021   0.029116  -0.082040   0.422533
    14  C   -0.001361   0.016069  -0.003384   0.000418   0.000607  -0.005314
    15  C    0.000058   0.000133   0.000329  -0.000032   0.000004   0.000245
    16  N   -0.000006  -0.000726  -0.000191   0.000015   0.000042  -0.000168
    17  H    0.002784  -0.001628   0.001264  -0.000178  -0.000002  -0.000211
    18  H    0.001498  -0.001541  -0.001281   0.001187  -0.000180  -0.001128
    19  H    0.561847  -0.000255  -0.006609   0.000665  -0.000009   0.000161
    20  H   -0.000255   0.679006  -0.047825   0.002459  -0.000691   0.009038
    21  H   -0.006609  -0.047825   0.662854  -0.004260   0.000035  -0.002344
    22  H    0.000665   0.002459  -0.004260   0.633988   0.000453   0.001669
    23  H   -0.000009  -0.000691   0.000035   0.000453   0.575391  -0.009552
    24  H    0.000161   0.009038  -0.002344   0.001669  -0.009552   0.455481
    25  H   -0.000045  -0.000460  -0.000115   0.000028  -0.000014   0.000115
    26  H   -0.000035  -0.000099  -0.000005  -0.000021   0.000002  -0.000028
    27  H    0.000002   0.000617  -0.000020  -0.000004   0.000015   0.000127
    28  H   -0.000001  -0.000851  -0.000072   0.000017  -0.000067  -0.000008
    29  H    0.000001  -0.000204  -0.000043  -0.000003   0.000120  -0.001452
    30  H    0.000000   0.000336  -0.000001   0.000001  -0.000001  -0.000430
              25         26         27         28         29         30
     1  O    0.002257   0.007145   0.005067  -0.009248   0.009434  -0.000808
     2  C   -0.094061  -0.046010  -0.036102   0.120561  -0.041136  -0.023138
     3  N   -0.000434   0.002021   0.000627  -0.001053  -0.000692   0.000795
     4  C    0.007244   0.017463  -0.007684   0.014636  -0.004209  -0.001714
     5  C   -0.002234  -0.006125  -0.000707   0.000433  -0.000343   0.000154
     6  O    0.000043   0.000066  -0.000011   0.000012  -0.000033   0.000001
     7  O   -0.000656   0.000696  -0.000045   0.000007  -0.000003  -0.000002
     8  C   -0.001887  -0.000968   0.001308  -0.001024  -0.001252  -0.000045
     9  C    0.000879  -0.002573   0.000030   0.000134   0.000831   0.000431
    10  C    0.000966  -0.000947  -0.000221   0.000951  -0.000172  -0.000040
    11  N   -0.000009   0.000011   0.000000  -0.000023  -0.000083   0.000006
    12  C   -0.000185   0.000165   0.000069  -0.000328   0.000393   0.000111
    13  N   -0.000055   0.000236   0.000060  -0.000518  -0.000031   0.000158
    14  C    0.452460   0.390150   0.039188  -0.207185   0.046920   0.021276
    15  C   -0.031594  -0.031342   0.416648   0.401492  -0.043266  -0.016924
    16  N    0.001845   0.011255  -0.080599  -0.028551   0.367789   0.332612
    17  H    0.001748   0.000153  -0.000228   0.001186  -0.000224  -0.000111
    18  H    0.001039  -0.000054  -0.000556   0.000620   0.000178  -0.000089
    19  H   -0.000045  -0.000035   0.000002  -0.000001   0.000001   0.000000
    20  H   -0.000460  -0.000099   0.000617  -0.000851  -0.000204   0.000336
    21  H   -0.000115  -0.000005  -0.000020  -0.000072  -0.000043  -0.000001
    22  H    0.000028  -0.000021  -0.000004   0.000017  -0.000003   0.000001
    23  H   -0.000014   0.000002   0.000015  -0.000067   0.000120  -0.000001
    24  H    0.000115  -0.000028   0.000127  -0.000008  -0.001452  -0.000430
    25  H    0.684277  -0.067718  -0.014730   0.015127  -0.004318   0.000803
    26  H   -0.067718   0.697226  -0.005065  -0.000529   0.000448  -0.001290
    27  H   -0.014730  -0.005065   0.713262  -0.089899   0.014294  -0.003272
    28  H    0.015127  -0.000529  -0.089899   0.745277  -0.013189  -0.008609
    29  H   -0.004318   0.000448   0.014294  -0.013189   0.589712  -0.040814
    30  H    0.000803  -0.001290  -0.003272  -0.008609  -0.040814   0.628897
 Mulliken charges:
               1
     1  O   -0.473050
     2  C    0.002673
     3  N    0.094977
     4  C   -0.000032
     5  C    0.272034
     6  O   -0.182347
     7  O   -0.410830
     8  C    0.156449
     9  C    0.164809
    10  C   -0.374279
    11  N   -0.300674
    12  C    0.102642
    13  N   -0.107220
    14  C    0.011965
    15  C   -0.223660
    16  N   -0.196819
    17  H    0.145657
    18  H    0.077716
    19  H    0.239612
    20  H    0.062566
    21  H    0.087849
    22  H    0.058933
    23  H    0.095847
    24  H    0.268154
    25  H    0.049682
    26  H    0.035770
    27  H    0.047826
    28  H    0.060699
    29  H    0.121344
    30  H    0.111707
 Sum of Mulliken charges =   0.00000
 Mulliken charges with hydrogens summed into heavy atoms:
               1
     1  O   -0.473050
     2  C    0.002673
     3  N    0.240634
     4  C    0.077684
     5  C    0.272034
     6  O    0.057265
     7  O   -0.410830
     8  C    0.306864
     9  C    0.164809
    10  C   -0.315346
    11  N   -0.300674
    12  C    0.198489
    13  N    0.160934
    14  C    0.097417
    15  C   -0.115135
    16  N    0.036231
 APT charges:
               1
     1  O   -0.564520
     2  C    0.092794
     3  N   -0.409939
     4  C   -0.010042
     5  C   -0.122693
     6  O   -0.690267
     7  O   -0.269258
     8  C   -0.606360
     9  C    0.156076
    10  C   -0.384902
    11  N   -0.410123
    12  C   -0.166106
    13  N   -0.374603
    14  C   -0.651367
    15  C   -0.876686
    16  N   -0.708319
    17  H    0.530478
    18  H    0.238256
    19  H    0.963363
    20  H    0.148461
    21  H    0.441404
    22  H    0.609595
    23  H    0.632790
    24  H    0.142758
    25  H    0.338171
    26  H    0.366756
    27  H    0.665784
    28  H    0.218786
    29  H   -0.031299
    30  H    0.731013
 Sum of APT charges =   0.00000
 APT charges with hydrogens summed into heavy atoms:
               1
     1  O   -0.564520
     2  C    0.092794
     3  N    0.120539
     4  C    0.228213
     5  C   -0.122693
     6  O    0.273096
     7  O   -0.269258
     8  C   -0.016496
     9  C    0.156076
    10  C    0.224692
    11  N   -0.410123
    12  C    0.466684
    13  N   -0.231845
    14  C    0.053560
    15  C    0.007884
    16  N   -0.008605
 Electronic spatial extent (au):  <R**2>=           4461.8867
 Charge=              0.0000 electrons
 Dipole moment (field-independent basis, Debye):
    X=             -2.8417    Y=             -3.4261    Z=             -1.1647  Tot=              4.6011
 Quadrupole moment (field-independent basis, Debye-Ang):
   XX=           -104.3832   YY=            -99.6898   ZZ=            -91.9037
   XY=            -17.5522   XZ=              6.2198   YZ=             -4.7560
 Traceless Quadrupole moment (field-independent basis, Debye-Ang):
   XX=             -5.7243   YY=             -1.0309   ZZ=              6.7552
   XY=            -17.5522   XZ=              6.2198   YZ=             -4.7560
 Octapole moment (field-independent basis, Debye-Ang**2):
  XXX=           -181.4565  YYY=              4.2879  ZZZ=            -21.1643  XYY=            -68.5723
  XXY=            -80.9706  XXZ=            -28.3961  XZZ=            -29.5799  YZZ=             -5.0147
  YYZ=            -29.8413  XYZ=            -21.7609
 Hexadecapole moment (field-independent basis, Debye-Ang**3):
 XXXX=          -3582.6616 YYYY=          -2111.8292 ZZZZ=           -557.5676 XXXY=           -600.9835
 XXXZ=           -291.3878 YYYX=           -388.2538 YYYZ=              2.6646 ZZZX=           -419.9588
 ZZZY=             58.9108 XXYY=           -905.7085 XXZZ=           -608.7394 YYZZ=           -410.9576
 XXYZ=            -71.0297 YYXZ=           -158.2055 ZZXY=            -76.9493
 N-N= 1.127313232600D+03 E-N=-4.115417834353D+03  KE= 7.932530743382D+02
  Exact polarizability:   0.000   0.000   0.000   0.000   0.000   0.000
 Approx polarizability: 221.378  18.902 228.145  17.558 -25.542 188.140
 Calling FoFJK, ICntrl=    100147 FMM=F ISym2X=0 I1Cent= 0 IOpClX= 0 NMat=1 NMatS=1 NMatT=0.
 -------------------------------------------------------------------
 Center     Atomic                   Forces (Hartrees/Bohr)
 Number     Number              X              Y              Z
 -------------------------------------------------------------------
      1        8          -0.003658621   -0.003097129    0.000538053
      2        6           0.001228632    0.002593117   -0.001379937
      3        7           0.000458468    0.000645391   -0.001706317
      4        6          -0.004931373   -0.005198296   -0.000660446
      5        6           0.003742825    0.001876171   -0.000482946
      6        8          -0.005420331   -0.000633013   -0.001489953
      7        8           0.000057468   -0.000741227    0.000538933
      8        6           0.006994787    0.008954098   -0.003094665
      9        6          -0.004393666   -0.007220602    0.003355970
     10        6           0.008201655    0.005059901    0.001307263
     11        7           0.000363408   -0.003395553    0.003695119
     12        6           0.000071833   -0.000119978   -0.000876348
     13        7          -0.001805028    0.002076103   -0.000621342
     14        6           0.002318844   -0.003713980    0.001180004
     15        6          -0.002290257   -0.000004370   -0.001443973
     16        7           0.002424208    0.001598571   -0.003416972
     17        1          -0.001148380    0.000290689    0.000899763
     18        1           0.000363109    0.002056884    0.004521099
     19        1           0.002746388   -0.001393868    0.000943784
     20        1          -0.001589867   -0.002093538   -0.001276386
     21        1          -0.000199641   -0.000267555   -0.001961361
     22        1          -0.001634172    0.001215395   -0.001713899
     23        1           0.001397305    0.001515016   -0.000635398
     24        1          -0.002702017   -0.002484852   -0.000270750
     25        1           0.000079254    0.000451870   -0.001488292
     26        1           0.000466245    0.001144666    0.000964330
     27        1           0.001713788    0.000649567    0.000253813
     28        1          -0.001127699   -0.000947595    0.000992706
     29        1          -0.000363056    0.000842834    0.001812203
     30        1          -0.001364109    0.000341284    0.001515945
 -------------------------------------------------------------------
 Cartesian Forces:  Max     0.008954098 RMS     0.002650758
 FormGI is forming the generalized inverse of G from B-inverse, IUseBI=4.

 GradGradGradGradGradGradGradGradGradGradGradGradGradGradGradGradGradGrad
 Berny optimization.
 Internal  Forces:  Max     0.006019844 RMS     0.001603692
 Search for a local minimum.
 Step number   1 out of a maximum of  160
 All quantities printed in internal units (Hartrees-Bohrs-Radians)
 Mixed Optimization -- RFO/linear search
 Second derivative matrix not updated -- analytic derivatives used.
 ITU=  0
     Eigenvalues ---   -0.00012   0.00178   0.00289   0.00345   0.00375
     Eigenvalues ---    0.00429   0.00548   0.00684   0.00890   0.01381
     Eigenvalues ---    0.01953   0.01991   0.02262   0.02722   0.03457
     Eigenvalues ---    0.03592   0.04065   0.04103   0.04286   0.04396
     Eigenvalues ---    0.04481   0.04518   0.05142   0.05367   0.05428
     Eigenvalues ---    0.06095   0.06102   0.06307   0.07727   0.07735
     Eigenvalues ---    0.08272   0.10360   0.10789   0.10865   0.11556
     Eigenvalues ---    0.11642   0.12311   0.12580   0.14997   0.15282
     Eigenvalues ---    0.15523   0.17102   0.17693   0.18931   0.19956
     Eigenvalues ---    0.21122   0.21649   0.21984   0.22718   0.22872
     Eigenvalues ---    0.24434   0.24515   0.24805   0.27104   0.28821
     Eigenvalues ---    0.30596   0.31093   0.31708   0.32287   0.32633
     Eigenvalues ---    0.33062   0.33277   0.33448   0.33592   0.34336
     Eigenvalues ---    0.35845   0.36294   0.36784   0.37218   0.37611
     Eigenvalues ---    0.40918   0.41142   0.43654   0.44601   0.45020
     Eigenvalues ---    0.45146   0.46192   0.46391   0.47284   0.52048
     Eigenvalues ---    0.58378   0.64846   0.76371   0.86419
 RFO step:  Lambda=-2.50237890D-03 EMin=-1.16583782D-04
 Linear search not attempted -- first point.
 Iteration  1 RMS(Cart)=  0.11534013 RMS(Int)=  0.03445324
 Iteration  2 RMS(Cart)=  0.10622640 RMS(Int)=  0.00385347
 Iteration  3 RMS(Cart)=  0.00674568 RMS(Int)=  0.00023206
 Iteration  4 RMS(Cart)=  0.00001410 RMS(Int)=  0.00023192
 Iteration  5 RMS(Cart)=  0.00000000 RMS(Int)=  0.00023192
 Variable       Old X    -DE/DX   Delta X   Delta X   Delta X     New X
                                 (Linear)    (Quad)   (Total)
    R1        2.32965  -0.00415   0.00000  -0.00519  -0.00519   2.32446
    R2        2.55055   0.00047   0.00000  -0.00202  -0.00202   2.54853
    R3        2.87398  -0.00191   0.00000  -0.00639  -0.00639   2.86759
    R4        2.74078   0.00129   0.00000  -0.00781  -0.00781   2.73297
    R5        1.90672   0.00020   0.00000  -0.00013  -0.00013   1.90659
    R6        2.86040   0.00112   0.00000  -0.00129  -0.00129   2.85912
    R7        2.94886   0.00137   0.00000   0.01757   0.01757   2.96643
    R8        2.07168  -0.00311   0.00000  -0.01014  -0.01014   2.06154
    R9        2.54407  -0.00296   0.00000  -0.00986  -0.00986   2.53421
   R10        2.27664   0.00067   0.00000   0.00133   0.00133   2.27797
   R11        1.82575   0.00247   0.00000   0.00383   0.00383   1.82958
   R12        2.82718  -0.00423   0.00000  -0.02263  -0.02263   2.80455
   R13        2.05711   0.00042   0.00000   0.00294   0.00294   2.06005
   R14        2.05988  -0.00160   0.00000  -0.00382  -0.00382   2.05606
   R15        2.57654   0.00602   0.00000   0.01357   0.01357   2.59011
   R16        2.59737   0.00158   0.00000   0.00583   0.00584   2.60321
   R17        2.61621  -0.00426   0.00000  -0.01650  -0.01651   2.59970
   R18        2.04190  -0.00264   0.00000  -0.00682  -0.00682   2.03508
   R19        2.47725   0.00239   0.00000   0.00536   0.00535   2.48260
   R20        2.56551   0.00334   0.00000   0.00487   0.00488   2.57039
   R21        2.03195   0.00140   0.00000   0.00308   0.00308   2.03503
   R22        1.90530   0.00272   0.00000   0.00951   0.00951   1.91482
   R23        2.86562   0.00251   0.00000   0.01060   0.01060   2.87622
   R24        2.06736  -0.00145   0.00000  -0.00708  -0.00708   2.06028
   R25        2.07115  -0.00146   0.00000  -0.00307  -0.00307   2.06808
   R26        2.77011   0.00159   0.00000  -0.00206  -0.00206   2.76805
   R27        2.06605  -0.00183   0.00000  -0.00594  -0.00594   2.06011
   R28        2.07521  -0.00167   0.00000  -0.00702  -0.00702   2.06819
   R29        1.91624   0.00044   0.00000  -0.00168  -0.00168   1.91456
   R30        1.91277   0.00071   0.00000  -0.00111  -0.00111   1.91166
    A1        2.11827   0.00381   0.00000   0.01288   0.01285   2.13112
    A2        2.14245  -0.00180   0.00000  -0.00946  -0.00949   2.13297
    A3        2.02246  -0.00201   0.00000  -0.00346  -0.00349   2.01896
    A4        2.11989   0.00422   0.00000   0.01923   0.01810   2.13799
    A5        2.11691  -0.00282   0.00000  -0.00867  -0.00984   2.10707
    A6        2.02963  -0.00129   0.00000   0.00446   0.00334   2.03297
    A7        1.86488  -0.00071   0.00000   0.00996   0.00989   1.87477
    A8        1.97013   0.00143   0.00000   0.00687   0.00689   1.97702
    A9        1.89410   0.00108   0.00000   0.01412   0.01403   1.90813
   A10        1.94494   0.00032   0.00000  -0.00300  -0.00309   1.94185
   A11        1.86548   0.00041   0.00000   0.00930   0.00899   1.87448
   A12        1.92023  -0.00249   0.00000  -0.03532  -0.03529   1.88493
   A13        1.95090  -0.00013   0.00000  -0.00378  -0.00380   1.94711
   A14        2.17878   0.00066   0.00000   0.00042   0.00040   2.17918
   A15        2.15350  -0.00053   0.00000   0.00335   0.00333   2.15683
   A16        1.85933   0.00377   0.00000   0.02368   0.02368   1.88301
   A17        1.96014   0.00563   0.00000   0.02386   0.02394   1.98408
   A18        1.89302  -0.00413   0.00000  -0.03573  -0.03596   1.85706
   A19        1.93728  -0.00166   0.00000  -0.01231  -0.01257   1.92471
   A20        1.91640   0.00057   0.00000   0.01695   0.01722   1.93362
   A21        1.89127  -0.00205   0.00000   0.00396   0.00402   1.89529
   A22        1.86330   0.00149   0.00000   0.00273   0.00223   1.86553
   A23        2.30888   0.00152   0.00000   0.01336   0.01332   2.32219
   A24        2.13959  -0.00153   0.00000  -0.01199  -0.01203   2.12755
   A25        1.83430   0.00001   0.00000  -0.00094  -0.00096   1.83333
   A26        1.93059  -0.00001   0.00000  -0.00061  -0.00061   1.92997
   A27        2.22954   0.00014   0.00000  -0.00118  -0.00118   2.22836
   A28        2.12305  -0.00013   0.00000   0.00181   0.00180   2.12486
   A29        1.83262   0.00134   0.00000   0.00661   0.00660   1.83922
   A30        1.95032   0.00018   0.00000  -0.00198  -0.00198   1.94834
   A31        2.21011  -0.00175   0.00000  -0.01359  -0.01359   2.19652
   A32        2.12275   0.00157   0.00000   0.01557   0.01557   2.13832
   A33        1.87689  -0.00151   0.00000  -0.00299  -0.00300   1.87389
   A34        2.17176  -0.00158   0.00000  -0.02217  -0.02218   2.14958
   A35        2.23397   0.00307   0.00000   0.02473   0.02468   2.25865
   A36        1.97076  -0.00039   0.00000  -0.01154  -0.01169   1.95908
   A37        1.89537   0.00033   0.00000   0.02275   0.02280   1.91817
   A38        1.88266  -0.00009   0.00000  -0.01486  -0.01507   1.86759
   A39        1.91854  -0.00012   0.00000   0.00364   0.00367   1.92221
   A40        1.92296   0.00033   0.00000  -0.00754  -0.00780   1.91517
   A41        1.87044  -0.00005   0.00000   0.00868   0.00877   1.87921
   A42        1.92188   0.00094   0.00000   0.00103   0.00103   1.92291
   A43        1.89408  -0.00065   0.00000  -0.00426  -0.00426   1.88982
   A44        1.89979   0.00010   0.00000   0.00154   0.00153   1.90132
   A45        1.88842   0.00021   0.00000   0.00240   0.00240   1.89082
   A46        1.97694  -0.00051   0.00000   0.00112   0.00112   1.97805
   A47        1.88070  -0.00013   0.00000  -0.00217  -0.00217   1.87853
   A48        1.87913   0.00320   0.00000   0.03448   0.03393   1.91305
   A49        1.90901   0.00231   0.00000   0.02394   0.02340   1.93241
   A50        1.85011  -0.00104   0.00000   0.01208   0.01098   1.86109
    D1       -0.07068   0.00001   0.00000   0.00502   0.00488  -0.06580
    D2       -3.00932  -0.00050   0.00000  -0.08547  -0.08521  -3.09454
    D3        3.06807   0.00018   0.00000  -0.00906  -0.00931   3.05876
    D4        0.12943  -0.00033   0.00000  -0.09954  -0.09941   0.03002
    D5       -0.20200   0.00007   0.00000  -0.36097  -0.36102  -0.56302
    D6       -2.33447   0.00025   0.00000  -0.37412  -0.37411  -2.70857
    D7        1.92711   0.00018   0.00000  -0.38832  -0.38818   1.53893
    D8        2.94247  -0.00011   0.00000  -0.34672  -0.34685   2.59563
    D9        0.81001   0.00006   0.00000  -0.35987  -0.35994   0.45007
   D10       -1.21160  -0.00001   0.00000  -0.37407  -0.37401  -1.58560
   D11       -2.90577   0.00033   0.00000   0.00865   0.00847  -2.89730
   D12        1.23346  -0.00048   0.00000   0.00112   0.00092   1.23438
   D13       -0.89984   0.00098   0.00000   0.03146   0.03133  -0.86851
   D14        0.04251   0.00061   0.00000   0.09327   0.09342   0.13593
   D15       -2.10145  -0.00020   0.00000   0.08574   0.08587  -2.01558
   D16        2.04844   0.00125   0.00000   0.11607   0.11628   2.16472
   D17        3.12129  -0.00040   0.00000  -0.06887  -0.06883   3.05246
   D18       -0.02173  -0.00037   0.00000  -0.07885  -0.07880  -0.10053
   D19       -1.00231   0.00110   0.00000  -0.05549  -0.05546  -1.05777
   D20        2.13786   0.00113   0.00000  -0.06547  -0.06543   2.07243
   D21        1.09619  -0.00150   0.00000  -0.09448  -0.09457   1.00162
   D22       -2.04683  -0.00147   0.00000  -0.10446  -0.10454  -2.15137
   D23       -2.16908  -0.00081   0.00000   0.03062   0.03069  -2.13839
   D24       -0.04790   0.00070   0.00000   0.04277   0.04252  -0.00537
   D25        1.99388  -0.00092   0.00000   0.01760   0.01777   2.01165
   D26        2.01544  -0.00112   0.00000   0.01509   0.01524   2.03067
   D27       -2.14657   0.00038   0.00000   0.02725   0.02707  -2.11949
   D28       -0.10479  -0.00123   0.00000   0.00208   0.00232  -0.10247
   D29       -0.05051  -0.00023   0.00000   0.02812   0.02812  -0.02239
   D30        2.07067   0.00128   0.00000   0.04027   0.03996   2.11063
   D31       -2.17074  -0.00034   0.00000   0.01510   0.01520  -2.15553
   D32       -3.14043  -0.00002   0.00000  -0.01731  -0.01732   3.12543
   D33        0.00256  -0.00005   0.00000  -0.00750  -0.00749  -0.00493
   D34       -1.97925  -0.00088   0.00000  -0.06472  -0.06470  -2.04395
   D35        1.12612  -0.00061   0.00000  -0.04637  -0.04631   1.07981
   D36        2.19617   0.00023   0.00000  -0.04695  -0.04705   2.14912
   D37       -0.98164   0.00049   0.00000  -0.02860  -0.02866  -1.01030
   D38        0.16708  -0.00070   0.00000  -0.06174  -0.06172   0.10537
   D39       -3.01073  -0.00044   0.00000  -0.04339  -0.04333  -3.05406
   D40        3.12004  -0.00006   0.00000   0.00954   0.00973   3.12977
   D41       -0.01712  -0.00011   0.00000   0.00373   0.00384  -0.01328
   D42        0.01005  -0.00026   0.00000  -0.00623  -0.00620   0.00385
   D43       -3.12710  -0.00031   0.00000  -0.01204  -0.01209  -3.13920
   D44       -3.12401   0.00020   0.00000  -0.00489  -0.00479  -3.12880
   D45       -0.01570  -0.00026   0.00000  -0.01705  -0.01673  -0.03243
   D46       -0.01016   0.00044   0.00000   0.00951   0.00947  -0.00070
   D47        3.09814  -0.00002   0.00000  -0.00265  -0.00247   3.09567
   D48       -0.00596  -0.00001   0.00000   0.00044   0.00041  -0.00555
   D49        3.13152   0.00004   0.00000   0.00583   0.00589   3.13740
   D50       -0.00076   0.00030   0.00000   0.00584   0.00586   0.00510
   D51        3.14146   0.00014   0.00000   0.00366   0.00379  -3.13793
   D52        0.00704  -0.00047   0.00000  -0.00992  -0.00989  -0.00285
   D53       -3.09972   0.00014   0.00000   0.00401   0.00428  -3.09544
   D54       -3.13515  -0.00032   0.00000  -0.00787  -0.00792   3.14012
   D55        0.04128   0.00029   0.00000   0.00606   0.00625   0.04753
   D56       -1.18826   0.00033   0.00000   0.10926   0.10930  -1.07896
   D57        3.03089  -0.00007   0.00000   0.10830   0.10834   3.13923
   D58        0.98858   0.00039   0.00000   0.11240   0.11244   1.10102
   D59        0.93115   0.00041   0.00000   0.13316   0.13316   1.06432
   D60       -1.13288   0.00000   0.00000   0.13220   0.13221  -1.00068
   D61        3.10799   0.00046   0.00000   0.13631   0.13631  -3.03889
   D62        2.98864   0.00047   0.00000   0.14145   0.14140   3.13004
   D63        0.92460   0.00007   0.00000   0.14049   0.14045   1.06505
   D64       -1.11771   0.00052   0.00000   0.14459   0.14455  -0.97316
   D65        1.24247  -0.00041   0.00000   0.07424   0.07394   1.31641
   D66       -3.03787   0.00127   0.00000   0.11917   0.11947  -2.91840
   D67       -2.97321  -0.00053   0.00000   0.07111   0.07081  -2.90240
   D68       -0.97036   0.00114   0.00000   0.11603   0.11633  -0.85403
   D69       -0.88936  -0.00087   0.00000   0.07071   0.07041  -0.81896
   D70        1.11349   0.00081   0.00000   0.11563   0.11593   1.22942
         Item               Value     Threshold  Converged?
 Maximum Force            0.006020     0.000450     NO 
 RMS     Force            0.001604     0.000300     NO 
 Maximum Displacement     1.058741     0.001800     NO 
 RMS     Displacement     0.209741     0.001200     NO 
 Predicted change in Energy=-1.658828D-03
 GradGradGradGradGradGradGradGradGradGradGradGradGradGradGradGradGradGrad

                          Input orientation:                          
 ---------------------------------------------------------------------
 Center     Atomic      Atomic             Coordinates (Angstroms)
 Number     Number       Type             X           Y           Z
 ---------------------------------------------------------------------
      1          8           0       -0.741174    0.542972   -1.203090
      2          6           0       -1.174855   -0.545577   -0.828908
[...]
 1834136,0.00036977,0.00108882,-0.00038056,-0.00035258,0.00056377,0.000
 07698,0.00027777,-0.00041615,-0.00021280,-0.00019763,-0.00015738,0.000
 06434,0.00040464,-0.00088332,-0.00008297,0.00004649,-0.00000068,0.0000
 5016,-0.00018345,-0.00001523,0.00023854,-0.00009594,-0.00009161,-0.000
 20366,0.00046923,0.00131097,0.00074139,0.00082859,-0.00056925,0.000005
 16,0.06515883,0.05768489,-0.00110477,0.00130762,-0.00602935,0.00131397
 ,-0.00282132,0.00223500,-0.00069004,0.00125182,-0.00131521,0.00053057,
 0.00038822,0.00057333,0.00024508,0.00028624,-0.00020716,-0.00012702,-0
 .00007000,-0.00009211,-0.00024663,-0.00017707,0.00006279,0.00068241,-0
 .00030533,0.00035820,-0.01613881,-0.01082721,-0.00900343,-0.00170852,0
 .00396404,-0.00315326,0.00332977,0.00497327,0.00433880,0.00816945,-0.0
 0789311,0.00749465,-0.17840981,-0.01350502,-0.16676467,-0.00010547,0.0
 0062723,0.00027987,-0.00022440,0.00015082,0.00020350,0.00008857,-0.000
 10967,-0.00028055,-0.00013037,-0.00004390,-0.00000318,0.00007566,-0.00
 011654,0.00015097,-0.00001796,0.00002652,0.00003382,0.00038786,0.00037
 617,-0.00040119,0.00006369,-0.00045381,0.00005290,-0.00106279,0.000091
 62,0.00073112,0.00026090,-0.00031054,-0.00076568,0.18448478,0.02301886
 ,0.17139874,-0.00622522,-0.00408693,-0.00319331,-0.00670860,-0.0160491
 0,0.02824894,0.00051465,0.00063449,-0.00196925,0.00040581,-0.00004772,
 -0.00023204,-0.00011952,-0.00022268,0.00005013,0.00013863,0.00002785,0
 .00001365,0.00015678,0.00017626,-0.00005270,-0.00008350,0.00001227,-0.
 00002314,0.00008806,-0.00009666,0.00016972,-0.00007759,-0.00004001,-0.
 00001927,-0.00015014,-0.00000841,-0.00011851,0.00015786,0.00021135,-0.
 00008753,-0.00035375,-0.00029330,-0.00006860,-0.08093497,-0.04677568,0
 .06923030,0.00676850,0.01325669,-0.01850160,0.00054563,-0.00177754,-0.
 00003021,-0.00169073,0.00051190,-0.00026625,0.00014940,-0.00004937,0.0
 0007481,-0.00000915,-0.00000405,0.00000157,-0.00001496,-0.00000029,0.0
 0005384,-0.00003537,0.00000330,-0.00003005,-0.00001237,-0.00000340,-0.
 00000788,-0.00000310,-0.00000184,0.00000239,0.00052705,0.00043531,0.00
 010474,0.08927025,-0.00351164,-0.00041817,-0.00078769,-0.00340130,-0.0
 0909787,0.00902287,0.00190326,0.00017863,-0.00005340,-0.00010841,-0.00
 011878,-0.00073773,-0.00004336,0.00009746,-0.00004354,0.00003642,-0.00
 003475,0.00001838,0.00000801,-0.00005795,-0.00000776,-0.00009970,-0.00
 000218,0.00002571,0.00002492,-0.00005659,0.00005497,-0.00003592,-0.000
 02119,-0.00001748,-0.00005002,0.00001860,-0.00005447,0.00006321,0.0000
 8012,-0.00003298,-0.00012424,-0.00012263,-0.00002741,-0.04752764,-0.11
 903330,0.10650957,-0.00774527,-0.01425845,0.02101490,-0.00137594,0.002
 34491,-0.00061845,0.00006999,0.00093894,0.00034468,0.00022443,-0.00001
 400,0.00006201,-0.00000307,0.00000268,0.00000644,-0.00000539,-0.000013
 55,0.00000496,-0.00001060,0.00000218,-0.00000406,-0.00000693,-0.000000
 81,-0.00000297,0.00000213,0.00000187,0.00000040,0.00019308,0.00016889,
 0.00008592,0.05103629,0.12965787,-0.00161550,-0.00215822,0.00012807,-0
 .00408947,-0.00317778,0.00485629,-0.00068559,-0.00033568,0.00009574,0.
 00033054,-0.00019295,0.00054816,0.00020664,0.00020764,-0.00004029,-0.0
 0009591,-0.00004691,0.00000757,-0.00011723,-0.00013985,-0.00000532,-0.
 00002534,0.00003304,0.00002118,0.00000671,0.00000136,-0.00002753,0.000
 01357,0.00000145,0.00000070,0.00000523,-0.00001021,0.00002161,-0.00002
 659,-0.00002274,-0.00001001,-0.00002155,-0.00002924,-0.00001965,0.0708
 6976,0.10900418,-0.20036883,0.00134631,0.00401060,-0.00707786,0.000048
 96,-0.00085904,0.00173634,0.00028686,-0.00035731,0.00031287,-0.0001533
 7,-0.00005462,-0.00002066,0.00002098,-0.00000011,0.00000441,0.00001654
 ,-0.00000513,-0.00001080,0.00000497,-0.00000601,-0.00000560,0.00000102
 ,0.00000134,0.00000317,-0.00000408,-0.00000380,0.00000164,-0.00000791,
 0.00003554,-0.00000741,-0.07317328,-0.11999087,0.21777456,-0.00287545,
 0.00051493,0.00328767,0.00289633,-0.02016539,-0.02836315,-0.00169265,0
 .00107688,0.00113293,-0.00043837,0.00069417,0.00094237,-0.00006773,-0.
 00039786,0.00016192,-0.00015814,0.00015157,-0.00008609,-0.00002621,0.0
 0019283,-0.00001539,0.00012569,0.00016315,0.00012063,0.00001866,-0.000
 01438,0.00001394,0.00001810,-0.00001126,0.00000838,-0.00005622,-0.0000
 4192,0.00000771,0.00002544,0.00001203,-0.00000976,-0.00006960,-0.00002
 035,-0.00011584,-0.04599116,0.00430961,0.00489270,0.00039837,0.0098014
 3,0.01806939,-0.00343884,0.00417650,-0.00062563,-0.00013409,-0.0002313
 3,-0.00058325,-0.00024167,0.00004689,-0.00016884,-0.00001547,-0.000005
 60,-0.00002715,0.00003225,0.00002280,0.00004119,-0.00002160,-0.0000081
 4,-0.00001179,-0.00000122,0.00000183,0.00000056,-0.00000352,-0.0000031
 9,0.00000295,0.00009762,0.00018255,0.00015439,-0.00061544,0.00734441,0
 .00881351,0.05102301,-0.00223696,0.00045134,0.00162542,-0.00023777,-0.
 00849702,-0.00927599,0.00081388,0.00006694,0.00086865,-0.00047714,0.00
 005930,-0.00005501,-0.00003305,0.00007308,-0.00002920,0.00000048,-0.00
 001331,0.00001443,0.00000159,-0.00005958,0.00000332,0.00011636,-0.0000
 0235,0.00003749,0.00001365,-0.00002317,0.00005888,-0.00001603,-0.00000
 413,-0.00000761,-0.00001850,0.00001259,-0.00002008,0.00003229,0.000032
 68,-0.00001320,-0.00005415,-0.00002042,-0.00003442,0.00711188,-0.13593
 335,-0.12187238,-0.00075595,-0.01322434,-0.02100870,0.00508829,-0.0031
 7780,0.00116172,0.00010853,0.00013770,0.00010583,0.00006484,0.00000964
 ,-0.00004542,0.00000003,0.00000057,-0.00000328,0.00001081,-0.00002814,
 -0.00000996,0.00000894,0.00002370,0.00002421,-0.00000131,-0.00000208,-
 0.00000161,0.00000232,-0.00000305,-0.00000331,0.00008402,0.00006852,0.
 00006115,0.00004565,0.01156415,0.01357712,-0.00846042,0.14829160,0.000
 08306,0.00074560,-0.00009172,-0.00033378,-0.00368854,-0.00601795,-0.00
 121584,0.00024727,0.00101287,-0.00041827,0.00028009,0.00030739,-0.0001
 1049,-0.00031674,0.00006605,-0.00000310,0.00009012,-0.00002925,0.00005
 716,0.00018923,0.00002371,0.00012090,0.00007477,0.00001915,0.00000380,
 0.00001370,0.00002088,0.00000540,0.00000524,0.00000406,-0.00001346,-0.
 00001113,0.00000456,0.00000372,-0.00000112,0.00000116,-0.00003007,-0.0
 0000265,-0.00001444,0.00953949,-0.12232113,-0.20837394,-0.00010432,0.0
 0516985,0.00508911,-0.00021542,0.00031806,0.00027007,0.00002147,-0.000
 42987,-0.00079042,-0.00011752,0.00001828,-0.00009125,-0.00001382,-0.00
 000605,-0.00001656,0.00001479,0.00000939,0.00000314,0.00000219,-0.0000
 0546,-0.00000495,0.00000118,-0.00000055,-0.00000175,0.00000167,-0.0000
 0162,-0.00000167,0.00001251,0.00000644,-0.00000524,0.00043287,-0.01485
 150,-0.01895166,-0.00824637,0.13510377,0.22622839,-0.00001600,0.000349
 60,-0.00037968,-0.00002736,0.00334474,0.00001803,-0.00154261,-0.000245
 58,-0.00054361,0.00027461,0.00026304,-0.00022727,0.00010866,-0.0003144
 1,0.00006457,-0.00017272,0.00011613,-0.00004776,-0.00007529,0.00016536
 ,-0.00006379,-0.00005185,0.00004529,0.00000434,0.00004024,-0.00002834,
 0.00001937,0.00000463,-0.00000781,0.00000333,-0.00007656,-0.00004878,-
 0.00001182,0.00005302,0.00005116,-0.00000706,-0.00010905,-0.00005091,-
 0.00006394,-0.01943466,-0.00679395,-0.00240570,-0.26582625,-0.08919536
 ,-0.03893229,0.00432364,0.00126104,0.00035729,-0.00007876,-0.00013589,
 0.00013173,-0.00000155,-0.00001135,0.00000706,0.00000927,-0.00001239,0
 .00000524,-0.00001041,0.00000500,0.00003817,-0.00002374,-0.00001966,-0
 .00002558,-0.00000132,0.00000264,-0.00000141,-0.00000002,-0.00000068,0
 .00000158,0.00015915,0.00013457,0.00005023,0.00099982,-0.00020021,-0.0
 0042048,0.00027539,-0.00009343,0.00053967,0.28693448,-0.00051613,0.001
 44292,-0.00051331,0.00157194,-0.00637648,0.00135810,0.00178932,0.00087
 186,0.00048471,-0.00003906,-0.00032187,0.00036110,0.00002523,0.0002018
 7,-0.00002422,0.00009920,-0.00008490,0.00003466,0.00002439,-0.00007001
 ,0.00002941,0.00007264,-0.00004914,-0.00001313,-0.00000140,-0.00001011
 ,0.00004735,-0.00001709,0.00000225,-0.00000434,-0.00000057,0.00002125,
 -0.00002274,0.00003159,0.00002227,0.00000595,-0.00000926,0.00002840,0.
 00001617,0.02634409,0.00877162,0.00453516,-0.08687662,-0.08296260,-0.0
 1419205,-0.02034085,-0.01215988,-0.00808503,0.00006783,0.00007564,-0.0
 0011799,-0.00000137,-0.00000004,-0.00001180,0.00001179,-0.00000175,-0.
 00000320,0.00000502,-0.00000925,-0.00000094,0.00000665,0.00002437,0.00
 001870,-0.00000044,-0.00000201,-0.00000340,0.00000660,0.00000241,-0.00
 000446,0.00000893,-0.00007420,-0.00001353,-0.00064042,0.00111805,-0.00
 007176,-0.00078429,0.00112723,-0.00032326,0.09432265,0.09543540,0.0005
 7292,-0.00077201,0.00075673,0.00038563,0.00237584,0.00020283,-0.000342
 12,-0.00023472,-0.00010231,-0.00004265,-0.00000459,-0.00013284,-0.0000
 3522,-0.00004769,0.00001487,0.00001553,0.00001170,0.00000018,0.0000260
 0,0.00002077,-0.00000774,0.00000356,-0.00000972,-0.00003656,-0.0000032
 7,0.00000955,-0.00000324,0.00000399,0.00000098,0.00000525,0.00000540,0
 .00000087,0.00000643,-0.00000475,-0.00000183,0.00000320,0.00000012,0.0
 0002923,0.00002325,-0.00815791,-0.00092591,-0.00173636,-0.03139907,-0.
 01342260,-0.05630369,-0.02743451,-0.01472413,-0.00879093,-0.00005526,-
 0.00003744,0.00004345,0.00000381,0.00000439,0.00000658,-0.00000453,-0.
 00000002,-0.00000042,-0.00000757,-0.00000944,0.00001187,-0.00000833,-0
 .00000321,0.00000006,0.00000162,-0.00000101,-0.00000094,0.00000113,-0.
 00000345,-0.00000320,-0.00002975,-0.00006135,-0.00006238,-0.00013621,-
 0.00054513,0.00013977,0.00051779,0.00003991,0.00023406,0.04196342,0.02
 214285,0.06304231,-0.00094156,-0.00072870,0.00025161,0.00097030,0.0010
 1337,-0.00126496,0.00009972,-0.00067407,0.00047110,-0.00018200,-0.0000
 8983,0.00009143,-0.00000231,0.00013440,-0.00002676,0.00001845,-0.00003
 905,0.00001023,-0.00000985,-0.00009639,0.00002599,0.00000124,-0.000003
 12,0.00000100,-0.00002867,0.00003532,-0.00005843,0.00001770,0.00000874
 ,0.00000343,0.00005950,0.00001491,0.00003420,-0.00006741,-0.00006790,0
 .00001111,0.00009699,0.00004382,0.00003424,0.00603820,0.01304812,-0.01
 754458,-0.07575051,-0.03925961,0.06145289,0.00294303,0.00153057,0.0025
 9787,0.00036769,-0.00003492,0.00007883,-0.00004513,0.00001600,-0.00002
 660,-0.00000282,0.00000615,-0.00000028,-0.00000200,0.00000571,-0.00002
 387,0.00001044,-0.00000225,0.00000769,0.00000265,0.00000019,0.00000360
 ,-0.00000309,-0.00000198,0.00000125,-0.00014295,-0.00006995,-0.0000401
 5,-0.00257855,0.00331201,-0.00152320,0.00099367,-0.00080154,0.00033144
 ,-0.00852532,-0.01546399,0.02386411,0.07651077,0.00007975,0.00151463,-
 0.00113704,-0.00206599,-0.00153594,0.00027298,0.00040354,0.00020333,0.
 00009489,-0.00011128,-0.00000699,-0.00008585,-0.00014476,-0.00002334,-
 0.00000185,0.00011932,-0.00001371,0.00001677,0.00010323,0.00002993,0.0
 0000198,0.00004527,-0.00002356,-0.00001369,-0.00000594,0.00001020,0.00
 001267,-0.00000708,0.00000297,0.00000262,0.00002006,0.00001645,-0.0000
 0614,-0.00000439,-0.00000445,-0.00000185,0.00002996,0.00000785,0.00001
 597,-0.00629544,-0.01559806,0.02175089,-0.03762218,-0.11101222,0.09924
 667,0.00762523,0.00879895,-0.02663940,-0.00027095,0.00021192,-0.000082
 37,0.00005921,0.00002442,0.00000720,-0.00001255,0.00000270,-0.00000127
 ,0.00000624,-0.00001194,-0.00000427,0.00000351,0.00000960,0.00001024,-
 0.00000017,-0.00000170,-0.00000072,-0.00000217,0.00000252,0.00000133,-
 0.00004418,-0.00001287,-0.00000703,0.00398521,-0.00329598,0.00075344,-
 0.00048437,0.00034745,-0.00028407,-0.00345081,-0.00542400,0.00900017,0
 .03736610,0.12310316,0.00052133,-0.00148183,0.00155721,0.00146021,0.00
 210870,-0.00109317,0.00003001,-0.00053407,0.00036908,-0.00009432,-0.00
 003819,-0.00007482,-0.00000332,0.00005824,-0.00001830,-0.00000275,-0.0
 0001268,0.00001436,-0.00000049,-0.00005061,0.00003764,0.00006165,-0.00
 001533,-0.00004699,-0.00002092,0.00004483,-0.00002454,0.00001880,0.000
 01385,0.00001704,0.00003213,-0.00000831,0.00004419,-0.00005087,-0.0000
 3707,-0.00000127,0.00004049,0.00005233,0.00004444,0.00101067,0.0059069
 6,-0.00507579,0.05752357,0.09947386,-0.20565820,0.00849490,-0.00097268
 ,-0.03173193,0.00007006,-0.00011294,0.00001300,-0.00001175,0.00000977,
 0.00000761,0.00000269,-0.00000048,-0.00000849,-0.00000364,-0.00000730,
 -0.00000270,0.00000599,-0.00000009,0.00001176,0.00000788,-0.00000332,0
 .00000099,-0.00000376,-0.00001077,-0.00000424,-0.00010316,-0.00008467,
 -0.00011735,-0.00040777,0.00060621,0.00092783,-0.00045461,0.00046154,0
 .00047022,-0.00047482,-0.00187755,0.00553026,-0.06824312,-0.10349369,0
 .23365465,-0.00129525,-0.00203923,0.00006938,0.00055200,0.00393807,-0.
 00079869,0.00021320,-0.00099908,0.00064231,-0.00029938,-0.00003901,-0.
 00003256,-0.00018724,0.00025996,-0.00008507,0.00015074,-0.00008844,0.0
 0003600,0.00007799,-0.00017861,0.00007046,-0.00004173,-0.00002377,0.00
 005725,-0.00011672,0.00008549,-0.00015796,0.00003400,0.00003197,0.0000
 0162,0.00015889,0.00008147,0.00008538,-0.00017740,-0.00019234,0.000021
 11,0.00026954,0.00002420,0.00006000,0.00058743,-0.00020780,-0.00025455
 ,0.00335634,0.00043871,0.00116652,-0.30331453,-0.16332772,-0.01777251,
 0.00010321,0.00008752,0.00007397,0.00000891,0.00003013,-0.00001687,-0.
 00002334,0.00001744,-0.00000531,0.00001058,0.00004935,-0.00014548,0.00
 006452,-0.00001849,0.00000876,0.00000757,-0.00000208,0.00000448,0.0000
 0628,0.00000210,-0.00000435,-0.00044549,-0.00008128,0.00007363,-0.0001
 2265,0.00002605,-0.00000170,-0.00023227,-0.00006391,0.00003917,0.00173
 269,0.00085158,0.00059874,0.00053540,0.00101095,0.00093536,0.32396225,
 -0.00089516,0.00197436,0.00082436,0.00074118,-0.00388076,0.00053421,-0
 .00020620,0.00062551,-0.00045183,0.00035799,0.00002501,0.00001010,0.00
 024179,-0.00020558,0.00006226,-0.00019026,0.00007915,-0.00003939,-0.00
 012139,0.00013612,-0.00004881,0.00010456,0.00005191,-0.00006730,0.0000
 5425,0.00002118,0.00000798,0.00002379,0.00000130,0.00002365,-0.0000714
 9,-0.00011619,0.00001796,-0.00000492,0.00002037,-0.00003284,-0.0000838
 7,-0.00012822,-0.00010222,-0.00100244,-0.00039759,-0.00034427,-0.02014
 438,-0.01345016,0.00282673,-0.18664451,-0.17764717,-0.03454565,-0.0000
 8463,-0.00011451,-0.00004306,-0.00000624,-0.00001580,0.00002182,0.0000
 2535,-0.00001498,0.00000405,-0.00001052,0.00002396,0.00011991,-0.00005
 362,-0.00000166,-0.00000962,-0.00000107,0.00000632,0.00000698,-0.00002
 641,-0.00000296,0.00002191,0.00020189,0.00036644,0.00006851,-0.0000437
 8,-0.00000978,-0.00008361,0.00050162,0.00013723,-0.00003938,0.00110839
 ,-0.00201140,-0.00331834,0.00089818,0.00175157,-0.00009777,0.18182336,
 0.17929917,-0.00058867,0.00197671,-0.00107932,-0.00034108,-0.00252485,
 0.00221982,-0.00026760,0.00087804,-0.00099155,0.00028608,0.00008506,0.
 00015284,0.00004543,0.00006045,-0.00003809,-0.00001767,-0.00001534,-0.
 00002175,-0.00005603,-0.00002205,-0.00001536,-0.00027440,0.00003293,0.
 00017540,-0.00000241,-0.00009454,-0.00000685,-0.00004443,-0.00003586,-
 0.00005157,-0.00003156,0.00005266,-0.00007303,0.00006277,0.00003932,0.
 00000327,-0.00001873,-0.00009605,-0.00007161,0.00051341,0.00062522,0.0
 0073416,-0.02892991,-0.02203833,-0.00837140,0.01910833,-0.00749220,-0.
 02303162,-0.00006748,0.00004496,-0.00001127,0.00001318,-0.00004976,0.0
 0000055,-0.00000766,0.00000951,0.00001142,0.00000857,0.00009207,-0.000
 07853,0.00003402,-0.00002465,-0.00003783,-0.00001405,0.00000449,-0.000
 00106,0.00001391,0.00001752,0.00000164,0.00022071,0.00010352,0.0002743
 9,0.00009188,0.00015907,-0.00011490,-0.00000262,0.00002249,-0.00005438
 ,0.00077816,-0.00416794,-0.00452001,-0.00122867,0.00079510,0.00164970,
 0.01473351,0.03117761,0.03580941,-0.00025172,0.00077854,0.00034487,-0.
 00020060,-0.00106488,0.00027539,0.00011259,0.00016138,-0.00011276,0.00
 004238,-0.00001343,0.00000877,0.00001569,0.00001400,-0.00000997,-0.000
 00302,-0.00000414,0.00000243,-0.00000736,-0.00000507,0.00000837,0.0000
 2582,0.00000615,-0.00001238,0.00001004,0.00000937,-0.00000119,0.000002
 49,-0.00000175,0.00000455,0.00000118,-0.00002046,0.00000758,-0.0000138
 3,0.00000114,-0.00001471,0.00000636,-0.00002267,-0.00000502,0.00121180
 ,-0.00093502,0.00034895,0.00097145,-0.00095653,-0.00201744,-0.28867754
 ,0.17102267,-0.02303478,-0.00002695,0.00001574,-0.00004554,0.00000698,
 -0.00000245,0.00000732,0.00000030,0.00000109,-0.00000132,-0.00000250,-
 0.00000194,0.00002128,-0.00000750,0.00000239,0.00000266,-0.00000014,0.
 00000006,0.00000323,-0.00001139,-0.00000178,0.00000731,0.00003187,0.00
 006907,-0.00000897,0.00001318,0.00000544,-0.00001039,0.00017514,-0.000
 25339,-0.00038804,0.00105788,-0.00054796,-0.00030261,-0.00038357,-0.00
 033536,-0.00034045,-0.02557552,0.02350855,-0.00401700,0.31147651,-0.00
 007345,0.00116956,0.00022831,-0.00163607,-0.00102200,0.00004049,0.0002
 0905,0.00019624,0.00004164,-0.00007589,-0.00002931,-0.00001168,-0.0000
 4898,0.00003338,-0.00002227,0.00005067,-0.00001733,0.00001501,0.000034
 35,-0.00001180,0.00002483,0.00003554,-0.00000982,-0.00000938,0.0000048
 1,0.00000178,0.00001679,-0.00000752,0.00000055,-0.00000139,0.00000716,
 0.00000201,-0.00000513,0.00000216,0.00000790,-0.00000324,0.00001139,0.
 00000915,0.00001520,-0.00002446,-0.00329383,-0.00581752,0.01726279,-0.
 01453137,0.00864646,0.19661595,-0.18706650,-0.00847363,-0.00004841,0.0
 0005419,-0.00010119,0.00002168,-0.00000263,0.00000737,-0.00000474,0.00
 000251,-0.00000497,-0.00000062,-0.00001324,0.00000089,0.00000292,0.000
 00842,0.00000882,0.00000034,-0.00000164,0.00000039,-0.00000367,0.00000
 010,0.00000238,0.00001082,-0.00002094,-0.00002390,-0.00019540,0.000381
 65,-0.00007988,0.00143530,-0.00141498,0.00001127,-0.00056005,0.0004120
 9,0.00048634,-0.00010032,0.00092711,0.00010307,-0.02149660,0.01347715,
 0.00038485,-0.19142875,0.19075160,0.00005576,0.00041252,0.00004268,-0.
 00008100,-0.00073361,-0.00033794,-0.00001992,0.00013368,0.00009419,0.0
 0008070,0.00003011,0.00003169,0.00006738,-0.00011577,0.00004657,-0.000
 06397,0.00003811,-0.00002276,-0.00003103,0.00007282,-0.00003834,0.0000
 4669,0.00000560,-0.00003566,0.00002480,-0.00001758,0.00004018,-0.00000
 255,-0.00000403,-0.00000388,-0.00004782,-0.00003073,-0.00002898,0.0000
 4973,0.00003634,0.00001105,-0.00007553,-0.00001558,-0.00003942,-0.0003
 1121,-0.00136917,-0.00368207,0.02698549,-0.02053331,-0.00293557,-0.057
 35941,0.01483346,-0.02727357,0.00000342,-0.00007537,-0.00003310,-0.000
 01124,-0.00000293,-0.00000517,0.00000864,-0.00000627,0.00000712,0.0000
 0940,0.00000891,0.00006261,-0.00002961,0.00000952,-0.00000268,-0.00000
 533,0.00000484,-0.00000089,0.00000358,0.00000475,0.00000210,0.00010897
 ,0.00003115,0.00002007,-0.00015724,-0.00014065,0.00008062,0.00054246,-
 0.00078577,0.00069036,-0.00037696,0.00041650,0.00167952,0.00070858,-0.
 00022366,-0.00049219,0.00059737,0.00349603,-0.00246247,0.02927986,0.00
 452009,0.03458593\\-0.00000109,-0.00000014,-0.00000335,-0.00000413,-0.
 00000235,0.00000077,0.00000558,-0.00000394,-0.00000173,0.00000206,0.00
 000468,0.00000703,0.00000039,0.00000032,0.00000105,0.00000181,-0.00000
 019,0.00000072,-0.00000128,0.00000221,-0.00000028,-0.00000257,-0.00000
 648,0.00000239,-0.00000037,0.00000036,0.00000030,-0.00000028,-0.000000
 52,0.00000006,-0.00000059,0.00000128,-0.00000271,0.00000010,0.00000181
 ,-0.00000204,-0.00000167,-0.00000308,-0.00000049,0.00000090,0.00000596
 ,-0.00000018,-0.00000055,-0.00000349,-0.00000008,-0.00000163,0.0000007
 8,0.00000099,0.00000050,0.00000148,0.00000111,-0.00000023,-0.00000051,
 -0.00000222,0.00000036,0.00000025,-0.00000022,0.00000248,0.00000197,0.
 00000021,0.00000124,-0.00000032,-0.00000030,0.00000032,0.00000049,-0.0
 0000069,-0.00000030,-0.00000023,-0.00000119,-0.00000077,0.00000096,-0.
 00000318,0.00000155,-0.00000149,0.00000125,0.00000056,-0.00000057,0.00
 000177,-0.00000077,0.00000017,-0.00000042,-0.00000073,0.00000026,0.000
 00008,-0.00000134,-0.00000008,0.00000121,0.00000044,0.00000039,0.00000
 013\\\@


 EVERY WORD THAT YOU WRITE IS A BLOW THAT SMITES THE DEVIL.
     -- ST. BERNARD OF CLAIRVAUX
 Job cpu time:       1 days  1 hours 19 minutes 41.4 seconds.
 File lengths (MBytes):  RWF=   1142 Int=      0 D2E=      0 Chk=     42 Scr=      1
 Normal termination of Gaussian 09 at Sat Jul 24 20:32:53 2021.
