 Entering Gaussian System, Link 0=g09
 Input=opt_freq-conf-422.com
 Output=opt_freq-conf-422.log
 Initial command:
 /aerosol/software/g09/l1.exe "/scratch/nicole/10382/Gau-73118.inp" -scrdir="/scratch/nicole/10382/"
 Entering Link 1 = /aerosol/software/g09/l1.exe PID=     73123.
  
 Copyright (c) 1988,1990,1992,1993,1995,1998,2003,2009,2013,
            Gaussian, Inc.  All Rights Reserved.
  
 This is part of the Gaussian(R) 09 program.  It is based on
 the Gaussian(R) 03 system (copyright 2003, Gaussian, Inc.),
 the Gaussian(R) 98 system (copyright 1998, Gaussian, Inc.),
 the Gaussian(R) 94 system (copyright 1995, Gaussian, Inc.),
 the Gaussian 92(TM) system (copyright 1992, Gaussian, Inc.),
 the Gaussian 90(TM) system (copyright 1990, Gaussian, Inc.),
 the Gaussian 88(TM) system (copyright 1988, Gaussian, Inc.),
 the Gaussian 86(TM) system (copyright 1986, Carnegie Mellon
 University), and the Gaussian 82(TM) system (copyright 1983,
 Carnegie Mellon University). Gaussian is a federally registered
 trademark of Gaussian, Inc.
  
 This software contains proprietary and confidential information,
 including trade secrets, belonging to Gaussian, Inc.
  
 This software is provided under written license and may be
 used, copied, transmitted, or stored only in accord with that
 written license.
  
 The following legend is applicable only to US Government
 contracts under FAR:
  
                    RESTRICTED RIGHTS LEGEND
  
 Use, reproduction and disclosure by the US Government is
 subject to restrictions as set forth in subparagraphs (a)
 and (c) of the Commercial Computer Software - Restricted
 Rights clause in FAR 52.227-19.
  
 Gaussian, Inc.
 340 Quinnipiac St., Bldg. 40, Wallingford CT 06492
  
  
 ---------------------------------------------------------------
 Warning -- This program may not be used in any manner that
 competes with the business of Gaussian, Inc. or will provide
 assistance to any competitor of Gaussian, Inc.  The licensee
 of this program is prohibited from giving any competitor of
 Gaussian, Inc. access to this program.  By using this program,
 the user acknowledges that Gaussian, Inc. is engaged in the
 business of creating and licensing software in the field of
 computational chemistry and represents and warrants to the
 licensee that it is not a competitor of Gaussian, Inc. and that
 it will not use this program in any manner prohibited above.
 ---------------------------------------------------------------
  

 Cite this work as:
 Gaussian 09, Revision D.01,
 M. J. Frisch, G. W. Trucks, H. B. Schlegel, G. E. Scuseria, 
 M. A. Robb, J. R. Cheeseman, G. Scalmani, V. Barone, B. Mennucci, 
 G. A. Petersson, H. Nakatsuji, M. Caricato, X. Li, H. P. Hratchian, 
 A. F. Izmaylov, J. Bloino, G. Zheng, J. L. Sonnenberg, M. Hada, 
 M. Ehara, K. Toyota, R. Fukuda, J. Hasegawa, M. Ishida, T. Nakajima, 
 Y. Honda, O. Kitao, H. Nakai, T. Vreven, J. A. Montgomery, Jr., 
 J. E. Peralta, F. Ogliaro, M. Bearpark, J. J. Heyd, E. Brothers, 
 K. N. Kudin, V. N. Staroverov, T. Keith, R. Kobayashi, J. Normand, 
 K. Raghavachari, A. Rendell, J. C. Burant, S. S. Iyengar, J. Tomasi, 
 M. Cossi, N. Rega, J. M. Millam, M. Klene, J. E. Knox, J. B. Cross, 
 V. Bakken, C. Adamo, J. Jaramillo, R. Gomperts, R. E. Stratmann, 
 O. Yazyev, A. J. Austin, R. Cammi, C. Pomelli, J. W. Ochterski, 
 R. L. Martin, K. Morokuma, V. G. Zakrzewski, G. A. Voth, 
 P. Salvador, J. J. Dannenberg, S. Dapprich, A. D. Daniels, 
 O. Farkas, J. B. Foresman, J. V. Ortiz, J. Cioslowski, 
 and D. J. Fox, Gaussian, Inc., Wallingford CT, 2013.
 
 ******************************************
 Gaussian 09:  ES64L-G09RevD.01 24-Apr-2013
                24-Jul-2021 
 ******************************************
 %mem=2gb
 %nproc=4
 Will use up to    4 processors via shared memory.
 %chk=conf-422.chk
 ----------------------------------------------------------------------
 # B3LYP/6-311++G(2df,2pd) EmpiricalDispersion=GD3BJ opt=calcfc freq=no
 raman nosymm integral(ultrafinegrid)
 ----------------------------------------------------------------------
 1/10=4,14=-1,18=20,19=15,26=4,38=1/1,3;
 2/9=110,12=2,15=1,17=6,18=5,40=1/2;
 3/5=4,6=6,7=1414,11=2,16=1,25=1,30=1,71=2,74=-5,75=-5,124=41,140=1/1,2,3;
 4//1;
 5/5=2,38=5/2;
 8/6=4,10=90,11=11/1;
 11/6=1,8=1,9=11,15=111,16=1,31=1/1,2,10;
 10/6=1,13=1,31=1/2;
 6/7=2,8=2,9=2,10=2,28=1/1;
 7/10=1,18=20,25=1,30=1/1,2,3,16;
 1/10=4,14=-1,18=20,19=15,26=4/3(2);
 2/9=110,15=1/2;
 99//99;
 2/9=110,15=1/2;
 3/5=4,6=6,7=1414,11=2,16=1,25=1,30=1,71=1,74=-5,75=-5,124=41/1,2,3;
 4/5=5,16=3,69=1/1;
 5/5=2,38=5/2;
 7/30=1/1,2,3,16;
 1/14=-1,18=20,19=15,26=4/3(-5);
 2/9=110,15=1/2;
 6/7=2,8=2,9=2,10=2,19=2,28=1/1;
 99/9=1/99;
 ------------------------------------------------------------
 Candidate Structure: Conf:422 OPT and FREQ calc in gas phase
 ------------------------------------------------------------
 Symbolic Z-matrix:
 Charge =  0 Multiplicity = 1
 O                     0.78587   0.73522   1.52987 
 C                     1.13924   0.16266   0.50415 
 N                     0.30312  -0.6476   -0.20788 
 C                    -0.93596  -1.13451   0.35649 
 C                    -0.81707  -2.6235    0.61379 
 O                    -1.7968   -3.06349   1.42956 
 O                     0.01444  -3.34827   0.13314 
 C                    -2.14447  -0.88748  -0.55894 
 C                    -2.4521    0.57028  -0.73406 
 C                    -1.92298   1.70746  -0.19576 
 N                    -2.57575   2.83084  -0.66942 
 C                    -3.49191   2.37231  -1.48728 
 N                    -3.46244   1.01624  -1.56355 
 C                     2.50615   0.36515  -0.11942 
 C                     3.56376   0.75402   0.90212 
 N                     4.8435    0.9524    0.2166 
 H                     0.71291  -1.23242  -0.92015 
 H                    -1.09373  -0.61786   1.30258 
 H                    -1.66124  -4.01486   1.51849 
 H                    -3.01463  -1.38629  -0.12674 
 H                    -1.97303  -1.34889  -1.5332 
 H                    -1.09974   1.7603    0.50126 
 H                    -4.19675   2.96499  -2.04443 
 H                    -4.06566   0.4341   -2.11923 
 H                     2.80637  -0.54103  -0.65153 
 H                     2.42751   1.16022  -0.8652 
 H                     3.59987  -0.00614   1.69242 
 H                     3.26508   1.69306   1.37245 
 H                     5.20434   0.0605   -0.10256 
 H                     5.53209   1.31249   0.86643 
 

 GradGradGradGradGradGradGradGradGradGradGradGradGradGradGradGradGradGrad
 Berny optimization.
 Initialization pass.
                           ----------------------------
                           !    Initial Parameters    !
                           ! (Angstroms and Degrees)  !
 --------------------------                            --------------------------
 ! Name  Definition              Value          Derivative Info.                !
 --------------------------------------------------------------------------------
 ! R1    R(1,2)                  1.2267         calculate D2E/DX2 analytically  !
 ! R2    R(2,3)                  1.3648         calculate D2E/DX2 analytically  !
 ! R3    R(2,14)                 1.516          calculate D2E/DX2 analytically  !
 ! R4    R(3,4)                  1.446          calculate D2E/DX2 analytically  !
 ! R5    R(3,17)                 1.0086         calculate D2E/DX2 analytically  !
 ! R6    R(4,5)                  1.5157         calculate D2E/DX2 analytically  !
 ! R7    R(4,8)                  1.5361         calculate D2E/DX2 analytically  !
 ! R8    R(4,18)                 1.0894         calculate D2E/DX2 analytically  !
 ! R9    R(5,6)                  1.3487         calculate D2E/DX2 analytically  !
 ! R10   R(5,7)                  1.2032         calculate D2E/DX2 analytically  !
 ! R11   R(6,19)                 0.9651         calculate D2E/DX2 analytically  !
 ! R12   R(8,9)                  1.5001         calculate D2E/DX2 analytically  !
 ! R13   R(8,20)                 1.0921         calculate D2E/DX2 analytically  !
 ! R14   R(8,21)                 1.0915         calculate D2E/DX2 analytically  !
 ! R15   R(9,10)                 1.3649         calculate D2E/DX2 analytically  !
 ! R16   R(9,13)                 1.3812         calculate D2E/DX2 analytically  !
 ! R17   R(10,11)                1.3829         calculate D2E/DX2 analytically  !
 ! R18   R(10,22)                1.08           calculate D2E/DX2 analytically  !
 ! R19   R(11,12)                1.3109         calculate D2E/DX2 analytically  !
 ! R20   R(12,13)                1.3585         calculate D2E/DX2 analytically  !
 ! R21   R(12,23)                1.0763         calculate D2E/DX2 analytically  !
 ! R22   R(13,24)                1.0058         calculate D2E/DX2 analytically  !
 ! R23   R(14,15)                1.521          calculate D2E/DX2 analytically  !
 ! R24   R(14,25)                1.0929         calculate D2E/DX2 analytically  !
 ! R25   R(14,26)                1.0929         calculate D2E/DX2 analytically  !
 ! R26   R(15,16)                1.4653         calculate D2E/DX2 analytically  !
 ! R27   R(15,27)                1.0971         calculate D2E/DX2 analytically  !
 ! R28   R(15,28)                1.0919         calculate D2E/DX2 analytically  !
 ! R29   R(16,29)                1.0137         calculate D2E/DX2 analytically  !
 ! R30   R(16,30)                1.013          calculate D2E/DX2 analytically  !
 ! A1    A(1,2,3)              122.4707         calculate D2E/DX2 analytically  !
 ! A2    A(1,2,14)             122.7738         calculate D2E/DX2 analytically  !
 ! A3    A(3,2,14)             114.6511         calculate D2E/DX2 analytically  !
 ! A4    A(2,3,4)              121.4169         calculate D2E/DX2 analytically  !
 ! A5    A(2,3,17)             117.6301         calculate D2E/DX2 analytically  !
 ! A6    A(4,3,17)             115.3752         calculate D2E/DX2 analytically  !
 ! A7    A(3,4,5)              109.2586         calculate D2E/DX2 analytically  !
 ! A8    A(3,4,8)              112.7937         calculate D2E/DX2 analytically  !
 ! A9    A(3,4,18)             107.659          calculate D2E/DX2 analytically  !
 ! A10   A(5,4,8)              108.7149         calculate D2E/DX2 analytically  !
 ! A11   A(5,4,18)             109.2572         calculate D2E/DX2 analytically  !
 ! A12   A(8,4,18)             109.1064         calculate D2E/DX2 analytically  !
 ! A13   A(4,5,6)              111.4804         calculate D2E/DX2 analytically  !
 ! A14   A(4,5,7)              125.3192         calculate D2E/DX2 analytically  !
 ! A15   A(6,5,7)              123.1704         calculate D2E/DX2 analytically  !
 ! A16   A(5,6,19)             105.9801         calculate D2E/DX2 analytically  !
 ! A17   A(4,8,9)              112.7792         calculate D2E/DX2 analytically  !
 ! A18   A(4,8,20)             108.5143         calculate D2E/DX2 analytically  !
 ! A19   A(4,8,21)             109.8992         calculate D2E/DX2 analytically  !
 ! A20   A(9,8,20)             109.065          calculate D2E/DX2 analytically  !
 ! A21   A(9,8,21)             109.8033         calculate D2E/DX2 analytically  !
 ! A22   A(20,8,21)            106.5766         calculate D2E/DX2 analytically  !
 ! A23   A(8,9,10)             133.1654         calculate D2E/DX2 analytically  !
 ! A24   A(8,9,13)             122.2672         calculate D2E/DX2 analytically  !
 ! A25   A(10,9,13)            104.5614         calculate D2E/DX2 analytically  !
 ! A26   A(9,10,11)            111.0225         calculate D2E/DX2 analytically  !
 ! A27   A(9,10,22)            126.2145         calculate D2E/DX2 analytically  !
 ! A28   A(11,10,22)           122.7606         calculate D2E/DX2 analytically  !
 ! A29   A(10,11,12)           105.0368         calculate D2E/DX2 analytically  !
 ! A30   A(11,12,13)           111.6547         calculate D2E/DX2 analytically  !
 ! A31   A(11,12,23)           126.0151         calculate D2E/DX2 analytically  !
 ! A32   A(13,12,23)           122.3301         calculate D2E/DX2 analytically  !
 ! A33   A(9,13,12)            107.7245         calculate D2E/DX2 analytically  !
 ! A34   A(9,13,24)            125.7077         calculate D2E/DX2 analytically  !
 ! A35   A(12,13,24)           126.5676         calculate D2E/DX2 analytically  !
 ! A36   A(2,14,15)            112.635          calculate D2E/DX2 analytically  !
 ! A37   A(2,14,25)            109.7065         calculate D2E/DX2 analytically  !
 ! A38   A(2,14,26)            108.2383         calculate D2E/DX2 analytically  !
 ! A39   A(15,14,25)           110.3638         calculate D2E/DX2 analytically  !
 ! A40   A(15,14,26)           108.8048         calculate D2E/DX2 analytically  !
 ! A41   A(25,14,26)           106.9003         calculate D2E/DX2 analytically  !
 ! A42   A(14,15,16)           109.1295         calculate D2E/DX2 analytically  !
 ! A43   A(14,15,27)           109.2413         calculate D2E/DX2 analytically  !
 ! A44   A(14,15,28)           108.6012         calculate D2E/DX2 analytically  !
 ! A45   A(16,15,27)           113.7074         calculate D2E/DX2 analytically  !
 ! A46   A(16,15,28)           108.9045         calculate D2E/DX2 analytically  !
 ! A47   A(27,15,28)           107.1327         calculate D2E/DX2 analytically  !
 ! A48   A(15,16,29)           109.8205         calculate D2E/DX2 analytically  !
 ! A49   A(15,16,30)           109.9805         calculate D2E/DX2 analytically  !
 ! A50   A(29,16,30)           105.8294         calculate D2E/DX2 analytically  !
 ! D1    D(1,2,3,4)            -14.8681         calculate D2E/DX2 analytically  !
 ! D2    D(1,2,3,17)          -167.3086         calculate D2E/DX2 analytically  !
 ! D3    D(14,2,3,4)           168.753          calculate D2E/DX2 analytically  !
 ! D4    D(14,2,3,17)           16.3125         calculate D2E/DX2 analytically  !
 ! D5    D(1,2,14,15)           27.4052         calculate D2E/DX2 analytically  !
 ! D6    D(1,2,14,25)          150.7604         calculate D2E/DX2 analytically  !
 ! D7    D(1,2,14,26)          -92.9343         calculate D2E/DX2 analytically  !
 ! D8    D(3,2,14,15)         -156.2282         calculate D2E/DX2 analytically  !
 ! D9    D(3,2,14,25)          -32.8731         calculate D2E/DX2 analytically  !
 ! D10   D(3,2,14,26)           83.4323         calculate D2E/DX2 analytically  !
 ! D11   D(2,3,4,5)           -109.934          calculate D2E/DX2 analytically  !
 ! D12   D(2,3,4,8)            129.0356         calculate D2E/DX2 analytically  !
 ! D13   D(2,3,4,18)             8.6119         calculate D2E/DX2 analytically  !
 ! D14   D(17,3,4,5)            43.0861         calculate D2E/DX2 analytically  !
 ! D15   D(17,3,4,8)           -77.9442         calculate D2E/DX2 analytically  !
 ! D16   D(17,3,4,18)          161.6321         calculate D2E/DX2 analytically  !
 ! D17   D(3,4,5,6)            164.7753         calculate D2E/DX2 analytically  !
 ! D18   D(3,4,5,7)            -17.1721         calculate D2E/DX2 analytically  !
 ! D19   D(8,4,5,6)            -71.7445         calculate D2E/DX2 analytically  !
 ! D20   D(8,4,5,7)            106.3081         calculate D2E/DX2 analytically  !
 ! D21   D(18,4,5,6)            47.2307         calculate D2E/DX2 analytically  !
 ! D22   D(18,4,5,7)          -134.7167         calculate D2E/DX2 analytically  !
 ! D23   D(3,4,8,9)            -65.9015         calculate D2E/DX2 analytically  !
 ! D24   D(3,4,8,20)           173.1523         calculate D2E/DX2 analytically  !
 ! D25   D(3,4,8,21)            56.9725         calculate D2E/DX2 analytically  !
 ! D26   D(5,4,8,9)            172.7591         calculate D2E/DX2 analytically  !
 ! D27   D(5,4,8,20)            51.8129         calculate D2E/DX2 analytically  !
 ! D28   D(5,4,8,21)           -64.3669         calculate D2E/DX2 analytically  !
 ! D29   D(18,4,8,9)            53.6893         calculate D2E/DX2 analytically  !
 ! D30   D(18,4,8,20)          -67.2569         calculate D2E/DX2 analytically  !
 ! D31   D(18,4,8,21)          176.5633         calculate D2E/DX2 analytically  !
 ! D32   D(4,5,6,19)           178.4285         calculate D2E/DX2 analytically  !
 ! D33   D(7,5,6,19)             0.3268         calculate D2E/DX2 analytically  !
 ! D34   D(4,8,9,10)            -3.9207         calculate D2E/DX2 analytically  !
 ! D35   D(4,8,9,13)           177.1137         calculate D2E/DX2 analytically  !
 ! D36   D(20,8,9,10)          116.711          calculate D2E/DX2 analytically  !
 ! D37   D(20,8,9,13)          -62.2546         calculate D2E/DX2 analytically  !
 ! D38   D(21,8,9,10)         -126.8482         calculate D2E/DX2 analytically  !
 ! D39   D(21,8,9,13)           54.1862         calculate D2E/DX2 analytically  !
 ! D40   D(8,9,10,11)         -179.1307         calculate D2E/DX2 analytically  !
 ! D41   D(8,9,10,22)            1.423          calculate D2E/DX2 analytically  !
 ! D42   D(13,9,10,11)          -0.0344         calculate D2E/DX2 analytically  !
 ! D43   D(13,9,10,22)        -179.4807         calculate D2E/DX2 analytically  !
 ! D44   D(8,9,13,12)          179.2645         calculate D2E/DX2 analytically  !
 ! D45   D(8,9,13,24)           -0.5735         calculate D2E/DX2 analytically  !
 ! D46   D(10,9,13,12)           0.044          calculate D2E/DX2 analytically  !
 ! D47   D(10,9,13,24)        -179.794          calculate D2E/DX2 analytically  !
 ! D48   D(9,10,11,12)           0.0111         calculate D2E/DX2 analytically  !
 ! D49   D(22,10,11,12)        179.4798         calculate D2E/DX2 analytically  !
 ! D50   D(10,11,12,13)          0.0182         calculate D2E/DX2 analytically  !
 ! D51   D(10,11,12,23)        179.9527         calculate D2E/DX2 analytically  !
 ! D52   D(11,12,13,9)          -0.0403         calculate D2E/DX2 analytically  !
 ! D53   D(11,12,13,24)        179.7959         calculate D2E/DX2 analytically  !
 ! D54   D(23,12,13,9)        -179.9776         calculate D2E/DX2 analytically  !
 ! D55   D(23,12,13,24)         -0.1414         calculate D2E/DX2 analytically  !
 ! D56   D(2,14,15,16)        -179.0201         calculate D2E/DX2 analytically  !
 ! D57   D(2,14,15,27)          56.1032         calculate D2E/DX2 analytically  !
 ! D58   D(2,14,15,28)         -60.4282         calculate D2E/DX2 analytically  !
 ! D59   D(25,14,15,16)         57.9915         calculate D2E/DX2 analytically  !
 ! D60   D(25,14,15,27)        -66.8853         calculate D2E/DX2 analytically  !
 ! D61   D(25,14,15,28)        176.5834         calculate D2E/DX2 analytically  !
 ! D62   D(26,14,15,16)        -59.007          calculate D2E/DX2 analytically  !
 ! D63   D(26,14,15,27)        176.1163         calculate D2E/DX2 analytically  !
 ! D64   D(26,14,15,28)         59.5849         calculate D2E/DX2 analytically  !
 ! D65   D(14,15,16,29)        -70.2728         calculate D2E/DX2 analytically  !
 ! D66   D(14,15,16,30)        173.651          calculate D2E/DX2 analytically  !
 ! D67   D(27,15,16,29)         51.9538         calculate D2E/DX2 analytically  !
 ! D68   D(27,15,16,30)        -64.1224         calculate D2E/DX2 analytically  !
 ! D69   D(28,15,16,29)        171.325          calculate D2E/DX2 analytically  !
 ! D70   D(28,15,16,30)         55.2488         calculate D2E/DX2 analytically  !
 --------------------------------------------------------------------------------
 Trust Radius=3.00D-01 FncErr=1.00D-07 GrdErr=1.00D-06
 Number of steps in this run=    160 maximum allowed number of steps=    180.
 GradGradGradGradGradGradGradGradGradGradGradGradGradGradGradGradGradGrad

                          Input orientation:                          
 ---------------------------------------------------------------------
 Center     Atomic      Atomic             Coordinates (Angstroms)
 Number     Number       Type             X           Y           Z
 ---------------------------------------------------------------------
      1          8           0        0.785871    0.735223    1.529867
      2          6           0        1.139240    0.162661    0.504155
      3          7           0        0.303118   -0.647601   -0.207881
      4          6           0       -0.935956   -1.134511    0.356493
      5          6           0       -0.817066   -2.623497    0.613794
      6          8           0       -1.796797   -3.063489    1.429557
      7          8           0        0.014438   -3.348268    0.133141
      8          6           0       -2.144474   -0.887478   -0.558942
      9          6           0       -2.452097    0.570279   -0.734056
     10          6           0       -1.922975    1.707460   -0.195764
     11          7           0       -2.575751    2.830835   -0.669422
     12          6           0       -3.491909    2.372307   -1.487278
     13          7           0       -3.462438    1.016238   -1.563554
     14          6           0        2.506147    0.365153   -0.119418
     15          6           0        3.563763    0.754017    0.902119
     16          7           0        4.843498    0.952401    0.216596
     17          1           0        0.712914   -1.232417   -0.920148
     18          1           0       -1.093734   -0.617860    1.302577
     19          1           0       -1.661238   -4.014865    1.518489
     20          1           0       -3.014626   -1.386288   -0.126735
     21          1           0       -1.973031   -1.348886   -1.533202
     22          1           0       -1.099736    1.760297    0.501259
     23          1           0       -4.196751    2.964992   -2.044427
     24          1           0       -4.065659    0.434098   -2.119228
     25          1           0        2.806372   -0.541031   -0.651533
     26          1           0        2.427514    1.160219   -0.865199
     27          1           0        3.599871   -0.006139    1.692423
     28          1           0        3.265084    1.693065    1.372450
     29          1           0        5.204337    0.060503   -0.102565
     30          1           0        5.532093    1.312491    0.866431
 ---------------------------------------------------------------------
                    Distance matrix (angstroms):
                    1          2          3          4          5
     1  O    0.000000
     2  C    1.226696   0.000000
     3  N    2.272667   1.364778   0.000000
     4  C    2.799535   2.451713   1.445995   0.000000
     5  C    3.832700   3.406146   2.415394   1.515724   0.000000
     6  O    4.594611   4.459230   3.595464   2.369277   1.348679
     7  O    4.384158   3.705327   2.737377   2.419474   1.203212
     8  C    3.947557   3.607734   2.484248   1.536086   2.480138
     9  C    3.954364   3.820605   3.057990   2.528693   3.832784
    10  C    3.355726   3.500493   3.240671   3.058757   4.542643
    11  N    4.530890   4.722033   4.538768   4.411961   5.872764
    12  C    5.484762   5.504170   5.015868   4.714887   6.043786
    13  N    5.262733   5.116587   4.334238   3.833460   4.998651
    14  C    2.411730   1.516008   2.426280   3.784648   4.529169
    15  C    2.848000   2.527131   3.718661   4.910368   5.539169
    16  N    4.270384   3.798408   4.832725   6.146288   6.707219
    17  H    3.143167   2.038782   1.008597   2.087623   2.574669
    18  H    2.327103   2.496571   2.057562   1.089449   2.138585
    19  H    5.343389   5.130621   4.263510   3.189468   1.861989
    20  H    4.657136   4.477931   3.399951   2.148900   2.628372
    21  H    4.619246   4.015199   2.725643   2.166201   2.751450
    22  H    2.379984   2.750539   2.875560   2.903049   4.394339
    23  H    6.524873   6.543786   6.055786   5.762215   7.051214
    24  H    6.078150   5.834962   4.889737   4.287746   5.231792
    25  H    3.235700   2.147120   2.544497   3.920887   4.366580
    26  H    2.934613   2.128356   2.865892   4.251029   5.199156
    27  H    2.914556   2.737732   3.858913   4.861240   5.246268
    28  H    2.662468   2.759580   4.092604   5.164890   5.989341
    29  H    4.758458   4.111393   4.953227   6.272319   6.631313
    30  H    4.827008   4.555273   5.686677   6.934228   7.474466
                    6          7          8          9         10
     6  O    0.000000
     7  O    2.245521   0.000000
     8  C    2.968170   3.345947   0.000000
     9  C    4.279593   4.710715   1.500118   0.000000
    10  C    5.041780   5.424217   2.629575   1.364884   0.000000
    11  N    6.305200   6.747925   3.744872   2.264858   1.382910
    12  C    6.397595   6.902551   3.647409   2.212658   2.138126
    13  N    5.327030   5.832354   2.523967   1.381208   2.172230
    14  C    5.715789   4.479050   4.836377   5.000405   4.628687
    15  C    6.602057   5.478848   6.116631   6.237099   5.676152
    16  N    7.854436   6.467034   7.267624   7.367188   6.820946
    17  H    3.895201   2.464571   2.900710   3.647141   4.014414
    18  H    2.547847   3.170292   2.154531   2.721158   2.887868
    19  H    0.965091   2.274078   3.785470   5.169426   5.979312
    20  H    2.591941   3.618305   1.092144   2.124484   3.281424
    21  H    3.427661   3.274791   1.091546   2.133386   3.336540
    22  H    4.961506   5.241595   3.037469   2.184268   1.079979
    23  H    7.360091   7.895135   4.610861   3.239682   3.188887
    24  H    5.474918   6.002220   2.805709   2.130922   3.148374
    25  H    5.646494   4.036234   4.963817   5.375251   5.256440
    26  H    6.399252   5.210189   5.018957   4.916892   4.435580
    27  H    6.208101   5.143589   6.232407   6.545714   6.083050
    28  H    6.946273   6.125163   6.297047   6.195496   5.419913
    29  H    7.818095   6.213721   7.423744   7.699327   7.315718
    30  H    8.554469   7.259814   8.111796   8.176780   7.540710
                   11         12         13         14         15
    11  N    0.000000
    12  C    1.310909   0.000000
    13  N    2.208721   1.358532   0.000000
    14  C    5.675190   6.471197   6.175229   0.000000
    15  C    6.669074   7.623031   7.450893   1.520955   0.000000
    16  N    7.704465   8.625447   8.494797   2.433305   1.465270
    17  H    5.233373   5.567424   4.785811   2.531617   3.923508
    18  H    4.240125   4.740848   4.061496   3.993436   4.871826
    19  H    7.244784   7.292596   6.168898   6.263737   7.100900
    20  H    4.274488   4.025657   2.834980   5.791937   6.993901
    21  H    4.310390   4.019500   2.795187   4.999975   6.403833
    22  H    2.166833   3.170383   3.224816   3.915873   4.787642
    23  H    2.129854   1.076333   2.137311   7.442692   8.590467
    24  H    3.172714   2.117830   1.005751   6.869689   8.212123
    25  H    6.351145   6.989589   6.523408   1.092909   2.159774
    26  H    5.278441   6.074184   5.932956   1.092933   2.139971
    27  H    7.194792   8.127783   7.843650   2.148687   1.097142
    28  H    6.291193   7.368607   7.371416   2.136588   1.091894
    29  H    8.278033   9.104206   8.840866   2.715386   2.044953
    30  H    8.390551   9.385935   9.321706   3.320497   2.046336
                   16         17         18         19         20
    16  N    0.000000
    17  H    4.809089   0.000000
    18  H    6.236649   2.929533   0.000000
    19  H    8.287354   4.396085   3.450843   0.000000
    20  H    8.205940   3.814149   2.514606   3.383465   0.000000
    21  H    7.404240   2.757480   3.057647   4.064169   1.750562
    22  H    6.004644   3.776563   2.509537   5.890886   3.736600
    23  H    9.533564   6.556451   5.802412   8.236601   4.899857
    24  H    9.224846   5.200944   4.652709   6.229566   2.896291
    25  H    2.670930   2.220976   4.362944   6.061028   5.905412
    26  H    2.655268   2.944075   4.501111   7.012942   6.053669
    27  H    2.154871   4.082132   4.749327   6.616601   6.997551
    28  H    2.091883   4.508660   4.934019   7.541249   7.152952
    29  H    1.013682   4.744783   6.488474   8.146936   8.345367
    30  H    1.012973   5.735234   6.915061   8.974961   9.017550
                   21         22         23         24         25
    21  H    0.000000
    22  H    3.816896   0.000000
    23  H    4.880147   4.186085   0.000000
    24  H    2.810970   4.174021   2.535391   0.000000
    25  H    4.926729   4.677897   7.954626   7.094350   0.000000
    26  H    5.109465   3.829985   6.966252   6.652904   1.755972
    27  H    6.577603   5.159988   9.142154   8.572213   2.531774
    28  H    6.718193   4.451420   8.304928   8.216848   3.049280
    29  H    7.453034   6.557075  10.029324   9.494173   2.532478
    30  H    8.316733   6.656954  10.288550  10.089726   3.628955
                   26         27         28         29         30
    26  H    0.000000
    27  H    3.045692   0.000000
    28  H    2.447963   1.761181   0.000000
    29  H    3.082488   2.408471   2.932854   0.000000
    30  H    3.558110   2.480832   2.353768   1.616741   0.000000
 Symmetry turned off by external request.
 Stoichiometry    C9H14N4O3
 Framework group  C1[X(C9H14N4O3)]
 Deg. of freedom    84
 Full point group                 C1      NOp   1
 Rotational constants (GHZ):      0.5777314      0.3337382      0.2304002
 Standard basis: 6-311++G(2df,2pd) (5D, 7F)
   754 basis functions,  1084 primitive gaussians,   848 cartesian basis functions
    60 alpha electrons       60 beta electrons
       nuclear repulsion energy      1109.2545423011 Hartrees.
 NAtoms=   30 NActive=   30 NUniq=   30 SFac= 1.00D+00 NAtFMM=   60 NAOKFM=F Big=F
 Integral buffers will be    131072 words long.
 Raffenetti 2 integral format.
 Two-electron integral symmetry is turned off.
 Nuclear repulsion after empirical dispersion term =     1109.2013106689 Hartrees.
 One-electron integrals computed using PRISM.
 NBasis=   754 RedAO= T EigKep=  2.70D-06  NBF=   754
 NBsUse=   753 1.00D-06 EigRej=  8.30D-07 NBFU=   753
 ExpMin= 3.60D-02 ExpMax= 8.59D+03 ExpMxC= 1.30D+03 IAcc=3 IRadAn=         5 AccDes= 0.00D+00
 Harris functional with IExCor=  402 and IRadAn=       5 diagonalized for initial guess.
 HarFok:  IExCor=  402 AccDes= 0.00D+00 IRadAn=         5 IDoV= 1 UseB2=F ITyADJ=14
 ICtDFT=  3500011 ScaDFX=  1.000000  1.000000  1.000000  1.000000
 FoFCou: FMM=F IPFlag=           0 FMFlag=      100000 FMFlg1=           0
         NFxFlg=           0 DoJE=T BraDBF=F KetDBF=T FulRan=T
         wScrn=  0.000000 ICntrl=     500 IOpCl=  0 I1Cent=   200000004 NGrid=           0
         NMat0=    1 NMatS0=      1 NMatT0=    0 NMatD0=    1 NMtDS0=    0 NMtDT0=    0
 Symmetry not used in FoFCou.
 Requested convergence on RMS density matrix=1.00D-08 within 128 cycles.
 Requested convergence on MAX density matrix=1.00D-06.
 Requested convergence on             energy=1.00D-06.
 No special actions if energy rises.
 SCF Done:  E(RB3LYP) =  -796.430500468     A.U. after   14 cycles
            NFock= 14  Conv=0.43D-08     -V/T= 2.0040
 DoSCS=F DFT=T ScalE2(SS,OS)=  1.000000  1.000000
 Range of M.O.s used for correlation:     1   753
 NBasis=   754 NAE=    60 NBE=    60 NFC=     0 NFV=     0
 NROrb=    753 NOA=    60 NOB=    60 NVA=   693 NVB=   693

 **** Warning!!: The largest alpha MO coefficient is  0.11169991D+03

 Symmetrizing basis deriv contribution to polar:
 IMax=3 JMax=2 DiffMx= 0.00D+00
 G2DrvN: will do    31 centers at a time, making    1 passes.
 Calling FoFCou, ICntrl=  3107 FMM=F I1Cent=   0 AccDes= 0.00D+00.
 End of G2Drv F.D. properties file   721 does not exist.
 End of G2Drv F.D. properties file   722 does not exist.
 End of G2Drv F.D. properties file   788 does not exist.
          IDoAtm=111111111111111111111111111111
          Differentiating once with respect to nuclear coordinates.
          There are    93 degrees of freedom in the 1st order CPHF.  IDoFFX=6 NUNeed=     0.
     87 vectors produced by pass  0 Test12= 4.47D-14 1.08D-09 XBig12= 1.87D-01 7.70D-02.
 AX will form    87 AO Fock derivatives at one time.
     87 vectors produced by pass  1 Test12= 4.47D-14 1.08D-09 XBig12= 2.25D-02 4.54D-02.
     87 vectors produced by pass  2 Test12= 4.47D-14 1.08D-09 XBig12= 3.20D-04 2.75D-03.
     87 vectors produced by pass  3 Test12= 4.47D-14 1.08D-09 XBig12= 1.63D-06 1.58D-04.
     87 vectors produced by pass  4 Test12= 4.47D-14 1.08D-09 XBig12= 4.83D-09 5.59D-06.
     86 vectors produced by pass  5 Test12= 4.47D-14 1.08D-09 XBig12= 9.98D-12 2.82D-07.
     45 vectors produced by pass  6 Test12= 4.47D-14 1.08D-09 XBig12= 1.67D-14 1.10D-08.
      5 vectors produced by pass  7 Test12= 4.47D-14 1.08D-09 XBig12= 3.80D-16 2.23D-09.
      3 vectors produced by pass  8 Test12= 4.47D-14 1.08D-09 XBig12= 7.11D-16 3.25D-09.
      3 vectors produced by pass  9 Test12= 4.47D-14 1.08D-09 XBig12= 3.67D-15 5.12D-09.
      3 vectors produced by pass 10 Test12= 4.47D-14 1.08D-09 XBig12= 1.69D-15 3.99D-09.
      3 vectors produced by pass 11 Test12= 4.47D-14 1.08D-09 XBig12= 1.71D-15 3.50D-09.
      2 vectors produced by pass 12 Test12= 4.47D-14 1.08D-09 XBig12= 1.24D-15 2.66D-09.
 InvSVY:  IOpt=1 It=  1 EMax= 6.11D-16
 Solved reduced A of dimension   585 with    93 vectors.
 End of Minotr F.D. properties file   721 does not exist.
 End of Minotr F.D. properties file   722 does not exist.
 End of Minotr F.D. properties file   788 does not exist.

 **********************************************************************

            Population analysis using the SCF density.

 **********************************************************************

 Alpha  occ. eigenvalues --  -19.20004 -19.14475 -19.09834 -14.37189 -14.35079
 Alpha  occ. eigenvalues --  -14.29799 -14.29133 -10.33092 -10.28128 -10.24600
 Alpha  occ. eigenvalues --  -10.22326 -10.21006 -10.20754 -10.19525 -10.18174
 Alpha  occ. eigenvalues --  -10.17563  -1.14295  -1.05516  -1.04811  -1.02054
 Alpha  occ. eigenvalues --   -0.94741  -0.89042  -0.87417  -0.82398  -0.76980
 Alpha  occ. eigenvalues --   -0.74823  -0.69222  -0.65675  -0.62042  -0.61538
 Alpha  occ. eigenvalues --   -0.60176  -0.58904  -0.55486  -0.53196  -0.52357
 Alpha  occ. eigenvalues --   -0.51073  -0.49499  -0.49333  -0.48713  -0.46246
 Alpha  occ. eigenvalues --   -0.45842  -0.44851  -0.44269  -0.43125  -0.42550
 Alpha  occ. eigenvalues --   -0.41679  -0.40953  -0.40446  -0.39476  -0.38955
 Alpha  occ. eigenvalues --   -0.36536  -0.35793  -0.35330  -0.31598  -0.28718
 Alpha  occ. eigenvalues --   -0.28284  -0.27255  -0.26846  -0.25151  -0.23189
 Alpha virt. eigenvalues --   -0.02878  -0.02565  -0.01554  -0.01074  -0.00187
 Alpha virt. eigenvalues --    0.00168   0.01079   0.01290   0.02079   0.02393
 Alpha virt. eigenvalues --    0.02444   0.03292   0.04028   0.04466   0.05128
 Alpha virt. eigenvalues --    0.05470   0.06040   0.06098   0.06828   0.07184
 Alpha virt. eigenvalues --    0.07672   0.08046   0.08283   0.08955   0.09465
 Alpha virt. eigenvalues --    0.09855   0.10214   0.10619   0.10668   0.11255
 Alpha virt. eigenvalues --    0.11376   0.11905   0.12178   0.12910   0.13243
 Alpha virt. eigenvalues --    0.13295   0.13915   0.14436   0.14661   0.14825
 Alpha virt. eigenvalues --    0.15028   0.15482   0.15858   0.16243   0.16695
 Alpha virt. eigenvalues --    0.16830   0.17037   0.17545   0.17722   0.18130
 Alpha virt. eigenvalues --    0.18442   0.18801   0.18927   0.19409   0.19823
 Alpha virt. eigenvalues --    0.20325   0.20702   0.20862   0.21026   0.21585
 Alpha virt. eigenvalues --    0.21917   0.22138   0.22257   0.23233   0.23518
 Alpha virt. eigenvalues --    0.24239   0.24343   0.24657   0.25309   0.25475
 Alpha virt. eigenvalues --    0.26154   0.26379   0.26891   0.27499   0.27843
 Alpha virt. eigenvalues --    0.27951   0.28189   0.28518   0.29204   0.29939
 Alpha virt. eigenvalues --    0.30151   0.30717   0.31040   0.31171   0.31609
 Alpha virt. eigenvalues --    0.32018   0.32396   0.32895   0.33480   0.33823
 Alpha virt. eigenvalues --    0.34540   0.35049   0.35230   0.35747   0.36116
 Alpha virt. eigenvalues --    0.36583   0.36808   0.37714   0.38189   0.39181
 Alpha virt. eigenvalues --    0.39431   0.40490   0.41411   0.42202   0.42636
 Alpha virt. eigenvalues --    0.43215   0.45231   0.46052   0.46368   0.46902
 Alpha virt. eigenvalues --    0.48435   0.48783   0.49666   0.50954   0.51988
 Alpha virt. eigenvalues --    0.52329   0.52846   0.53348   0.54727   0.54989
 Alpha virt. eigenvalues --    0.55452   0.55848   0.56807   0.57364   0.57646
 Alpha virt. eigenvalues --    0.58337   0.58625   0.58913   0.59143   0.60561
 Alpha virt. eigenvalues --    0.61423   0.62141   0.62739   0.63019   0.63322
 Alpha virt. eigenvalues --    0.63716   0.64558   0.65119   0.65323   0.65838
 Alpha virt. eigenvalues --    0.66600   0.66819   0.67057   0.67347   0.67609
 Alpha virt. eigenvalues --    0.68105   0.68897   0.69332   0.69912   0.71533
 Alpha virt. eigenvalues --    0.72218   0.72305   0.72992   0.73278   0.74679
 Alpha virt. eigenvalues --    0.74943   0.75608   0.76364   0.77034   0.78207
 Alpha virt. eigenvalues --    0.78679   0.79067   0.79926   0.79935   0.80655
 Alpha virt. eigenvalues --    0.81375   0.81612   0.83438   0.84185   0.84264
 Alpha virt. eigenvalues --    0.85140   0.86665   0.87306   0.88308   0.88625
 Alpha virt. eigenvalues --    0.89281   0.90323   0.90799   0.92066   0.92985
 Alpha virt. eigenvalues --    0.93572   0.93787   0.95008   0.96208   0.97187
 Alpha virt. eigenvalues --    0.98263   0.99326   1.00022   1.00671   1.01167
 Alpha virt. eigenvalues --    1.02268   1.02674   1.03811   1.04281   1.04978
 Alpha virt. eigenvalues --    1.06471   1.07354   1.07958   1.08457   1.09726
 Alpha virt. eigenvalues --    1.10256   1.10728   1.11177   1.11690   1.13453
 Alpha virt. eigenvalues --    1.13870   1.14614   1.16013   1.16834   1.17601
 Alpha virt. eigenvalues --    1.18312   1.18778   1.19429   1.20040   1.21204
 Alpha virt. eigenvalues --    1.21653   1.22348   1.22908   1.24399   1.24734
 Alpha virt. eigenvalues --    1.24761   1.26130   1.26998   1.27340   1.28480
 Alpha virt. eigenvalues --    1.29044   1.30131   1.31133   1.31533   1.32558
 Alpha virt. eigenvalues --    1.33353   1.33946   1.34614   1.35431   1.35743
 Alpha virt. eigenvalues --    1.36487   1.37996   1.38693   1.40215   1.40581
 Alpha virt. eigenvalues --    1.41653   1.42536   1.42944   1.43686   1.44146
 Alpha virt. eigenvalues --    1.45640   1.46237   1.46645   1.46859   1.47621
 Alpha virt. eigenvalues --    1.48818   1.50297   1.51165   1.51830   1.52930
 Alpha virt. eigenvalues --    1.53498   1.54277   1.54892   1.56703   1.57118
 Alpha virt. eigenvalues --    1.57861   1.58878   1.60252   1.61503   1.61920
 Alpha virt. eigenvalues --    1.63423   1.63789   1.65456   1.65908   1.67460
 Alpha virt. eigenvalues --    1.67808   1.68779   1.69876   1.70626   1.72580
 Alpha virt. eigenvalues --    1.73643   1.75198   1.76736   1.77490   1.78786
 Alpha virt. eigenvalues --    1.79549   1.80585   1.80894   1.80948   1.82909
 Alpha virt. eigenvalues --    1.84029   1.86150   1.88160   1.88807   1.92191
 Alpha virt. eigenvalues --    1.93819   1.95109   1.96994   1.98897   2.00271
 Alpha virt. eigenvalues --    2.03623   2.05783   2.09162   2.11047   2.12935
 Alpha virt. eigenvalues --    2.14345   2.16624   2.17369   2.20266   2.24386
 Alpha virt. eigenvalues --    2.27544   2.30499   2.42756   2.46031   2.47415
 Alpha virt. eigenvalues --    2.49073   2.50857   2.55511   2.56321   2.56920
 Alpha virt. eigenvalues --    2.58306   2.59426   2.60032   2.61389   2.62758
 Alpha virt. eigenvalues --    2.65828   2.67249   2.68232   2.69350   2.70680
 Alpha virt. eigenvalues --    2.72195   2.72971   2.73550   2.74526   2.75141
 Alpha virt. eigenvalues --    2.75567   2.76881   2.78950   2.79886   2.81486
 Alpha virt. eigenvalues --    2.81901   2.82129   2.83192   2.84361   2.86054
 Alpha virt. eigenvalues --    2.87296   2.87573   2.89119   2.90196   2.90281
 Alpha virt. eigenvalues --    2.91344   2.92510   2.92868   2.94127   2.95178
 Alpha virt. eigenvalues --    2.95448   2.96150   2.97387   2.97545   2.98504
 Alpha virt. eigenvalues --    2.99408   2.99949   3.00755   3.01979   3.02980
 Alpha virt. eigenvalues --    3.03954   3.05267   3.05623   3.06587   3.06965
 Alpha virt. eigenvalues --    3.07353   3.08460   3.09166   3.09673   3.10572
 Alpha virt. eigenvalues --    3.10871   3.11918   3.12681   3.13253   3.13715
 Alpha virt. eigenvalues --    3.13824   3.15317   3.15901   3.16924   3.18853
 Alpha virt. eigenvalues --    3.19418   3.19948   3.21638   3.21842   3.22170
 Alpha virt. eigenvalues --    3.22745   3.24217   3.25003   3.25247   3.26546
 Alpha virt. eigenvalues --    3.26836   3.27345   3.28059   3.29737   3.30079
 Alpha virt. eigenvalues --    3.31241   3.32298   3.32664   3.33595   3.34008
 Alpha virt. eigenvalues --    3.34270   3.35058   3.35922   3.36956   3.37479
 Alpha virt. eigenvalues --    3.37810   3.38952   3.39454   3.40477   3.40745
 Alpha virt. eigenvalues --    3.42250   3.42309   3.43275   3.44388   3.45524
 Alpha virt. eigenvalues --    3.46186   3.46356   3.47246   3.48508   3.49843
 Alpha virt. eigenvalues --    3.50936   3.52696   3.52946   3.53401   3.53797
 Alpha virt. eigenvalues --    3.54610   3.55812   3.56787   3.56853   3.57307
 Alpha virt. eigenvalues --    3.58592   3.58959   3.59895   3.61022   3.61674
 Alpha virt. eigenvalues --    3.62479   3.63020   3.64077   3.65032   3.65560
 Alpha virt. eigenvalues --    3.66632   3.67268   3.67863   3.68269   3.68625
 Alpha virt. eigenvalues --    3.69723   3.70549   3.70970   3.71902   3.72340
 Alpha virt. eigenvalues --    3.73418   3.74642   3.75974   3.77053   3.77736
 Alpha virt. eigenvalues --    3.78226   3.79290   3.79957   3.80747   3.81200
 Alpha virt. eigenvalues --    3.83423   3.84534   3.85266   3.86040   3.86220
 Alpha virt. eigenvalues --    3.87501   3.89312   3.89688   3.90237   3.90954
 Alpha virt. eigenvalues --    3.91877   3.92658   3.93784   3.94651   3.95050
 Alpha virt. eigenvalues --    3.95572   3.97562   3.97788   3.98925   3.99650
 Alpha virt. eigenvalues --    4.00471   4.00791   4.02291   4.03069   4.03717
 Alpha virt. eigenvalues --    4.04086   4.05393   4.05861   4.07117   4.07484
 Alpha virt. eigenvalues --    4.08652   4.09358   4.10050   4.10953   4.12370
 Alpha virt. eigenvalues --    4.13497   4.14252   4.15205   4.17147   4.18236
 Alpha virt. eigenvalues --    4.18483   4.19998   4.21755   4.22526   4.23821
 Alpha virt. eigenvalues --    4.23932   4.25813   4.27451   4.29140   4.29387
 Alpha virt. eigenvalues --    4.29962   4.30807   4.32490   4.32795   4.33749
 Alpha virt. eigenvalues --    4.35689   4.37795   4.38330   4.39107   4.40384
 Alpha virt. eigenvalues --    4.43084   4.44917   4.45490   4.48401   4.49637
 Alpha virt. eigenvalues --    4.51537   4.52423   4.53936   4.54258   4.56585
 Alpha virt. eigenvalues --    4.56887   4.58874   4.59090   4.62710   4.63846
 Alpha virt. eigenvalues --    4.65053   4.66149   4.67947   4.69067   4.71733
 Alpha virt. eigenvalues --    4.72410   4.75012   4.76045   4.76918   4.79613
 Alpha virt. eigenvalues --    4.79884   4.81878   4.84639   4.85567   4.87310
 Alpha virt. eigenvalues --    4.90662   4.90990   4.92181   4.92874   4.93870
 Alpha virt. eigenvalues --    4.94493   4.96760   4.97534   4.98738   5.00128
 Alpha virt. eigenvalues --    5.01702   5.02267   5.02942   5.04610   5.04734
 Alpha virt. eigenvalues --    5.05312   5.06840   5.07047   5.07876   5.08291
 Alpha virt. eigenvalues --    5.08839   5.09181   5.09745   5.11064   5.13513
 Alpha virt. eigenvalues --    5.14989   5.15910   5.17100   5.17886   5.18118
 Alpha virt. eigenvalues --    5.19849   5.20364   5.21333   5.23059   5.23275
 Alpha virt. eigenvalues --    5.25171   5.25708   5.26480   5.26807   5.28132
 Alpha virt. eigenvalues --    5.29337   5.30217   5.31789   5.32546   5.33480
 Alpha virt. eigenvalues --    5.35382   5.37409   5.38705   5.39815   5.41739
 Alpha virt. eigenvalues --    5.42030   5.44348   5.45272   5.48321   5.49073
 Alpha virt. eigenvalues --    5.51438   5.52870   5.54923   5.55336   5.56920
 Alpha virt. eigenvalues --    5.57414   5.58903   5.60901   5.62834   5.63300
 Alpha virt. eigenvalues --    5.66352   5.67685   5.69187   5.70172   5.72843
 Alpha virt. eigenvalues --    5.78047   5.79553   5.81467   5.82727   5.85912
 Alpha virt. eigenvalues --    5.87040   5.89658   5.91283   5.92489   5.95910
 Alpha virt. eigenvalues --    5.96603   5.97556   6.02020   6.07296   6.11509
 Alpha virt. eigenvalues --    6.13593   6.16269   6.20406   6.24810   6.30143
 Alpha virt. eigenvalues --    6.32023   6.33316   6.35554   6.37310   6.40948
 Alpha virt. eigenvalues --    6.43157   6.43445   6.45078   6.47550   6.49523
 Alpha virt. eigenvalues --    6.55962   6.58902   6.68467   6.74176   6.80719
 Alpha virt. eigenvalues --    6.88250   6.90383   6.94987   6.95826   6.98943
 Alpha virt. eigenvalues --    7.04150   7.07211   7.15416   7.16266   7.21820
 Alpha virt. eigenvalues --    7.23348   7.28672   7.29199   7.31414   7.32657
 Alpha virt. eigenvalues --    7.57042   7.58340   7.59602   7.67412   7.73587
 Alpha virt. eigenvalues --    7.73828   7.99935  24.54572  24.72320  24.83126
 Alpha virt. eigenvalues --   24.91630  25.04866  25.07656  25.11371  25.14906
 Alpha virt. eigenvalues --   25.16260  36.01005  36.26066  36.29730  36.46950
 Alpha virt. eigenvalues --   50.17444  50.21566  50.28689
          Condensed to atoms (all electrons):
               1          2          3          4          5          6
     1  O    8.104184   0.394896  -0.119785   0.047735   0.002233  -0.000976
     2  C    0.394896   7.810204   0.354055  -1.041703   0.124598  -0.002065
     3  N   -0.119785   0.354055   6.669280  -0.269707  -0.031521  -0.002420
     4  C    0.047735  -1.041703  -0.269707   9.870916  -1.307058   0.222979
     5  C    0.002233   0.124598  -0.031521  -1.307058   6.850754   0.103279
     6  O   -0.000976  -0.002065  -0.002420   0.222979   0.103279   7.838770
     7  O   -0.001337  -0.003328   0.007220  -0.031406   0.509230  -0.111610
     8  C   -0.017697   0.021271  -0.082104   0.015737  -0.578630  -0.045085
     9  C   -0.012174   0.236647   0.008160  -0.997519   0.277222  -0.023353
    10  C   -0.066897  -0.029688   0.094444  -0.401283  -0.208185   0.010132
    11  N    0.002416   0.016808  -0.006905  -0.012762   0.005333   0.000063
    12  C    0.000750   0.006815   0.008360  -0.145430  -0.025821  -0.000242
    13  N   -0.000301  -0.004755   0.007224  -0.010376   0.000477  -0.000474
    14  C    0.060423  -1.473489  -0.083877   0.029571   0.092893  -0.003005
    15  C   -0.034386   0.146917  -0.052972  -0.044754  -0.027463   0.000626
    16  N    0.001526  -0.001834   0.000157   0.002200   0.000568   0.000002
    17  H    0.002878  -0.100197   0.311558  -0.061655   0.010226  -0.002433
    18  H   -0.018063  -0.077155  -0.066183   0.489327  -0.037217  -0.017711
    19  H   -0.000101   0.002170   0.003358  -0.162952   0.134538   0.205836
    20  H    0.001341   0.009863   0.035650  -0.069001  -0.031865   0.008772
    21  H   -0.000958  -0.014111  -0.021373   0.073818  -0.016690  -0.003878
    22  H    0.032151   0.057448  -0.005380  -0.027616  -0.000792   0.002231
    23  H    0.000040   0.000185  -0.000169  -0.000307   0.000126  -0.000014
    24  H    0.000024   0.000358   0.000515  -0.018257   0.000622   0.000206
    25  H    0.003992  -0.080859  -0.020746   0.052524  -0.014483   0.000329
    26  H    0.000253  -0.127237   0.016887   0.023837   0.002508  -0.000014
    27  H   -0.008585  -0.008435   0.005888   0.004080   0.000743   0.000089
    28  H    0.004457   0.022702   0.000196  -0.002674   0.000643  -0.000045
    29  H   -0.000052  -0.000770  -0.000240  -0.000886   0.000244  -0.000007
    30  H    0.000744  -0.002030  -0.000100  -0.000537  -0.000038   0.000002
               7          8          9         10         11         12
     1  O   -0.001337  -0.017697  -0.012174  -0.066897   0.002416   0.000750
     2  C   -0.003328   0.021271   0.236647  -0.029688   0.016808   0.006815
     3  N    0.007220  -0.082104   0.008160   0.094444  -0.006905   0.008360
     4  C   -0.031406   0.015737  -0.997519  -0.401283  -0.012762  -0.145430
     5  C    0.509230  -0.578630   0.277222  -0.208185   0.005333  -0.025821
     6  O   -0.111610  -0.045085  -0.023353   0.010132   0.000063  -0.000242
     7  O    8.060368  -0.087840  -0.007221  -0.006146  -0.000025   0.000010
     8  C   -0.087840   5.836758   0.194553   0.270409  -0.031672  -0.006672
     9  C   -0.007221   0.194553   7.697315  -1.086175   0.171844  -0.507896
    10  C   -0.006146   0.270409  -1.086175   7.315620   0.268653  -0.036306
    11  N   -0.000025  -0.031672   0.171844   0.268653   6.854017   0.173781
    12  C    0.000010  -0.006672  -0.507896  -0.036306   0.173781   5.545397
    13  N    0.000015  -0.052236   0.274567  -0.231182   0.026052   0.361353
    14  C    0.003744  -0.132989  -0.141844  -0.107998  -0.003923  -0.024081
    15  C    0.001882   0.003517  -0.004357   0.002844  -0.000272   0.001313
    16  N    0.000001  -0.000520   0.000198  -0.000463   0.000004  -0.000008
    17  H    0.003277   0.019597   0.000642   0.013381  -0.000450  -0.000497
    18  H    0.000308  -0.001465   0.042734  -0.051191   0.002959   0.000447
    19  H    0.027188  -0.013949   0.013134  -0.001283   0.000012   0.000038
    20  H    0.002516   0.379708  -0.032830   0.001262   0.000146   0.008314
    21  H   -0.002355   0.357478  -0.069076  -0.036067   0.001026   0.003123
    22  H   -0.001686  -0.024618  -0.179908   0.515191  -0.097913   0.053158
    23  H    0.000003   0.004605   0.025533   0.006570  -0.071841   0.446193
    24  H   -0.000042   0.001129  -0.111902   0.063343  -0.002545  -0.017634
    25  H    0.001010  -0.003836  -0.004799  -0.000680  -0.000060  -0.000199
    26  H    0.000463  -0.002924   0.004907  -0.011470  -0.000428  -0.001428
    27  H    0.000131   0.000788   0.000277  -0.000749   0.000053   0.000041
    28  H   -0.000049   0.000553   0.001786   0.001308   0.000159  -0.000057
    29  H   -0.000011   0.000101  -0.000028   0.000029  -0.000002  -0.000008
    30  H    0.000006  -0.000049   0.000107  -0.000091   0.000004   0.000012
              13         14         15         16         17         18
     1  O   -0.000301   0.060423  -0.034386   0.001526   0.002878  -0.018063
     2  C   -0.004755  -1.473489   0.146917  -0.001834  -0.100197  -0.077155
     3  N    0.007224  -0.083877  -0.052972   0.000157   0.311558  -0.066183
     4  C   -0.010376   0.029571  -0.044754   0.002200  -0.061655   0.489327
     5  C    0.000477   0.092893  -0.027463   0.000568   0.010226  -0.037217
     6  O   -0.000474  -0.003005   0.000626   0.000002  -0.002433  -0.017711
     7  O    0.000015   0.003744   0.001882   0.000001   0.003277   0.000308
     8  C   -0.052236  -0.132989   0.003517  -0.000520   0.019597  -0.001465
     9  C    0.274567  -0.141844  -0.004357   0.000198   0.000642   0.042734
    10  C   -0.231182  -0.107998   0.002844  -0.000463   0.013381  -0.051191
    11  N    0.026052  -0.003923  -0.000272   0.000004  -0.000450   0.002959
    12  C    0.361353  -0.024081   0.001313  -0.000008  -0.000497   0.000447
    13  N    6.309310   0.000996   0.000340  -0.000001   0.001853  -0.000923
    14  C    0.000996   6.663223   0.054379  -0.002910   0.060835  -0.023134
    15  C    0.000340   0.054379   5.350237   0.229087  -0.024503  -0.000123
    16  N   -0.000001  -0.002910   0.229087   6.306571   0.000706   0.000240
    17  H    0.001853   0.060835  -0.024503   0.000706   0.609234  -0.000552
    18  H   -0.000923  -0.023134  -0.000123   0.000240  -0.000552   0.645191
    19  H   -0.000098  -0.000756   0.000074   0.000000   0.001033   0.003258
    20  H    0.006935   0.001534   0.000077  -0.000016   0.004519  -0.028655
    21  H   -0.004186   0.004742   0.000402   0.000060  -0.008871   0.019206
    22  H    0.011092  -0.012329   0.001959   0.000092   0.001144  -0.027337
    23  H   -0.079080  -0.000585  -0.000012  -0.000001   0.000028   0.000389
    24  H    0.415231  -0.001066  -0.000051  -0.000001   0.000685  -0.000757
    25  H   -0.000245   0.384690   0.004450  -0.017380  -0.005194   0.004010
    26  H    0.000172   0.478238  -0.071555   0.007126   0.001624  -0.000840
    27  H    0.000006   0.006168   0.343847  -0.078072   0.003531  -0.000508
    28  H   -0.000019  -0.061619   0.432387  -0.056269  -0.000501   0.000474
    29  H    0.000002   0.000214  -0.057237   0.382350   0.000713  -0.000127
    30  H    0.000000  -0.015624  -0.026786   0.393743  -0.000487   0.000015
              19         20         21         22         23         24
     1  O   -0.000101   0.001341  -0.000958   0.032151   0.000040   0.000024
     2  C    0.002170   0.009863  -0.014111   0.057448   0.000185   0.000358
     3  N    0.003358   0.035650  -0.021373  -0.005380  -0.000169   0.000515
     4  C   -0.162952  -0.069001   0.073818  -0.027616  -0.000307  -0.018257
     5  C    0.134538  -0.031865  -0.016690  -0.000792   0.000126   0.000622
     6  O    0.205836   0.008772  -0.003878   0.002231  -0.000014   0.000206
     7  O    0.027188   0.002516  -0.002355  -0.001686   0.000003  -0.000042
     8  C   -0.013949   0.379708   0.357478  -0.024618   0.004605   0.001129
     9  C    0.013134  -0.032830  -0.069076  -0.179908   0.025533  -0.111902
    10  C   -0.001283   0.001262  -0.036067   0.515191   0.006570   0.063343
    11  N    0.000012   0.000146   0.001026  -0.097913  -0.071841  -0.002545
    12  C    0.000038   0.008314   0.003123   0.053158   0.446193  -0.017634
    13  N   -0.000098   0.006935  -0.004186   0.011092  -0.079080   0.415231
    14  C   -0.000756   0.001534   0.004742  -0.012329  -0.000585  -0.001066
    15  C    0.000074   0.000077   0.000402   0.001959  -0.000012  -0.000051
    16  N    0.000000  -0.000016   0.000060   0.000092  -0.000001  -0.000001
    17  H    0.001033   0.004519  -0.008871   0.001144   0.000028   0.000685
    18  H    0.003258  -0.028655   0.019206  -0.027337   0.000389  -0.000757
    19  H    0.562012  -0.001102  -0.000779  -0.000477   0.000001   0.000027
    20  H   -0.001102   0.738025  -0.106529   0.004054  -0.000678   0.000200
    21  H   -0.000779  -0.106529   0.770867  -0.002226  -0.000057  -0.002718
    22  H   -0.000477   0.004054  -0.002226   0.603070   0.000184   0.002433
    23  H    0.000001  -0.000678  -0.000057   0.000184   0.562423  -0.002995
    24  H    0.000027   0.000200  -0.002718   0.002433  -0.002995   0.548305
    25  H   -0.000214  -0.000482   0.001779  -0.004897  -0.000016  -0.000094
    26  H   -0.000003   0.000112   0.000025  -0.000569  -0.000056   0.000007
    27  H   -0.000020  -0.000032  -0.000094   0.002032   0.000004   0.000007
    28  H    0.000020  -0.000023  -0.000035  -0.002789   0.000002   0.000002
    29  H    0.000002   0.000007  -0.000018   0.000033   0.000000   0.000000
    30  H    0.000002  -0.000001   0.000005  -0.000156   0.000000   0.000000
              25         26         27         28         29         30
     1  O    0.003992   0.000253  -0.008585   0.004457  -0.000052   0.000744
     2  C   -0.080859  -0.127237  -0.008435   0.022702  -0.000770  -0.002030
     3  N   -0.020746   0.016887   0.005888   0.000196  -0.000240  -0.000100
     4  C    0.052524   0.023837   0.004080  -0.002674  -0.000886  -0.000537
     5  C   -0.014483   0.002508   0.000743   0.000643   0.000244  -0.000038
     6  O    0.000329  -0.000014   0.000089  -0.000045  -0.000007   0.000002
     7  O    0.001010   0.000463   0.000131  -0.000049  -0.000011   0.000006
     8  C   -0.003836  -0.002924   0.000788   0.000553   0.000101  -0.000049
     9  C   -0.004799   0.004907   0.000277   0.001786  -0.000028   0.000107
    10  C   -0.000680  -0.011470  -0.000749   0.001308   0.000029  -0.000091
    11  N   -0.000060  -0.000428   0.000053   0.000159  -0.000002   0.000004
    12  C   -0.000199  -0.001428   0.000041  -0.000057  -0.000008   0.000012
    13  N   -0.000245   0.000172   0.000006  -0.000019   0.000002   0.000000
    14  C    0.384690   0.478238   0.006168  -0.061619   0.000214  -0.015624
    15  C    0.004450  -0.071555   0.343847   0.432387  -0.057237  -0.026786
    16  N   -0.017380   0.007126  -0.078072  -0.056269   0.382350   0.393743
    17  H   -0.005194   0.001624   0.003531  -0.000501   0.000713  -0.000487
    18  H    0.004010  -0.000840  -0.000508   0.000474  -0.000127   0.000015
    19  H   -0.000214  -0.000003  -0.000020   0.000020   0.000002   0.000002
    20  H   -0.000482   0.000112  -0.000032  -0.000023   0.000007  -0.000001
    21  H    0.001779   0.000025  -0.000094  -0.000035  -0.000018   0.000005
    22  H   -0.004897  -0.000569   0.002032  -0.002789   0.000033  -0.000156
    23  H   -0.000016  -0.000056   0.000004   0.000002   0.000000   0.000000
    24  H   -0.000094   0.000007   0.000007   0.000002   0.000000   0.000000
    25  H    0.775959  -0.062409  -0.042095   0.017076   0.007522   0.003434
    26  H   -0.062409   0.661346   0.018000  -0.014139  -0.002420   0.001144
    27  H   -0.042095   0.018000   0.785234  -0.063193  -0.010340  -0.003351
    28  H    0.017076  -0.014139  -0.063193   0.648664   0.012473  -0.008469
    29  H    0.007522  -0.002420  -0.010340   0.012473   0.632451  -0.055699
    30  H    0.003434   0.001144  -0.003351  -0.008469  -0.055699   0.607628
 Mulliken charges:
               1
     1  O   -0.378731
     2  C   -0.237280
     3  N    0.240528
     4  C   -0.226839
     5  C    0.163527
     6  O   -0.179981
     7  O   -0.364314
     8  C   -0.023918
     9  C    0.229457
    10  C   -0.287330
    11  N   -0.294533
    12  C    0.157172
    13  N   -0.031749
    14  C    0.247579
    15  C   -0.229866
    16  N   -0.167155
    17  H    0.157873
    18  H    0.143384
    19  H    0.229031
    20  H    0.068179
    21  H    0.057492
    22  H    0.102420
    23  H    0.109527
    24  H    0.124968
    25  H    0.001914
    26  H    0.078842
    27  H    0.044553
    28  H    0.066976
    29  H    0.091704
    30  H    0.106572
 Sum of Mulliken charges =   0.00000
 Mulliken charges with hydrogens summed into heavy atoms:
               1
     1  O   -0.378731
     2  C   -0.237280
     3  N    0.398401
     4  C   -0.083456
     5  C    0.163527
     6  O    0.049050
     7  O   -0.364314
     8  C    0.101753
     9  C    0.229457
    10  C   -0.184910
    11  N   -0.294533
    12  C    0.266699
    13  N    0.093219
    14  C    0.328335
    15  C   -0.118338
    16  N    0.031121
 APT charges:
               1
     1  O   -0.450174
     2  C    0.031972
     3  N   -0.178161
     4  C   -0.472828
     5  C   -0.129593
     6  O   -0.679842
     7  O   -0.293714
     8  C   -0.669818
     9  C    0.261860
    10  C    0.002886
    11  N   -0.642027
    12  C   -0.315094
    13  N   -0.760996
    14  C   -0.464386
    15  C   -0.242380
    16  N   -1.435527
    17  H    0.383524
    18  H    0.297192
    19  H    0.907983
    20  H    0.479263
    21  H    0.318272
    22  H    0.034542
    23  H    0.976819
    24  H    0.775624
    25  H    0.251050
    26  H    0.249404
    27  H    0.263477
    28  H    0.243897
    29  H    0.411990
    30  H    0.844785
 Sum of APT charges =   0.00000
 APT charges with hydrogens summed into heavy atoms:
               1
     1  O   -0.450174
     2  C    0.031972
     3  N    0.205363
     4  C   -0.175635
     5  C   -0.129593
     6  O    0.228141
     7  O   -0.293714
     8  C    0.127718
     9  C    0.261860
    10  C    0.037428
    11  N   -0.642027
    12  C    0.661724
    13  N    0.014628
    14  C    0.036068
    15  C    0.264993
    16  N   -0.178751
 Electronic spatial extent (au):  <R**2>=           4716.8611
 Charge=              0.0000 electrons
 Dipole moment (field-independent basis, Debye):
    X=             -1.6368    Y=             -5.3638    Z=             -2.2686  Tot=              6.0495
 Quadrupole moment (field-independent basis, Debye-Ang):
   XX=            -75.1185   YY=           -105.4831   ZZ=            -92.6940
   XY=              7.3154   XZ=             12.4640   YZ=             -3.5092
 Traceless Quadrupole moment (field-independent basis, Debye-Ang):
   XX=             15.9800   YY=            -14.3846   ZZ=             -1.5954
   XY=              7.3154   XZ=             12.4640   YZ=             -3.5092
 Octapole moment (field-independent basis, Debye-Ang**2):
  XXX=             71.9173  YYY=            -61.0943  ZZZ=            -18.0672  XYY=             19.5850
  XXY=            -25.1555  XXZ=            -19.4806  XZZ=              6.0269  YZZ=             -8.7242
  YYZ=             22.5948  XYZ=             22.5125
 Hexadecapole moment (field-independent basis, Debye-Ang**3):
 XXXX=          -3154.4018 YYYY=          -1928.8184 ZZZZ=           -578.0660 XXXY=            -38.1870
 XXXZ=             28.3646 YYYX=            253.9905 YYYZ=             99.4010 ZZZX=           -290.3728
 ZZZY=            184.4455 XXYY=           -941.7798 XXZZ=           -606.4656 YYZZ=           -363.3673
 XXYZ=             72.4116 YYXZ=           -105.7067 ZZXY=              1.0172
 N-N= 1.109201310669D+03 E-N=-4.079536510130D+03  KE= 7.932514834390D+02
  Exact polarizability:   0.000   0.000   0.000   0.000   0.000   0.000
 Approx polarizability: 209.539  -0.345 227.120  11.328  13.447 199.977
 Calling FoFJK, ICntrl=    100147 FMM=F ISym2X=0 I1Cent= 0 IOpClX= 0 NMat=1 NMatS=1 NMatT=0.
 -------------------------------------------------------------------
 Center     Atomic                   Forces (Hartrees/Bohr)
 Number     Number              X              Y              Z
 -------------------------------------------------------------------
      1        8           0.003262458   -0.006590225   -0.007767909
      2        6          -0.000880838    0.008801072    0.005684502
      3        7          -0.001747547   -0.004428661    0.002001436
      4        6           0.001186466    0.002436940   -0.003882941
      5        6          -0.002136323    0.000279281    0.001981060
      6        8           0.002927632    0.000901845   -0.001940145
      7        8           0.000083051    0.000220954    0.000154522
      8        6          -0.006644400    0.008408512   -0.000351873
      9        6           0.000990449   -0.004381953    0.000085757
     10        6           0.005532115    0.002546470    0.004576834
     11        7          -0.000400833   -0.005373020   -0.000737202
     12        6          -0.000117995    0.007442470    0.000664884
     13        7          -0.000805169   -0.007624436   -0.001888000
     14        6          -0.001772090   -0.000066263    0.000817138
     15        6          -0.001484491    0.001599055    0.000035627
     16        7           0.001628642   -0.001249426    0.003149008
     17        1           0.000328173    0.000921808    0.000839220
     18        1           0.000905387   -0.000635119   -0.000181621
     19        1          -0.001836818   -0.004070789    0.002066838
     20        1           0.000672935   -0.001356661    0.000614676
     21        1           0.002131934   -0.001807725   -0.001147414
     22        1          -0.002654560    0.003005173   -0.001108986
     23        1          -0.000402261    0.000376473   -0.000290073
     24        1          -0.000184234    0.001091679   -0.000047210
     25        1           0.000361376    0.000137653   -0.000555534
     26        1          -0.000375318   -0.000631086   -0.000335395
     27        1          -0.000136793    0.000859936    0.000213891
     28        1           0.001183477   -0.002291518   -0.000310513
     29        1           0.000379307    0.000292993   -0.001579343
     30        1           0.000006269    0.001184567   -0.000761233
 -------------------------------------------------------------------
 Cartesian Forces:  Max     0.008801072 RMS     0.002849467
 FormGI is forming the generalized inverse of G from B-inverse, IUseBI=4.

 GradGradGradGradGradGradGradGradGradGradGradGradGradGradGradGradGradGrad
 Berny optimization.
 Internal  Forces:  Max     0.010511032 RMS     0.001651921
 Search for a local minimum.
 Step number   1 out of a maximum of  160
 All quantities printed in internal units (Hartrees-Bohrs-Radians)
 Mixed Optimization -- RFO/linear search
 Second derivative matrix not updated -- analytic derivatives used.
 ITU=  0
     Eigenvalues ---   -0.00028   0.00094   0.00199   0.00214   0.00238
     Eigenvalues ---    0.00360   0.00470   0.00527   0.00703   0.00907
     Eigenvalues ---    0.01616   0.01992   0.02077   0.02686   0.03211
     Eigenvalues ---    0.03385   0.03908   0.04061   0.04176   0.04342
     Eigenvalues ---    0.04440   0.04512   0.05089   0.05124   0.05279
     Eigenvalues ---    0.05416   0.05691   0.06205   0.07619   0.08046
     Eigenvalues ---    0.08118   0.10232   0.10674   0.11132   0.11639
     Eigenvalues ---    0.11848   0.12191   0.13438   0.14931   0.15220
     Eigenvalues ---    0.15572   0.16509   0.17652   0.18110   0.18383
     Eigenvalues ---    0.20024   0.21098   0.21636   0.22635   0.22947
     Eigenvalues ---    0.23838   0.24064   0.24245   0.26322   0.28935
     Eigenvalues ---    0.29480   0.31099   0.32396   0.32581   0.32852
     Eigenvalues ---    0.33133   0.33215   0.33527   0.33710   0.33862
     Eigenvalues ---    0.34714   0.35628   0.36491   0.36991   0.37060
     Eigenvalues ---    0.39604   0.40388   0.41805   0.44221   0.44424
     Eigenvalues ---    0.44831   0.45743   0.46375   0.47569   0.47624
     Eigenvalues ---    0.52360   0.57956   0.77394   0.87102
 RFO step:  Lambda=-2.37744729D-03 EMin=-2.75477570D-04
 Linear search not attempted -- first point.
 Iteration  1 RMS(Cart)=  0.13504057 RMS(Int)=  0.02512715
 Iteration  2 RMS(Cart)=  0.06623158 RMS(Int)=  0.00245927
 Iteration  3 RMS(Cart)=  0.00334845 RMS(Int)=  0.00028395
 Iteration  4 RMS(Cart)=  0.00000647 RMS(Int)=  0.00028391
 Iteration  5 RMS(Cart)=  0.00000000 RMS(Int)=  0.00028391
 Variable       Old X    -DE/DX   Delta X   Delta X   Delta X     New X
                                 (Linear)    (Quad)   (Total)
    R1        2.31812  -0.01051   0.00000  -0.01324  -0.01324   2.30488
    R2        2.57906   0.00181   0.00000   0.00187   0.00187   2.58093
    R3        2.86484  -0.00049   0.00000  -0.00346  -0.00346   2.86138
    R4        2.73253  -0.00040   0.00000  -0.00903  -0.00903   2.72350
    R5        1.90597  -0.00099   0.00000  -0.00418  -0.00418   1.90179
    R6        2.86430   0.00293   0.00000   0.00925   0.00925   2.87355
    R7        2.90278   0.00163   0.00000   0.00820   0.00820   2.91098
    R8        2.05876  -0.00059   0.00000  -0.00102  -0.00102   2.05774
    R9        2.54863   0.00032   0.00000  -0.00357  -0.00357   2.54507
   R10        2.27374  -0.00014   0.00000  -0.00018  -0.00018   2.27356
   R11        1.82376   0.00395   0.00000   0.00615   0.00615   1.82990
   R12        2.83481  -0.00338   0.00000  -0.01749  -0.01749   2.81732
   R13        2.06385   0.00033   0.00000   0.00106   0.00106   2.06492
   R14        2.06272   0.00212   0.00000   0.00702   0.00702   2.06974
   R15        2.57926   0.00491   0.00000   0.00969   0.00969   2.58894
   R16        2.61010   0.00196   0.00000   0.00159   0.00158   2.61168
   R17        2.61332  -0.00180   0.00000  -0.00610  -0.00609   2.60723
   R18        2.04086  -0.00259   0.00000  -0.00675  -0.00675   2.03412
   R19        2.47726  -0.00148   0.00000  -0.00617  -0.00616   2.47110
   R20        2.56725   0.00488   0.00000   0.01433   0.01433   2.58158
   R21        2.03397   0.00062   0.00000   0.00128   0.00128   2.03526
   R22        1.90059  -0.00050   0.00000  -0.00122  -0.00122   1.89938
   R23        2.87419   0.00170   0.00000   0.00771   0.00771   2.88190
   R24        2.06530   0.00026   0.00000  -0.00087  -0.00087   2.06443
   R25        2.06534  -0.00020   0.00000  -0.00065  -0.00065   2.06469
   R26        2.76896   0.00141   0.00000  -0.00415  -0.00415   2.76481
   R27        2.07330  -0.00045   0.00000   0.00208   0.00208   2.07538
   R28        2.06338  -0.00243   0.00000  -0.00758  -0.00758   2.05580
   R29        1.91558   0.00037   0.00000  -0.00152  -0.00152   1.91406
   R30        1.91424  -0.00006   0.00000  -0.00248  -0.00248   1.91176
    A1        2.13752  -0.00145   0.00000  -0.00197  -0.00200   2.13552
    A2        2.14281  -0.00048   0.00000  -0.00827  -0.00831   2.13450
    A3        2.00104   0.00197   0.00000   0.01106   0.01102   2.01206
    A4        2.11912   0.00152   0.00000   0.01220   0.01040   2.12952
    A5        2.05303  -0.00159   0.00000   0.00976   0.00779   2.06082
    A6        2.01368   0.00053   0.00000   0.02360   0.02183   2.03551
    A7        1.90692   0.00021   0.00000   0.00577   0.00576   1.91268
    A8        1.96862  -0.00015   0.00000  -0.00115  -0.00118   1.96744
    A9        1.87900  -0.00017   0.00000  -0.00699  -0.00698   1.87202
   A10        1.89743   0.00029   0.00000   0.00553   0.00551   1.90295
   A11        1.90690  -0.00068   0.00000  -0.01181  -0.01182   1.89508
   A12        1.90427   0.00047   0.00000   0.00804   0.00806   1.91233
   A13        1.94570   0.00219   0.00000   0.00435   0.00435   1.95005
   A14        2.18723  -0.00124   0.00000  -0.00614  -0.00614   2.18109
   A15        2.14973  -0.00094   0.00000   0.00190   0.00190   2.15163
   A16        1.84970   0.00536   0.00000   0.02901   0.02901   1.87872
   A17        1.96837   0.00277   0.00000   0.00455   0.00453   1.97289
   A18        1.89393  -0.00106   0.00000  -0.00491  -0.00508   1.88885
   A19        1.91810  -0.00305   0.00000  -0.02914  -0.02919   1.88891
   A20        1.90354  -0.00005   0.00000   0.02076   0.02070   1.92425
   A21        1.91643   0.00059   0.00000   0.00759   0.00751   1.92394
   A22        1.86011   0.00069   0.00000   0.00129   0.00099   1.86110
   A23        2.32418   0.00281   0.00000   0.00852   0.00853   2.33270
   A24        2.13396  -0.00340   0.00000  -0.01228  -0.01228   2.12169
   A25        1.82494   0.00059   0.00000   0.00369   0.00367   1.82862
   A26        1.93771  -0.00229   0.00000  -0.00835  -0.00834   1.92937
   A27        2.20286   0.00439   0.00000   0.02771   0.02771   2.23056
   A28        2.14258  -0.00210   0.00000  -0.01935  -0.01935   2.12322
   A29        1.83324   0.00417   0.00000   0.01404   0.01406   1.84730
   A30        1.94874  -0.00153   0.00000  -0.00713  -0.00712   1.94162
   A31        2.19938   0.00072   0.00000   0.00524   0.00524   2.20461
   A32        2.13506   0.00081   0.00000   0.00189   0.00189   2.13695
   A33        1.88015  -0.00094   0.00000  -0.00225  -0.00227   1.87788
   A34        2.19401   0.00141   0.00000   0.00709   0.00710   2.20111
   A35        2.20902  -0.00047   0.00000  -0.00484  -0.00483   2.20419
   A36        1.96585  -0.00060   0.00000  -0.01381  -0.01390   1.95195
   A37        1.91474   0.00071   0.00000   0.02508   0.02514   1.93988
   A38        1.88911  -0.00040   0.00000  -0.01375  -0.01386   1.87526
   A39        1.92621  -0.00001   0.00000   0.00212   0.00216   1.92837
   A40        1.89900   0.00072   0.00000  -0.00023  -0.00044   1.89856
   A41        1.86576  -0.00043   0.00000   0.00070   0.00078   1.86654
   A42        1.90467   0.00183   0.00000   0.01425   0.01423   1.91890
   A43        1.90662  -0.00042   0.00000  -0.00195  -0.00198   1.90464
   A44        1.89545   0.00006   0.00000  -0.00275  -0.00275   1.89270
   A45        1.98457  -0.00028   0.00000  -0.00034  -0.00037   1.98420
   A46        1.90074  -0.00100   0.00000  -0.00415  -0.00416   1.89659
   A47        1.86982  -0.00023   0.00000  -0.00565  -0.00567   1.86415
   A48        1.91673   0.00194   0.00000   0.02402   0.02365   1.94037
   A49        1.91952   0.00105   0.00000   0.01556   0.01519   1.93471
   A50        1.84707  -0.00013   0.00000   0.01984   0.01912   1.86619
    D1       -0.25950   0.00201   0.00000   0.12932   0.12923  -0.13027
    D2       -2.92009   0.00084   0.00000   0.01759   0.01772  -2.90237
    D3        2.94530   0.00137   0.00000   0.11557   0.11545   3.06074
    D4        0.28471   0.00020   0.00000   0.00385   0.00393   0.28864
    D5        0.47831  -0.00027   0.00000   0.28813   0.28823   0.76654
    D6        2.63126  -0.00018   0.00000   0.29959   0.29962   2.93088
    D7       -1.62201  -0.00053   0.00000   0.30636   0.30627  -1.31574
    D8       -2.72670   0.00033   0.00000   0.30218   0.30225  -2.42444
    D9       -0.57374   0.00042   0.00000   0.31364   0.31365  -0.26010
   D10        1.45617   0.00007   0.00000   0.32041   0.32030   1.77646
   D11       -1.91871   0.00017   0.00000  -0.06364  -0.06391  -1.98262
   D12        2.25210  -0.00025   0.00000  -0.07394  -0.07421   2.17789
   D13        0.15031  -0.00063   0.00000  -0.07855  -0.07883   0.07148
   D14        0.75199   0.00076   0.00000   0.04225   0.04252   0.79452
   D15       -1.36038   0.00034   0.00000   0.03195   0.03222  -1.32816
   D16        2.82101  -0.00004   0.00000   0.02734   0.02760   2.84861
   D17        2.87587  -0.00033   0.00000  -0.01649  -0.01650   2.85938
   D18       -0.29971  -0.00012   0.00000  -0.01273  -0.01274  -0.31245
   D19       -1.25218  -0.00019   0.00000  -0.01068  -0.01065  -1.26283
   D20        1.85543   0.00001   0.00000  -0.00692  -0.00690   1.84853
   D21        0.82433   0.00015   0.00000  -0.00458  -0.00459   0.81974
   D22       -2.35125   0.00036   0.00000  -0.00082  -0.00084  -2.35209
   D23       -1.15020   0.00001   0.00000   0.00110   0.00107  -1.14913
   D24        3.02208  -0.00098   0.00000  -0.02460  -0.02452   2.99755
   D25        0.99436   0.00048   0.00000  -0.00729  -0.00733   0.98703
   D26        3.01521  -0.00037   0.00000  -0.00931  -0.00934   3.00588
   D27        0.90431  -0.00135   0.00000  -0.03501  -0.03493   0.86937
   D28       -1.12341   0.00011   0.00000  -0.01770  -0.01774  -1.14115
   D29        0.93706   0.00002   0.00000  -0.00295  -0.00300   0.93406
   D30       -1.17385  -0.00097   0.00000  -0.02865  -0.02859  -1.20244
   D31        3.08161   0.00049   0.00000  -0.01135  -0.01139   3.07022
   D32        3.11416   0.00002   0.00000  -0.00147  -0.00146   3.11270
   D33        0.00570  -0.00017   0.00000  -0.00495  -0.00495   0.00075
   D34       -0.06843  -0.00121   0.00000  -0.10978  -0.10985  -0.17828
   D35        3.09122  -0.00110   0.00000  -0.10404  -0.10411   2.98710
   D36        2.03699  -0.00079   0.00000  -0.09866  -0.09865   1.93834
   D37       -1.08655  -0.00067   0.00000  -0.09292  -0.09292  -1.17947
   D38       -2.21392   0.00035   0.00000  -0.08090  -0.08083  -2.29474
   D39        0.94573   0.00046   0.00000  -0.07516  -0.07509   0.87063
   D40       -3.12642   0.00017   0.00000   0.00659   0.00662  -3.11980
   D41        0.02484  -0.00028   0.00000   0.00583   0.00585   0.03069
   D42       -0.00060   0.00003   0.00000   0.00144   0.00144   0.00084
   D43       -3.13253  -0.00042   0.00000   0.00068   0.00066  -3.13187
   D44        3.12876  -0.00007   0.00000  -0.00624  -0.00621   3.12255
   D45       -0.01001  -0.00003   0.00000  -0.00550  -0.00547  -0.01548
   D46        0.00077  -0.00002   0.00000  -0.00201  -0.00202  -0.00125
   D47       -3.13800   0.00002   0.00000  -0.00127  -0.00128  -3.13927
   D48        0.00019  -0.00004   0.00000  -0.00029  -0.00028  -0.00008
   D49        3.13251   0.00044   0.00000   0.00074   0.00074   3.13326
   D50        0.00032   0.00002   0.00000  -0.00105  -0.00106  -0.00074
   D51        3.14077  -0.00001   0.00000   0.00088   0.00089  -3.14153
   D52       -0.00070   0.00000   0.00000   0.00199   0.00199   0.00129
   D53        3.13803  -0.00004   0.00000   0.00126   0.00127   3.13931
   D54       -3.14120   0.00003   0.00000   0.00013   0.00013  -3.14107
   D55       -0.00247  -0.00001   0.00000  -0.00059  -0.00059  -0.00306
   D56       -3.12449   0.00067   0.00000   0.05281   0.05280  -3.07169
   D57        0.97919   0.00008   0.00000   0.04502   0.04500   1.02419
   D58       -1.05467   0.00055   0.00000   0.05437   0.05435  -1.00032
   D59        1.01214   0.00018   0.00000   0.02856   0.02857   1.04071
   D60       -1.16737  -0.00041   0.00000   0.02077   0.02077  -1.14660
   D61        3.08196   0.00006   0.00000   0.03012   0.03012   3.11208
   D62       -1.02987   0.00028   0.00000   0.02663   0.02665  -1.00322
   D63        3.07381  -0.00031   0.00000   0.01884   0.01886   3.09266
   D64        1.03995   0.00016   0.00000   0.02819   0.02821   1.06816
   D65       -1.22649   0.00075   0.00000   0.01025   0.01042  -1.21607
   D66        3.03078  -0.00083   0.00000  -0.03676  -0.03696   2.99382
   D67        0.90677   0.00137   0.00000   0.01801   0.01821   0.92497
   D68       -1.11915  -0.00021   0.00000  -0.02899  -0.02918  -1.14833
   D69        2.99019   0.00019   0.00000   0.00775   0.00795   2.99813
   D70        0.96427  -0.00138   0.00000  -0.03926  -0.03944   0.92483
         Item               Value     Threshold  Converged?
 Maximum Force            0.010511     0.000450     NO 
 RMS     Force            0.001652     0.000300     NO 
 Maximum Displacement     0.673075     0.001800     NO 
 RMS     Displacement     0.177708     0.001200     NO 
 Predicted change in Energy=-1.434682D-03
 GradGradGradGradGradGradGradGradGradGradGradGradGradGradGradGradGradGrad

                          Input orientation:                          
 ---------------------------------------------------------------------
 Center     Atomic      Atomic             Coordinates (Angstroms)
 Number     Number       Type             X           Y           Z
 ---------------------------------------------------------------------
      1          8           0        0.759089    0.758508    1.567050
      2          6           0        1.109615    0.218692    0.531012
      3          7           0        0.311337   -0.663189   -0.140077
      4          6           0       -0.933933   -1.137178    0.409231
      5          6           0       -0.828703   -2.625873    0.700779
      6          8           0       -1.811122   -3.043847    1.521751
      7          8           0        0.002802   -3.362028    0.238003
      8          6           0       -2.130108   -0.892612   -0.530059
      9          6           0       -2.429823    0.554266   -0.728498
     10          6           0       -1.989179    1.702734   -0.125354
     11          7           0       -2.609668    2.806325   -0.673636
     12          6           0       -3.414258    2.342808   -1.594362
     13          7           0       -3.345254    0.980650   -1.672014
     14          6           0        2.432694    0.530263   -0.136163
     15          6           0        3.574503    0.598420    0.872477
     16          7           0        4.811882    0.994230    0.199564
     17          1           0        0.729871   -1.226933   -0.861067
     18          1           0       -1.094097   -0.610144    1.348544
     19          1           0       -1.703740   -3.998185    1.645831
     20          1           0       -3.000971   -1.405815   -0.115055
     21          1           0       -1.913703   -1.369993   -1.491761
     22          1           0       -1.260463    1.797081    0.661236
     23          1           0       -4.060847    2.925586   -2.228592
     24          1           0       -3.867294    0.393291   -2.298691
     25          1           0        2.658718   -0.195116   -0.921138
     26          1           0        2.333482    1.504110   -0.621476
     27          1           0        3.646830   -0.362315    1.399631
     28          1           0        3.329011    1.349708    1.620002
     29          1           0        5.148657    0.258341   -0.409509
     30          1           0        5.544692    1.178127    0.872339
 ---------------------------------------------------------------------
                    Distance matrix (angstroms):
                    1          2          3          4          5
     1  O    0.000000
     2  C    1.219690   0.000000
[...]
 9919146,-0.18874724,-0.14585348,-0.00002271,0.00000054,-0.00001786,-0.
 00000341,-0.00000144,0.00000236,0.00000044,-0.00000864,0.00000317,0.00
 002350,0.00001220,0.00002471,-0.00013850,0.00009587,-0.00010153,0.0000
 1518,-0.00000952,0.00003461,-0.00002887,-0.00019550,0.00034934,0.00044
 695,-0.00039711,-0.00044267,0.00005983,0.00102377,0.00010040,0.0005492
 8,0.00003209,0.00077711,0.10896959,0.18249967,0.00003726,0.00014061,0.
 00007123,-0.00016471,-0.00027696,-0.00019335,0.00037000,0.00016296,0.0
 0007947,-0.00028141,-0.00015692,-0.00005242,-0.00011802,0.00036552,0.0
 0015337,0.00006469,-0.00006749,-0.00000438,0.00012382,-0.00020747,-0.0
 0011896,0.00103998,-0.00004368,0.00053230,-0.00034166,-0.01508450,-0.0
 0912629,-0.00378937,0.00130422,-0.00231528,-0.00218014,0.00150144,0.00
 386238,0.00624183,0.00052399,-0.00016138,-0.16170723,-0.14502432,-0.22
 539051,0.00002477,0.00003958,0.00000659,-0.00003000,-0.00001075,-0.000
 01493,0.00003226,0.00002037,-0.00001598,0.00000898,-0.00000024,0.00004
 079,0.00001819,-0.00003754,0.00001886,-0.00000625,0.00002275,-0.000017
 01,0.00000577,0.00054722,-0.00037466,-0.00016822,0.00017198,0.00002674
 ,-0.00082843,-0.00080936,0.00071911,0.00053229,0.00000523,-0.00057820,
 0.16109306,0.15691873,0.23283419,-0.00553502,-0.00303125,0.00518534,-0
 .00320042,0.02730514,0.01404555,-0.00005702,-0.00131155,-0.00076138,0.
 00043512,-0.00029096,-0.00039650,-0.00026786,0.00020127,0.00021354,0.0
 0008985,-0.00004000,-0.00009407,0.00017930,-0.00011304,-0.00010004,0.0
 0007529,0.00003567,-0.00002825,0.00003902,0.00005249,0.00004072,0.0000
 3691,0.00001865,0.00008687,-0.00002749,-0.00003178,-0.00002880,-0.0000
 1313,0.00001258,-0.00002110,-0.00004835,-0.00002274,-0.00008531,-0.070
 70829,0.05319584,0.03860297,0.00640808,-0.02121473,-0.01495288,0.00233
 640,0.00049882,0.00000289,-0.00191557,-0.00103150,0.00020341,0.0003521
 7,0.00024966,0.00011768,-0.00001395,-0.00000367,0.00001684,0.00002432,
 -0.00001965,0.00001387,-0.00003090,-0.00001840,-0.00003065,0.00008251,
 -0.00005554,0.00000744,-0.00000685,-0.00000294,-0.00000603,-0.00000958
 ,0.00001093,0.00000538,0.07663856,-0.00131994,0.00092913,0.00207916,-0
 .00390203,0.00368732,0.00390968,-0.00046191,0.00001313,0.00063310,0.00
 039610,0.00062489,0.00002979,0.00011045,-0.00007237,-0.00005469,-0.000
 02586,0.00001901,0.00001747,-0.00002108,0.00005952,0.00005258,0.000003
 34,-0.00000727,-0.00004213,-0.00003365,-0.00004359,-0.00003531,-0.0000
 0333,-0.00001248,-0.00005384,0.00003960,0.00004187,0.00001350,-0.00001
 116,-0.00002366,-0.00001636,0.00004055,0.00003409,0.00008744,0.0563612
 5,-0.19853526,-0.11178786,0.00201719,-0.00642440,-0.00466131,0.0000519
 6,0.00066916,0.00082067,-0.00019972,0.00063180,0.00035057,-0.00008990,
 0.00003415,0.00015032,-0.00000015,-0.00000307,-0.00000911,0.00001054,0
 .00001084,0.00000482,0.00001369,0.00002241,0.00001714,-0.00005439,-0.0
 0000795,0.00003041,0.00000507,0.,0.00000352,0.00001075,-0.00000701,-0.
 00001000,-0.05759968,0.21600538,0.00443573,0.00119961,-0.00105544,0.00
 199644,-0.01376190,-0.01189275,-0.00174081,0.00021713,0.00055486,0.000
 08240,0.00066768,-0.00010735,0.00036566,-0.00018143,-0.00022183,-0.000
 13921,-0.00000230,0.00013023,-0.00025470,0.00010606,0.00004863,-0.0001
 1465,-0.00002290,0.00009453,-0.00000856,-0.00004056,0.00000121,-0.0000
 2730,-0.00002086,-0.00003419,0.00000413,0.00001964,0.00002264,0.000000
 85,0.00000741,-0.00000163,0.00002057,0.00001931,0.00002481,0.03983391,
 -0.10993952,-0.12511400,0.00632274,-0.01821830,-0.01341009,0.00075522,
 0.00135542,0.00100079,0.00049723,0.00015550,0.00115635,-0.00018125,-0.
 00008257,0.00003033,0.00002649,0.00001427,-0.00001367,-0.00003266,0.00
 001222,-0.00003516,0.00002362,-0.00000257,0.00001586,-0.00002724,0.000
 03031,-0.00003893,0.00000097,0.00000276,0.00000247,0.00000237,-0.00000
 664,0.00000598,-0.04268312,0.12399675,0.13825831,-0.00227372,0.0028055
 4,-0.00114998,0.00586069,-0.02552155,0.01861661,-0.00229380,0.00081317
 ,-0.00074794,-0.00054223,0.00090153,-0.00109382,0.00020840,0.00025854,
 -0.00016597,-0.00004086,-0.00003500,0.00003730,0.00000922,-0.00014447,
 0.00001351,-0.00033390,-0.00027873,0.00038016,0.00004314,-0.00018879,-
 0.00009383,0.00014211,0.00004323,0.00001707,-0.00000296,0.00011432,-0.
 00010861,-0.00005343,0.00003835,-0.00003612,0.00003576,0.00004832,0.00
 005213,-0.04900011,0.02721960,-0.01836315,-0.00555830,0.01964050,-0.01
 728665,0.00208783,0.00050951,0.00118285,-0.00002299,-0.00043183,0.0005
 1581,0.00005324,0.00007534,0.00002905,0.00000548,0.00001329,-0.0000161
 7,-0.00017520,0.00006677,-0.00010783,0.00001492,0.00000589,0.00000932,
 0.00001216,-0.00008135,0.00010783,-0.00000415,0.00000589,0.00000222,-0
 .00001306,-0.00001789,0.00001547,-0.00156191,0.00776598,-0.00575053,0.
 05537575,0.00045765,-0.00010058,-0.00104206,-0.00081978,-0.00602146,0.
 00390929,-0.00119464,0.00079481,-0.00010969,-0.00042282,0.00022987,-0.
 00035802,0.00016912,-0.00000903,-0.00008695,-0.00005017,0.00000615,0.0
 0004028,-0.00008890,0.00003047,-0.00000192,-0.00010392,-0.00004399,0.0
 0016284,-0.00001231,-0.00007813,-0.00000432,0.00001449,0.00002801,0.00
 001865,-0.00001709,0.00000491,-0.00001755,-0.00000256,0.00002527,0.000
 00818,0.00001689,0.00001240,-0.00004285,0.03218908,-0.20395420,0.12246
 375,-0.00173497,0.00637009,-0.00468069,0.00052859,0.00027820,-0.000676
 08,0.00034501,-0.00047916,0.00068643,-0.00000466,-0.00000655,-0.000007
 27,0.00001272,0.00000673,-0.00000129,-0.00003147,0.00002292,-0.0000358
 0,-0.00000459,-0.00001757,-0.00000595,-0.00006423,0.00002223,-0.000019
 48,-0.00000404,0.00000400,0.00000358,-0.00001967,-0.00000780,0.0000119
 5,0.00344308,-0.01984581,0.01454349,-0.03147734,0.22082955,0.00213871,
 -0.00197012,0.00095496,-0.00180163,0.01257334,-0.01113968,-0.00026199,
 -0.00071343,0.00011181,0.00043096,0.00002004,0.00008414,-0.00003736,0.
 00000523,0.00001367,-0.00004043,-0.00006692,0.00004968,-0.00003328,-0.
 00001421,0.00001694,-0.00000036,0.00002780,-0.00005502,0.00003900,0.00
 003855,0.00003649,-0.00002339,-0.00003160,-0.00000436,-0.00001572,-0.0
 0003627,0.00002089,0.00001585,0.00001402,0.00002523,-0.00002631,-0.000
 03336,-0.00005359,-0.02230615,0.12279362,-0.13783750,-0.00617493,0.018
 06267,-0.01744534,0.00185834,-0.00040314,0.00205077,0.00006700,-0.0001
 2110,0.00018991,-0.00005180,-0.00005573,-0.00002468,-0.00000485,0.0000
 0011,-0.00000075,-0.00000111,-0.00002287,0.00000041,0.00000572,-0.0000
 1182,-0.00000009,0.00003296,0.00005428,-0.00005277,-0.00000456,0.00000
 148,-0.00000026,-0.00000115,0.00000227,0.00000725,0.00228390,-0.014846
 16,0.01175689,0.02616591,-0.13376184,0.15282377,-0.00003321,-0.0001238
 2,0.00130182,0.00169346,0.00088563,-0.00240794,-0.00041545,-0.00040589
 ,0.00030352,0.00011349,0.00002121,-0.00010774,-0.00007077,0.00012696,-
 0.00004433,-0.00001468,-0.00006670,0.00004222,0.00004454,-0.00007843,0
 .00003852,-0.00003556,-0.00001172,0.00001363,0.00000556,0.00001727,0.0
 0002968,-0.00001754,-0.00001550,0.00000663,-0.00001760,-0.00000786,0.0
 0001409,0.00000825,-0.00000028,0.00000053,-0.00001440,-0.00000885,-0.0
 0001132,-0.00622914,0.01878099,-0.01538717,-0.05668047,0.03326852,-0.0
 2573079,-0.00475174,-0.02720961,0.02542846,0.00002477,0.00014952,-0.00
 002330,-0.00002393,0.00000991,0.00001031,-0.00000996,-0.00000350,-0.00
 000614,-0.00002226,0.00000050,-0.00000675,0.00001257,0.00000406,0.0000
 0203,0.00002149,0.00000677,-0.00002182,0.00000073,-0.00000058,-0.00000
 304,0.00001187,0.00000330,0.00000070,0.00103912,-0.00051670,0.00062762
 ,-0.00356338,-0.00161715,-0.00331925,0.06671893,0.00001429,0.00040480,
 -0.00114381,-0.00002516,0.00071349,0.00136693,0.00037691,-0.00013036,-
 0.00022278,0.00001522,0.00003253,0.00004672,0.00006607,-0.00007613,0.0
 0003740,-0.00001233,0.00002631,-0.00003293,-0.00005380,0.00003740,-0.0
 0003430,0.00002714,0.00000268,-0.00000849,0.00000256,-0.00001000,0.000
 00046,-0.00000038,-0.00000447,0.00000365,0.00001345,0.00001802,-0.0000
 0601,-0.00001399,-0.00000253,-0.00002141,0.00000561,0.00001796,0.00000
 704,-0.00179934,0.00614886,-0.00589605,0.03548849,-0.19333329,0.107716
 50,-0.00735956,-0.00305095,0.00796158,-0.00003557,-0.00009866,0.000025
 81,0.00002487,-0.00000900,0.00000554,0.00001960,0.00000952,0.00001365,
 0.00000650,0.00000157,0.00000349,-0.00000535,0.00000186,-0.00000458,-0
 .00000396,-0.00002228,0.00000406,-0.00000326,-0.00000009,0.00000085,-0
 .00000334,-0.00000193,0.00000595,0.00051221,0.00096602,0.00050832,-0.0
 0184968,0.00091440,-0.00146063,-0.02965852,0.20672471,-0.00026984,0.00
 021236,0.00110708,0.00130415,0.00018333,-0.00161214,-0.00039964,-0.000
 36487,0.00032897,0.00005760,-0.00006152,-0.00007943,-0.00021333,0.0001
 8379,0.00003970,0.00005569,-0.00005058,-0.00001321,0.00015626,-0.00012
 239,0.00002257,-0.00003244,-0.00000854,0.00000312,0.00000767,0.0000198
 6,0.00001524,-0.00001959,-0.00000166,-0.00000768,-0.00000964,-0.000018
 07,0.00001943,0.00001257,-0.00000331,0.00001166,-0.00000631,-0.0000117
 1,0.00000119,-0.00825829,0.01688203,-0.01419828,-0.02703105,0.10705075
 ,-0.13740151,0.00843787,0.01397374,-0.01134885,-0.00004837,0.00016958,
 -0.00010700,-0.00002182,0.00001171,0.00000488,-0.00002879,-0.00001248,
 -0.00000257,-0.00001294,-0.00000097,-0.00000262,0.00000935,0.00000386,
 0.00000262,0.00000337,0.00000323,-0.00001454,0.00000450,-0.00000088,-0
 .00000181,0.00000873,0.00000491,-0.00000567,0.00106103,0.00013041,0.00
 051170,-0.00300063,-0.00105212,-0.00214661,0.02577404,-0.12453040,0.15
 282978,-0.00120207,0.00071373,0.00093871,0.00071225,-0.00161363,-0.001
 47015,0.00031396,0.00058055,0.00078299,-0.00013555,0.00011335,0.000197
 78,0.00007277,-0.00010137,-0.00003262,-0.00001650,0.00003099,0.0000123
 8,-0.00005297,0.00006833,0.00002634,0.00001462,-0.00000595,-0.00001488
 ,-0.00001565,-0.00002070,-0.00001319,-0.00001396,-0.00000164,-0.000046
 67,0.00002153,0.00000987,0.00002052,0.00000225,-0.00000578,0.00000316,
 0.00002796,0.00001417,0.00004487,0.00706401,-0.02033310,-0.01464595,-0
 .06879373,0.05962945,0.03887966,-0.01420286,0.02195237,0.02104961,0.00
 043450,0.00023300,-0.00005268,-0.00010724,-0.00007509,-0.00001460,0.00
 000132,-0.00000206,-0.00000307,0.00000716,0.00000402,0.00000033,0.0000
 0542,0.00000677,0.00000684,-0.00004785,-0.00000018,-0.00000201,0.00000
 429,0.00000145,0.00000368,0.00000147,-0.00000415,-0.00000392,-0.004180
 07,-0.00156958,-0.00332723,0.00130308,0.00039025,0.00062480,-0.0004913
 6,0.00560018,0.00253008,0.08330385,0.00097646,0.00128013,0.00191239,0.
 00119087,-0.00130332,-0.00306928,-0.00001939,0.00034611,0.00058305,-0.
 00000500,0.00001056,0.00003342,0.00009688,-0.00009920,-0.00004694,-0.0
 0004070,0.00000691,0.00004041,-0.00008806,0.00007904,0.00001561,0.0000
 0379,0.00000443,-0.00000112,-0.00001376,-0.00000551,-0.00000415,-0.000
 01933,-0.00000762,-0.00002635,0.00000085,0.00000123,0.00001897,0.00000
 768,-0.00000370,0.00000942,0.00001207,0.00000381,0.00001988,0.00021283
 ,-0.00650916,-0.00408538,0.06249437,-0.21796537,-0.11408863,-0.0037906
 5,0.01065275,0.00746800,0.00009261,0.00015570,0.00006139,-0.00005646,-
 0.00003271,0.00000746,0.00000830,0.00000035,-0.00000401,0.00000197,0.0
 0000071,-0.00000175,0.00000698,0.00000112,0.00000743,-0.00002039,0.000
 01851,-0.00001556,0.00000350,0.00000073,0.00000092,0.00000454,-0.00000
 206,-0.00000334,-0.00134671,0.00123906,-0.00055726,-0.00030840,0.00106
 476,0.00026939,0.00677508,-0.02055577,-0.01227006,-0.06457053,0.229671
 51,0.00080380,0.00132097,0.00069361,0.00104625,-0.00050220,-0.00097325
 ,-0.00010699,-0.00016371,0.00005069,0.00005367,0.00007777,0.00003827,0
 .00001865,0.00000134,-0.00001041,-0.00001689,-0.00001154,0.00001347,-0
 .00001678,0.00000248,0.00002735,0.00000366,-0.00001802,-0.00000224,-0.
 00000697,-0.00002551,-0.00001164,0.00000250,-0.00000892,-0.00001859,0.
 00002597,0.00002803,0.00000189,-0.00001529,-0.00000774,-0.00002170,0.0
 0001904,0.00002509,0.00003825,0.00336347,-0.01898781,-0.01392160,0.040
 46991,-0.10818982,-0.12485917,0.00762465,-0.01231135,-0.01111191,0.000
 11780,0.00014149,0.00004788,-0.00003907,-0.00000938,0.00003001,-0.0000
 0174,-0.00000024,-0.00000163,-0.00000699,0.00000993,-0.00000315,0.0000
 0343,0.00000937,0.00000370,-0.00002458,-0.00001585,0.00001539,0.000000
 49,0.00000018,0.00000185,0.00000088,-0.00000377,0.00000026,-0.00308177
 ,-0.00075770,-0.00211140,0.00085441,0.00006502,0.00063766,-0.00566276,
 0.01626925,0.01151953,-0.04785659,0.12194846,0.13962743,0.00007175,-0.
 00043882,-0.00101757,-0.00070314,-0.00032402,0.00113536,0.00011493,-0.
 00000646,-0.00015631,-0.00008725,-0.00002345,0.00002753,-0.00007733,-0
 .00001936,0.00007223,0.00005933,0.00004154,-0.00005945,0.00006170,0.00
 000269,-0.00003867,-0.00000014,0.00000953,-0.00000372,0.00000563,0.000
 01080,-0.00000585,0.00001063,0.00000687,0.00000314,0.00000550,-0.00001
 320,-0.00000745,0.00000334,0.00000171,0.00000886,-0.00000120,-0.000010
 38,-0.00001336,0.00114966,0.00173620,0.00093998,-0.01306572,0.02911901
 ,0.01333914,-0.12200273,0.11414087,0.07988829,-0.00009128,-0.00005381,
 -0.00001574,0.00001403,0.00000021,-0.00001378,-0.00000657,-0.00000731,
 0.00000852,0.00001152,-0.00000498,0.00000252,-0.00000518,-0.00000707,-
 0.00000225,-0.00000213,0.00000967,0.00000860,-0.00000162,-0.00000033,0
 .00000146,-0.00000965,0.00000099,-0.00000013,-0.00050142,-0.00092837,-
 0.00078482,-0.00010232,0.00001862,0.00006732,0.00160637,-0.00084917,-0
 .00018679,-0.00482963,-0.00258842,0.00259437,0.12672866,-0.00024833,-0
 .00005978,0.00006264,0.00012094,0.00009183,0.00004982,0.00002185,-0.00
 007506,-0.00001357,-0.00002089,-0.00000495,-0.00000060,-0.00006054,0.0
 0003401,0.00002771,0.00003238,0.00000566,-0.00002019,0.00005381,-0.000
 02600,-0.00000148,-0.00000308,-0.00000092,-0.00000869,-0.00000031,0.00
 000619,-0.00000363,-0.00000369,0.00000156,-0.00000309,0.00000491,-0.00
 000330,0.00000734,0.00000039,-0.00000683,0.00000049,0.00000244,0.00000
 172,0.00000888,0.00041027,0.00091068,0.00060579,-0.00766086,0.00741054
 ,0.01059941,0.11593461,-0.28364998,-0.17002820,-0.00003550,0.00001411,
 -0.00003304,0.00000320,0.00000464,-0.00000075,-0.00001039,-0.00000469,
 -0.00000079,0.00000249,-0.00000119,0.00000162,-0.00000067,0.00000086,0
 .00000118,-0.00000309,-0.00000150,0.00000083,0.00000233,-0.00000084,-0
 .00000005,0.00000102,0.00000154,-0.00000504,0.00047554,-0.00011838,-0.
 00022218,0.00013034,-0.00026246,-0.00008558,-0.00043533,0.00169499,0.0
 0025769,-0.00184967,0.00117492,0.00121856,-0.11673849,0.28728710,0.000
 15367,0.00002054,-0.00018968,0.00001298,-0.00007717,-0.00000178,-0.000
 02281,0.00006716,-0.00006392,-0.00001304,-0.00001715,0.00000970,0.0000
 2732,-0.00005876,0.00002893,-0.00000151,0.00002039,-0.00002137,-0.0000
 3604,0.00003602,-0.00004038,0.00000623,0.00000621,0.00001324,0.0000037
 7,-0.00000675,0.00000040,0.00000662,0.00000069,0.00000275,0.00000092,0
 .00000077,-0.00001276,-0.00000134,0.00001040,-0.00000083,0.00000062,-0
 .00000267,-0.00001461,-0.00042536,0.00099695,0.00116691,0.01089394,-0.
 01527710,-0.01215944,0.05806496,-0.12518481,-0.09451366,-0.00003020,-0
 .00005668,0.00007118,0.00001058,-0.00000323,-0.00000152,0.00001157,0.0
 0000144,0.00001184,0.00000350,-0.00000018,-0.00000137,-0.00000373,-0.0
 0000506,-0.00000449,-0.00000157,0.00000097,0.00000463,-0.00000473,0.00
 000093,0.00000186,-0.00000890,-0.00000163,0.00000825,0.00028816,-0.000
 39872,0.00036366,-0.00020709,0.00025952,-0.00006848,-0.00142387,-0.000
 94948,0.00035354,0.00278912,0.00210750,-0.00058556,-0.08107156,0.15970
 982,0.11854784,0.00001616,0.00029234,0.00069258,-0.00004203,-0.0007663
 0,-0.00274621,-0.00093754,-0.00022880,0.00049247,0.00012433,-0.0001550
 6,-0.00016005,-0.00005310,0.00016013,-0.00003628,-0.00003715,-0.000093
 17,0.00005398,0.00000949,-0.00008550,0.00001472,-0.00002189,-0.0000329
 4,0.00003588,0.00000079,-0.00002056,0.00001221,-0.00000339,-0.00000967
 ,0.00000833,-0.00000304,0.00002258,0.00000118,-0.00001494,0.00000337,-
 0.00002486,0.00000307,0.00001809,0.00000859,-0.00560633,-0.00125046,0.
 00545977,-0.02051706,-0.00887368,-0.02361059,-0.22855180,-0.10865242,-
 0.15062909,-0.00000598,0.00007929,0.00004000,0.00000789,0.00000818,0.0
 0001018,-0.00000288,0.00000177,-0.00000046,-0.00003019,0.00001217,-0.0
 0001511,0.00000288,0.00000703,-0.00000387,0.00001279,-0.00002155,-0.00
 000990,-0.00000069,0.00000045,-0.00000170,0.00000495,-0.00000104,0.000
 00500,0.00034116,-0.00008902,0.00007615,0.00039054,0.00008479,0.000373
 80,0.00109030,-0.00049971,0.00011658,0.00079899,0.00097902,-0.00016651
 ,0.01164426,0.00987432,0.01097779,0.24138042,0.00017837,-0.00018435,0.
 00004000,-0.00014097,0.00060421,-0.00015060,0.00028741,0.00008484,-0.0
 0005291,-0.00002840,0.00000525,0.00005028,-0.00006682,-0.00001299,0.00
 004781,0.00005286,0.00003316,-0.00003554,0.00005733,-0.00000079,-0.000
 00945,0.00000074,0.00001960,-0.00002178,0.00000360,0.00001878,-0.00000
 639,0.00000025,0.00001209,-0.00000959,-0.00000328,-0.00003210,0.000000
 03,0.00001656,0.00000637,0.00003000,-0.00000386,-0.00002557,-0.0000133
 4,0.00052015,0.00027583,0.00120278,-0.00844863,-0.00564683,-0.00332273
 ,-0.07944595,-0.07640257,-0.09222409,-0.00003074,-0.00001711,-0.000039
 18,-0.00000572,0.00000163,-0.00000551,-0.00001483,-0.00000557,-0.00000
 232,0.00001626,-0.00000949,0.00000780,-0.00000093,-0.00000753,0.000000
 80,-0.00000928,0.00002195,0.00000410,0.00000261,0.00000077,0.00000109,
 -0.00000482,0.00000283,-0.00000487,0.00012226,0.00011350,0.00020312,-0
 .00012109,0.00018196,-0.00022806,0.00011074,-0.00041968,-0.00057769,0.
 00080495,0.00077205,-0.00010436,-0.02308510,-0.01442448,-0.02119990,0.
 10923636,0.09503424,-0.00017325,0.00006260,0.00004352,0.00058468,-0.00
 004764,0.00069161,0.00008168,0.00004114,-0.00012685,0.00001503,0.00008
 130,-0.00003370,0.00004777,-0.00001012,-0.00001914,-0.00001824,0.00000
 081,0.00000450,-0.00002530,0.00000467,0.00000536,-0.00000619,-0.000008
 19,0.00000707,-0.00000044,-0.00000302,0.00000318,0.00000342,-0.0000046
 2,0.00000614,-0.00000036,0.00000906,-0.00000485,-0.00000302,-0.0000020
 2,-0.00000709,-0.00000305,0.00000461,-0.00000063,0.00161667,0.00061271
 ,-0.00118529,0.01841768,0.01273434,0.00998076,-0.16524433,-0.12783911,
 -0.19733823,0.00002894,-0.00002237,0.00001098,0.00000544,0.00000466,0.
 00000679,0.00000753,0.00000525,-0.00000009,-0.00000476,0.00000313,-0.0
 0000077,0.00000145,0.00000264,0.00000003,0.00000399,-0.00000475,0.0000
 0218,-0.00000162,-0.00000040,-0.00000061,0.00000259,-0.00000076,0.0000
 0222,0.00009430,0.00034584,0.00005719,0.00012869,-0.00026912,0.0000486
 5,0.00056241,0.00033369,0.00017091,-0.00042728,-0.00032989,0.00088503,
 -0.01471985,-0.00212493,-0.01290489,0.15902542,0.11642050,0.19969601\\
 -0.00000058,-0.00000126,-0.00000223,0.00000178,-0.00000030,0.00000224,
 -0.00000070,0.00000003,0.00000126,-0.00000247,0.00000152,-0.00000155,-
 0.00000053,0.00000008,0.00000013,0.00000012,0.00000031,-0.00000052,-0.
 00000002,0.00000006,-0.00000022,-0.00000104,0.00000126,0.00000079,0.00
 000140,-0.00000077,-0.00000090,-0.00000050,0.00000048,0.00000088,-0.00
 000029,-0.00000021,-0.00000031,0.00000044,0.00000091,0.00000043,-0.000
 00026,-0.00000052,-0.00000011,0.00000116,-0.00000209,0.00000174,-0.000
 00007,0.00000228,-0.00000060,0.00000004,-0.00000068,0.00000012,-0.0000
 0002,0.00000014,0.00000028,-0.00000043,-0.00000030,-0.00000014,-0.0000
 0027,-0.00000005,-0.00000026,-0.00000031,0.00000014,-0.00000023,0.0000
 0050,-0.00000011,-0.00000018,0.00000126,-0.00000059,-0.00000007,0.0000
 0031,0.00000036,-0.00000005,0.00000013,0.00000044,-0.00000025,0.000000
 54,0.00000117,-0.00000030,-0.00000098,0.00000094,-0.00000051,-0.000000
 12,-0.00000059,0.00000030,0.00000046,-0.00000154,-0.00000013,0.0000003
 3,-0.00000041,0.00000017,0.00000012,-0.00000068,0.00000023\\\@


 The mind is not a vessel to be filled but a fire to be kindled.
                                  -- Plutarch
 Job cpu time:       1 days  1 hours  0 minutes 25.5 seconds.
 File lengths (MBytes):  RWF=   1141 Int=      0 D2E=      0 Chk=     42 Scr=      1
 Normal termination of Gaussian 09 at Sat Jul 24 17:09:55 2021.
