 Entering Gaussian System, Link 0=g09
 Input=opt_freq-conf-150.com
 Output=opt_freq-conf-150.log
 Initial command:
 /aerosol/software/g09/l1.exe "/scratch/nicole/10386/Gau-72986.inp" -scrdir="/scratch/nicole/10386/"
 Entering Link 1 = /aerosol/software/g09/l1.exe PID=     72993.
  
 Copyright (c) 1988,1990,1992,1993,1995,1998,2003,2009,2013,
            Gaussian, Inc.  All Rights Reserved.
  
 This is part of the Gaussian(R) 09 program.  It is based on
 the Gaussian(R) 03 system (copyright 2003, Gaussian, Inc.),
 the Gaussian(R) 98 system (copyright 1998, Gaussian, Inc.),
 the Gaussian(R) 94 system (copyright 1995, Gaussian, Inc.),
 the Gaussian 92(TM) system (copyright 1992, Gaussian, Inc.),
 the Gaussian 90(TM) system (copyright 1990, Gaussian, Inc.),
 the Gaussian 88(TM) system (copyright 1988, Gaussian, Inc.),
 the Gaussian 86(TM) system (copyright 1986, Carnegie Mellon
 University), and the Gaussian 82(TM) system (copyright 1983,
 Carnegie Mellon University). Gaussian is a federally registered
 trademark of Gaussian, Inc.
  
 This software contains proprietary and confidential information,
 including trade secrets, belonging to Gaussian, Inc.
  
 This software is provided under written license and may be
 used, copied, transmitted, or stored only in accord with that
 written license.
  
 The following legend is applicable only to US Government
 contracts under FAR:
  
                    RESTRICTED RIGHTS LEGEND
  
 Use, reproduction and disclosure by the US Government is
 subject to restrictions as set forth in subparagraphs (a)
 and (c) of the Commercial Computer Software - Restricted
 Rights clause in FAR 52.227-19.
  
 Gaussian, Inc.
 340 Quinnipiac St., Bldg. 40, Wallingford CT 06492
  
  
 ---------------------------------------------------------------
 Warning -- This program may not be used in any manner that
 competes with the business of Gaussian, Inc. or will provide
 assistance to any competitor of Gaussian, Inc.  The licensee
 of this program is prohibited from giving any competitor of
 Gaussian, Inc. access to this program.  By using this program,
 the user acknowledges that Gaussian, Inc. is engaged in the
 business of creating and licensing software in the field of
 computational chemistry and represents and warrants to the
 licensee that it is not a competitor of Gaussian, Inc. and that
 it will not use this program in any manner prohibited above.
 ---------------------------------------------------------------
  

 Cite this work as:
 Gaussian 09, Revision D.01,
 M. J. Frisch, G. W. Trucks, H. B. Schlegel, G. E. Scuseria, 
 M. A. Robb, J. R. Cheeseman, G. Scalmani, V. Barone, B. Mennucci, 
 G. A. Petersson, H. Nakatsuji, M. Caricato, X. Li, H. P. Hratchian, 
 A. F. Izmaylov, J. Bloino, G. Zheng, J. L. Sonnenberg, M. Hada, 
 M. Ehara, K. Toyota, R. Fukuda, J. Hasegawa, M. Ishida, T. Nakajima, 
 Y. Honda, O. Kitao, H. Nakai, T. Vreven, J. A. Montgomery, Jr., 
 J. E. Peralta, F. Ogliaro, M. Bearpark, J. J. Heyd, E. Brothers, 
 K. N. Kudin, V. N. Staroverov, T. Keith, R. Kobayashi, J. Normand, 
 K. Raghavachari, A. Rendell, J. C. Burant, S. S. Iyengar, J. Tomasi, 
 M. Cossi, N. Rega, J. M. Millam, M. Klene, J. E. Knox, J. B. Cross, 
 V. Bakken, C. Adamo, J. Jaramillo, R. Gomperts, R. E. Stratmann, 
 O. Yazyev, A. J. Austin, R. Cammi, C. Pomelli, J. W. Ochterski, 
 R. L. Martin, K. Morokuma, V. G. Zakrzewski, G. A. Voth, 
 P. Salvador, J. J. Dannenberg, S. Dapprich, A. D. Daniels, 
 O. Farkas, J. B. Foresman, J. V. Ortiz, J. Cioslowski, 
 and D. J. Fox, Gaussian, Inc., Wallingford CT, 2013.
 
 ******************************************
 Gaussian 09:  ES64L-G09RevD.01 24-Apr-2013
                24-Jul-2021 
 ******************************************
 %mem=2gb
 %nproc=4
 Will use up to    4 processors via shared memory.
 %chk=conf-150.chk
 ----------------------------------------------------------------------
 # B3LYP/6-311++G(2df,2pd) EmpiricalDispersion=GD3BJ opt=calcfc freq=no
 raman nosymm integral(ultrafinegrid)
 ----------------------------------------------------------------------
 1/10=4,14=-1,18=20,19=15,26=4,38=1/1,3;
 2/9=110,12=2,15=1,17=6,18=5,40=1/2;
 3/5=4,6=6,7=1414,11=2,16=1,25=1,30=1,71=2,74=-5,75=-5,124=41,140=1/1,2,3;
 4//1;
 5/5=2,38=5/2;
 8/6=4,10=90,11=11/1;
 11/6=1,8=1,9=11,15=111,16=1,31=1/1,2,10;
 10/6=1,13=1,31=1/2;
 6/7=2,8=2,9=2,10=2,28=1/1;
 7/10=1,18=20,25=1,30=1/1,2,3,16;
 1/10=4,14=-1,18=20,19=15,26=4/3(2);
 2/9=110,15=1/2;
 99//99;
 2/9=110,15=1/2;
 3/5=4,6=6,7=1414,11=2,16=1,25=1,30=1,71=1,74=-5,75=-5,124=41/1,2,3;
 4/5=5,16=3,69=1/1;
 5/5=2,38=5/2;
 7/30=1/1,2,3,16;
 1/14=-1,18=20,19=15,26=4/3(-5);
 2/9=110,15=1/2;
 6/7=2,8=2,9=2,10=2,19=2,28=1/1;
 99/9=1/99;
 ------------------------------------------------------------
 Candidate Structure: Conf:150 OPT and FREQ calc in gas phase
 ------------------------------------------------------------
 Symbolic Z-matrix:
 Charge =  0 Multiplicity = 1
 O                    -1.06735  -1.81842  -0.60329 
 C                    -1.26017  -0.71113  -0.11548 
 N                    -0.37381  -0.15491   0.75102 
 C                     0.74849  -0.91195   1.26099 
 C                     1.24686  -0.18699   2.48905 
 O                     2.24552  -0.85447   3.09518 
 O                     0.81057   0.86267   2.89123 
 C                     1.87855  -1.12462   0.22713 
 C                     2.46418   0.14329  -0.29805 
 C                     3.69731   0.71644  -0.1525 
 N                     3.75634   1.9277   -0.81778 
 C                     2.56761   2.08131  -1.35632 
 N                     1.75201   1.03     -1.0682 
 C                    -2.47144   0.14825  -0.43245 
 C                    -3.42446  -0.50714  -1.41911 
 N                    -4.55073   0.39607  -1.66837 
 H                    -0.59336   0.68832   1.26101 
 H                     0.41775  -1.90971   1.56604 
 H                     2.49526  -0.33255   3.86831 
 H                     1.46214  -1.72179  -0.58553 
 H                     2.6673   -1.71113   0.6993 
 H                     4.54572   0.32738   0.3952 
 H                     2.23723   2.91305  -1.95358 
 H                     0.78257   0.92701  -1.32349 
 H                    -2.13351   1.11041  -0.83235 
 H                    -3.0062    0.37498   0.49757 
 H                    -2.89971  -0.67889  -2.36095 
 H                    -3.71838  -1.49025  -1.03227 
 H                    -5.14058   0.44323  -0.845 
 H                    -5.13542   0.02345  -2.40678 
 

 GradGradGradGradGradGradGradGradGradGradGradGradGradGradGradGradGradGrad
 Berny optimization.
 Initialization pass.
                           ----------------------------
                           !    Initial Parameters    !
                           ! (Angstroms and Degrees)  !
 --------------------------                            --------------------------
 ! Name  Definition              Value          Derivative Info.                !
 --------------------------------------------------------------------------------
 ! R1    R(1,2)                  1.2252         calculate D2E/DX2 analytically  !
 ! R2    R(2,3)                  1.3586         calculate D2E/DX2 analytically  !
 ! R3    R(2,14)                 1.5186         calculate D2E/DX2 analytically  !
 ! R4    R(3,4)                  1.4466         calculate D2E/DX2 analytically  !
 ! R5    R(3,17)                 1.0096         calculate D2E/DX2 analytically  !
 ! R6    R(4,5)                  1.5107         calculate D2E/DX2 analytically  !
 ! R7    R(4,8)                  1.5463         calculate D2E/DX2 analytically  !
 ! R8    R(4,18)                 1.0945         calculate D2E/DX2 analytically  !
 ! R9    R(5,6)                  1.3454         calculate D2E/DX2 analytically  !
 ! R10   R(5,7)                  1.2058         calculate D2E/DX2 analytically  !
 ! R11   R(6,19)                 0.9657         calculate D2E/DX2 analytically  !
 ! R12   R(8,9)                  1.4921         calculate D2E/DX2 analytically  !
 ! R13   R(8,20)                 1.0911         calculate D2E/DX2 analytically  !
 ! R14   R(8,21)                 1.0904         calculate D2E/DX2 analytically  !
 ! R15   R(9,10)                 1.3676         calculate D2E/DX2 analytically  !
 ! R16   R(9,13)                 1.3735         calculate D2E/DX2 analytically  !
 ! R17   R(10,11)                1.3832         calculate D2E/DX2 analytically  !
 ! R18   R(10,22)                1.0822         calculate D2E/DX2 analytically  !
 ! R19   R(11,12)                1.314          calculate D2E/DX2 analytically  !
 ! R20   R(12,13)                1.3614         calculate D2E/DX2 analytically  !
 ! R21   R(12,23)                1.0759         calculate D2E/DX2 analytically  !
 ! R22   R(13,24)                1.0078         calculate D2E/DX2 analytically  !
 ! R23   R(14,15)                1.5203         calculate D2E/DX2 analytically  !
 ! R24   R(14,25)                1.0954         calculate D2E/DX2 analytically  !
 ! R25   R(14,26)                1.0965         calculate D2E/DX2 analytically  !
 ! R26   R(15,16)                1.4651         calculate D2E/DX2 analytically  !
 ! R27   R(15,27)                1.0918         calculate D2E/DX2 analytically  !
 ! R28   R(15,28)                1.0966         calculate D2E/DX2 analytically  !
 ! R29   R(16,29)                1.0139         calculate D2E/DX2 analytically  !
 ! R30   R(16,30)                1.0129         calculate D2E/DX2 analytically  !
 ! A1    A(1,2,3)              121.4156         calculate D2E/DX2 analytically  !
 ! A2    A(1,2,14)             123.6309         calculate D2E/DX2 analytically  !
 ! A3    A(3,2,14)             114.9485         calculate D2E/DX2 analytically  !
 ! A4    A(2,3,4)              121.1124         calculate D2E/DX2 analytically  !
 ! A5    A(2,3,17)             121.4815         calculate D2E/DX2 analytically  !
 ! A6    A(4,3,17)             115.3222         calculate D2E/DX2 analytically  !
 ! A7    A(3,4,5)              106.9408         calculate D2E/DX2 analytically  !
 ! A8    A(3,4,8)              113.7809         calculate D2E/DX2 analytically  !
 ! A9    A(3,4,18)             109.9301         calculate D2E/DX2 analytically  !
 ! A10   A(5,4,8)              111.6184         calculate D2E/DX2 analytically  !
 ! A11   A(5,4,18)             108.0944         calculate D2E/DX2 analytically  !
 ! A12   A(8,4,18)             106.3679         calculate D2E/DX2 analytically  !
 ! A13   A(4,5,6)              111.9023         calculate D2E/DX2 analytically  !
 ! A14   A(4,5,7)              124.7182         calculate D2E/DX2 analytically  !
 ! A15   A(6,5,7)              123.3794         calculate D2E/DX2 analytically  !
 ! A16   A(5,6,19)             106.5298         calculate D2E/DX2 analytically  !
 ! A17   A(4,8,9)              113.9092         calculate D2E/DX2 analytically  !
 ! A18   A(4,8,20)             107.1182         calculate D2E/DX2 analytically  !
 ! A19   A(4,8,21)             108.2449         calculate D2E/DX2 analytically  !
 ! A20   A(9,8,20)             110.654          calculate D2E/DX2 analytically  !
 ! A21   A(9,8,21)             109.0            calculate D2E/DX2 analytically  !
 ! A22   A(20,8,21)            107.7091         calculate D2E/DX2 analytically  !
 ! A23   A(8,9,10)             132.265          calculate D2E/DX2 analytically  !
 ! A24   A(8,9,13)             122.849          calculate D2E/DX2 analytically  !
 ! A25   A(10,9,13)            104.8708         calculate D2E/DX2 analytically  !
 ! A26   A(9,10,11)            110.7501         calculate D2E/DX2 analytically  !
 ! A27   A(9,10,22)            127.5957         calculate D2E/DX2 analytically  !
 ! A28   A(11,10,22)           121.654          calculate D2E/DX2 analytically  !
 ! A29   A(10,11,12)           105.1223         calculate D2E/DX2 analytically  !
 ! A30   A(11,12,13)           111.404          calculate D2E/DX2 analytically  !
 ! A31   A(11,12,23)           126.5587         calculate D2E/DX2 analytically  !
 ! A32   A(13,12,23)           122.0373         calculate D2E/DX2 analytically  !
 ! A33   A(9,13,12)            107.8523         calculate D2E/DX2 analytically  !
 ! A34   A(9,13,24)            125.0893         calculate D2E/DX2 analytically  !
 ! A35   A(12,13,24)           126.9841         calculate D2E/DX2 analytically  !
 ! A36   A(2,14,15)            113.0481         calculate D2E/DX2 analytically  !
 ! A37   A(2,14,25)            109.0995         calculate D2E/DX2 analytically  !
 ! A38   A(2,14,26)            109.2064         calculate D2E/DX2 analytically  !
 ! A39   A(15,14,25)           109.58           calculate D2E/DX2 analytically  !
 ! A40   A(15,14,26)           109.5044         calculate D2E/DX2 analytically  !
 ! A41   A(25,14,26)           106.1692         calculate D2E/DX2 analytically  !
 ! A42   A(14,15,16)           109.06           calculate D2E/DX2 analytically  !
 ! A43   A(14,15,27)           109.0502         calculate D2E/DX2 analytically  !
 ! A44   A(14,15,28)           108.9996         calculate D2E/DX2 analytically  !
 ! A45   A(16,15,27)           108.6456         calculate D2E/DX2 analytically  !
 ! A46   A(16,15,28)           113.9951         calculate D2E/DX2 analytically  !
 ! A47   A(27,15,28)           106.9842         calculate D2E/DX2 analytically  !
 ! A48   A(15,16,29)           109.7385         calculate D2E/DX2 analytically  !
 ! A49   A(15,16,30)           109.9378         calculate D2E/DX2 analytically  !
 ! A50   A(29,16,30)           105.8604         calculate D2E/DX2 analytically  !
 ! D1    D(1,2,3,4)             -7.7326         calculate D2E/DX2 analytically  !
 ! D2    D(1,2,3,17)          -170.55           calculate D2E/DX2 analytically  !
 ! D3    D(14,2,3,4)           173.0511         calculate D2E/DX2 analytically  !
 ! D4    D(14,2,3,17)           10.2337         calculate D2E/DX2 analytically  !
 ! D5    D(1,2,14,15)            0.0395         calculate D2E/DX2 analytically  !
 ! D6    D(1,2,14,25)         -122.151          calculate D2E/DX2 analytically  !
 ! D7    D(1,2,14,26)          122.2102         calculate D2E/DX2 analytically  !
 ! D8    D(3,2,14,15)          179.2362         calculate D2E/DX2 analytically  !
 ! D9    D(3,2,14,25)           57.0457         calculate D2E/DX2 analytically  !
 ! D10   D(3,2,14,26)          -58.593          calculate D2E/DX2 analytically  !
 ! D11   D(2,3,4,5)           -162.1572         calculate D2E/DX2 analytically  !
 ! D12   D(2,3,4,8)             74.1256         calculate D2E/DX2 analytically  !
 ! D13   D(2,3,4,18)           -45.0406         calculate D2E/DX2 analytically  !
 ! D14   D(17,3,4,5)             1.6593         calculate D2E/DX2 analytically  !
 ! D15   D(17,3,4,8)          -122.0579         calculate D2E/DX2 analytically  !
 ! D16   D(17,3,4,18)          118.7759         calculate D2E/DX2 analytically  !
 ! D17   D(3,4,5,6)            176.1661         calculate D2E/DX2 analytically  !
 ! D18   D(3,4,5,7)             -3.71           calculate D2E/DX2 analytically  !
 ! D19   D(8,4,5,6)            -58.7944         calculate D2E/DX2 analytically  !
 ! D20   D(8,4,5,7)            121.3295         calculate D2E/DX2 analytically  !
 ! D21   D(18,4,5,6)            57.8457         calculate D2E/DX2 analytically  !
 ! D22   D(18,4,5,7)          -122.0304         calculate D2E/DX2 analytically  !
 ! D23   D(3,4,8,9)             59.2523         calculate D2E/DX2 analytically  !
 ! D24   D(3,4,8,20)           -63.4489         calculate D2E/DX2 analytically  !
 ! D25   D(3,4,8,21)          -179.34           calculate D2E/DX2 analytically  !
 ! D26   D(5,4,8,9)            -61.8885         calculate D2E/DX2 analytically  !
 ! D27   D(5,4,8,20)           175.4103         calculate D2E/DX2 analytically  !
 ! D28   D(5,4,8,21)            59.5192         calculate D2E/DX2 analytically  !
 ! D29   D(18,4,8,9)          -179.5724         calculate D2E/DX2 analytically  !
 ! D30   D(18,4,8,20)           57.7264         calculate D2E/DX2 analytically  !
 ! D31   D(18,4,8,21)          -58.1646         calculate D2E/DX2 analytically  !
 ! D32   D(4,5,6,19)          -179.3425         calculate D2E/DX2 analytically  !
 ! D33   D(7,5,6,19)             0.5355         calculate D2E/DX2 analytically  !
 ! D34   D(4,8,9,10)           112.3787         calculate D2E/DX2 analytically  !
 ! D35   D(4,8,9,13)           -65.9767         calculate D2E/DX2 analytically  !
 ! D36   D(20,8,9,10)         -126.8774         calculate D2E/DX2 analytically  !
 ! D37   D(20,8,9,13)           54.7673         calculate D2E/DX2 analytically  !
 ! D38   D(21,8,9,10)           -8.6089         calculate D2E/DX2 analytically  !
 ! D39   D(21,8,9,13)          173.0358         calculate D2E/DX2 analytically  !
 ! D40   D(8,9,10,11)         -178.7634         calculate D2E/DX2 analytically  !
 ! D41   D(8,9,10,22)            1.0879         calculate D2E/DX2 analytically  !
 ! D42   D(13,9,10,11)          -0.1929         calculate D2E/DX2 analytically  !
 ! D43   D(13,9,10,22)         179.6584         calculate D2E/DX2 analytically  !
 ! D44   D(8,9,13,12)          178.9476         calculate D2E/DX2 analytically  !
 ! D45   D(8,9,13,24)            1.9019         calculate D2E/DX2 analytically  !
 ! D46   D(10,9,13,12)           0.2068         calculate D2E/DX2 analytically  !
 ! D47   D(10,9,13,24)        -176.8389         calculate D2E/DX2 analytically  !
 ! D48   D(9,10,11,12)           0.1026         calculate D2E/DX2 analytically  !
 ! D49   D(22,10,11,12)       -179.759          calculate D2E/DX2 analytically  !
 ! D50   D(10,11,12,13)          0.0338         calculate D2E/DX2 analytically  !
 ! D51   D(10,11,12,23)        179.9779         calculate D2E/DX2 analytically  !
 ! D52   D(11,12,13,9)          -0.1556         calculate D2E/DX2 analytically  !
 ! D53   D(11,12,13,24)        176.8181         calculate D2E/DX2 analytically  !
 ! D54   D(23,12,13,9)         179.8974         calculate D2E/DX2 analytically  !
 ! D55   D(23,12,13,24)         -3.1289         calculate D2E/DX2 analytically  !
 ! D56   D(2,14,15,16)        -179.6173         calculate D2E/DX2 analytically  !
 ! D57   D(2,14,15,27)         -61.1172         calculate D2E/DX2 analytically  !
 ! D58   D(2,14,15,28)          55.3532         calculate D2E/DX2 analytically  !
 ! D59   D(25,14,15,16)        -57.6961         calculate D2E/DX2 analytically  !
 ! D60   D(25,14,15,27)         60.804          calculate D2E/DX2 analytically  !
 ! D61   D(25,14,15,28)        177.2744         calculate D2E/DX2 analytically  !
 ! D62   D(26,14,15,16)         58.3789         calculate D2E/DX2 analytically  !
 ! D63   D(26,14,15,27)        176.879          calculate D2E/DX2 analytically  !
 ! D64   D(26,14,15,28)        -66.6506         calculate D2E/DX2 analytically  !
 ! D65   D(14,15,16,29)        -70.7929         calculate D2E/DX2 analytically  !
 ! D66   D(14,15,16,30)        173.1656         calculate D2E/DX2 analytically  !
 ! D67   D(27,15,16,29)        170.4539         calculate D2E/DX2 analytically  !
 ! D68   D(27,15,16,30)         54.4125         calculate D2E/DX2 analytically  !
 ! D69   D(28,15,16,29)         51.2678         calculate D2E/DX2 analytically  !
 ! D70   D(28,15,16,30)        -64.7736         calculate D2E/DX2 analytically  !
 --------------------------------------------------------------------------------
 Trust Radius=3.00D-01 FncErr=1.00D-07 GrdErr=1.00D-06
 Number of steps in this run=    160 maximum allowed number of steps=    180.
 GradGradGradGradGradGradGradGradGradGradGradGradGradGradGradGradGradGrad

                          Input orientation:                          
 ---------------------------------------------------------------------
 Center     Atomic      Atomic             Coordinates (Angstroms)
 Number     Number       Type             X           Y           Z
 ---------------------------------------------------------------------
      1          8           0       -1.067352   -1.818420   -0.603290
      2          6           0       -1.260171   -0.711133   -0.115475
      3          7           0       -0.373807   -0.154908    0.751020
      4          6           0        0.748491   -0.911949    1.260987
      5          6           0        1.246864   -0.186995    2.489052
      6          8           0        2.245519   -0.854468    3.095176
      7          8           0        0.810575    0.862669    2.891227
      8          6           0        1.878554   -1.124616    0.227129
      9          6           0        2.464176    0.143289   -0.298052
     10          6           0        3.697311    0.716443   -0.152500
     11          7           0        3.756344    1.927702   -0.817782
     12          6           0        2.567610    2.081312   -1.356324
     13          7           0        1.752005    1.029997   -1.068196
     14          6           0       -2.471439    0.148251   -0.432449
     15          6           0       -3.424457   -0.507137   -1.419106
     16          7           0       -4.550733    0.396069   -1.668368
     17          1           0       -0.593358    0.688317    1.261006
     18          1           0        0.417752   -1.909712    1.566043
     19          1           0        2.495261   -0.332548    3.868311
     20          1           0        1.462143   -1.721790   -0.585530
     21          1           0        2.667299   -1.711131    0.699298
     22          1           0        4.545724    0.327378    0.395204
     23          1           0        2.237229    2.913050   -1.953578
     24          1           0        0.782573    0.927013   -1.323490
     25          1           0       -2.133510    1.110413   -0.832347
     26          1           0       -3.006197    0.374981    0.497574
     27          1           0       -2.899706   -0.678894   -2.360952
     28          1           0       -3.718382   -1.490250   -1.032268
     29          1           0       -5.140584    0.443227   -0.844998
     30          1           0       -5.135425    0.023449   -2.406784
 ---------------------------------------------------------------------
                    Distance matrix (angstroms):
                    1          2          3          4          5
     1  O    0.000000
     2  C    1.225245   0.000000
     3  N    2.254425   1.358618   0.000000
     4  C    2.755813   2.443297   1.446626   0.000000
     5  C    4.192818   3.652877   2.376627   1.510655   0.000000
     6  O    5.057961   4.755911   3.584036   2.368258   1.345444
     7  O    4.788162   3.975563   2.649285   2.410561   1.205772
     8  C    3.138364   3.184328   2.507573   1.546328   2.528727
     9  C    4.051316   3.825458   3.040332   2.547097   3.059230
    10  C    5.415788   5.159067   4.260235   3.653101   3.714659
    11  N    6.111258   5.711576   4.884316   4.629478   4.658818
    12  C    5.384043   4.897894   4.253647   4.372541   4.655803
    13  N    4.034649   3.607273   3.038523   3.194258   3.793448
    14  C    2.422486   1.518612   2.427460   3.789419   4.740604
    15  C    2.817971   2.534798   3.760316   4.975969   6.098969
    16  N    4.262898   3.803310   4.858367   6.194660   7.157949
    17  H    3.159747   2.073114   1.009612   2.088398   2.379219
    18  H    2.630566   2.660737   2.090493   1.094522   2.122999
    19  H    5.907219   5.487909   4.240354   3.191402   1.866021
    20  H    2.531403   2.941662   2.759021   2.138871   3.443109
    21  H    3.956750   4.133869   3.416552   2.153140   2.746607
    22  H    6.091639   5.920111   4.955905   4.087113   3.940972
    23  H    5.927085   5.361449   4.852291   5.213481   5.507092
    24  H    3.387966   2.883683   2.609859   3.172139   3.999007
    25  H    3.125256   2.143515   2.684147   4.096086   4.913439
    26  H    3.127623   2.145711   2.697127   4.041864   4.729728
    27  H    2.783058   2.780517   4.042165   5.146075   6.399886
    28  H    2.705490   2.736847   4.018637   5.054345   6.225097
    29  H    4.665264   4.113679   5.062333   6.399444   7.232743
    30  H    4.816045   4.561502   5.716340   6.996283   8.046559
                    6          7          8          9         10
     6  O    0.000000
     7  O    2.247047   0.000000
     8  C    2.904020   3.491031   0.000000
     9  C    3.543632   3.663796   1.492096   0.000000
    10  C    3.888812   4.197487   2.615624   1.367594   0.000000
    11  N    5.033319   4.854749   3.732904   2.263613   1.383197
    12  C    5.342134   4.755413   3.641441   2.210559   2.142028
    13  N    4.596567   4.073244   2.517188   1.373520   2.172793
    14  C    5.974886   4.725339   4.580139   4.937446   6.201184
    15  C    7.255894   6.196033   5.586886   6.029578   7.336281
    16  N    8.393107   7.053456   6.873218   7.151966   8.392302
    17  H    3.715317   2.158482   3.235116   3.475087   4.517591
    18  H    2.606246   3.097824   2.131434   3.446377   4.539338
    19  H    0.965665   2.285039   3.777023   4.193562   4.325763
    20  H    3.861803   4.380846   1.091069   2.136641   3.335937
    21  H    2.579148   3.856997   1.090441   2.115382   2.771209
    22  H    3.738657   4.524158   3.041435   2.201667   1.082199
    23  H    6.299538   5.450829   4.602920   3.234787   3.193870
    24  H    4.983824   4.215301   2.795492   2.119796   3.148215
    25  H    6.201781   4.753316   4.713226   4.728585   5.883526
    26  H    5.986618   4.531574   5.116906   5.532782   6.743605
    27  H    7.501566   6.612714   5.452394   5.805408   7.095411
    28  H    7.280668   6.437507   5.748519   6.436734   7.786912
    29  H    8.471334   7.039290   7.271581   7.630301   8.869194
    30  H    9.247737   8.008004   7.579674   7.887651   9.142170
                   11         12         13         14         15
    11  N    0.000000
    12  C    1.314044   0.000000
    13  N    2.210420   1.361430   0.000000
    14  C    6.488467   5.475608   4.361092   0.000000
    15  C    7.606177   6.527547   5.411255   1.520286   0.000000
    16  N    8.489813   7.321764   6.362907   2.431538   1.465063
    17  H    4.977684   4.333886   3.323049   2.585855   4.077650
    18  H    5.617344   5.393551   4.166693   4.071438   5.063685
    19  H    5.353365   5.755759   5.174751   6.587549   7.939163
    20  H    4.316954   4.034819   2.808793   4.358160   5.103831
    21  H    4.090067   4.314874   3.387562   5.580751   6.561001
    22  H    2.157659   3.171289   3.231111   7.068074   8.216564
    23  H    2.137441   1.075942   2.136641   5.668289   6.636115
    24  H    3.178118   2.125992   1.007760   3.462516   4.445788
    25  H    5.946305   4.828843   3.893497   1.095386   2.151116
    26  H    7.062086   6.116848   5.051848   1.096501   2.150984
    27  H    7.312914   6.206412   5.121517   2.141660   1.091760
    28  H    8.221917   7.237041   6.023128   2.144607   1.096607
    29  H    9.019963   7.896901   6.921121   2.716900   2.043987
    30  H    9.231178   8.042078   7.088135   3.318192   2.045591
                   16         17         18         19         20
    16  N    0.000000
    17  H    4.932288   0.000000
    18  H    6.361123   2.804486   0.000000
    19  H    8.990647   4.168905   3.479069   0.000000
    20  H    6.466262   3.666524   2.399028   4.778496   0.000000
    21  H    7.883281   4.087145   2.418914   3.460164   1.761618
    22  H    9.327839   5.223988   4.838966   4.086854   3.830065
    23  H    7.245203   4.826511   6.241575   6.670447   4.894289
    24  H    5.370754   2.937649   4.065650   5.610222   2.832413
    25  H    2.655596   2.632938   4.624107   6.753061   4.583777
    26  H    2.660327   2.550059   4.252631   6.490647   5.053279
    27  H    2.088327   4.506339   5.285994   8.247989   4.823430
    28  H    2.157691   4.446464   4.902528   7.997832   5.204904
    29  H    1.013946   5.017230   6.499580   9.006844   6.953462
    30  H    1.012901   5.875807   7.096354   9.885895   7.063337
                   21         22         23         24         25
    21  H    0.000000
    22  H    2.788632   0.000000
    23  H    5.348435   4.187079   0.000000
    24  H    3.821475   4.180285   2.541137   0.000000
    25  H    5.775363   6.836095   4.859014   2.962836   0.000000
    26  H    6.048232   7.552765   6.320083   4.239787   1.752465
    27  H    6.436007   8.002712   6.281410   4.149029   2.474936
    28  H    6.619972   8.581195   7.463723   5.117281   3.052088
    29  H    8.245554   9.766069   7.858823   5.962113   3.080227
    30  H    8.575489  10.083063   7.931659   6.083802   3.559753
                   26         27         28         29         30
    26  H    0.000000
    27  H    3.048469   0.000000
    28  H    2.515295   1.758957   0.000000
    29  H    2.522453   2.928960   2.407501   0.000000
    30  H    3.618353   2.343891   2.487687   1.617224   0.000000
 Symmetry turned off by external request.
 Stoichiometry    C9H14N4O3
 Framework group  C1[X(C9H14N4O3)]
 Deg. of freedom    84
 Full point group                 C1      NOp   1
 Rotational constants (GHZ):      0.7284732      0.3114858      0.2544644
 Standard basis: 6-311++G(2df,2pd) (5D, 7F)
   754 basis functions,  1084 primitive gaussians,   848 cartesian basis functions
    60 alpha electrons       60 beta electrons
       nuclear repulsion energy      1129.0975961519 Hartrees.
 NAtoms=   30 NActive=   30 NUniq=   30 SFac= 1.00D+00 NAtFMM=   60 NAOKFM=F Big=F
 Integral buffers will be    131072 words long.
 Raffenetti 2 integral format.
 Two-electron integral symmetry is turned off.
 Nuclear repulsion after empirical dispersion term =     1129.0430875942 Hartrees.
 One-electron integrals computed using PRISM.
 NBasis=   754 RedAO= T EigKep=  2.03D-06  NBF=   754
 NBsUse=   754 1.00D-06 EigRej= -1.00D+00 NBFU=   754
 ExpMin= 3.60D-02 ExpMax= 8.59D+03 ExpMxC= 1.30D+03 IAcc=3 IRadAn=         5 AccDes= 0.00D+00
 Harris functional with IExCor=  402 and IRadAn=       5 diagonalized for initial guess.
 HarFok:  IExCor=  402 AccDes= 0.00D+00 IRadAn=         5 IDoV= 1 UseB2=F ITyADJ=14
 ICtDFT=  3500011 ScaDFX=  1.000000  1.000000  1.000000  1.000000
 FoFCou: FMM=F IPFlag=           0 FMFlag=      100000 FMFlg1=           0
         NFxFlg=           0 DoJE=T BraDBF=F KetDBF=T FulRan=T
         wScrn=  0.000000 ICntrl=     500 IOpCl=  0 I1Cent=   200000004 NGrid=           0
         NMat0=    1 NMatS0=      1 NMatT0=    0 NMatD0=    1 NMtDS0=    0 NMtDT0=    0
 Symmetry not used in FoFCou.
 Requested convergence on RMS density matrix=1.00D-08 within 128 cycles.
 Requested convergence on MAX density matrix=1.00D-06.
 Requested convergence on             energy=1.00D-06.
 No special actions if energy rises.
 SCF Done:  E(RB3LYP) =  -796.436227922     A.U. after   15 cycles
            NFock= 15  Conv=0.15D-08     -V/T= 2.0040
 DoSCS=F DFT=T ScalE2(SS,OS)=  1.000000  1.000000
 Range of M.O.s used for correlation:     1   754
 NBasis=   754 NAE=    60 NBE=    60 NFC=     0 NFV=     0
 NROrb=    754 NOA=    60 NOB=    60 NVA=   694 NVB=   694

 **** Warning!!: The largest alpha MO coefficient is  0.14253895D+03

 Symmetrizing basis deriv contribution to polar:
 IMax=3 JMax=2 DiffMx= 0.00D+00
 G2DrvN: will do    31 centers at a time, making    1 passes.
 Calling FoFCou, ICntrl=  3107 FMM=F I1Cent=   0 AccDes= 0.00D+00.
 End of G2Drv F.D. properties file   721 does not exist.
 End of G2Drv F.D. properties file   722 does not exist.
 End of G2Drv F.D. properties file   788 does not exist.
          IDoAtm=111111111111111111111111111111
          Differentiating once with respect to nuclear coordinates.
          There are    93 degrees of freedom in the 1st order CPHF.  IDoFFX=6 NUNeed=     0.
     87 vectors produced by pass  0 Test12= 4.48D-14 1.08D-09 XBig12= 1.75D-01 9.64D-02.
 AX will form    87 AO Fock derivatives at one time.
     87 vectors produced by pass  1 Test12= 4.48D-14 1.08D-09 XBig12= 2.03D-02 3.66D-02.
     87 vectors produced by pass  2 Test12= 4.48D-14 1.08D-09 XBig12= 2.96D-04 2.59D-03.
     87 vectors produced by pass  3 Test12= 4.48D-14 1.08D-09 XBig12= 1.70D-06 1.22D-04.
     87 vectors produced by pass  4 Test12= 4.48D-14 1.08D-09 XBig12= 5.73D-09 5.26D-06.
     87 vectors produced by pass  5 Test12= 4.48D-14 1.08D-09 XBig12= 1.05D-11 2.24D-07.
     41 vectors produced by pass  6 Test12= 4.48D-14 1.08D-09 XBig12= 1.83D-14 1.01D-08.
      7 vectors produced by pass  7 Test12= 4.48D-14 1.08D-09 XBig12= 6.58D-16 2.23D-09.
      3 vectors produced by pass  8 Test12= 4.48D-14 1.08D-09 XBig12= 3.56D-16 1.98D-09.
      3 vectors produced by pass  9 Test12= 4.48D-14 1.08D-09 XBig12= 8.28D-15 1.05D-08.
      3 vectors produced by pass 10 Test12= 4.48D-14 1.08D-09 XBig12= 9.61D-15 9.96D-09.
      3 vectors produced by pass 11 Test12= 4.48D-14 1.08D-09 XBig12= 1.30D-14 8.96D-09.
      3 vectors produced by pass 12 Test12= 4.48D-14 1.08D-09 XBig12= 1.82D-15 2.81D-09.
      3 vectors produced by pass 13 Test12= 4.48D-14 1.08D-09 XBig12= 4.54D-15 5.06D-09.
      2 vectors produced by pass 14 Test12= 4.48D-14 1.08D-09 XBig12= 1.55D-15 2.82D-09.
 InvSVY:  IOpt=1 It=  1 EMax= 5.55D-16
 Solved reduced A of dimension   590 with    93 vectors.
 End of Minotr F.D. properties file   721 does not exist.
 End of Minotr F.D. properties file   722 does not exist.
 End of Minotr F.D. properties file   788 does not exist.

 **********************************************************************

            Population analysis using the SCF density.

 **********************************************************************

 Alpha  occ. eigenvalues --  -19.20177 -19.14696 -19.10760 -14.37036 -14.35653
 Alpha  occ. eigenvalues --  -14.30598 -14.29395 -10.33468 -10.29000 -10.24993
 Alpha  occ. eigenvalues --  -10.22444 -10.20706 -10.20401 -10.19971 -10.19396
 Alpha  occ. eigenvalues --  -10.18264  -1.14488  -1.06170  -1.05493  -1.02117
 Alpha  occ. eigenvalues --   -0.95250  -0.89902  -0.87469  -0.82315  -0.77676
 Alpha  occ. eigenvalues --   -0.75165  -0.69417  -0.66286  -0.62129  -0.61806
 Alpha  occ. eigenvalues --   -0.60782  -0.59659  -0.54702  -0.54396  -0.52259
 Alpha  occ. eigenvalues --   -0.51408  -0.50802  -0.50022  -0.48009  -0.47184
 Alpha  occ. eigenvalues --   -0.46131  -0.45208  -0.45045  -0.43474  -0.42660
 Alpha  occ. eigenvalues --   -0.41400  -0.41231  -0.40762  -0.39668  -0.39418
 Alpha  occ. eigenvalues --   -0.38032  -0.36268  -0.35926  -0.31834  -0.29241
 Alpha  occ. eigenvalues --   -0.28580  -0.27976  -0.27423  -0.25815  -0.23371
 Alpha virt. eigenvalues --   -0.03267  -0.02371  -0.01711  -0.01049  -0.00633
 Alpha virt. eigenvalues --    0.00317   0.00497   0.01385   0.01685   0.02500
 Alpha virt. eigenvalues --    0.02804   0.02978   0.03587   0.04087   0.04755
 Alpha virt. eigenvalues --    0.04992   0.05616   0.06478   0.06807   0.07191
 Alpha virt. eigenvalues --    0.07305   0.07989   0.08177   0.08515   0.08784
 Alpha virt. eigenvalues --    0.09594   0.09618   0.10170   0.10886   0.11279
 Alpha virt. eigenvalues --    0.11877   0.12085   0.12413   0.12523   0.12778
 Alpha virt. eigenvalues --    0.12986   0.13524   0.13900   0.14291   0.14400
 Alpha virt. eigenvalues --    0.14595   0.15045   0.15456   0.15640   0.15797
 Alpha virt. eigenvalues --    0.15939   0.16558   0.16884   0.17252   0.17695
 Alpha virt. eigenvalues --    0.18058   0.18409   0.18533   0.19184   0.19410
 Alpha virt. eigenvalues --    0.19948   0.20326   0.20715   0.21236   0.21372
 Alpha virt. eigenvalues --    0.21678   0.21889   0.22667   0.22883   0.23532
 Alpha virt. eigenvalues --    0.23767   0.23975   0.24096   0.24364   0.25420
 Alpha virt. eigenvalues --    0.26033   0.26667   0.26837   0.27103   0.27438
 Alpha virt. eigenvalues --    0.27597   0.27884   0.28322   0.28746   0.28962
 Alpha virt. eigenvalues --    0.29674   0.30102   0.30484   0.30782   0.31286
 Alpha virt. eigenvalues --    0.31792   0.31928   0.32096   0.32716   0.33265
 Alpha virt. eigenvalues --    0.33553   0.34319   0.34605   0.35461   0.35657
 Alpha virt. eigenvalues --    0.36115   0.36335   0.37380   0.37557   0.38219
 Alpha virt. eigenvalues --    0.38806   0.39151   0.40667   0.41023   0.41982
 Alpha virt. eigenvalues --    0.43781   0.44131   0.45124   0.45974   0.46735
 Alpha virt. eigenvalues --    0.47177   0.48038   0.48781   0.49006   0.50415
 Alpha virt. eigenvalues --    0.51078   0.51942   0.52647   0.53291   0.53837
 Alpha virt. eigenvalues --    0.54309   0.54716   0.55676   0.56017   0.56294
 Alpha virt. eigenvalues --    0.57355   0.57839   0.58032   0.58816   0.59143
 Alpha virt. eigenvalues --    0.60053   0.60423   0.61128   0.61643   0.61954
 Alpha virt. eigenvalues --    0.62286   0.63221   0.64077   0.64897   0.64962
 Alpha virt. eigenvalues --    0.65351   0.65934   0.66323   0.66849   0.67426
 Alpha virt. eigenvalues --    0.68201   0.69079   0.69310   0.70099   0.70480
 Alpha virt. eigenvalues --    0.71263   0.71904   0.72846   0.73543   0.73865
 Alpha virt. eigenvalues --    0.74447   0.74909   0.76108   0.76426   0.76774
 Alpha virt. eigenvalues --    0.77787   0.78026   0.78824   0.79498   0.80931
 Alpha virt. eigenvalues --    0.81560   0.82037   0.82362   0.83751   0.84606
 Alpha virt. eigenvalues --    0.85044   0.85287   0.86844   0.87454   0.88546
 Alpha virt. eigenvalues --    0.89549   0.90707   0.91693   0.91885   0.92955
 Alpha virt. eigenvalues --    0.93640   0.94503   0.95910   0.96373   0.96739
 Alpha virt. eigenvalues --    0.97853   0.98277   0.98500   0.99307   1.00110
 Alpha virt. eigenvalues --    1.01069   1.02659   1.03313   1.03976   1.04754
 Alpha virt. eigenvalues --    1.05683   1.06500   1.07282   1.08262   1.08967
 Alpha virt. eigenvalues --    1.10131   1.11458   1.11908   1.12472   1.13086
 Alpha virt. eigenvalues --    1.13165   1.14104   1.14509   1.15240   1.16027
 Alpha virt. eigenvalues --    1.16633   1.18053   1.18376   1.18982   1.19922
 Alpha virt. eigenvalues --    1.20478   1.21044   1.22355   1.23349   1.24046
 Alpha virt. eigenvalues --    1.24776   1.25494   1.26231   1.26762   1.27618
 Alpha virt. eigenvalues --    1.28608   1.29666   1.29908   1.31002   1.31582
 Alpha virt. eigenvalues --    1.32079   1.32779   1.33258   1.34739   1.35292
 Alpha virt. eigenvalues --    1.36240   1.36634   1.38253   1.39070   1.39579
 Alpha virt. eigenvalues --    1.40469   1.40684   1.41270   1.42168   1.43339
 Alpha virt. eigenvalues --    1.43997   1.45008   1.45513   1.47024   1.47391
 Alpha virt. eigenvalues --    1.48697   1.49022   1.49364   1.49980   1.51564
 Alpha virt. eigenvalues --    1.52504   1.53239   1.54754   1.55356   1.55732
 Alpha virt. eigenvalues --    1.56871   1.57487   1.57947   1.59952   1.60563
 Alpha virt. eigenvalues --    1.61075   1.62068   1.63046   1.65571   1.66580
 Alpha virt. eigenvalues --    1.67112   1.67841   1.68697   1.69453   1.70924
 Alpha virt. eigenvalues --    1.71594   1.73963   1.74505   1.76380   1.77350
 Alpha virt. eigenvalues --    1.78716   1.79595   1.80814   1.82252   1.82590
 Alpha virt. eigenvalues --    1.83055   1.84401   1.87646   1.89329   1.91224
 Alpha virt. eigenvalues --    1.91999   1.93424   1.95751   1.97264   2.00041
 Alpha virt. eigenvalues --    2.02662   2.04087   2.06784   2.08977   2.10104
 Alpha virt. eigenvalues --    2.10997   2.13891   2.15581   2.17016   2.17743
 Alpha virt. eigenvalues --    2.19949   2.31059   2.31258   2.44863   2.45607
 Alpha virt. eigenvalues --    2.47005   2.49520   2.51240   2.53959   2.54838
 Alpha virt. eigenvalues --    2.57245   2.58217   2.60541   2.61919   2.62063
 Alpha virt. eigenvalues --    2.63686   2.65338   2.66620   2.68074   2.69865
 Alpha virt. eigenvalues --    2.70780   2.72217   2.73093   2.74086   2.74678
 Alpha virt. eigenvalues --    2.74905   2.76067   2.76813   2.79003   2.79330
 Alpha virt. eigenvalues --    2.80274   2.80830   2.83028   2.83505   2.84167
 Alpha virt. eigenvalues --    2.84963   2.85715   2.87041   2.88047   2.89552
 Alpha virt. eigenvalues --    2.90483   2.91310   2.92052   2.93793   2.94235
 Alpha virt. eigenvalues --    2.95015   2.95311   2.96036   2.96139   2.97700
 Alpha virt. eigenvalues --    2.99096   2.99511   3.00297   3.01092   3.02115
 Alpha virt. eigenvalues --    3.03003   3.04436   3.05348   3.06058   3.06140
 Alpha virt. eigenvalues --    3.06753   3.07759   3.08640   3.09330   3.09801
 Alpha virt. eigenvalues --    3.10968   3.11387   3.12745   3.13378   3.14372
 Alpha virt. eigenvalues --    3.14616   3.15550   3.16155   3.16447   3.17061
 Alpha virt. eigenvalues --    3.17906   3.19347   3.19949   3.20190   3.21670
 Alpha virt. eigenvalues --    3.22199   3.23123   3.23432   3.24544   3.24784
 Alpha virt. eigenvalues --    3.26673   3.27278   3.28945   3.29359   3.29713
 Alpha virt. eigenvalues --    3.30509   3.31155   3.31443   3.32625   3.33356
 Alpha virt. eigenvalues --    3.33869   3.35032   3.35396   3.35794   3.36371
 Alpha virt. eigenvalues --    3.37093   3.38013   3.38443   3.39155   3.40460
 Alpha virt. eigenvalues --    3.40532   3.40920   3.42164   3.42771   3.43695
 Alpha virt. eigenvalues --    3.43960   3.45097   3.46307   3.47565   3.48655
 Alpha virt. eigenvalues --    3.49663   3.50169   3.51420   3.51863   3.52918
 Alpha virt. eigenvalues --    3.53996   3.55186   3.55740   3.56526   3.57456
 Alpha virt. eigenvalues --    3.57827   3.58846   3.59304   3.60322   3.60908
 Alpha virt. eigenvalues --    3.61024   3.62391   3.64056   3.64513   3.65636
 Alpha virt. eigenvalues --    3.66228   3.67394   3.67513   3.68271   3.70189
 Alpha virt. eigenvalues --    3.70836   3.71104   3.72431   3.72654   3.73368
 Alpha virt. eigenvalues --    3.73684   3.74506   3.76017   3.77049   3.77516
 Alpha virt. eigenvalues --    3.78129   3.78464   3.79457   3.80107   3.80709
 Alpha virt. eigenvalues --    3.81780   3.82917   3.84595   3.84993   3.85580
 Alpha virt. eigenvalues --    3.86391   3.87449   3.87959   3.88535   3.89176
 Alpha virt. eigenvalues --    3.90251   3.90737   3.92115   3.93412   3.93692
 Alpha virt. eigenvalues --    3.94596   3.95037   3.95748   3.96576   3.98068
 Alpha virt. eigenvalues --    3.99010   3.99630   4.00122   4.01427   4.02462
 Alpha virt. eigenvalues --    4.03920   4.04621   4.05791   4.06299   4.06912
 Alpha virt. eigenvalues --    4.07442   4.08660   4.10018   4.11390   4.11579
 Alpha virt. eigenvalues --    4.12681   4.13510   4.14393   4.16357   4.17080
 Alpha virt. eigenvalues --    4.17960   4.19932   4.21142   4.21253   4.21977
 Alpha virt. eigenvalues --    4.23984   4.25067   4.26286   4.26846   4.27186
 Alpha virt. eigenvalues --    4.29301   4.31205   4.31669   4.32555   4.33785
 Alpha virt. eigenvalues --    4.35065   4.35288   4.37060   4.37381   4.38330
 Alpha virt. eigenvalues --    4.41227   4.43406   4.43904   4.44477   4.47097
 Alpha virt. eigenvalues --    4.48549   4.50908   4.52195   4.52596   4.53834
 Alpha virt. eigenvalues --    4.56760   4.57567   4.57939   4.60635   4.62134
 Alpha virt. eigenvalues --    4.62498   4.63958   4.64820   4.68120   4.69410
 Alpha virt. eigenvalues --    4.71131   4.74565   4.75362   4.76870   4.78247
 Alpha virt. eigenvalues --    4.79476   4.80121   4.81451   4.84322   4.84846
 Alpha virt. eigenvalues --    4.86525   4.87468   4.88570   4.89954   4.92759
 Alpha virt. eigenvalues --    4.92908   4.95052   4.97154   4.97515   4.98086
 Alpha virt. eigenvalues --    4.98761   4.99978   5.01557   5.01984   5.03208
 Alpha virt. eigenvalues --    5.04247   5.05240   5.06433   5.06983   5.07816
 Alpha virt. eigenvalues --    5.08457   5.09596   5.09865   5.11523   5.11931
 Alpha virt. eigenvalues --    5.12734   5.13405   5.15745   5.16230   5.17073
 Alpha virt. eigenvalues --    5.18446   5.19022   5.19669   5.20415   5.22230
 Alpha virt. eigenvalues --    5.22279   5.23140   5.25007   5.25515   5.26489
 Alpha virt. eigenvalues --    5.26880   5.28678   5.30364   5.31205   5.31638
 Alpha virt. eigenvalues --    5.32125   5.33896   5.36348   5.37802   5.39979
 Alpha virt. eigenvalues --    5.41642   5.43364   5.45219   5.46968   5.47256
 Alpha virt. eigenvalues --    5.48100   5.49978   5.50484   5.51495   5.53260
 Alpha virt. eigenvalues --    5.54402   5.57084   5.58229   5.61284   5.62897
 Alpha virt. eigenvalues --    5.63832   5.65073   5.67761   5.69282   5.70218
 Alpha virt. eigenvalues --    5.70847   5.78278   5.80823   5.81306   5.81800
 Alpha virt. eigenvalues --    5.83639   5.86900   5.89201   5.91007   5.91817
 Alpha virt. eigenvalues --    5.94995   5.96599   6.00797   6.05784   6.06728
 Alpha virt. eigenvalues --    6.12347   6.14593   6.16388   6.22534   6.23997
 Alpha virt. eigenvalues --    6.27922   6.29993   6.32918   6.34873   6.36046
 Alpha virt. eigenvalues --    6.40863   6.42350   6.43749   6.46999   6.48221
 Alpha virt. eigenvalues --    6.51877   6.55113   6.55910   6.69794   6.74597
 Alpha virt. eigenvalues --    6.79926   6.90556   6.92736   6.95232   6.96418
 Alpha virt. eigenvalues --    7.01244   7.04085   7.09559   7.15887   7.17547
 Alpha virt. eigenvalues --    7.22955   7.23553   7.28287   7.29280   7.29835
 Alpha virt. eigenvalues --    7.30785   7.58493   7.59543   7.61759   7.66636
 Alpha virt. eigenvalues --    7.73203   7.75604   7.99191  24.55215  24.73883
 Alpha virt. eigenvalues --   24.83115  24.90791  25.04499  25.07685  25.10458
 Alpha virt. eigenvalues --   25.15011  25.15648  35.98613  36.26268  36.29680
 Alpha virt. eigenvalues --   36.46004  50.18712  50.21946  50.28496
          Condensed to atoms (all electrons):
               1          2          3          4          5          6
     1  O    8.130472   0.316246  -0.043718  -0.067807   0.016616   0.000457
     2  C    0.316246   7.582126  -0.246749  -0.600335   0.244300  -0.005229
     3  N   -0.043718  -0.246749   7.015169  -0.421912   0.060392  -0.002373
     4  C   -0.067807  -0.600335  -0.421912  10.052696  -2.091153   0.129567
     5  C    0.016616   0.244300   0.060392  -2.091153   6.637529   0.185218
     6  O    0.000457  -0.005229  -0.002373   0.129567   0.185218   7.796830
     7  O    0.000141   0.018105  -0.017410  -0.039313   0.504124  -0.131052
     8  C    0.064581   0.318663  -0.061365  -1.469534   0.235048  -0.042109
     9  C   -0.084507  -0.325306   0.352680  -0.015035  -0.009885   0.011732
    10  C   -0.009048  -0.107149   0.034540   0.014616   0.046737   0.016743
    11  N   -0.000062  -0.004512  -0.003906   0.015998   0.007981   0.000277
    12  C    0.000938  -0.007461  -0.021288   0.100825  -0.023921   0.000631
    13  N    0.008902   0.036486  -0.039789   0.091720  -0.003274   0.001703
    14  C    0.135163  -1.177514   0.091318   0.053269  -0.093014   0.002375
    15  C   -0.046263   0.379920  -0.104061  -0.110539   0.031842  -0.000351
    16  N    0.002247  -0.025836  -0.001570   0.001593  -0.000272   0.000001
    17  H    0.001773  -0.061903   0.318272  -0.003242   0.012954  -0.003942
    18  H    0.008617   0.022518  -0.051287   0.404997  -0.053893   0.003080
    19  H   -0.000045   0.000910   0.002351  -0.146883   0.108638   0.218495
    20  H   -0.022841  -0.005309   0.007134  -0.021274   0.018945   0.002414
    21  H    0.004459   0.003909   0.004842  -0.024641  -0.035893  -0.016369
    22  H   -0.000085  -0.000633   0.001632   0.011172  -0.009894   0.000235
    23  H    0.000109  -0.001139  -0.000926   0.001841  -0.001568  -0.000079
    24  H   -0.004277   0.020538   0.006709  -0.022092   0.014528  -0.000012
    25  H    0.002085  -0.057076   0.002924   0.004096  -0.008338   0.000118
    26  H    0.005315  -0.102761   0.016838   0.022180  -0.000157   0.000108
    27  H   -0.000872   0.035281   0.003414   0.005089   0.001386  -0.000006
    28  H   -0.003354  -0.056579  -0.000727  -0.003945  -0.002014  -0.000013
    29  H   -0.000022   0.007300   0.000017  -0.000528   0.000263   0.000001
    30  H    0.000545   0.010265  -0.000474  -0.000281   0.000083  -0.000001
               7          8          9         10         11         12
     1  O    0.000141   0.064581  -0.084507  -0.009048  -0.000062   0.000938
     2  C    0.018105   0.318663  -0.325306  -0.107149  -0.004512  -0.007461
     3  N   -0.017410  -0.061365   0.352680   0.034540  -0.003906  -0.021288
     4  C   -0.039313  -1.469534  -0.015035   0.014616   0.015998   0.100825
     5  C    0.504124   0.235048  -0.009885   0.046737   0.007981  -0.023921
     6  O   -0.131052  -0.042109   0.011732   0.016743   0.000277   0.000631
     7  O    8.031203  -0.014402   0.007676  -0.021921  -0.000245  -0.001694
     8  C   -0.014402   9.556927  -2.323018  -0.558574  -0.050548  -0.122833
     9  C    0.007676  -2.323018   8.695395  -0.154472  -0.018367  -0.219866
    10  C   -0.021921  -0.558574  -0.154472   6.552970   0.297473  -0.101211
    11  N   -0.000245  -0.050548  -0.018367   0.297473   6.875684   0.252911
    12  C   -0.001694  -0.122833  -0.219866  -0.101211   0.252911   5.305368
    13  N   -0.002728  -0.259281   0.219848  -0.164287   0.065491   0.326142
    14  C   -0.011750  -0.123262   0.081399  -0.012890   0.000974   0.011232
    15  C   -0.001704   0.021057  -0.036186  -0.006422  -0.000149   0.000682
    16  N   -0.000033   0.000911  -0.000825  -0.000080  -0.000001  -0.000105
    17  H    0.023696   0.032530  -0.024620  -0.001026   0.000485  -0.009626
    18  H    0.003743   0.035652  -0.046730  -0.014093   0.000022   0.002744
    19  H    0.031019   0.014910  -0.003592   0.002291   0.000133  -0.000385
    20  H   -0.001360   0.443692  -0.111214   0.006188   0.000921  -0.003361
    21  H    0.001152   0.459691  -0.086686  -0.006024  -0.001110  -0.003362
    22  H   -0.000391  -0.066208  -0.097014   0.503117  -0.090675   0.034440
    23  H   -0.000065   0.001724   0.046064   0.007898  -0.079581   0.447044
    24  H    0.000053  -0.083100  -0.038516   0.041707   0.012934  -0.068660
    25  H    0.000960   0.023519  -0.010348  -0.005444  -0.000254  -0.001958
    26  H   -0.001680  -0.012399   0.006286   0.002124  -0.000032   0.002362
    27  H    0.000011  -0.003654   0.001664   0.000667  -0.000006   0.001195
    28  H    0.000006   0.007314  -0.004535  -0.000501  -0.000010  -0.000488
    29  H    0.000011  -0.000071   0.000153  -0.000007   0.000001  -0.000041
    30  H   -0.000010   0.000058  -0.000164  -0.000011  -0.000001   0.000023
              13         14         15         16         17         18
     1  O    0.008902   0.135163  -0.046263   0.002247   0.001773   0.008617
     2  C    0.036486  -1.177514   0.379920  -0.025836  -0.061903   0.022518
     3  N   -0.039789   0.091318  -0.104061  -0.001570   0.318272  -0.051287
     4  C    0.091720   0.053269  -0.110539   0.001593  -0.003242   0.404997
     5  C   -0.003274  -0.093014   0.031842  -0.000272   0.012954  -0.053893
     6  O    0.001703   0.002375  -0.000351   0.000001  -0.003942   0.003080
     7  O   -0.002728  -0.011750  -0.001704  -0.000033   0.023696   0.003743
     8  C   -0.259281  -0.123262   0.021057   0.000911   0.032530   0.035652
     9  C    0.219848   0.081399  -0.036186  -0.000825  -0.024620  -0.046730
    10  C   -0.164287  -0.012890  -0.006422  -0.000080  -0.001026  -0.014093
    11  N    0.065491   0.000974  -0.000149  -0.000001   0.000485   0.000022
    12  C    0.326142   0.011232   0.000682  -0.000105  -0.009626   0.002744
    13  N    6.371406   0.002936   0.000456   0.000208  -0.005031   0.002931
    14  C    0.002936   6.073506  -0.072976   0.055582   0.011926  -0.004316
    15  C    0.000456  -0.072976   5.457774   0.200790  -0.017429   0.002599
    16  N    0.000208   0.055582   0.200790   6.308235   0.001195   0.000178
    17  H   -0.005031   0.011926  -0.017429   0.001195   0.557539   0.002790
    18  H    0.002931  -0.004316   0.002599   0.000178   0.002790   0.617302
    19  H   -0.000396  -0.001123   0.000054   0.000000   0.003278   0.000618
    20  H    0.000133  -0.004079  -0.000047   0.000028  -0.001096  -0.002807
    21  H    0.004453  -0.000141   0.000554   0.000013   0.000910  -0.001289
    22  H    0.022818   0.000120  -0.000077  -0.000002  -0.000418  -0.000311
    23  H   -0.088227   0.001429  -0.000010  -0.000030  -0.000199   0.000018
    24  H    0.426411  -0.015260   0.008221   0.000636   0.004114  -0.000702
    25  H    0.002490   0.429956  -0.062321   0.004179  -0.000870   0.000863
    26  H    0.000075   0.446894  -0.061705  -0.013158  -0.006934  -0.000160
    27  H    0.000165  -0.053133   0.385401  -0.059395  -0.000635   0.000023
    28  H    0.000064   0.018070   0.406613  -0.072286   0.002483   0.000155
    29  H   -0.000011  -0.003792  -0.065298   0.381461   0.000248  -0.000027
    30  H    0.000023  -0.033151  -0.020908   0.386446  -0.000454  -0.000021
              19         20         21         22         23         24
     1  O   -0.000045  -0.022841   0.004459  -0.000085   0.000109  -0.004277
     2  C    0.000910  -0.005309   0.003909  -0.000633  -0.001139   0.020538
     3  N    0.002351   0.007134   0.004842   0.001632  -0.000926   0.006709
     4  C   -0.146883  -0.021274  -0.024641   0.011172   0.001841  -0.022092
     5  C    0.108638   0.018945  -0.035893  -0.009894  -0.001568   0.014528
     6  O    0.218495   0.002414  -0.016369   0.000235  -0.000079  -0.000012
     7  O    0.031019  -0.001360   0.001152  -0.000391  -0.000065   0.000053
     8  C    0.014910   0.443692   0.459691  -0.066208   0.001724  -0.083100
     9  C   -0.003592  -0.111214  -0.086686  -0.097014   0.046064  -0.038516
    10  C    0.002291   0.006188  -0.006024   0.503117   0.007898   0.041707
    11  N    0.000133   0.000921  -0.001110  -0.090675  -0.079581   0.012934
    12  C   -0.000385  -0.003361  -0.003362   0.034440   0.447044  -0.068660
    13  N   -0.000396   0.000133   0.004453   0.022818  -0.088227   0.426411
    14  C   -0.001123  -0.004079  -0.000141   0.000120   0.001429  -0.015260
    15  C    0.000054  -0.000047   0.000554  -0.000077  -0.000010   0.008221
    16  N    0.000000   0.000028   0.000013  -0.000002  -0.000030   0.000636
    17  H    0.003278  -0.001096   0.000910  -0.000418  -0.000199   0.004114
    18  H    0.000618  -0.002807  -0.001289  -0.000311   0.000018  -0.000702
    19  H    0.533270  -0.000382  -0.000096  -0.000982  -0.000003   0.000175
    20  H   -0.000382   0.629357  -0.042395   0.001780  -0.000796   0.007270
    21  H   -0.000096  -0.042395   0.634664   0.000178   0.000110  -0.002952
    22  H   -0.000982   0.001780   0.000178   0.620212   0.000398   0.003071
    23  H   -0.000003  -0.000796   0.000110   0.000398   0.574921  -0.010471
    24  H    0.000175   0.007270  -0.002952   0.003071  -0.010471   0.546691
    25  H   -0.000064  -0.000790   0.000391  -0.000112   0.000268  -0.003553
    26  H   -0.000077   0.000195  -0.000359   0.000020   0.000103  -0.004457
    27  H    0.000008   0.000386  -0.000091  -0.000006   0.000050  -0.003589
    28  H   -0.000001  -0.000489   0.000187  -0.000008  -0.000011   0.001558
    29  H    0.000001   0.000012  -0.000004   0.000000  -0.000006  -0.000008
    30  H    0.000000   0.000020   0.000000   0.000000  -0.000001  -0.000301
              25         26         27         28         29         30
     1  O    0.002085   0.005315  -0.000872  -0.003354  -0.000022   0.000545
     2  C   -0.057076  -0.102761   0.035281  -0.056579   0.007300   0.010265
     3  N    0.002924   0.016838   0.003414  -0.000727   0.000017  -0.000474
     4  C    0.004096   0.022180   0.005089  -0.003945  -0.000528  -0.000281
     5  C   -0.008338  -0.000157   0.001386  -0.002014   0.000263   0.000083
     6  O    0.000118   0.000108  -0.000006  -0.000013   0.000001  -0.000001
     7  O    0.000960  -0.001680   0.000011   0.000006   0.000011  -0.000010
     8  C    0.023519  -0.012399  -0.003654   0.007314  -0.000071   0.000058
     9  C   -0.010348   0.006286   0.001664  -0.004535   0.000153  -0.000164
    10  C   -0.005444   0.002124   0.000667  -0.000501  -0.000007  -0.000011
    11  N   -0.000254  -0.000032  -0.000006  -0.000010   0.000001  -0.000001
    12  C   -0.001958   0.002362   0.001195  -0.000488  -0.000041   0.000023
    13  N    0.002490   0.000075   0.000165   0.000064  -0.000011   0.000023
    14  C    0.429956   0.446894  -0.053133   0.018070  -0.003792  -0.033151
    15  C   -0.062321  -0.061705   0.385401   0.406613  -0.065298  -0.020908
    16  N    0.004179  -0.013158  -0.059395  -0.072286   0.381461   0.386446
    17  H   -0.000870  -0.006934  -0.000635   0.002483   0.000248  -0.000454
    18  H    0.000863  -0.000160   0.000023   0.000155  -0.000027  -0.000021
    19  H   -0.000064  -0.000077   0.000008  -0.000001   0.000001   0.000000
    20  H   -0.000790   0.000195   0.000386  -0.000489   0.000012   0.000020
    21  H    0.000391  -0.000359  -0.000091   0.000187  -0.000004   0.000000
    22  H   -0.000112   0.000020  -0.000006  -0.000008   0.000000   0.000000
    23  H    0.000268   0.000103   0.000050  -0.000011  -0.000006  -0.000001
    24  H   -0.003553  -0.004457  -0.003589   0.001558  -0.000008  -0.000301
    25  H    0.680998  -0.055902  -0.013088   0.014824  -0.002961   0.003536
    26  H   -0.055902   0.733606   0.018835  -0.032108   0.010649   0.001787
    27  H   -0.013088   0.018835   0.677135  -0.057772   0.013809  -0.009916
    28  H    0.014824  -0.032108  -0.057772   0.733188  -0.011171  -0.001991
    29  H   -0.002961   0.010649   0.013809  -0.011171   0.625778  -0.052642
    30  H    0.003536   0.001787  -0.009916  -0.001991  -0.052642   0.605916
 Mulliken charges:
               1
     1  O   -0.415765
     2  C   -0.211079
     3  N    0.099321
     4  C    0.128857
     5  C    0.206692
     6  O   -0.168449
     7  O   -0.376142
     8  C   -0.025919
     9  C    0.187988
    10  C   -0.363913
    11  N   -0.281827
    12  C    0.099723
    13  N   -0.021837
    14  C    0.190254
    15  C   -0.289519
    16  N   -0.170108
    17  H    0.163233
    18  H    0.066785
    19  H    0.237877
    20  H    0.099762
    21  H    0.105900
    22  H    0.067621
    23  H    0.101135
    24  H    0.163333
    25  H    0.051871
    26  H    0.024512
    27  H    0.057645
    28  H    0.063541
    29  H    0.096884
    30  H    0.111625
 Sum of Mulliken charges =   0.00000
 Mulliken charges with hydrogens summed into heavy atoms:
               1
     1  O   -0.415765
     2  C   -0.211079
     3  N    0.262554
     4  C    0.195642
     5  C    0.206692
     6  O    0.069428
     7  O   -0.376142
     8  C    0.179742
     9  C    0.187988
    10  C   -0.296292
    11  N   -0.281827
    12  C    0.200857
    13  N    0.141497
    14  C    0.266638
    15  C   -0.168334
    16  N    0.038401
 APT charges:
               1
     1  O   -0.439179
     2  C   -0.038010
     3  N   -0.130441
     4  C   -0.374770
     5  C    0.025066
     6  O   -0.628996
     7  O   -0.363789
     8  C   -0.830782
     9  C    0.236912
    10  C   -0.372377
    11  N   -0.391621
    12  C   -0.111661
    13  N   -0.311591
    14  C   -0.579980
    15  C   -0.225779
    16  N   -1.459552
    17  H    0.357025
    18  H    0.357910
    19  H    0.908476
    20  H    0.242615
    21  H    0.525994
    22  H    0.664937
    23  H    0.560945
    24  H    0.059641
    25  H    0.169971
    26  H    0.311928
    27  H    0.186584
    28  H    0.354529
    29  H    0.471787
    30  H    0.824206
 Sum of APT charges =   0.00000
 APT charges with hydrogens summed into heavy atoms:
               1
     1  O   -0.439179
     2  C   -0.038010
     3  N    0.226585
     4  C   -0.016860
     5  C    0.025066
     6  O    0.279480
     7  O   -0.363789
     8  C   -0.062173
     9  C    0.236912
    10  C    0.292560
    11  N   -0.391621
    12  C    0.449284
    13  N   -0.251949
    14  C   -0.098081
    15  C    0.315334
    16  N   -0.163559
 Electronic spatial extent (au):  <R**2>=           4495.9035
 Charge=              0.0000 electrons
 Dipole moment (field-independent basis, Debye):
    X=             -3.4019    Y=             -1.4146    Z=              1.7685  Tot=              4.0868
 Quadrupole moment (field-independent basis, Debye-Ang):
   XX=            -98.5485   YY=           -106.3229   ZZ=            -88.5412
   XY=             -9.2613   XZ=              8.1692   YZ=             -4.4652
 Traceless Quadrupole moment (field-independent basis, Debye-Ang):
   XX=             -0.7443   YY=             -8.5187   ZZ=              9.2630
   XY=             -9.2613   XZ=              8.1692   YZ=             -4.4652
 Octapole moment (field-independent basis, Debye-Ang**2):
  XXX=           -238.4766  YYY=            -14.8876  ZZZ=            -13.3091  XYY=            -47.9071
  XXY=            -74.1006  XXZ=             25.8162  XZZ=            -20.8851  YZZ=            -16.2695
  YYZ=            -14.4975  XYZ=             -6.2232
 Hexadecapole moment (field-independent basis, Debye-Ang**3):
 XXXX=          -3654.8590 YYYY=           -812.4545 ZZZZ=          -1208.9502 XXXY=           -397.8370
 XXXZ=           -123.6601 YYYX=           -318.0145 YYYZ=             93.9588 ZZZX=           -195.8278
 ZZZY=             91.4667 XXYY=           -923.7571 XXZZ=           -760.9086 YYZZ=           -382.3001
 XXYZ=            136.3694 YYXZ=           -152.2829 ZZXY=            -59.6759
 N-N= 1.129043087594D+03 E-N=-4.118731006445D+03  KE= 7.932350891532D+02
  Exact polarizability:   0.000   0.000   0.000   0.000   0.000   0.000
 Approx polarizability: 219.567   0.709 227.143  18.168  -3.206 191.041
 Calling FoFJK, ICntrl=    100147 FMM=F ISym2X=0 I1Cent= 0 IOpClX= 0 NMat=1 NMatS=1 NMatT=0.
 -------------------------------------------------------------------
 Center     Atomic                   Forces (Hartrees/Bohr)
 Number     Number              X              Y              Z
 -------------------------------------------------------------------
      1        8          -0.002310786    0.005245075    0.000797158
      2        6          -0.001764657   -0.005304267   -0.000233334
      3        7           0.000729635   -0.001899500    0.000329799
      4        6           0.000059575   -0.001722517    0.000335434
      5        6           0.002058908    0.000694704    0.001390738
      6        8          -0.003517798    0.001435853   -0.001540434
      7        8           0.000739046   -0.002433796    0.000196277
      8        6           0.003530120    0.002420785   -0.003414581
      9        6          -0.000946312   -0.006644501    0.006250340
     10        6           0.005123426    0.003996417    0.000475092
     11        7          -0.003756101   -0.003842615    0.000078411
     12        6           0.003414626    0.001065829    0.001262722
     13        7          -0.004866467    0.001473377   -0.004034300
     14        6           0.000879815    0.000380576   -0.000502743
     15        6           0.001832084   -0.000479084   -0.000069526
     16        7          -0.002175287   -0.002609689   -0.000554927
     17        1          -0.000489411    0.000454093   -0.001346241
     18        1          -0.000901893    0.001170089    0.000336750
     19        1           0.002646067    0.000732994    0.002251434
     20        1          -0.000476745   -0.000019153    0.001777363
     21        1          -0.001239503    0.000925873   -0.001115150
     22        1          -0.002844158    0.001210025   -0.002318633
     23        1           0.000753348    0.001039783   -0.000166162
     24        1           0.003300790    0.000576472    0.000002584
     25        1          -0.001310865   -0.000891718    0.001043195
     26        1           0.002206721   -0.000070417   -0.000416722
     27        1          -0.001376954   -0.000487574    0.001145084
     28        1           0.000718564    0.000874252   -0.001368295
     29        1          -0.000197773    0.001690482   -0.000009783
     30        1           0.000181983    0.001018153   -0.000581549
 -------------------------------------------------------------------
 Cartesian Forces:  Max     0.006644501 RMS     0.002191445
 FormGI is forming the generalized inverse of G from B-inverse, IUseBI=4.

 GradGradGradGradGradGradGradGradGradGradGradGradGradGradGradGradGradGrad
 Berny optimization.
 Internal  Forces:  Max     0.005420877 RMS     0.001503471
 Search for a local minimum.
 Step number   1 out of a maximum of  160
 All quantities printed in internal units (Hartrees-Bohrs-Radians)
 Mixed Optimization -- RFO/linear search
 Second derivative matrix not updated -- analytic derivatives used.
 ITU=  0
     Eigenvalues ---   -0.00172  -0.00066   0.00203   0.00236   0.00309
     Eigenvalues ---    0.00350   0.00421   0.00544   0.00796   0.00964
     Eigenvalues ---    0.01605   0.01907   0.01983   0.02446   0.03233
     Eigenvalues ---    0.03336   0.04134   0.04148   0.04200   0.04211
     Eigenvalues ---    0.04476   0.04497   0.05056   0.05105   0.05209
     Eigenvalues ---    0.05419   0.05836   0.06202   0.07622   0.07943
     Eigenvalues ---    0.08185   0.10028   0.10570   0.10632   0.10738
     Eigenvalues ---    0.11526   0.11578   0.13406   0.14965   0.15152
     Eigenvalues ---    0.15885   0.16664   0.17210   0.18609   0.18977
     Eigenvalues ---    0.20422   0.21155   0.21941   0.22761   0.22904
     Eigenvalues ---    0.23922   0.24453   0.24632   0.25365   0.27296
     Eigenvalues ---    0.29481   0.31296   0.31999   0.32230   0.32579
     Eigenvalues ---    0.33059   0.33140   0.33194   0.33816   0.34315
     Eigenvalues ---    0.34864   0.35899   0.36634   0.36798   0.37085
     Eigenvalues ---    0.38326   0.40531   0.41248   0.44101   0.44371
     Eigenvalues ---    0.44828   0.44934   0.45968   0.46745   0.47238
     Eigenvalues ---    0.52243   0.57591   0.78576   0.85915
 RFO step:  Lambda=-2.21645782D-03 EMin=-1.71558807D-03
 Linear search not attempted -- first point.
 Iteration  1 RMS(Cart)=  0.31333370 RMS(Int)=  0.03300268
 Iteration  2 RMS(Cart)=  0.08864146 RMS(Int)=  0.00277847
 Iteration  3 RMS(Cart)=  0.00463999 RMS(Int)=  0.00052242
 Iteration  4 RMS(Cart)=  0.00001401 RMS(Int)=  0.00052236
 Iteration  5 RMS(Cart)=  0.00000000 RMS(Int)=  0.00052236
 Variable       Old X    -DE/DX   Delta X   Delta X   Delta X     New X
                                 (Linear)    (Quad)   (Total)
    R1        2.31538  -0.00542   0.00000  -0.01432  -0.01432   2.30106
    R2        2.56742   0.00290   0.00000   0.02086   0.02086   2.58828
    R3        2.86976  -0.00066   0.00000  -0.00292  -0.00292   2.86684
    R4        2.73373   0.00192   0.00000   0.00795   0.00795   2.74168
    R5        1.90789  -0.00019   0.00000   0.00006   0.00006   1.90796
    R6        2.85472   0.00271   0.00000   0.00554   0.00554   2.86027
    R7        2.92214   0.00196   0.00000  -0.00408  -0.00408   2.91806
    R8        2.06835  -0.00070   0.00000  -0.00433  -0.00433   2.06401
    R9        2.54252  -0.00140   0.00000  -0.00838  -0.00838   2.53414
   R10        2.27858  -0.00232   0.00000  -0.00179  -0.00179   2.27679
   R11        1.82484   0.00288   0.00000   0.00483   0.00483   1.82967
   R12        2.81965  -0.00143   0.00000  -0.00814  -0.00814   2.81152
   R13        2.06182  -0.00113   0.00000   0.00011   0.00011   2.06194
   R14        2.06063  -0.00188   0.00000  -0.00455  -0.00455   2.05608
   R15        2.58438   0.00233   0.00000   0.00524   0.00521   2.58959
   R16        2.59558   0.00530   0.00000   0.01423   0.01432   2.60990
   R17        2.61386  -0.00383   0.00000  -0.01266  -0.01277   2.60109
   R18        2.04506  -0.00384   0.00000  -0.01029  -0.01029   2.03477
   R19        2.48318  -0.00355   0.00000  -0.00810  -0.00813   2.47505
   R20        2.57273   0.00196   0.00000   0.00608   0.00616   2.57889
   R21        2.03324   0.00067   0.00000   0.00176   0.00176   2.03500
   R22        1.90439  -0.00323   0.00000  -0.00546  -0.00546   1.89893
   R23        2.87292   0.00157   0.00000   0.00183   0.00183   2.87475
   R24        2.06998  -0.00157   0.00000  -0.00371  -0.00371   2.06627
   R25        2.07209  -0.00144   0.00000  -0.00442  -0.00442   2.06767
   R26        2.76857   0.00194   0.00000  -0.00064  -0.00064   2.76792
   R27        2.06313  -0.00157   0.00000  -0.00663  -0.00663   2.05650
   R28        2.07229  -0.00146   0.00000  -0.00153  -0.00153   2.07076
   R29        1.91608   0.00019   0.00000  -0.00167  -0.00167   1.91441
   R30        1.91411  -0.00006   0.00000  -0.00233  -0.00233   1.91178
    A1        2.11910   0.00243   0.00000   0.00293   0.00289   2.12200
    A2        2.15777  -0.00214   0.00000  -0.00398  -0.00401   2.15376
    A3        2.00623  -0.00029   0.00000   0.00088   0.00085   2.00708
    A4        2.11381   0.00315   0.00000  -0.02013  -0.02343   2.09038
    A5        2.12025  -0.00281   0.00000  -0.02315  -0.02629   2.09396
    A6        2.01275  -0.00024   0.00000   0.00555   0.00180   2.01455
    A7        1.86647   0.00205   0.00000   0.01998   0.01997   1.88644
    A8        1.98585   0.00082   0.00000  -0.02806  -0.02807   1.95778
    A9        1.91864  -0.00168   0.00000  -0.02022  -0.02019   1.89845
   A10        1.94811  -0.00263   0.00000  -0.00239  -0.00234   1.94577
   A11        1.88660  -0.00003   0.00000   0.00958   0.00957   1.89617
   A12        1.85647   0.00135   0.00000   0.02178   0.02150   1.87797
   A13        1.95306   0.00060   0.00000  -0.00217  -0.00217   1.95089
   A14        2.17674   0.00047   0.00000  -0.00208  -0.00209   2.17466
   A15        2.15338  -0.00107   0.00000   0.00426   0.00426   2.15763
   A16        1.85929   0.00342   0.00000   0.02127   0.02127   1.88056
   A17        1.98809   0.00277   0.00000  -0.00432  -0.00435   1.98374
   A18        1.86956  -0.00151   0.00000  -0.01524  -0.01526   1.85430
   A19        1.88923  -0.00088   0.00000   0.01148   0.01143   1.90066
   A20        1.93128   0.00100   0.00000   0.03328   0.03335   1.96462
   A21        1.90241  -0.00180   0.00000  -0.01740  -0.01734   1.88507
   A22        1.87988   0.00030   0.00000  -0.00826  -0.00814   1.87174
   A23        2.30846  -0.00160   0.00000  -0.01489  -0.01497   2.29349
   A24        2.14412   0.00421   0.00000   0.02081   0.02073   2.16485
   A25        1.83034  -0.00259   0.00000  -0.00587  -0.00571   1.82463
   A26        1.93295   0.00101   0.00000   0.00312   0.00309   1.93604
   A27        2.22697  -0.00046   0.00000  -0.00459  -0.00460   2.22236
   A28        2.12326  -0.00055   0.00000   0.00149   0.00148   2.12474
   A29        1.83473   0.00256   0.00000   0.00678   0.00674   1.84147
   A30        1.94437  -0.00018   0.00000  -0.00043  -0.00029   1.94408
   A31        2.20887  -0.00103   0.00000  -0.00737  -0.00744   2.20143
   A32        2.12995   0.00121   0.00000   0.00780   0.00773   2.13768
   A33        1.88238  -0.00079   0.00000  -0.00358  -0.00387   1.87851
   A34        2.18322   0.00098   0.00000  -0.00348  -0.00414   2.17909
   A35        2.21629  -0.00019   0.00000   0.00416   0.00346   2.21975
   A36        1.97306   0.00002   0.00000  -0.00381  -0.00387   1.96919
   A37        1.90415   0.00057   0.00000  -0.00210  -0.00216   1.90198
   A38        1.90601  -0.00121   0.00000   0.00267   0.00263   1.90864
   A39        1.91253  -0.00037   0.00000  -0.00917  -0.00919   1.90334
   A40        1.91121   0.00142   0.00000   0.01687   0.01687   1.92809
   A41        1.85300  -0.00047   0.00000  -0.00455  -0.00450   1.84850
   A42        1.90346   0.00158   0.00000   0.01002   0.00999   1.91344
   A43        1.90329   0.00020   0.00000  -0.00178  -0.00178   1.90151
   A44        1.90240  -0.00033   0.00000   0.00295   0.00292   1.90532
   A45        1.89622  -0.00101   0.00000  -0.00246  -0.00247   1.89376
   A46        1.98959  -0.00011   0.00000   0.00038   0.00033   1.98992
   A47        1.86723  -0.00036   0.00000  -0.00965  -0.00965   1.85758
   A48        1.91530   0.00215   0.00000   0.02419   0.02387   1.93917
   A49        1.91878   0.00108   0.00000   0.01389   0.01356   1.93234
   A50        1.84761  -0.00032   0.00000   0.01695   0.01632   1.86393
    D1       -0.13496   0.00010   0.00000  -0.01884  -0.01793  -0.15289
    D2       -2.97666  -0.00028   0.00000   0.13207   0.13113  -2.84553
    D3        3.02031   0.00057   0.00000  -0.00486  -0.00391   3.01640
    D4        0.17861   0.00020   0.00000   0.14606   0.14515   0.32376
    D5        0.00069  -0.00010   0.00000   0.22350   0.22350   0.22419
    D6       -2.13194  -0.00004   0.00000   0.23934   0.23933  -1.89261
    D7        2.13297   0.00087   0.00000   0.24446   0.24445   2.37742
    D8        3.12826  -0.00055   0.00000   0.20923   0.20925  -2.94567
    D9        0.99564  -0.00049   0.00000   0.22507   0.22508   1.22072
   D10       -1.02264   0.00042   0.00000   0.23019   0.23020  -0.79244
   D11       -2.83018   0.00024   0.00000   0.17923   0.17944  -2.65074
   D12        1.29374   0.00154   0.00000   0.18616   0.18658   1.48032
   D13       -0.78611   0.00047   0.00000   0.19119   0.19112  -0.59499
   D14        0.02896   0.00012   0.00000   0.03271   0.03254   0.06150
   D15       -2.13031   0.00143   0.00000   0.03964   0.03969  -2.09063
   D16        2.07303   0.00035   0.00000   0.04467   0.04422   2.11725
   D17        3.07468  -0.00027   0.00000   0.02299   0.02307   3.09775
   D18       -0.06475  -0.00029   0.00000   0.01747   0.01756  -0.04719
   D19       -1.02616   0.00049   0.00000   0.00011   0.00011  -1.02604
   D20        2.11760   0.00046   0.00000  -0.00541  -0.00540   2.11220
   D21        1.00960   0.00062   0.00000   0.03104   0.03094   1.04054
   D22       -2.12983   0.00060   0.00000   0.02551   0.02542  -2.10441
   D23        1.03415   0.00225   0.00000   0.20655   0.20668   1.24082
   D24       -1.10739   0.00028   0.00000   0.17805   0.17818  -0.92921
   D25       -3.13007   0.00115   0.00000   0.18978   0.18989  -2.94018
   D26       -1.08016   0.00094   0.00000   0.20257   0.20257  -0.87758
   D27        3.06149  -0.00104   0.00000   0.17406   0.17408  -3.04762
   D28        1.03881  -0.00017   0.00000   0.18579   0.18579   1.22460
   D29       -3.13413   0.00159   0.00000   0.17922   0.17909  -2.95504
   D30        1.00752  -0.00039   0.00000   0.15072   0.15060   1.15811
   D31       -1.01516   0.00048   0.00000   0.16245   0.16231  -0.85286
   D32       -3.13012  -0.00079   0.00000  -0.05343  -0.05344   3.09963
   D33        0.00935  -0.00077   0.00000  -0.04800  -0.04799  -0.03865
   D34        1.96138  -0.00065   0.00000   0.14612   0.14615   2.10753
   D35       -1.15151  -0.00123   0.00000   0.14363   0.14363  -1.00788
   D36       -2.21443   0.00007   0.00000   0.14790   0.14798  -2.06645
   D37        0.95587  -0.00051   0.00000   0.14541   0.14546   1.10133
   D38       -0.15025  -0.00008   0.00000   0.14690   0.14683  -0.00342
   D39        3.02004  -0.00065   0.00000   0.14440   0.14432  -3.11883
   D40       -3.12001  -0.00037   0.00000  -0.00083  -0.00083  -3.12084
   D41        0.01899  -0.00005   0.00000   0.01122   0.01122   0.03021
   D42       -0.00337   0.00022   0.00000   0.00171   0.00170  -0.00167
   D43        3.13563   0.00053   0.00000   0.01376   0.01375  -3.13381
   D44        3.12322   0.00004   0.00000  -0.00601  -0.00593   3.11729
   D45        0.03319   0.00005   0.00000   0.05165   0.05152   0.08471
   D46        0.00361  -0.00038   0.00000  -0.00765  -0.00762  -0.00401
   D47       -3.08642  -0.00037   0.00000   0.05001   0.04983  -3.03659
   D48        0.00179   0.00003   0.00000   0.00503   0.00507   0.00686
   D49       -3.13739  -0.00026   0.00000  -0.00617  -0.00619   3.13961
   D50        0.00059  -0.00028   0.00000  -0.01003  -0.01007  -0.00948
   D51        3.14121   0.00006   0.00000  -0.01105  -0.01112   3.13009
   D52       -0.00272   0.00042   0.00000   0.01148   0.01146   0.00874
   D53        3.08606   0.00046   0.00000  -0.04788  -0.04802   3.03804
   D54        3.13980   0.00011   0.00000   0.01246   0.01248  -3.13091
   D55       -0.05461   0.00015   0.00000  -0.04691  -0.04700  -0.10161
   D56       -3.13491   0.00014   0.00000   0.05185   0.05186  -3.08306
   D57       -1.06670  -0.00005   0.00000   0.05366   0.05366  -1.01304
   D58        0.96610  -0.00055   0.00000   0.04278   0.04276   1.00886
   D59       -1.00699   0.00061   0.00000   0.03991   0.03995  -0.96703
   D60        1.06123   0.00042   0.00000   0.04172   0.04175   1.10298
   D61        3.09402  -0.00008   0.00000   0.03084   0.03086   3.12488
   D62        1.01890   0.00064   0.00000   0.03883   0.03881   1.05772
   D63        3.08712   0.00046   0.00000   0.04064   0.04061   3.12773
   D64       -1.16327  -0.00004   0.00000   0.02976   0.02972  -1.13355
   D65       -1.23557   0.00077   0.00000   0.01610   0.01626  -1.21931
   D66        3.02231  -0.00072   0.00000  -0.02642  -0.02660   2.99571
   D67        2.97498   0.00021   0.00000   0.01392   0.01409   2.98907
   D68        0.94968  -0.00128   0.00000  -0.02861  -0.02877   0.92091
   D69        0.89479   0.00143   0.00000   0.02760   0.02777   0.92256
   D70       -1.13051  -0.00005   0.00000  -0.01492  -0.01508  -1.14560
         Item               Value     Threshold  Converged?
 Maximum Force            0.005421     0.000450     NO 
 RMS     Force            0.001503     0.000300     NO 
 Maximum Displacement     1.276186     0.001800     NO 
 RMS     Displacement     0.383284     0.001200     NO 
 Predicted change in Energy=-1.973918D-03
 GradGradGradGradGradGradGradGradGradGradGradGradGradGradGradGradGradGrad

                          Input orientation:                          
 ---------------------------------------------------------------------
 Center     Atomic      Atomic             Coordinates (Angstroms)
 Number     Number       Type             X           Y           Z
 ---------------------------------------------------------------------
      1          8           0       -1.227985   -1.938655   -0.531144
      2          6           0       -1.356044   -0.765068   -0.232795
      3          7           0       -0.398111   -0.098574    0.484223
      4          6           0        0.707771   -0.834831    1.067205
      5          6           0        1.174712   -0.085757    2.296761
      6          8           0        2.165367   -0.733186    2.927432
      7          8           0        0.721289    0.966144    2.670276
      8          6           0        1.860877   -1.046910    0.062302
      9          6           0        2.614258    0.196650   -0.253127
     10          6           0        3.937708    0.517846   -0.100891
     11          7           0        4.180557    1.809118   -0.511043
     12          6           0        3.020971    2.276548   -0.901293
     13          7           0        2.037702    1.338965   -0.772868
     14          6           0       -2.547807    0.076912   -0.647839
     15          6           0       -3.696568   -0.756057   -1.196220
     16          7           0       -4.773640    0.127902   -1.647822
     17          1           0       -0.623671    0.775258    0.936913
     18          1           0        0.351104   -1.820707    1.373473
     19          1           0        2.443587   -0.188010    3.677649
     20          1           0        1.414239   -1.501855   -0.823195
     21          1           0        2.561562   -1.768585    0.477075
     22          1           0        4.724310   -0.114902    0.273651
     23          1           0        2.829887    3.267029   -1.278249
     24          1           0        1.052477    1.467688   -0.922967
     25          1           0       -2.229297    0.792077   -1.411160
     26          1           0       -2.882489    0.676542    0.203994
     27          1           0       -3.340744   -1.330584   -2.049214
     28          1           0       -4.005966   -1.485036   -0.438835
     29          1           0       -5.230358    0.576892   -0.862898
     30          1           0       -5.485383   -0.397244   -2.138857
 ---------------------------------------------------------------------
[...]
 .00053791,0.00006359,0.04138253,0.05418076,0.00008608,-0.00130619,-0.0
 0122062,0.00207659,0.00223628,0.00259314,-0.00248696,-0.00230303,0.000
 71126,-0.00074063,0.00125616,-0.00090923,-0.00054999,0.00044230,-0.000
 32625,0.00040225,-0.00015350,0.00024977,0.00023259,-0.00031735,0.00024
 388,0.00112488,-0.00024010,-0.00044946,-0.00985284,-0.01004289,-0.0076
 0908,-0.00247438,0.00361220,-0.00090093,-0.00029147,0.00294275,0.00504
 342,0.00670514,-0.00463441,-0.00178429,-0.18723847,0.00477257,-0.12007
 405,-0.00010766,-0.00012769,0.00016003,0.00018121,0.00008085,-0.000021
 21,-0.00012113,0.00002099,-0.00011575,0.00072998,0.00027169,-0.0009560
 2,0.00015364,-0.00010260,-0.00003289,-0.00004773,0.00001551,-0.0000365
 3,-0.00009336,0.00004260,0.00004190,-0.00001904,-0.00019462,0.00006241
 ,-0.00113245,0.00007367,0.00111580,0.00037196,-0.00037281,-0.00093675,
 0.19312845,0.00398427,0.12525957,-0.00120185,-0.00123356,0.00216835,0.
 00678180,0.01114500,-0.02533201,-0.00257306,0.00004266,0.00053041,-0.0
 0090212,-0.00072719,0.00091221,0.00006276,0.00005509,0.00027712,-0.000
 06590,0.00001359,-0.00010826,-0.00004423,-0.00007683,-0.00011523,-0.00
 023190,0.00015733,-0.00032658,-0.00001995,0.00021452,-0.00011747,0.000
 07707,0.00002672,0.00004019,0.00011621,-0.00005018,0.00009099,-0.00013
 684,-0.00022364,0.00002300,0.00002104,0.00005048,-0.00001100,-0.054685
 01,-0.01928259,0.04920712,-0.01022949,-0.01459462,0.02677071,0.0027861
 2,0.00112888,0.00018744,0.00016435,0.00054722,-0.00037521,0.00006544,0
 .00000228,0.00005092,0.00001130,0.00000945,-0.00000232,0.00004444,0.00
 000233,-0.00003355,-0.00012410,0.00001205,0.00007960,0.00001370,0.0000
 0398,0.00000896,-0.00000675,-0.00000956,0.00000201,-0.00028526,-0.0000
 3222,-0.00009677,0.06476621,0.00226720,0.00058324,-0.00258889,-0.00554
 190,-0.00893138,0.01786634,0.00060407,-0.00025380,-0.00059295,0.000314
 18,0.00014294,-0.00000503,0.00007395,-0.00006360,-0.00008750,-0.000009
 41,0.00001923,0.00002034,-0.00004027,0.00004461,0.00003843,0.00005422,
 0.00000578,0.00006381,0.00004109,-0.00004538,0.00003329,-0.00001564,-0
 .00000873,-0.00000476,-0.00003108,-0.00000533,-0.00001998,0.00002564,0
 .00006096,-0.00002755,0.00002350,-0.00002728,-0.00004212,-0.02208257,-
 0.08786115,0.09261002,-0.00786696,-0.01020329,0.01746105,0.00190432,0.
 00121773,-0.00072249,0.00026666,0.00015356,-0.00009774,-0.00004102,-0.
 00000380,-0.00004763,-0.00000009,-0.00000559,0.00000715,-0.00003523,-0
 .00000942,0.00004562,0.00001906,0.00000534,-0.00000382,-0.00000518,-0.
 00000073,0.00000382,-0.00000993,-0.00000049,0.00000844,0.00009146,0.00
 014263,0.00008968,0.02705366,0.09547093,-0.00006679,-0.00100296,0.0008
 7567,0.00030640,0.00330184,-0.00924407,-0.00142800,0.00064518,0.000635
 08,-0.00048884,-0.00031285,0.00034844,0.00007479,0.00000187,0.00004332
 ,-0.00006609,0.00001415,-0.00004980,-0.00008481,-0.00000421,0.00000849
 ,-0.00009870,0.00015005,-0.00019778,-0.00003640,0.00020006,-0.00012959
 ,0.00006462,0.00002631,0.00004106,0.00013377,-0.00003633,0.00008859,-0
 .00016039,-0.00019804,-0.00000255,0.00008013,-0.00004003,0.00003223,0.
 05454595,0.09185694,-0.24713778,-0.00052593,-0.00029372,0.00244759,-0.
 00013816,-0.00105199,0.00061154,0.00056206,0.00050797,-0.00025345,0.00
 007497,-0.00001518,0.00002216,0.00001161,0.00000929,-0.00001051,-0.000
 01170,-0.00000707,-0.00002155,-0.00007051,-0.00001792,0.00005692,0.000
 01522,0.00000162,0.00000631,-0.00001663,-0.00001195,0.00001078,-0.0003
 9351,0.00006454,-0.00002023,-0.05629231,-0.10184676,0.26808080,-0.0040
 5339,0.00575042,-0.00321542,0.00026136,0.01590385,0.02165403,-0.000269
 15,-0.00097829,-0.00105046,0.00023024,-0.00025051,0.00012837,-0.000066
 78,0.00020531,0.00009535,0.00006742,-0.00007272,0.00002066,0.00008785,
 -0.00018450,-0.00005428,0.00004019,-0.00000901,0.00006450,0.00000375,0
 .00005520,-0.00006060,0.00001573,-0.00000956,0.00000424,0.00000872,-0.
 00003281,0.00001602,-0.00004011,-0.00004286,-0.00000650,0.00006296,-0.
 00003467,-0.00003261,-0.05510326,0.02493580,0.02069472,0.00315110,-0.0
 2289483,-0.02087766,0.00241295,-0.00005514,0.00079240,-0.00144365,0.00
 080439,-0.00114665,0.00013121,-0.00003468,0.00012965,-0.00000708,0.000
 00557,-0.00000358,0.00008279,0.00000703,-0.00004491,0.00001390,-0.0000
 0562,-0.00001777,-0.00000020,0.00000200,0.00000574,-0.00001022,-0.0000
 0390,0.00001216,-0.00003569,0.00011681,0.00008540,-0.00141507,0.005171
 02,0.00459466,0.06016684,0.00501543,-0.00234459,0.00186523,-0.00209662
 ,-0.01571736,-0.01562010,-0.00138021,0.00131897,0.00032253,-0.00000907
 ,-0.00004043,0.00061031,0.00023486,-0.00027311,-0.00009826,-0.00010927
 ,0.00010117,-0.00003600,-0.00018006,0.00016499,0.00009091,-0.00010952,
 0.00010657,-0.00013697,0.00000439,-0.00000090,0.00003567,-0.00000724,0
 .00000723,0.00000305,-0.00000026,0.00000547,-0.00000419,0.00000809,0.0
 0001494,-0.00000027,-0.00002043,-0.00000184,0.00001630,0.02718042,-0.1
 8479864,-0.12213983,0.00240598,-0.01395045,-0.01204981,0.00046103,0.00
 124348,0.00104478,0.00110053,0.00082753,0.00058437,-0.00003726,0.00006
 290,-0.00008608,0.00002197,-0.00000499,0.00000746,-0.00007651,-0.00001
 460,0.00004565,-0.00005078,0.00000151,0.00004860,0.00000342,-0.0000020
 3,-0.00000273,0.00000068,-0.00000064,-0.00000221,0.00001549,-0.0000159
 9,-0.00003065,-0.00179397,0.01044010,0.00809895,-0.02736110,0.20303910
 ,-0.00192526,0.00258306,0.00098793,-0.00195203,0.00765318,0.00461022,-
 0.00010839,0.00058214,-0.00017140,0.00022542,0.00009963,0.00052059,0.0
 0007241,-0.00014157,-0.00008823,0.00000975,0.00003229,0.00004817,0.000
 02009,0.00009314,0.00003792,-0.00002528,-0.00001875,-0.00003759,-0.000
 00560,-0.00003475,0.00001265,-0.00001190,0.00000206,-0.00000940,-0.000
 00424,0.00003681,-0.00000478,0.00002888,0.00001449,0.00002131,-0.00005
 294,0.00003678,0.00004348,0.02380273,-0.12514601,-0.15819924,0.0003380
 5,-0.00262910,-0.00242186,0.00003431,0.00065332,0.00028911,-0.00053335
 ,0.00042026,0.00051270,-0.00000247,0.00005703,-0.00000226,0.00000232,-
 0.00001060,0.00000656,0.00000121,0.00003025,0.00000923,0.00000959,0.00
 000601,0.00002050,-0.00000068,-0.00000064,-0.00000605,0.00001689,0.000
 00215,-0.00001974,0.00001863,-0.00013818,-0.00011572,0.00435603,-0.021
 65262,-0.01850512,-0.02193469,0.13697933,0.17023456,-0.00051740,0.0014
 2079,0.00100275,0.00074206,-0.00228311,-0.00184256,0.00036041,0.000850
 34,0.00063238,-0.00006705,0.00020676,0.00000715,0.00003178,-0.00010141
 ,-0.00008919,-0.00000562,0.00003042,0.00002722,-0.00002544,0.00008291,
 0.00006585,0.00000136,-0.00001630,-0.00002116,-0.00001063,-0.00002237,
 0.00002139,-0.00000792,0.00000439,-0.00000501,0.00000638,0.00002333,-0
 .00000453,0.00000870,0.00000923,0.00000198,-0.00000624,0.00001319,0.00
 001769,0.00314760,-0.02268595,-0.01992558,-0.05388112,0.02843912,0.028
 09032,-0.00808455,0.02410591,0.01507255,0.00038765,-0.00016066,0.00029
 926,-0.00006031,0.00000517,-0.00005704,0.00000158,-0.00000332,-0.00000
 104,-0.00004088,0.00000535,0.00001902,0.00000414,0.00000285,0.00000613
 ,-0.00000071,-0.00000121,-0.00000212,0.00000481,0.00000160,-0.00000557
 ,0.00002019,-0.00005108,-0.00002670,0.00155171,0.00054290,0.00029349,-
 0.00542253,-0.00289413,-0.00090494,0.06510086,0.00134015,0.00079238,0.
 00133182,0.00098352,-0.00149040,-0.00029136,-0.00008629,0.00005817,-0.
 00022565,0.00005132,0.00002417,0.00000155,0.00003216,-0.00002794,-0.00
 000134,-0.00002699,0.00001431,-0.00001644,-0.00002298,0.00003376,-0.00
 000067,-0.00000031,-0.00000180,-0.00001456,-0.00000002,0.00000074,0.00
 000687,0.00000050,0.00000328,0.00000103,0.00000072,0.00000057,0.000004
 07,-0.00000076,-0.00000095,0.00000318,-0.00001263,0.00000963,0.0000138
 5,-0.00095475,-0.01422002,-0.01295444,0.03027768,-0.18835309,-0.124335
 99,0.00622984,-0.01752310,-0.01109243,0.00002103,0.00006136,0.00013069
 ,-0.00002497,0.00001998,-0.00001075,0.00000128,-0.00000214,0.00000226,
 -0.00001205,0.00000423,0.00000362,-0.00000298,0.00000213,0.00000708,0.
 00000128,-0.00000058,-0.00000155,0.00000274,-0.00000179,-0.00000492,0.
 00001014,-0.00002142,-0.00003939,0.00061893,0.00045311,0.00007572,-0.0
 0262482,-0.00095696,0.00012467,-0.03652105,0.21038951,0.00115360,0.001
 74933,0.00063626,0.00051226,-0.00305359,-0.00098215,-0.00000217,0.0004
 9486,0.00038645,-0.00000383,-0.00000224,-0.00002981,0.00003667,-0.0000
 6005,-0.00005731,-0.00002086,0.00002376,-0.00000272,-0.00003378,0.0000
 5321,0.00005261,0.00000620,-0.00000714,-0.00001343,-0.00000024,-0.0000
 2409,0.00002277,-0.00000847,0.00000149,-0.00000380,-0.00000966,0.00001
 160,-0.00001061,0.00001778,0.00002017,0.00000030,-0.00000792,0.0000003
 5,-0.00000017,-0.00092947,-0.00198055,-0.00270367,0.02944132,-0.130723
 32,-0.16940113,-0.00312649,0.01324578,0.01095759,0.00005428,0.00004141
 ,0.00010749,-0.00000713,0.00000340,-0.00002985,0.00000386,-0.00000252,
 0.00000025,-0.00002252,-0.00000393,0.00001859,-0.00000059,0.00000274,0
 .00000107,-0.00000095,-0.00000075,-0.00000180,0.00000278,0.00000258,-0
 .00000136,0.00002562,-0.00001464,0.00000721,-0.00039579,0.00043974,0.0
 0097274,-0.00070545,0.00017224,0.00138175,-0.02842467,0.13700469,0.177
 19061,0.00002166,0.00128777,-0.00031193,0.00160674,-0.00245823,0.00150
 716,-0.00034615,0.00031437,-0.00066702,0.00002529,-0.00015418,0.000033
 24,-0.00000991,0.00003619,0.00008977,-0.00002764,0.00000644,-0.0000596
 7,0.00001054,-0.00000280,-0.00006883,-0.00002748,0.00002456,-0.0000067
 0,0.00003849,-0.00006560,0.00005543,-0.00002455,-0.00001215,-0.0000134
 0,-0.00006723,-0.00000348,-0.00003956,0.00007490,0.00008845,0.00000360
 ,-0.00004682,0.00000154,-0.00001712,-0.01085886,-0.01148989,0.02478279
 ,-0.06739530,-0.02584914,0.05715387,0.00088521,0.01781029,-0.02807742,
 -0.00002967,-0.00002955,0.00015994,-0.00004666,0.00003865,0.00000512,-
 0.00000842,-0.00000554,0.00000861,0.00001193,-0.00001392,-0.00000224,-
 0.00001683,0.00000448,-0.00000034,-0.00000494,0.00000015,-0.00000228,0
 .00000527,0.00000498,-0.00000245,0.00013886,-0.00000141,0.00001541,-0.
 00488864,-0.00317158,-0.00087363,0.00135892,0.00042305,-0.00061296,-0.
 00033002,-0.00208935,0.00415685,0.07761269,-0.00011243,0.00052682,0.00
 024068,0.00074667,-0.00086126,0.00040299,-0.00017799,0.00018250,-0.000
 42645,-0.00002683,-0.00005260,-0.00002804,-0.00008483,0.00009142,0.000
 04980,0.00003116,-0.00002622,-0.00000871,0.00006726,-0.00003486,-0.000
 05313,-0.00001814,-0.00000095,0.00000364,0.00001524,-0.00003902,0.0000
 1994,-0.00001456,-0.00000660,-0.00000975,-0.00002546,0.00001206,-0.000
 02426,0.00003553,0.00003601,0.00000553,-0.00001245,0.00000299,-0.00001
 108,-0.00906303,-0.00708031,0.01535436,-0.02644668,-0.08773551,0.07678
 492,0.00503285,-0.01172120,0.02099705,-0.00010823,-0.00005425,0.000103
 72,-0.00002078,0.00002095,0.00000039,-0.00001739,-0.00000318,-0.000000
 09,0.00000345,-0.00000455,-0.00000482,-0.00000302,0.00000270,-0.000002
 57,-0.00000523,0.00000095,-0.00000017,0.00000392,0.00000446,-0.0000001
 6,0.00006454,-0.00001620,0.00002066,-0.00288234,-0.00116745,-0.0001123
 8,0.00103336,0.00035118,0.00032372,0.00612647,0.01079470,-0.01977280,0
 .02661586,0.09606418,0.00015511,-0.00100021,0.00052595,0.00007379,0.00
 130947,0.00023505,0.00047001,-0.00027134,0.00014559,0.00002383,0.00009
 428,0.00000809,0.00004400,-0.00001550,-0.00002737,-0.00000513,-0.00000
 652,0.00002629,-0.00003000,-0.00001554,0.00003159,0.00001689,-0.000021
 46,0.00000943,-0.00001125,0.00001791,-0.00000143,0.00000445,0.00000509
 ,0.00000736,0.00000635,-0.00001815,0.00001326,-0.00001744,-0.00001117,
 -0.00000527,0.00000328,0.00000126,0.00000636,-0.00078640,-0.00244728,0
 .00345116,0.05930212,0.07702369,-0.23092370,-0.00689572,0.01081034,-0.
 00854615,0.00001377,0.00005988,-0.00012470,0.00004037,-0.00003739,0.00
 000192,0.00001774,0.00000909,-0.00000151,-0.00000614,0.00000301,-0.000
 00097,0.00001231,-0.00000187,-0.00000278,0.00000433,-0.00000108,-0.000
 00037,-0.00000320,-0.00000392,0.00000025,0.00000179,0.00001505,-0.0000
 1725,-0.00148750,-0.00062457,0.00129680,0.00039036,0.00049648,0.000839
 66,0.00706231,0.00860445,-0.01972513,-0.05707363,-0.09374615,0.2513554
 5,-0.00006270,-0.00106330,-0.00031195,-0.00052289,0.00107681,-0.000395
 27,0.00006882,-0.00017375,0.00000948,-0.00005496,0.00004144,-0.0000238
 3,-0.00007645,0.00006313,-0.00003704,0.00006091,-0.00003847,0.00005193
 ,0.00005008,-0.00005318,0.00001596,0.00000715,-0.00000801,0.00001696,-
 0.00001225,0.00001745,-0.00002505,0.00000516,-0.00000046,0.00000211,0.
 00002913,0.00000096,0.00001076,-0.00003143,-0.00002644,-0.00000913,0.0
 0003646,-0.00000541,-0.00000203,0.00125704,0.00124233,0.00163591,-0.00
 788840,0.01761690,0.02277984,-0.09084774,0.09082920,0.06651809,-0.0000
 8935,0.00001326,-0.00007354,0.00001739,-0.00001350,0.00000594,-0.00000
 597,0.00000607,-0.00001253,-0.00000204,0.00000638,-0.00000082,0.000012
 09,-0.00000114,-0.00000195,-0.00000010,-0.00000042,0.00000315,-0.00000
 736,-0.00000184,0.00000642,-0.00003697,0.00002056,0.00001841,-0.000136
 99,0.00008753,0.00004922,-0.00058073,-0.00075282,-0.00082167,-0.003645
 99,0.00277509,-0.00261232,0.00119961,-0.00055406,-0.00092211,0.0916438
 0,0.00008145,0.00008303,0.00007528,0.00014297,-0.00028113,0.00001420,-
 0.00005118,-0.00002651,0.00007602,0.00001270,0.00000799,-0.00001264,0.
 00000911,0.00002134,-0.00000921,-0.00000110,-0.00001240,0.00000880,-0.
 00001427,-0.00002631,0.00001337,0.00000634,0.00000249,-0.00000563,-0.0
 0000072,0.00001452,-0.00000477,0.00000309,0.00000091,0.00000475,0.0000
 0844,-0.00001708,0.00000736,-0.00001435,-0.00000605,-0.00000901,0.0000
 0937,-0.00000400,-0.00000064,-0.00028237,0.00125320,0.00053239,0.00845
 163,-0.01777489,-0.01585266,0.06895833,-0.19412672,-0.16534535,0.00000
 797,0.00006890,-0.00004725,0.00000786,-0.00000980,-0.00000365,0.000007
 10,0.00000699,-0.00000480,-0.00000194,0.00000054,0.00000072,0.00000026
 ,-0.00000130,0.00000240,0.00000243,-0.00000085,0.00000164,-0.00000671,
 -0.00000206,0.00000509,-0.00001119,0.00002514,-0.00000221,-0.00016386,
 -0.00002780,0.00023062,0.00052491,0.00031256,-0.00029332,0.00309710,-0
 .00091399,0.00289896,-0.00166726,0.00071482,-0.00058138,-0.08669219,0.
 22580834,-0.00026259,0.00005270,-0.00005264,0.00012532,0.00009747,0.00
 012605,0.00003951,-0.00001055,-0.00011439,-0.00002566,0.00000852,-0.00
 000285,-0.00004206,0.00002383,0.00000814,0.00002665,-0.00000919,0.0000
 0880,0.00003798,-0.00000816,-0.00001706,-0.00000650,-0.00000656,0.0000
 0903,-0.00000242,-0.00001109,-0.00000126,-0.00000287,-0.00000089,-0.00
 000513,-0.00000024,0.00001652,-0.00000653,0.00000665,-0.00000185,0.000
 00594,0.00000106,0.00000360,0.00000009,0.00059721,0.00035986,0.0006659
 4,-0.00689861,0.01675296,0.00789891,0.06366631,-0.21005397,-0.21593039
 ,-0.00005015,-0.00003623,0.00002488,-0.00000415,0.00000353,0.00000366,
 -0.00001042,-0.00000329,-0.00000006,0.00000135,0.00000117,-0.00000262,
 0.00000291,0.00000103,-0.00000292,-0.00000288,0.00000084,-0.00000038,0
 .00000450,0.00000198,-0.00000213,0.00000461,-0.00002113,0.00000853,0.0
 0014878,-0.00014943,-0.00029465,0.00030856,-0.00037925,-0.00001294,-0.
 00214723,0.00195417,0.00032963,-0.00002400,0.00053786,0.00177175,-0.06
 290544,0.19434997,0.21566861,0.00009242,0.00074211,0.00021132,-0.00041
 457,-0.00262195,-0.00032820,-0.00073904,0.00057185,-0.00029968,0.00008
 875,-0.00019380,-0.00012374,0.00001644,0.00008796,0.00012154,-0.000065
 83,-0.00000156,-0.00009354,-0.00002229,-0.00002557,-0.00007230,-0.0000
 0369,0.00001870,-0.00003054,0.00001886,0.00000796,0.00001729,0.0000004
 5,-0.00000112,0.00000382,-0.00002143,-0.00002227,-0.00000249,0.0000122
 4,0.00001613,0.00000141,-0.00002922,0.00000085,0.00000345,-0.00418863,
 0.00564235,-0.00206863,-0.02053120,-0.01823690,-0.00231883,-0.29358003
 ,-0.15575533,-0.09924087,-0.00000166,0.00005196,0.00008633,-0.00002318
 ,0.00001783,-0.00000530,-0.00000287,0.00000052,0.00000482,0.00001446,-
 0.00001142,-0.00000433,-0.00002207,-0.00000074,0.00000645,0.00000188,-
 0.00000013,-0.00000125,-0.00000033,-0.00000229,-0.00000130,0.00002930,
 0.00001374,-0.00003242,0.00048500,0.00031040,-0.00005448,0.00035192,0.
 00000393,-0.00003994,0.00073718,0.00003360,0.00090109,0.00113902,-0.00
 020285,-0.00040432,0.00961467,0.00757609,0.00741380,0.30704345,-0.0001
 3217,-0.00012665,-0.00002444,0.00068979,0.00113277,-0.00003088,0.00023
 761,-0.00025485,0.00015342,-0.00003259,0.00001968,0.00010566,0.0000133
 3,-0.00004398,-0.00002832,0.00001090,0.00000626,0.00002415,-0.00000434
 ,0.00001345,0.00001706,-0.00000842,0.00000252,0.00000564,-0.00000351,-
 0.00000371,-0.00000234,0.00000009,0.00000090,-0.00000154,-0.00000050,0
 .00000174,0.00000070,0.00000237,0.00000009,0.00000132,-0.00000007,0.00
 000091,0.00000038,0.00250536,-0.00219829,0.00131733,0.02265769,0.01155
 611,0.01038733,-0.16375183,-0.16751946,-0.08169858,0.00002845,-0.00001
 184,-0.00004357,0.00001596,-0.00000464,0.00000988,0.00000566,0.0000010
 2,0.00000171,-0.00000143,0.00000305,-0.00000208,0.00000403,0.00000039,
 -0.00000060,0.00000015,0.00000018,0.00000010,0.00000188,0.00000065,-0.
 00000164,-0.00000208,-0.00000627,0.00000527,-0.00001359,-0.00012493,-0
 .00023371,0.00007935,0.00012484,0.00033522,-0.00022724,0.00085217,-0.0
 0052067,0.00035730,-0.00000155,0.00035353,-0.02441211,-0.01508986,-0.0
 0347444,0.16197995,0.17166930,0.00015985,-0.00001842,-0.00017817,-0.00
 021519,-0.00010567,0.00064731,0.00022438,-0.00011060,0.00008169,-0.000
 02272,0.00005931,-0.00000797,-0.00006311,0.00002344,-0.00004260,0.0000
 5844,-0.00001749,0.00004280,0.00004909,-0.00001438,0.00001258,0.000008
 08,-0.00001202,0.00002388,-0.00000949,-0.00000347,-0.00001590,0.000000
 91,-0.00000187,-0.00000472,0.00002167,0.00001795,-0.00000241,-0.000012
 19,-0.00001469,-0.00000169,0.00002851,-0.00000533,-0.00000553,0.000481
 72,0.00146002,-0.00018719,-0.01337985,-0.00447879,-0.00729646,-0.06132
 653,-0.05310639,-0.04137427,-0.00004690,-0.00003660,-0.00002158,-0.000
 00407,-0.00000265,-0.00000054,-0.00001252,-0.00000198,-0.00000293,-0.0
 0000942,0.00000639,0.00000504,0.00001350,0.00000129,-0.00000249,-0.000
 00346,0.00000100,0.00000285,-0.00000295,0.00000277,0.00000507,-0.00003
 225,-0.00000265,0.00002934,-0.00015983,-0.00017388,0.00028857,0.000153
 75,0.00016451,0.00001802,0.00083784,-0.00028021,0.00089761,-0.00011860
 ,-0.00064468,-0.00034936,-0.02296951,-0.01604905,-0.01008402,0.0963508
 4,0.07334414,0.05752307\\-0.00000112,0.00000382,0.00000148,-0.00000099
 ,-0.00000344,-0.00000648,-0.00000023,0.00000086,0.00000219,0.00000011,
 -0.00000198,0.00000057,0.00000065,0.00000015,0.00000121,-0.00000239,0.
 00000060,-0.00000120,0.00000065,-0.00000132,-0.00000029,0.00000248,-0.
 00000004,0.00000069,-0.00000065,-0.00000426,0.00000174,0.00000354,0.00
 000196,0.00000098,-0.00000272,-0.00000205,0.00000008,0.00000296,0.0000
 0059,0.00000212,-0.00000330,0.00000207,-0.00000251,0.00000298,0.000002
 64,-0.00000024,-0.00000010,-0.00000214,-0.00000002,-0.00000041,-0.0000
 0078,-0.00000070,-0.00000076,0.00000060,0.00000025,-0.00000018,0.00000
 077,0.00000013,0.00000028,0.00000048,0.00000249,0.00000040,0.00000026,
 0.00000070,-0.00000086,0.00000078,-0.00000006,-0.00000198,0.00000142,-
 0.00000070,0.00000045,0.00000058,0.00000035,0.00000143,-0.00000052,0.0
 0000130,0.00000029,-0.00000176,0.00000075,-0.00000069,-0.00000090,-0.0
 0000079,0.00000038,0.00000061,-0.00000111,0.00000035,0.00000057,-0.000
 00097,-0.00000042,0.00000012,-0.00000090,-0.00000015,0.00000029,-0.000
 00107\\\@


 OUR LITTLE SYSTEMS HAVE THEIR DAY,    
   THEY HAVE THEIR DAY AND CEASE TO BE.
   THEY ARE BUT BROKEN LIGHTS OF THEE, 
 AND THOU, OH LORD, ART MORE THAN THEY.
          -------------------          
 LET KNOWLEDGE GROW FROM MORE TO MORE, 
   BUT MORE OF REVERENCE IN US DWELL.  
   THAT MIND AND SOUL, ACCORDING WELL, 
 MAY MAKE ONE MUSIC AS BEFORE.....     
          -------------------          
                    LORD TENNYSON      
 Job cpu time:       1 days  1 hours  1 minutes 35.8 seconds.
 File lengths (MBytes):  RWF=   1142 Int=      0 D2E=      0 Chk=     42 Scr=      1
 Normal termination of Gaussian 09 at Sat Jul 24 22:42:12 2021.
