 Entering Gaussian System, Link 0=g09
 Input=opt_freq-conf-591.com
 Output=opt_freq-conf-591.log
 Initial command:
 /aerosol/software/g09/l1.exe "/scratch/nicole/10557/Gau-595251.inp" -scrdir="/scratch/nicole/10557/"
 Entering Link 1 = /aerosol/software/g09/l1.exe PID=    595256.
  
 Copyright (c) 1988,1990,1992,1993,1995,1998,2003,2009,2013,
            Gaussian, Inc.  All Rights Reserved.
  
 This is part of the Gaussian(R) 09 program.  It is based on
 the Gaussian(R) 03 system (copyright 2003, Gaussian, Inc.),
 the Gaussian(R) 98 system (copyright 1998, Gaussian, Inc.),
 the Gaussian(R) 94 system (copyright 1995, Gaussian, Inc.),
 the Gaussian 92(TM) system (copyright 1992, Gaussian, Inc.),
 the Gaussian 90(TM) system (copyright 1990, Gaussian, Inc.),
 the Gaussian 88(TM) system (copyright 1988, Gaussian, Inc.),
 the Gaussian 86(TM) system (copyright 1986, Carnegie Mellon
 University), and the Gaussian 82(TM) system (copyright 1983,
 Carnegie Mellon University). Gaussian is a federally registered
 trademark of Gaussian, Inc.
  
 This software contains proprietary and confidential information,
 including trade secrets, belonging to Gaussian, Inc.
  
 This software is provided under written license and may be
 used, copied, transmitted, or stored only in accord with that
 written license.
  
 The following legend is applicable only to US Government
 contracts under FAR:
  
                    RESTRICTED RIGHTS LEGEND
  
 Use, reproduction and disclosure by the US Government is
 subject to restrictions as set forth in subparagraphs (a)
 and (c) of the Commercial Computer Software - Restricted
 Rights clause in FAR 52.227-19.
  
 Gaussian, Inc.
 340 Quinnipiac St., Bldg. 40, Wallingford CT 06492
  
  
 ---------------------------------------------------------------
 Warning -- This program may not be used in any manner that
 competes with the business of Gaussian, Inc. or will provide
 assistance to any competitor of Gaussian, Inc.  The licensee
 of this program is prohibited from giving any competitor of
 Gaussian, Inc. access to this program.  By using this program,
 the user acknowledges that Gaussian, Inc. is engaged in the
 business of creating and licensing software in the field of
 computational chemistry and represents and warrants to the
 licensee that it is not a competitor of Gaussian, Inc. and that
 it will not use this program in any manner prohibited above.
 ---------------------------------------------------------------
  

 Cite this work as:
 Gaussian 09, Revision D.01,
 M. J. Frisch, G. W. Trucks, H. B. Schlegel, G. E. Scuseria, 
 M. A. Robb, J. R. Cheeseman, G. Scalmani, V. Barone, B. Mennucci, 
 G. A. Petersson, H. Nakatsuji, M. Caricato, X. Li, H. P. Hratchian, 
 A. F. Izmaylov, J. Bloino, G. Zheng, J. L. Sonnenberg, M. Hada, 
 M. Ehara, K. Toyota, R. Fukuda, J. Hasegawa, M. Ishida, T. Nakajima, 
 Y. Honda, O. Kitao, H. Nakai, T. Vreven, J. A. Montgomery, Jr., 
 J. E. Peralta, F. Ogliaro, M. Bearpark, J. J. Heyd, E. Brothers, 
 K. N. Kudin, V. N. Staroverov, T. Keith, R. Kobayashi, J. Normand, 
 K. Raghavachari, A. Rendell, J. C. Burant, S. S. Iyengar, J. Tomasi, 
 M. Cossi, N. Rega, J. M. Millam, M. Klene, J. E. Knox, J. B. Cross, 
 V. Bakken, C. Adamo, J. Jaramillo, R. Gomperts, R. E. Stratmann, 
 O. Yazyev, A. J. Austin, R. Cammi, C. Pomelli, J. W. Ochterski, 
 R. L. Martin, K. Morokuma, V. G. Zakrzewski, G. A. Voth, 
 P. Salvador, J. J. Dannenberg, S. Dapprich, A. D. Daniels, 
 O. Farkas, J. B. Foresman, J. V. Ortiz, J. Cioslowski, 
 and D. J. Fox, Gaussian, Inc., Wallingford CT, 2013.
 
 ******************************************
 Gaussian 09:  ES64L-G09RevD.01 24-Apr-2013
                28-Jul-2021 
 ******************************************
 %mem=2gb
 %nproc=4
 Will use up to    4 processors via shared memory.
 %chk=conf-591.chk
 ----------------------------------------------------------------------
 # B3LYP/6-311++G(d,p) opt=calcfc freq=noraman nosymm integral(ultrafin
 egrid)
 ----------------------------------------------------------------------
 1/10=4,14=-1,18=20,19=15,26=4,38=1/1,3;
 2/9=110,12=2,15=1,17=6,18=5,40=1/2;
 3/5=4,6=6,7=1111,11=2,16=1,25=1,30=1,71=2,74=-5,75=-5,140=1/1,2,3;
 4//1;
 5/5=2,38=5/2;
 8/6=4,10=90,11=11/1;
 11/6=1,8=1,9=11,15=111,16=1,31=1/1,2,10;
 10/6=1,13=1,31=1/2;
 6/7=2,8=2,9=2,10=2,28=1/1;
 7/10=1,18=20,25=1,30=1/1,2,3,16;
 1/10=4,14=-1,18=20,19=15,26=4/3(2);
 2/9=110,15=1/2;
 99//99;
 2/9=110,15=1/2;
 3/5=4,6=6,7=1111,11=2,16=1,25=1,30=1,71=1,74=-5,75=-5/1,2,3;
 4/5=5,16=3,69=1/1;
 5/5=2,38=5/2;
 7/30=1/1,2,3,16;
 1/14=-1,18=20,19=15,26=4/3(-5);
 2/9=110,15=1/2;
 6/7=2,8=2,9=2,10=2,19=2,28=1/1;
 99/9=1/99;
 ------------------------------------------------------------
 Candidate Structure: Conf:591 OPT and FREQ calc in gas phase
 ------------------------------------------------------------
 Symbolic Z-matrix:
 Charge =  0 Multiplicity = 1
 O                    -1.50958  -0.24594  -1.12071 
 C                    -1.65441  -0.21585   0.0925 
 N                    -0.5916   -0.29727   0.93485 
 C                     0.76368  -0.4252    0.42429 
 C                     1.58669  -1.02445   1.54156 
 O                     2.3125   -2.09563   1.1682 
 O                     1.5985   -0.57963   2.66283 
 C                     1.31394   0.95998   0.02517 
 C                     2.70026   0.91407  -0.52907 
 C                     3.9178    1.22596   0.01077 
 N                     4.93794   0.98003  -0.89233 
 C                     4.33935   0.52657  -1.96961 
 N                     2.98641   0.46695  -1.80145 
 C                    -3.00269  -0.05793   0.77323 
 C                    -4.17095  -0.43485  -0.12418 
 N                    -5.42234  -0.19908   0.60083 
 H                    -0.71097  -0.23088   1.93345 
 H                     0.74552  -1.08257  -0.44413 
 H                     2.80172  -2.37166   1.95519 
 H                     1.31406   1.5975    0.90708 
 H                     0.6228    1.38591  -0.69981 
 H                     4.1116    1.5998    1.00794 
 H                     4.81374   0.23118  -2.88829 
 H                     2.31183   0.15899  -2.48369 
 H                    -3.02322  -0.65284   1.69002 
 H                    -3.1142    0.9894    1.07929 
 H                    -4.11323  -1.49734  -0.37067 
 H                    -4.08587   0.12045  -1.06646 
 H                    -6.20558  -0.54364   0.05872 
 H                    -5.57369   0.79812   0.70512 
 

 GradGradGradGradGradGradGradGradGradGradGradGradGradGradGradGradGradGrad
 Berny optimization.
 Initialization pass.
                           ----------------------------
                           !    Initial Parameters    !
                           ! (Angstroms and Degrees)  !
 --------------------------                            --------------------------
 ! Name  Definition              Value          Derivative Info.                !
 --------------------------------------------------------------------------------
 ! R1    R(1,2)                  1.2222         calculate D2E/DX2 analytically  !
 ! R2    R(2,3)                  1.3586         calculate D2E/DX2 analytically  !
 ! R3    R(2,14)                 1.5186         calculate D2E/DX2 analytically  !
 ! R4    R(3,4)                  1.4539         calculate D2E/DX2 analytically  !
 ! R5    R(3,17)                 1.0079         calculate D2E/DX2 analytically  !
 ! R6    R(4,5)                  1.5115         calculate D2E/DX2 analytically  !
 ! R7    R(4,8)                  1.543          calculate D2E/DX2 analytically  !
 ! R8    R(4,18)                 1.0893         calculate D2E/DX2 analytically  !
 ! R9    R(5,6)                  1.3467         calculate D2E/DX2 analytically  !
 ! R10   R(5,7)                  1.2063         calculate D2E/DX2 analytically  !
 ! R11   R(6,19)                 0.9669         calculate D2E/DX2 analytically  !
 ! R12   R(8,9)                  1.4937         calculate D2E/DX2 analytically  !
 ! R13   R(8,20)                 1.0882         calculate D2E/DX2 analytically  !
 ! R14   R(8,21)                 1.0884         calculate D2E/DX2 analytically  !
 ! R15   R(9,10)                 1.3679         calculate D2E/DX2 analytically  !
 ! R16   R(9,13)                 1.3787         calculate D2E/DX2 analytically  !
 ! R17   R(10,11)                1.3845         calculate D2E/DX2 analytically  !
 ! R18   R(10,22)                1.0824         calculate D2E/DX2 analytically  !
 ! R19   R(11,12)                1.3132         calculate D2E/DX2 analytically  !
 ! R20   R(12,13)                1.3647         calculate D2E/DX2 analytically  !
 ! R21   R(12,23)                1.0753         calculate D2E/DX2 analytically  !
 ! R22   R(13,24)                1.0076         calculate D2E/DX2 analytically  !
 ! R23   R(14,15)                1.5206         calculate D2E/DX2 analytically  !
 ! R24   R(14,25)                1.0931         calculate D2E/DX2 analytically  !
 ! R25   R(14,26)                1.0968         calculate D2E/DX2 analytically  !
 ! R26   R(15,16)                1.4653         calculate D2E/DX2 analytically  !
 ! R27   R(15,27)                1.0922         calculate D2E/DX2 analytically  !
 ! R28   R(15,28)                1.097          calculate D2E/DX2 analytically  !
 ! R29   R(16,29)                1.013          calculate D2E/DX2 analytically  !
 ! R30   R(16,30)                1.014          calculate D2E/DX2 analytically  !
 ! A1    A(1,2,3)              121.4187         calculate D2E/DX2 analytically  !
 ! A2    A(1,2,14)             123.5544         calculate D2E/DX2 analytically  !
 ! A3    A(3,2,14)             115.0146         calculate D2E/DX2 analytically  !
 ! A4    A(2,3,4)              121.1161         calculate D2E/DX2 analytically  !
 ! A5    A(2,3,17)             121.1786         calculate D2E/DX2 analytically  !
 ! A6    A(4,3,17)             117.6531         calculate D2E/DX2 analytically  !
 ! A7    A(3,4,5)              106.432          calculate D2E/DX2 analytically  !
 ! A8    A(3,4,8)              110.1376         calculate D2E/DX2 analytically  !
 ! A9    A(3,4,18)             108.5126         calculate D2E/DX2 analytically  !
 ! A10   A(5,4,8)              110.6663         calculate D2E/DX2 analytically  !
 ! A11   A(5,4,18)             111.0446         calculate D2E/DX2 analytically  !
 ! A12   A(8,4,18)             109.9672         calculate D2E/DX2 analytically  !
 ! A13   A(4,5,6)              113.8206         calculate D2E/DX2 analytically  !
 ! A14   A(4,5,7)              123.1051         calculate D2E/DX2 analytically  !
 ! A15   A(6,5,7)              123.073          calculate D2E/DX2 analytically  !
 ! A16   A(5,6,19)             105.9096         calculate D2E/DX2 analytically  !
 ! A17   A(4,8,9)              113.5389         calculate D2E/DX2 analytically  !
 ! A18   A(4,8,20)             108.4415         calculate D2E/DX2 analytically  !
 ! A19   A(4,8,21)             107.2857         calculate D2E/DX2 analytically  !
 ! A20   A(9,8,20)             108.5794         calculate D2E/DX2 analytically  !
 ! A21   A(9,8,21)             110.7451         calculate D2E/DX2 analytically  !
 ! A22   A(20,8,21)            108.0966         calculate D2E/DX2 analytically  !
 ! A23   A(8,9,10)             132.2717         calculate D2E/DX2 analytically  !
 ! A24   A(8,9,13)             123.0274         calculate D2E/DX2 analytically  !
 ! A25   A(10,9,13)            104.681          calculate D2E/DX2 analytically  !
 ! A26   A(9,10,11)            110.9726         calculate D2E/DX2 analytically  !
 ! A27   A(9,10,22)            126.9908         calculate D2E/DX2 analytically  !
 ! A28   A(11,10,22)           122.0282         calculate D2E/DX2 analytically  !
 ! A29   A(10,11,12)           105.1044         calculate D2E/DX2 analytically  !
 ! A30   A(11,12,13)           111.4636         calculate D2E/DX2 analytically  !
 ! A31   A(11,12,23)           126.4854         calculate D2E/DX2 analytically  !
 ! A32   A(13,12,23)           122.0508         calculate D2E/DX2 analytically  !
 ! A33   A(9,13,12)            107.7781         calculate D2E/DX2 analytically  !
 ! A34   A(9,13,24)            125.8051         calculate D2E/DX2 analytically  !
 ! A35   A(12,13,24)           126.4152         calculate D2E/DX2 analytically  !
 ! A36   A(2,14,15)            113.0663         calculate D2E/DX2 analytically  !
 ! A37   A(2,14,25)            109.6361         calculate D2E/DX2 analytically  !
 ! A38   A(2,14,26)            108.3393         calculate D2E/DX2 analytically  !
 ! A39   A(15,14,25)           110.2211         calculate D2E/DX2 analytically  !
 ! A40   A(15,14,26)           108.8604         calculate D2E/DX2 analytically  !
 ! A41   A(25,14,26)           106.4831         calculate D2E/DX2 analytically  !
 ! A42   A(14,15,16)           108.9191         calculate D2E/DX2 analytically  !
 ! A43   A(14,15,27)           109.4936         calculate D2E/DX2 analytically  !
 ! A44   A(14,15,28)           108.7749         calculate D2E/DX2 analytically  !
 ! A45   A(16,15,27)           108.259          calculate D2E/DX2 analytically  !
 ! A46   A(16,15,28)           114.1907         calculate D2E/DX2 analytically  !
 ! A47   A(27,15,28)           107.125          calculate D2E/DX2 analytically  !
 ! A48   A(15,16,29)           109.9255         calculate D2E/DX2 analytically  !
 ! A49   A(15,16,30)           109.6695         calculate D2E/DX2 analytically  !
 ! A50   A(29,16,30)           105.9114         calculate D2E/DX2 analytically  !
 ! D1    D(1,2,3,4)             -0.0656         calculate D2E/DX2 analytically  !
 ! D2    D(1,2,3,17)           177.2451         calculate D2E/DX2 analytically  !
 ! D3    D(14,2,3,4)          -178.8382         calculate D2E/DX2 analytically  !
 ! D4    D(14,2,3,17)           -1.5275         calculate D2E/DX2 analytically  !
 ! D5    D(1,2,14,15)           20.6569         calculate D2E/DX2 analytically  !
 ! D6    D(1,2,14,25)          144.0797         calculate D2E/DX2 analytically  !
 ! D7    D(1,2,14,26)         -100.0943         calculate D2E/DX2 analytically  !
 ! D8    D(3,2,14,15)         -160.6            calculate D2E/DX2 analytically  !
 ! D9    D(3,2,14,25)          -37.1772         calculate D2E/DX2 analytically  !
 ! D10   D(3,2,14,26)           78.6488         calculate D2E/DX2 analytically  !
 ! D11   D(2,3,4,5)           -158.086          calculate D2E/DX2 analytically  !
 ! D12   D(2,3,4,8)             81.9102         calculate D2E/DX2 analytically  !
 ! D13   D(2,3,4,18)           -38.5106         calculate D2E/DX2 analytically  !
 ! D14   D(17,3,4,5)            24.5115         calculate D2E/DX2 analytically  !
 ! D15   D(17,3,4,8)           -95.4923         calculate D2E/DX2 analytically  !
 ! D16   D(17,3,4,18)          144.0868         calculate D2E/DX2 analytically  !
 ! D17   D(3,4,5,6)            129.2775         calculate D2E/DX2 analytically  !
 ! D18   D(3,4,5,7)            -51.1291         calculate D2E/DX2 analytically  !
 ! D19   D(8,4,5,6)           -111.0615         calculate D2E/DX2 analytically  !
 ! D20   D(8,4,5,7)             68.5318         calculate D2E/DX2 analytically  !
 ! D21   D(18,4,5,6)            11.3623         calculate D2E/DX2 analytically  !
 ! D22   D(18,4,5,7)          -169.0443         calculate D2E/DX2 analytically  !
 ! D23   D(3,4,8,9)           -179.2007         calculate D2E/DX2 analytically  !
 ! D24   D(3,4,8,20)            60.0281         calculate D2E/DX2 analytically  !
 ! D25   D(3,4,8,21)           -56.5037         calculate D2E/DX2 analytically  !
 ! D26   D(5,4,8,9)             63.3907         calculate D2E/DX2 analytically  !
 ! D27   D(5,4,8,20)           -57.3805         calculate D2E/DX2 analytically  !
 ! D28   D(5,4,8,21)          -173.9123         calculate D2E/DX2 analytically  !
 ! D29   D(18,4,8,9)           -59.6599         calculate D2E/DX2 analytically  !
 ! D30   D(18,4,8,20)          179.5689         calculate D2E/DX2 analytically  !
 ! D31   D(18,4,8,21)           63.0371         calculate D2E/DX2 analytically  !
 ! D32   D(4,5,6,19)           178.8488         calculate D2E/DX2 analytically  !
 ! D33   D(7,5,6,19)            -0.7447         calculate D2E/DX2 analytically  !
 ! D34   D(4,8,9,10)          -102.8953         calculate D2E/DX2 analytically  !
 ! D35   D(4,8,9,13)            75.2209         calculate D2E/DX2 analytically  !
 ! D36   D(20,8,9,10)           17.7983         calculate D2E/DX2 analytically  !
 ! D37   D(20,8,9,13)         -164.0855         calculate D2E/DX2 analytically  !
 ! D38   D(21,8,9,10)          136.3359         calculate D2E/DX2 analytically  !
 ! D39   D(21,8,9,13)          -45.5479         calculate D2E/DX2 analytically  !
 ! D40   D(8,9,10,11)          178.2377         calculate D2E/DX2 analytically  !
 ! D41   D(8,9,10,22)           -0.7218         calculate D2E/DX2 analytically  !
 ! D42   D(13,9,10,11)          -0.1296         calculate D2E/DX2 analytically  !
 ! D43   D(13,9,10,22)        -179.0891         calculate D2E/DX2 analytically  !
 ! D44   D(8,9,13,12)         -178.5056         calculate D2E/DX2 analytically  !
 ! D45   D(8,9,13,24)            1.9218         calculate D2E/DX2 analytically  !
 ! D46   D(10,9,13,12)           0.0535         calculate D2E/DX2 analytically  !
 ! D47   D(10,9,13,24)        -179.5191         calculate D2E/DX2 analytically  !
 ! D48   D(9,10,11,12)           0.1564         calculate D2E/DX2 analytically  !
 ! D49   D(22,10,11,12)        179.1761         calculate D2E/DX2 analytically  !
 ! D50   D(10,11,12,13)         -0.1201         calculate D2E/DX2 analytically  !
 ! D51   D(10,11,12,23)        179.7237         calculate D2E/DX2 analytically  !
 ! D52   D(11,12,13,9)           0.0439         calculate D2E/DX2 analytically  !
 ! D53   D(11,12,13,24)        179.6132         calculate D2E/DX2 analytically  !
 ! D54   D(23,12,13,9)        -179.808          calculate D2E/DX2 analytically  !
 ! D55   D(23,12,13,24)         -0.2387         calculate D2E/DX2 analytically  !
 ! D56   D(2,14,15,16)        -177.7752         calculate D2E/DX2 analytically  !
 ! D57   D(2,14,15,27)          64.0166         calculate D2E/DX2 analytically  !
 ! D58   D(2,14,15,28)         -52.7432         calculate D2E/DX2 analytically  !
 ! D59   D(25,14,15,16)         59.1254         calculate D2E/DX2 analytically  !
 ! D60   D(25,14,15,27)        -59.0828         calculate D2E/DX2 analytically  !
 ! D61   D(25,14,15,28)       -175.8427         calculate D2E/DX2 analytically  !
 ! D62   D(26,14,15,16)        -57.3205         calculate D2E/DX2 analytically  !
 ! D63   D(26,14,15,27)       -175.5287         calculate D2E/DX2 analytically  !
 ! D64   D(26,14,15,28)         67.7115         calculate D2E/DX2 analytically  !
 ! D65   D(14,15,16,29)       -173.5509         calculate D2E/DX2 analytically  !
 ! D66   D(14,15,16,30)         70.3928         calculate D2E/DX2 analytically  !
 ! D67   D(27,15,16,29)        -54.5684         calculate D2E/DX2 analytically  !
 ! D68   D(27,15,16,30)       -170.6246         calculate D2E/DX2 analytically  !
 ! D69   D(28,15,16,29)         64.6492         calculate D2E/DX2 analytically  !
 ! D70   D(28,15,16,30)        -51.4071         calculate D2E/DX2 analytically  !
 --------------------------------------------------------------------------------
 Trust Radius=3.00D-01 FncErr=1.00D-07 GrdErr=1.00D-06
 Number of steps in this run=    160 maximum allowed number of steps=    180.
 GradGradGradGradGradGradGradGradGradGradGradGradGradGradGradGradGradGrad

                          Input orientation:                          
 ---------------------------------------------------------------------
 Center     Atomic      Atomic             Coordinates (Angstroms)
 Number     Number       Type             X           Y           Z
 ---------------------------------------------------------------------
      1          8           0       -1.509581   -0.245936   -1.120711
      2          6           0       -1.654408   -0.215845    0.092497
      3          7           0       -0.591603   -0.297270    0.934847
      4          6           0        0.763675   -0.425200    0.424293
      5          6           0        1.586691   -1.024454    1.541556
      6          8           0        2.312500   -2.095628    1.168200
      7          8           0        1.598497   -0.579631    2.662833
      8          6           0        1.313942    0.959980    0.025173
      9          6           0        2.700265    0.914070   -0.529073
     10          6           0        3.917795    1.225960    0.010771
     11          7           0        4.937944    0.980033   -0.892326
     12          6           0        4.339346    0.526565   -1.969614
     13          7           0        2.986410    0.466949   -1.801446
     14          6           0       -3.002685   -0.057933    0.773225
     15          6           0       -4.170954   -0.434851   -0.124179
     16          7           0       -5.422337   -0.199076    0.600835
     17          1           0       -0.710969   -0.230878    1.933447
     18          1           0        0.745517   -1.082571   -0.444126
     19          1           0        2.801724   -2.371659    1.955187
     20          1           0        1.314056    1.597504    0.907083
     21          1           0        0.622798    1.385906   -0.699814
     22          1           0        4.111603    1.599804    1.007935
     23          1           0        4.813744    0.231179   -2.888290
     24          1           0        2.311827    0.158989   -2.483687
     25          1           0       -3.023218   -0.652842    1.690023
     26          1           0       -3.114197    0.989396    1.079293
     27          1           0       -4.113228   -1.497344   -0.370668
     28          1           0       -4.085865    0.120445   -1.066461
     29          1           0       -6.205576   -0.543642    0.058721
     30          1           0       -5.573690    0.798119    0.705120
 ---------------------------------------------------------------------
                    Distance matrix (angstroms):
                    1          2          3          4          5
     1  O    0.000000
     2  C    1.222193   0.000000
     3  N    2.251807   1.358579   0.000000
     4  C    2.754427   2.449703   1.453895   0.000000
     5  C    4.157000   3.641201   2.375259   1.511534   0.000000
     6  O    4.823772   4.519633   3.423793   2.396369   1.346702
     7  O    4.907820   4.161773   2.803962   2.394125   1.206345
     8  C    3.277128   3.193463   2.457496   1.542989   2.512327
     9  C    4.406637   4.541612   3.800894   2.540262   3.047200
    10  C    5.736126   5.756295   4.848589   3.584104   3.583534
    11  N    6.567019   6.771936   5.962042   4.597030   4.601375
    12  C    5.960482   6.381894   5.781769   4.407048   4.723462
    13  N    4.602775   5.058698   4.568753   3.269617   3.919077
    14  C    2.419029   1.518610   2.428317   3.800278   4.752564
    15  C    2.848100   2.535333   3.735267   4.965026   6.022688
    16  N    4.274995   3.802101   4.843263   6.192661   7.119879
    17  H    3.156880   2.068671   1.007899   2.118935   2.462231
    18  H    2.498637   2.607454   2.075127   1.089320   2.157286
    19  H    5.706768   5.289070   4.105954   3.207177   1.860741
    20  H    3.934863   3.572613   2.687466   2.151124   2.711374
    21  H    2.717922   2.894655   2.641962   2.136251   3.429674
    22  H    6.287734   6.114041   5.071920   3.955995   3.680579
    23  H    6.583039   7.135960   6.641793   5.273244   5.622635
    24  H    4.077355   4.744286   4.508264   3.345803   4.257809
    25  H    3.218213   2.148649   2.570890   3.999307   4.627245
    26  H    2.990126   2.134796   2.835463   4.179473   5.134941
    27  H    2.984555   2.811149   3.942891   5.056248   6.030696
    28  H    2.602772   2.714453   4.048406   5.102756   6.347475
    29  H    4.850985   4.563082   5.687265   6.979838   7.946659
    30  H    4.576100   4.094411   5.106255   6.460462   7.435889
                    6          7          8          9         10
     6  O    0.000000
     7  O    2.245433   0.000000
     8  C    3.411798   3.067348   0.000000
     9  C    3.476978   3.692330   1.493716   0.000000
    10  C    3.866466   3.958881   2.617442   1.367876   0.000000
    11  N    4.538547   5.120900   3.738395   2.267931   1.384474
    12  C    4.563976   5.495042   3.649670   2.216282   2.142144
    13  N    3.979919   4.790764   2.525226   1.378670   2.174329
    14  C    5.706084   5.001366   4.497666   5.929959   7.079743
    15  C    6.816421   6.408975   5.661444   7.014070   8.258593
    16  N    7.984141   7.327262   6.859465   8.276016   9.466624
    17  H    3.633767   2.446889   3.026536   4.360210   5.219629
    18  H    2.466032   3.260938   2.171489   2.795502   3.949632
    19  H    0.966893   2.271538   4.127744   4.120420   4.239013
    20  H    3.834617   2.811313   1.088211   2.109787   2.778647
    21  H    4.297167   4.015310   1.088439   2.137206   3.374540
    22  H    4.113231   3.715417   3.033497   2.196474   1.082432
    23  H    5.303335   6.466080   4.611727   3.240222   3.193253
    24  H    4.291803   5.247958   2.816334   2.131091   3.152757
    25  H    5.551920   4.723555   4.917711   6.335445   7.384270
    26  H    6.242941   5.213341   4.551972   6.033281   7.116643
    27  H    6.634458   6.532084   5.970704   7.229364   8.488770
    28  H    7.130481   6.834450   5.572648   6.853480   8.151145
    29  H    8.729102   8.227165   7.668452   9.043474  10.276985
    30  H    8.413097   7.561157   6.923005   8.366302   9.526461
                   11         12         13         14         15
    11  N    0.000000
    12  C    1.313203   0.000000
    13  N    2.213197   1.364650   0.000000
    14  C    8.179549   7.859404   6.540160   0.000000
    15  C    9.250079   8.761002   7.406371   1.520609   0.000000
    16  N   10.533530  10.120485   8.770494   2.429888   1.465331
    17  H    6.431292   6.427542   5.301604   2.574488   4.030747
    18  H    4.693790   4.222801   3.043835   4.071958   4.969265
    19  H    4.889336   5.115471   4.712123   6.359366   7.529491
    20  H    4.092885   4.309835   3.378026   4.625218   5.939638
    21  H    4.338465   4.020397   2.764912   4.171168   5.160093
    22  H    2.162857   3.173249   3.231415   7.308644   8.603618
    23  H    2.135435   1.075301   2.139151   8.636368   9.423837
    24  H    3.178527   2.123727   1.007648   6.236872   6.924332
    25  H    8.527304   8.306100   7.039881   1.093095   2.157810
    26  H    8.290014   8.066309   6.766758   1.096818   2.143259
    27  H    9.398577   8.837356   7.504028   2.147953   1.092237
    28  H    9.066330   8.483207   7.118802   2.142322   1.097037
    29  H   11.287343  10.791426   9.432609   3.317369   2.045721
    30  H   10.633879  10.271136   8.925685   2.710632   2.043433
                   16         17         18         19         20
    16  N    0.000000
    17  H    4.896310   0.000000
    18  H    6.317826   2.915405   0.000000
    19  H    8.613337   4.113689   3.412688   0.000000
    20  H    6.978573   2.914984   3.054800   4.366455   0.000000
    21  H    6.383377   3.365559   2.484716   5.090780   1.762025
    22  H    9.710701   5.240722   4.542483   4.287842   2.799365
    23  H   10.822960   7.347456   4.924465   5.855106   5.340367
    24  H    8.334253   5.366598   2.855627   5.133009   3.816044
    25  H    2.673575   2.363008   4.352312   6.079030   4.948636
    26  H    2.639867   2.827393   4.638021   6.860175   4.473128
    27  H    2.084007   4.299796   4.876970   7.347829   6.377001
    28  H    2.160585   4.529106   5.017649   7.923372   5.935969
    29  H    1.012954   5.814045   6.990063   9.384545   7.864419
    30  H    1.013992   5.119929   6.692543   9.041998   6.936919
                   21         22         23         24         25
    21  H    0.000000
    22  H    3.890234   0.000000
    23  H    4.866914   4.188880   0.000000
    24  H    2.745969   4.184085   2.535449   0.000000
    25  H    4.812613   7.513011   9.119233   6.822143   0.000000
    26  H    4.157832   7.251887   8.897688   6.544168   1.754484
    27  H    5.554404   8.896107   9.434885   6.963449   2.479466
    28  H    4.889512   8.584294   9.084843   6.552899   3.053751
    29  H    7.136190  10.580148  11.432875   8.916484   3.577774
    30  H    6.380893   9.723132  11.006035   8.529851   3.095194
                   26         27         28         29         30
    26  H    0.000000
    27  H    3.047020   0.000000
    28  H    2.510672   1.761284   0.000000
    29  H    3.598388   2.339197   2.490024   0.000000
    30  H    2.495135   2.925649   2.410677   1.617849   0.000000
 Symmetry turned off by external request.
 Stoichiometry    C9H14N4O3
 Framework group  C1[X(C9H14N4O3)]
 Deg. of freedom    84
 Full point group                 C1      NOp   1
 Rotational constants (GHZ):      1.0600287      0.2293246      0.2040481
 Standard basis: 6-311++G(d,p) (5D, 7F)
   450 basis functions,   702 primitive gaussians,   466 cartesian basis functions
    60 alpha electrons       60 beta electrons
       nuclear repulsion energy      1097.9016211535 Hartrees.
 NAtoms=   30 NActive=   30 NUniq=   30 SFac= 1.00D+00 NAtFMM=   60 NAOKFM=F Big=F
 Integral buffers will be    131072 words long.
 Raffenetti 2 integral format.
 Two-electron integral symmetry is turned off.
 One-electron integrals computed using PRISM.
 NBasis=   450 RedAO= T EigKep=  1.76D-06  NBF=   450
 NBsUse=   450 1.00D-06 EigRej= -1.00D+00 NBFU=   450
 ExpMin= 3.60D-02 ExpMax= 8.59D+03 ExpMxC= 1.30D+03 IAcc=3 IRadAn=         5 AccDes= 0.00D+00
 Harris functional with IExCor=  402 and IRadAn=       5 diagonalized for initial guess.
 HarFok:  IExCor=  402 AccDes= 0.00D+00 IRadAn=         5 IDoV= 1 UseB2=F ITyADJ=14
 ICtDFT=  3500011 ScaDFX=  1.000000  1.000000  1.000000  1.000000
 FoFCou: FMM=F IPFlag=           0 FMFlag=      100000 FMFlg1=           0
         NFxFlg=           0 DoJE=T BraDBF=F KetDBF=T FulRan=T
         wScrn=  0.000000 ICntrl=     500 IOpCl=  0 I1Cent=   200000004 NGrid=           0
         NMat0=    1 NMatS0=      1 NMatT0=    0 NMatD0=    1 NMtDS0=    0 NMtDT0=    0
 Symmetry not used in FoFCou.
 Requested convergence on RMS density matrix=1.00D-08 within 128 cycles.
 Requested convergence on MAX density matrix=1.00D-06.
 Requested convergence on             energy=1.00D-06.
 No special actions if energy rises.
 SCF Done:  E(RB3LYP) =  -796.330974767     A.U. after   16 cycles
            NFock= 16  Conv=0.28D-08     -V/T= 2.0037
 DoSCS=F DFT=T ScalE2(SS,OS)=  1.000000  1.000000
 Range of M.O.s used for correlation:     1   450
 NBasis=   450 NAE=    60 NBE=    60 NFC=     0 NFV=     0
 NROrb=    450 NOA=    60 NOB=    60 NVA=   390 NVB=   390

 **** Warning!!: The largest alpha MO coefficient is  0.23425650D+03

 Symmetrizing basis deriv contribution to polar:
 IMax=3 JMax=2 DiffMx= 0.00D+00
 G2DrvN: will do    31 centers at a time, making    1 passes.
 Calling FoFCou, ICntrl=  3107 FMM=F I1Cent=   0 AccDes= 0.00D+00.
 End of G2Drv F.D. properties file   721 does not exist.
 End of G2Drv F.D. properties file   722 does not exist.
 End of G2Drv F.D. properties file   788 does not exist.
          IDoAtm=111111111111111111111111111111
          Differentiating once with respect to nuclear coordinates.
          There are    93 degrees of freedom in the 1st order CPHF.  IDoFFX=6 NUNeed=     0.
     87 vectors produced by pass  0 Test12= 2.52D-14 1.08D-09 XBig12= 2.10D-01 7.39D-02.
 AX will form    87 AO Fock derivatives at one time.
     87 vectors produced by pass  1 Test12= 2.52D-14 1.08D-09 XBig12= 3.38D-02 3.58D-02.
     87 vectors produced by pass  2 Test12= 2.52D-14 1.08D-09 XBig12= 3.72D-04 2.37D-03.
     87 vectors produced by pass  3 Test12= 2.52D-14 1.08D-09 XBig12= 1.29D-06 9.72D-05.
     87 vectors produced by pass  4 Test12= 2.52D-14 1.08D-09 XBig12= 2.49D-09 3.66D-06.
     84 vectors produced by pass  5 Test12= 2.52D-14 1.08D-09 XBig12= 4.09D-12 1.99D-07.
     33 vectors produced by pass  6 Test12= 2.52D-14 1.08D-09 XBig12= 6.40D-15 9.32D-09.
     14 vectors produced by pass  7 Test12= 2.52D-14 1.08D-09 XBig12= 9.24D-16 3.73D-09.
      6 vectors produced by pass  8 Test12= 2.52D-14 1.08D-09 XBig12= 3.05D-16 1.72D-09.
      6 vectors produced by pass  9 Test12= 2.52D-14 1.08D-09 XBig12= 4.76D-15 7.53D-09.
      5 vectors produced by pass 10 Test12= 2.52D-14 1.08D-09 XBig12= 7.05D-16 2.86D-09.
      5 vectors produced by pass 11 Test12= 2.52D-14 1.08D-09 XBig12= 2.14D-15 4.32D-09.
      5 vectors produced by pass 12 Test12= 2.52D-14 1.08D-09 XBig12= 1.61D-15 3.50D-09.
      5 vectors produced by pass 13 Test12= 2.52D-14 1.08D-09 XBig12= 2.12D-15 5.02D-09.
      4 vectors produced by pass 14 Test12= 2.52D-14 1.08D-09 XBig12= 1.07D-15 3.32D-09.
      4 vectors produced by pass 15 Test12= 2.52D-14 1.08D-09 XBig12= 1.77D-15 4.79D-09.
      4 vectors produced by pass 16 Test12= 2.52D-14 1.08D-09 XBig12= 2.35D-15 3.72D-09.
      4 vectors produced by pass 17 Test12= 2.52D-14 1.08D-09 XBig12= 1.37D-15 3.02D-09.
      4 vectors produced by pass 18 Test12= 2.52D-14 1.08D-09 XBig12= 8.44D-16 2.69D-09.
      4 vectors produced by pass 19 Test12= 2.52D-14 1.08D-09 XBig12= 2.42D-15 4.78D-09.
      4 vectors produced by pass 20 Test12= 2.52D-14 1.08D-09 XBig12= 1.56D-15 3.43D-09.
      4 vectors produced by pass 21 Test12= 2.52D-14 1.08D-09 XBig12= 2.42D-15 3.42D-09.
      4 vectors produced by pass 22 Test12= 2.52D-14 1.08D-09 XBig12= 4.13D-15 5.52D-09.
      4 vectors produced by pass 23 Test12= 2.52D-14 1.08D-09 XBig12= 2.40D-15 3.39D-09.
      3 vectors produced by pass 24 Test12= 2.52D-14 1.08D-09 XBig12= 1.72D-15 3.14D-09.
      3 vectors produced by pass 25 Test12= 2.52D-14 1.08D-09 XBig12= 2.98D-15 3.67D-09.
      3 vectors produced by pass 26 Test12= 2.52D-14 1.08D-09 XBig12= 2.46D-15 5.04D-09.
      3 vectors produced by pass 27 Test12= 2.52D-14 1.08D-09 XBig12= 1.18D-15 2.58D-09.
      3 vectors produced by pass 28 Test12= 2.52D-14 1.08D-09 XBig12= 1.93D-15 3.65D-09.
      3 vectors produced by pass 29 Test12= 2.52D-14 1.08D-09 XBig12= 5.85D-15 4.71D-09.
      2 vectors produced by pass 30 Test12= 2.52D-14 1.08D-09 XBig12= 1.76D-15 3.28D-09.
 InvSVY:  IOpt=1 It=  1 EMax= 5.55D-16
 Solved reduced A of dimension   658 with    93 vectors.
 End of Minotr F.D. properties file   721 does not exist.
 End of Minotr F.D. properties file   722 does not exist.
 End of Minotr F.D. properties file   788 does not exist.

 **********************************************************************

            Population analysis using the SCF density.

 **********************************************************************

 Alpha  occ. eigenvalues --  -19.19964 -19.14396 -19.10396 -14.37555 -14.35829
 Alpha  occ. eigenvalues --  -14.30334 -14.29817 -10.33424 -10.28866 -10.24860
 Alpha  occ. eigenvalues --  -10.22957 -10.21264 -10.20270 -10.20213 -10.19013
 Alpha  occ. eigenvalues --  -10.18665  -1.14385  -1.06089  -1.05369  -1.02532
 Alpha  occ. eigenvalues --   -0.95199  -0.89736  -0.87976  -0.82321  -0.77693
 Alpha  occ. eigenvalues --   -0.74983  -0.69957  -0.65702  -0.62507  -0.61610
 Alpha  occ. eigenvalues --   -0.60967  -0.60035  -0.55124  -0.54463  -0.52160
 Alpha  occ. eigenvalues --   -0.50803  -0.50429  -0.49703  -0.48506  -0.47038
 Alpha  occ. eigenvalues --   -0.46002  -0.45172  -0.44282  -0.43689  -0.43240
 Alpha  occ. eigenvalues --   -0.41613  -0.41286  -0.40456  -0.40052  -0.38809
 Alpha  occ. eigenvalues --   -0.38232  -0.35852  -0.35464  -0.31602  -0.29188
 Alpha  occ. eigenvalues --   -0.28510  -0.27873  -0.27661  -0.25269  -0.23673
 Alpha virt. eigenvalues --   -0.03532  -0.02024  -0.01405  -0.00868  -0.00253
 Alpha virt. eigenvalues --   -0.00067   0.00686   0.01142   0.01575   0.02135
 Alpha virt. eigenvalues --    0.02792   0.03525   0.03585   0.04034   0.04479
 Alpha virt. eigenvalues --    0.04901   0.05690   0.06188   0.06446   0.07022
 Alpha virt. eigenvalues --    0.07608   0.07830   0.08359   0.08535   0.09139
 Alpha virt. eigenvalues --    0.09171   0.10094   0.10199   0.10425   0.11074
 Alpha virt. eigenvalues --    0.11625   0.11826   0.12247   0.12582   0.12932
 Alpha virt. eigenvalues --    0.13378   0.13767   0.14322   0.14398   0.14521
 Alpha virt. eigenvalues --    0.14664   0.14954   0.15119   0.15357   0.15845
 Alpha virt. eigenvalues --    0.16077   0.16507   0.16899   0.17040   0.17976
 Alpha virt. eigenvalues --    0.18240   0.18355   0.18817   0.19146   0.19351
 Alpha virt. eigenvalues --    0.19890   0.20106   0.21119   0.21576   0.21932
 Alpha virt. eigenvalues --    0.22275   0.22481   0.22809   0.22969   0.23378
 Alpha virt. eigenvalues --    0.23848   0.23928   0.24378   0.24611   0.25695
 Alpha virt. eigenvalues --    0.25828   0.26427   0.26861   0.27185   0.27549
 Alpha virt. eigenvalues --    0.28050   0.28423   0.28826   0.28840   0.29654
 Alpha virt. eigenvalues --    0.30550   0.30574   0.30995   0.31128   0.31363
 Alpha virt. eigenvalues --    0.31868   0.32106   0.33036   0.33208   0.33521
 Alpha virt. eigenvalues --    0.34048   0.34696   0.34926   0.35805   0.36476
 Alpha virt. eigenvalues --    0.36916   0.37129   0.38094   0.38424   0.38901
 Alpha virt. eigenvalues --    0.39750   0.40030   0.40335   0.41770   0.42257
 Alpha virt. eigenvalues --    0.44800   0.44914   0.46545   0.46825   0.47351
 Alpha virt. eigenvalues --    0.47836   0.49128   0.50019   0.50906   0.52471
 Alpha virt. eigenvalues --    0.53278   0.54230   0.56308   0.56769   0.57180
 Alpha virt. eigenvalues --    0.58532   0.59142   0.59758   0.61340   0.62003
 Alpha virt. eigenvalues --    0.62308   0.62800   0.63865   0.64879   0.65364
 Alpha virt. eigenvalues --    0.66174   0.66709   0.68017   0.68622   0.69239
 Alpha virt. eigenvalues --    0.69663   0.70653   0.70878   0.71682   0.72570
 Alpha virt. eigenvalues --    0.72706   0.73440   0.74550   0.75220   0.75721
 Alpha virt. eigenvalues --    0.76345   0.76749   0.78083   0.80005   0.81799
 Alpha virt. eigenvalues --    0.82269   0.83017   0.84107   0.84590   0.86260
 Alpha virt. eigenvalues --    0.87359   0.88781   0.89572   0.90035   0.90625
 Alpha virt. eigenvalues --    0.92296   0.92673   0.94167   0.94775   0.96569
 Alpha virt. eigenvalues --    0.97334   0.98584   1.00171   1.01463   1.03272
 Alpha virt. eigenvalues --    1.04045   1.05450   1.06242   1.08800   1.10188
 Alpha virt. eigenvalues --    1.11483   1.12759   1.14103   1.14497   1.15810
 Alpha virt. eigenvalues --    1.18290   1.18757   1.19627   1.19890   1.20902
 Alpha virt. eigenvalues --    1.22698   1.23956   1.25254   1.26047   1.26476
 Alpha virt. eigenvalues --    1.27163   1.28518   1.29359   1.30869   1.32830
 Alpha virt. eigenvalues --    1.33216   1.36060   1.37092   1.38754   1.39789
 Alpha virt. eigenvalues --    1.40913   1.44431   1.45399   1.47441   1.49092
 Alpha virt. eigenvalues --    1.51091   1.51690   1.54099   1.55968   1.56872
 Alpha virt. eigenvalues --    1.58319   1.58697   1.59248   1.59858   1.61512
 Alpha virt. eigenvalues --    1.62621   1.63478   1.65791   1.66083   1.66549
 Alpha virt. eigenvalues --    1.67096   1.67793   1.68204   1.68536   1.69650
 Alpha virt. eigenvalues --    1.71590   1.72231   1.73668   1.74531   1.75988
 Alpha virt. eigenvalues --    1.76885   1.77812   1.79737   1.80643   1.81643
 Alpha virt. eigenvalues --    1.82497   1.84050   1.85004   1.85953   1.87586
 Alpha virt. eigenvalues --    1.88964   1.92153   1.93668   1.95369   1.96033
 Alpha virt. eigenvalues --    1.96927   1.99640   2.01540   2.03497   2.04634
 Alpha virt. eigenvalues --    2.04909   2.08959   2.10260   2.11994   2.13102
 Alpha virt. eigenvalues --    2.13248   2.17733   2.19788   2.21847   2.23145
 Alpha virt. eigenvalues --    2.23499   2.24286   2.25617   2.26939   2.31509
 Alpha virt. eigenvalues --    2.32063   2.32751   2.36058   2.37334   2.39833
 Alpha virt. eigenvalues --    2.44514   2.46664   2.48785   2.49443   2.52021
 Alpha virt. eigenvalues --    2.52652   2.53804   2.54342   2.55406   2.56881
 Alpha virt. eigenvalues --    2.58708   2.60552   2.60822   2.62402   2.63166
 Alpha virt. eigenvalues --    2.66218   2.66713   2.67898   2.69487   2.69937
 Alpha virt. eigenvalues --    2.70680   2.72761   2.75559   2.76420   2.77562
 Alpha virt. eigenvalues --    2.79468   2.79920   2.80289   2.82389   2.84707
 Alpha virt. eigenvalues --    2.86145   2.87484   2.88167   2.89639   2.90382
 Alpha virt. eigenvalues --    2.90946   2.91662   2.92073   2.92166   2.93359
 Alpha virt. eigenvalues --    2.94435   2.96780   2.98467   2.99742   3.00224
 Alpha virt. eigenvalues --    3.00507   3.03684   3.05505   3.08185   3.09400
 Alpha virt. eigenvalues --    3.14053   3.14534   3.16670   3.17985   3.18798
 Alpha virt. eigenvalues --    3.26556   3.31163   3.31705   3.36208   3.37728
 Alpha virt. eigenvalues --    3.42297   3.45380   3.51478   3.54894   3.59175
 Alpha virt. eigenvalues --    3.60113   3.62272   3.65559   3.67461   3.69032
 Alpha virt. eigenvalues --    3.72091   3.78959   3.79710   3.81514   3.84756
 Alpha virt. eigenvalues --    3.86058   3.90049   3.90753   3.92932   3.94311
 Alpha virt. eigenvalues --    4.07065   4.08076   4.13303   4.13929   4.22289
 Alpha virt. eigenvalues --    4.31423   4.31880   4.50657   4.72444   4.76820
 Alpha virt. eigenvalues --    4.82625   4.85694   4.93269   4.97030   5.01206
 Alpha virt. eigenvalues --    5.07845   5.10649   5.18247   5.27693   5.29330
 Alpha virt. eigenvalues --    5.41568   5.59689   5.79018   5.85130  23.75912
 Alpha virt. eigenvalues --   23.78930  23.83573  23.85762  23.87492  23.92073
 Alpha virt. eigenvalues --   23.93552  23.96219  24.14427  35.55014  35.59615
 Alpha virt. eigenvalues --   35.61555  35.69682  49.86450  50.00949  50.02702
          Condensed to atoms (all electrons):
               1          2          3          4          5          6
     1  O    8.029043   0.305310  -0.153397   0.102655   0.069164  -0.000172
     2  C    0.305310   8.859420  -0.691853  -0.484990   0.082887   0.054192
     3  N   -0.153397  -0.691853   8.135799  -1.480792   0.306724   0.002352
     4  C    0.102655  -0.484990  -1.480792  17.478701  -5.996339   0.004589
     5  C    0.069164   0.082887   0.306724  -5.996339  10.634831   0.062231
     6  O   -0.000172   0.054192   0.002352   0.004589   0.062231   7.918710
     7  O   -0.000071   0.036108   0.009333  -0.003858   0.425627  -0.156891
     8  C   -0.061359   0.217680   0.327599  -3.203594   1.292112  -0.016362
     9  C   -0.018279  -0.872539   0.529972  -1.884985   0.510014  -0.081079
    10  C   -0.007156   0.049380   0.009555   1.173815  -0.894097   0.037808
    11  N   -0.000045   0.000061   0.000776  -0.023114   0.025666  -0.000133
    12  C   -0.000390  -0.008158   0.001042   0.140026  -0.110711   0.005251
    13  N    0.000777  -0.004049   0.002044  -0.090946   0.097731   0.014329
    14  C    0.097164  -1.725300  -0.148264   0.232089  -0.298273  -0.002384
    15  C   -0.053194   0.227251  -0.074802  -0.087517   0.008841   0.000128
    16  N   -0.003665   0.033725  -0.004035   0.013599   0.000252  -0.000013
    17  H    0.003428   0.117109   0.249726   0.016361  -0.035040   0.007452
    18  H   -0.002803   0.118932  -0.103804   0.592469  -0.098793  -0.010323
    19  H   -0.000156  -0.001046  -0.002010  -0.149359   0.178504   0.231158
    20  H    0.002791   0.015870  -0.008116   0.001986  -0.084042   0.003544
    21  H   -0.000086   0.052584  -0.044623  -0.134833   0.116644  -0.004041
    22  H   -0.000022  -0.001200  -0.001810   0.040784  -0.032653  -0.000749
    23  H   -0.000022  -0.000493  -0.000269   0.003802  -0.004117  -0.000538
    24  H   -0.001044  -0.001175   0.002488   0.012860  -0.022381   0.001270
    25  H    0.004698  -0.179699   0.016243   0.026090  -0.013905   0.000050
    26  H    0.002086  -0.113797   0.029105   0.009599   0.015310  -0.000013
    27  H   -0.007565   0.007738  -0.000680   0.014462  -0.000554   0.000008
    28  H    0.001969  -0.083679  -0.007476  -0.016498  -0.001323   0.000031
    29  H   -0.000637   0.011175  -0.000333   0.000659   0.000112  -0.000002
    30  H    0.001036  -0.002175   0.001520  -0.001605  -0.000703  -0.000002
               7          8          9         10         11         12
     1  O   -0.000071  -0.061359  -0.018279  -0.007156  -0.000045  -0.000390
     2  C    0.036108   0.217680  -0.872539   0.049380   0.000061  -0.008158
     3  N    0.009333   0.327599   0.529972   0.009555   0.000776   0.001042
     4  C   -0.003858  -3.203594  -1.884985   1.173815  -0.023114   0.140026
     5  C    0.425627   1.292112   0.510014  -0.894097   0.025666  -0.110711
     6  O   -0.156891  -0.016362  -0.081079   0.037808  -0.000133   0.005251
     7  O    7.959052  -0.016331   0.011521  -0.025654  -0.000162   0.001728
     8  C   -0.016331  16.584041  -5.918502  -2.629705  -0.003152  -0.390414
     9  C    0.011521  -5.918502  14.773956  -1.028252  -0.106161   0.058589
    10  C   -0.025654  -2.629705  -1.028252   9.113097   0.439628  -0.202272
    11  N   -0.000162  -0.003152  -0.106161   0.439628   6.545437   0.348433
    12  C    0.001728  -0.390414   0.058589  -0.202272   0.348433   5.353089
    13  N   -0.002595  -0.025554  -0.269749   0.055622   0.022445   0.213344
    14  C   -0.017567  -0.118901   0.205993   0.008418   0.000326   0.006416
    15  C   -0.001587  -0.039147  -0.013937   0.003479  -0.000002  -0.000577
    16  N   -0.000051  -0.002831  -0.000968   0.000089   0.000000  -0.000016
    17  H    0.020689  -0.020180  -0.018875   0.003314  -0.000036   0.001026
    18  H   -0.005458   0.096465  -0.378696  -0.001954  -0.000336  -0.000655
    19  H   -0.005366  -0.008392   0.009767  -0.001153   0.000007  -0.004356
    20  H    0.006311   0.749214  -0.302732  -0.094460  -0.002978  -0.006633
    21  H   -0.003846   0.372619   0.023140  -0.069668   0.002607  -0.001003
    22  H   -0.003234  -0.097675  -0.107284   0.541581  -0.076089   0.034895
    23  H    0.000058   0.014660   0.083359  -0.036346  -0.066508   0.430135
    24  H    0.000501  -0.043487   0.037688  -0.001872   0.008549  -0.019779
    25  H   -0.002763   0.005536  -0.002318  -0.001341   0.000028   0.000077
    26  H    0.000265  -0.001841  -0.001735   0.002136  -0.000026  -0.000146
    27  H    0.000043  -0.000841  -0.001099  -0.000064  -0.000003  -0.000040
    28  H    0.000024   0.005382  -0.002706  -0.000508   0.000002   0.000014
    29  H   -0.000009  -0.000440  -0.000101   0.000023   0.000000  -0.000003
    30  H    0.000006   0.000338   0.000489   0.000014   0.000000   0.000004
              13         14         15         16         17         18
     1  O    0.000777   0.097164  -0.053194  -0.003665   0.003428  -0.002803
     2  C   -0.004049  -1.725300   0.227251   0.033725   0.117109   0.118932
     3  N    0.002044  -0.148264  -0.074802  -0.004035   0.249726  -0.103804
     4  C   -0.090946   0.232089  -0.087517   0.013599   0.016361   0.592469
     5  C    0.097731  -0.298273   0.008841   0.000252  -0.035040  -0.098793
     6  O    0.014329  -0.002384   0.000128  -0.000013   0.007452  -0.010323
     7  O   -0.002595  -0.017567  -0.001587  -0.000051   0.020689  -0.005458
     8  C   -0.025554  -0.118901  -0.039147  -0.002831  -0.020180   0.096465
     9  C   -0.269749   0.205993  -0.013937  -0.000968  -0.018875  -0.378696
    10  C    0.055622   0.008418   0.003479   0.000089   0.003314  -0.001954
    11  N    0.022445   0.000326  -0.000002   0.000000  -0.000036  -0.000336
    12  C    0.213344   0.006416  -0.000577  -0.000016   0.001026  -0.000655
    13  N    6.842859  -0.008602  -0.000306  -0.000024   0.001713   0.024807
    14  C   -0.008602   7.600418  -0.266061  -0.130061  -0.022034  -0.043229
    15  C   -0.000306  -0.266061   6.073681   0.182919  -0.019709   0.004607
    16  N   -0.000024  -0.130061   0.182919   6.621306  -0.002516  -0.000348
    17  H    0.001713  -0.022034  -0.019709  -0.002516   0.408852   0.010120
    18  H    0.024807  -0.043229   0.004607  -0.000348   0.010120   0.482017
    19  H   -0.001249  -0.003184   0.000103   0.000003  -0.000455   0.006876
    20  H    0.014495  -0.011460  -0.003752  -0.000029   0.003557   0.004857
    21  H    0.019479  -0.047693  -0.000852  -0.001252  -0.000098   0.002802
    22  H    0.015970   0.000895   0.000046   0.000000   0.000076  -0.000260
    23  H   -0.115880   0.000179  -0.000026   0.000000   0.000006   0.000202
    24  H    0.344100   0.001429  -0.000245   0.000025  -0.000062  -0.007878
    25  H    0.000159   0.555793  -0.098691   0.012686  -0.003052   0.001644
    26  H   -0.000304   0.404034  -0.023505  -0.000926  -0.008237  -0.002040
    27  H   -0.000102  -0.040479   0.405413  -0.051142   0.000669  -0.000874
    28  H    0.000229   0.113803   0.347114  -0.119587   0.004139   0.001953
    29  H   -0.000004  -0.028398  -0.025485   0.403912  -0.000685  -0.000065
    30  H   -0.000001   0.027775  -0.083038   0.393641   0.000713  -0.000022
              19         20         21         22         23         24
     1  O   -0.000156   0.002791  -0.000086  -0.000022  -0.000022  -0.001044
     2  C   -0.001046   0.015870   0.052584  -0.001200  -0.000493  -0.001175
     3  N   -0.002010  -0.008116  -0.044623  -0.001810  -0.000269   0.002488
     4  C   -0.149359   0.001986  -0.134833   0.040784   0.003802   0.012860
     5  C    0.178504  -0.084042   0.116644  -0.032653  -0.004117  -0.022381
     6  O    0.231158   0.003544  -0.004041  -0.000749  -0.000538   0.001270
     7  O   -0.005366   0.006311  -0.003846  -0.003234   0.000058   0.000501
     8  C   -0.008392   0.749214   0.372619  -0.097675   0.014660  -0.043487
     9  C    0.009767  -0.302732   0.023140  -0.107284   0.083359   0.037688
    10  C   -0.001153  -0.094460  -0.069668   0.541581  -0.036346  -0.001872
    11  N    0.000007  -0.002978   0.002607  -0.076089  -0.066508   0.008549
    12  C   -0.004356  -0.006633  -0.001003   0.034895   0.430135  -0.019779
    13  N   -0.001249   0.014495   0.019479   0.015970  -0.115880   0.344100
    14  C   -0.003184  -0.011460  -0.047693   0.000895   0.000179   0.001429
    15  C    0.000103  -0.003752  -0.000852   0.000046  -0.000026  -0.000245
    16  N    0.000003  -0.000029  -0.001252   0.000000   0.000000   0.000025
    17  H   -0.000455   0.003557  -0.000098   0.000076   0.000006  -0.000062
    18  H    0.006876   0.004857   0.002802  -0.000260   0.000202  -0.007878
    19  H    0.468593  -0.002639   0.001284   0.000044  -0.000212  -0.000570
    20  H   -0.002639   0.502657  -0.015551  -0.003154   0.000706   0.001738
    21  H    0.001284  -0.015551   0.516461  -0.001336  -0.000299  -0.008119
    22  H    0.000044  -0.003154  -0.001336   0.539210  -0.001036   0.001162
    23  H   -0.000212   0.000706  -0.000299  -0.001036   0.533564  -0.002236
    24  H   -0.000570   0.001738  -0.008119   0.001162  -0.002236   0.387326
    25  H   -0.000069  -0.000377  -0.001436  -0.000028   0.000006   0.000030
    26  H    0.000164  -0.001423  -0.003350   0.000016  -0.000008  -0.000006
    27  H   -0.000025   0.000235   0.000173  -0.000003   0.000000   0.000018
    28  H   -0.000013  -0.000066   0.001761  -0.000007   0.000003  -0.000062
    29  H    0.000002  -0.000022  -0.000113   0.000000   0.000000   0.000001
    30  H   -0.000002  -0.000018  -0.000023   0.000001   0.000000   0.000004
              25         26         27         28         29         30
     1  O    0.004698   0.002086  -0.007565   0.001969  -0.000637   0.001036
     2  C   -0.179699  -0.113797   0.007738  -0.083679   0.011175  -0.002175
     3  N    0.016243   0.029105  -0.000680  -0.007476  -0.000333   0.001520
     4  C    0.026090   0.009599   0.014462  -0.016498   0.000659  -0.001605
     5  C   -0.013905   0.015310  -0.000554  -0.001323   0.000112  -0.000703
     6  O    0.000050  -0.000013   0.000008   0.000031  -0.000002  -0.000002
     7  O   -0.002763   0.000265   0.000043   0.000024  -0.000009   0.000006
     8  C    0.005536  -0.001841  -0.000841   0.005382  -0.000440   0.000338
     9  C   -0.002318  -0.001735  -0.001099  -0.002706  -0.000101   0.000489
    10  C   -0.001341   0.002136  -0.000064  -0.000508   0.000023   0.000014
    11  N    0.000028  -0.000026  -0.000003   0.000002   0.000000   0.000000
    12  C    0.000077  -0.000146  -0.000040   0.000014  -0.000003   0.000004
    13  N    0.000159  -0.000304  -0.000102   0.000229  -0.000004  -0.000001
    14  C    0.555793   0.404034  -0.040479   0.113803  -0.028398   0.027775
    15  C   -0.098691  -0.023505   0.405413   0.347114  -0.025485  -0.083038
    16  N    0.012686  -0.000926  -0.051142  -0.119587   0.403912   0.393641
    17  H   -0.003052  -0.008237   0.000669   0.004139  -0.000685   0.000713
    18  H    0.001644  -0.002040  -0.000874   0.001953  -0.000065  -0.000022
    19  H   -0.000069   0.000164  -0.000025  -0.000013   0.000002  -0.000002
    20  H   -0.000377  -0.001423   0.000235  -0.000066  -0.000022  -0.000018
    21  H   -0.001436  -0.003350   0.000173   0.001761  -0.000113  -0.000023
    22  H   -0.000028   0.000016  -0.000003  -0.000007   0.000000   0.000001
    23  H    0.000006  -0.000008   0.000000   0.000003   0.000000   0.000000
    24  H    0.000030  -0.000006   0.000018  -0.000062   0.000001   0.000004
    25  H    0.575102  -0.063189  -0.018489   0.020083   0.001756  -0.002353
    26  H   -0.063189   0.602065   0.014220  -0.042051   0.000600   0.010155
    27  H   -0.018489   0.014220   0.579575  -0.064449  -0.014460   0.011995
    28  H    0.020083  -0.042051  -0.064449   0.677121   0.002231  -0.007342
    29  H    0.001756   0.000600  -0.014460   0.002231   0.471191  -0.060532
    30  H   -0.002353   0.010155   0.011995  -0.007342  -0.060532   0.507339
 Mulliken charges:
               1
     1  O   -0.310057
     2  C   -0.019269
     3  N    0.097984
     4  C   -0.306116
     5  C   -0.233717
     6  O   -0.070401
     7  O   -0.225822
     8  C   -1.066939
     9  C    0.765507
    10  C   -0.443459
    11  N   -0.115221
    12  C    0.151082
    13  N   -0.150735
    14  C   -0.342842
    15  C   -0.461148
    16  N   -0.344690
    17  H    0.282028
    18  H    0.309788
    19  H    0.283753
    20  H    0.229488
    21  H    0.228667
    22  H    0.151859
    23  H    0.161313
    24  H    0.309730
    25  H    0.167730
    26  H    0.172844
    27  H    0.166321
    28  H    0.169906
    29  H    0.239628
    30  H    0.202788
 Sum of Mulliken charges =   0.00000
 Mulliken charges with hydrogens summed into heavy atoms:
               1
     1  O   -0.310057
     2  C   -0.019269
     3  N    0.380012
     4  C    0.003673
     5  C   -0.233717
     6  O    0.213353
     7  O   -0.225822
     8  C   -0.608783
     9  C    0.765507
    10  C   -0.291600
    11  N   -0.115221
    12  C    0.312394
    13  N    0.158995
    14  C   -0.002269
    15  C   -0.124921
    16  N    0.097726
 APT charges:
               1
     1  O   -0.415700
     2  C    0.168073
     3  N   -0.339085
     4  C   -0.370427
     5  C   -0.589830
     6  O   -0.529320
     7  O   -0.019773
     8  C   -1.567787
     9  C    0.845134
    10  C   -0.677972
    11  N    0.128519
    12  C   -0.443796
    13  N   -0.578713
    14  C   -0.985836
    15  C   -0.291237
    16  N   -1.817067
    17  H    0.580461
    18  H    0.386223
    19  H    0.978935
    20  H    0.415696
    21  H    0.288183
    22  H    0.524972
    23  H    0.977662
    24  H    0.263355
    25  H    0.420713
    26  H    0.381025
    27  H    0.353281
    28  H    0.279134
    29  H    1.090526
    30  H    0.544652
 Sum of APT charges =   0.00000
 APT charges with hydrogens summed into heavy atoms:
               1
     1  O   -0.415700
     2  C    0.168073
     3  N    0.241376
     4  C    0.015796
     5  C   -0.589830
     6  O    0.449615
     7  O   -0.019773
     8  C   -0.863907
     9  C    0.845134
    10  C   -0.153001
    11  N    0.128519
    12  C    0.533866
    13  N   -0.315358
    14  C   -0.184098
    15  C    0.341178
    16  N   -0.181890
 Electronic spatial extent (au):  <R**2>=           5360.5466
 Charge=              0.0000 electrons
 Dipole moment (field-independent basis, Debye):
    X=             -3.1141    Y=             -0.7954    Z=             -0.5198  Tot=              3.2559
 Quadrupole moment (field-independent basis, Debye-Ang):
   XX=           -110.8708   YY=            -93.0540   ZZ=            -93.9767
   XY=            -13.1864   XZ=              0.2366   YZ=             -0.2225
 Traceless Quadrupole moment (field-independent basis, Debye-Ang):
   XX=            -11.5703   YY=              6.2465   ZZ=              5.3238
   XY=            -13.1864   XZ=              0.2366   YZ=             -0.2225
 Octapole moment (field-independent basis, Debye-Ang**2):
  XXX=           -339.1392  YYY=             -4.4853  ZZZ=            -74.0173  XYY=            -55.9382
  XXY=            -28.1425  XXZ=            -34.1337  XZZ=             -6.0283  YZZ=             -4.2195
  YYZ=              7.0931  XYZ=             -9.1115
 Hexadecapole moment (field-independent basis, Debye-Ang**3):
 XXXX=          -6261.6264 YYYY=           -523.9464 ZZZZ=           -944.5595 XXXY=           -587.6701
 XXXZ=            572.0694 YYYX=           -286.3364 YYYZ=            131.0116 ZZZX=            154.2213
 ZZZY=            141.8630 XXYY=          -1025.4131 XXZZ=          -1052.9964 YYZZ=           -220.9463
 XXYZ=            114.1950 YYXZ=            151.4534 ZZXY=           -121.1058
 N-N= 1.097901621154D+03 E-N=-4.056424515820D+03  KE= 7.934103297048D+02
  Exact polarizability:   0.000   0.000   0.000   0.000   0.000   0.000
 Approx polarizability: 221.783  -2.308 167.130   1.745  18.960 229.182
 Calling FoFJK, ICntrl=    100147 FMM=F ISym2X=0 I1Cent= 0 IOpClX= 0 NMat=1 NMatS=1 NMatT=0.
 -------------------------------------------------------------------
 Center     Atomic                   Forces (Hartrees/Bohr)
 Number     Number              X              Y              Z
 -------------------------------------------------------------------
      1        8          -0.000647897   -0.001078457   -0.004682928
      2        6          -0.003123834    0.003187441   -0.000358263
      3        7           0.000757090   -0.004050596    0.001123447
      4        6          -0.005157200    0.001398927    0.000288533
      5        6           0.006202573   -0.002802579    0.000078420
      6        8          -0.004269648    0.003966532   -0.001199812
      7        8          -0.001116300   -0.000611053    0.002909693
      8        6           0.009295988    0.000764593   -0.002009092
      9        6          -0.004608172    0.001351472    0.000584977
     10        6           0.007305207   -0.000305057    0.001190454
     11        7          -0.003425137    0.000670014    0.001731475
     12        6           0.000685947    0.001564942    0.004061726
     13        7          -0.001587277   -0.001802737   -0.003537831
     14        6           0.002081397   -0.000595926    0.001301348
     15        6           0.000420851   -0.000302552   -0.001397193
     16        7          -0.002184981   -0.000170823   -0.001227272
     17        1          -0.000737428    0.000902623    0.001612870
     18        1           0.000335713   -0.001054236    0.000719325
     19        1           0.003907402   -0.002754426    0.001612656
     20        1          -0.000835735    0.001395045    0.002099611
     21        1          -0.002553473    0.000938130   -0.001363683
     22        1           0.000836301    0.000006196   -0.002413512
     23        1           0.002179282   -0.000561527   -0.002160538
     24        1          -0.000580607   -0.000129560   -0.001114487
     25        1          -0.001557608    0.000076687    0.000891145
     26        1           0.001625793    0.000870667    0.000262316
     27        1          -0.000078076   -0.000569262   -0.000510937
     28        1          -0.000270903   -0.000931010   -0.000163162
     29        1          -0.002069829   -0.001520361   -0.000134531
     30        1          -0.000829439    0.002146894    0.001805247
 -------------------------------------------------------------------
 Cartesian Forces:  Max     0.009295988 RMS     0.002376074
 FormGI is forming the generalized inverse of G from B-inverse, IUseBI=4.
 GSVD:  received Info=                   1 from GESDD.

 GradGradGradGradGradGradGradGradGradGradGradGradGradGradGradGradGradGrad
 Berny optimization.
 Internal  Forces:  Max     0.007868419 RMS     0.001936484
 Search for a local minimum.
 Step number   1 out of a maximum of  160
 All quantities printed in internal units (Hartrees-Bohrs-Radians)
 Mixed Optimization -- RFO/linear search
 Second derivative matrix not updated -- analytic derivatives used.
 ITU=  0
     Eigenvalues ---   -0.00037   0.00065   0.00209   0.00245   0.00254
     Eigenvalues ---    0.00314   0.00390   0.00507   0.00557   0.00935
     Eigenvalues ---    0.01971   0.01993   0.02109   0.02475   0.03291
     Eigenvalues ---    0.03471   0.03978   0.04138   0.04282   0.04377
     Eigenvalues ---    0.04581   0.04583   0.04720   0.05110   0.05136
     Eigenvalues ---    0.05391   0.05765   0.06088   0.07724   0.07833
     Eigenvalues ---    0.08238   0.10161   0.10713   0.10771   0.11011
     Eigenvalues ---    0.11564   0.11866   0.13534   0.14879   0.15099
     Eigenvalues ---    0.15699   0.15858   0.16240   0.16859   0.18694
     Eigenvalues ---    0.19117   0.20068   0.21139   0.21741   0.22822
     Eigenvalues ---    0.23225   0.24299   0.24367   0.24852   0.26848
     Eigenvalues ---    0.29899   0.31655   0.31984   0.32511   0.32974
     Eigenvalues ---    0.33324   0.33408   0.33717   0.34151   0.34240
     Eigenvalues ---    0.34731   0.34927   0.36380   0.36987   0.37527
     Eigenvalues ---    0.37677   0.40346   0.40655   0.43873   0.44955
     Eigenvalues ---    0.45256   0.45464   0.46827   0.47183   0.47619
     Eigenvalues ---    0.52168   0.57263   0.81042   0.87023
 RFO step:  Lambda=-3.28158497D-03 EMin=-3.65093943D-04
 Linear search not attempted -- first point.
 Iteration  1 RMS(Cart)=  0.13010249 RMS(Int)=  0.03715752
 Iteration  2 RMS(Cart)=  0.09451755 RMS(Int)=  0.00457639
 Iteration  3 RMS(Cart)=  0.00644537 RMS(Int)=  0.00010580
 Iteration  4 RMS(Cart)=  0.00002026 RMS(Int)=  0.00010503
 Iteration  5 RMS(Cart)=  0.00000001 RMS(Int)=  0.00010503
 Variable       Old X    -DE/DX   Delta X   Delta X   Delta X     New X
                                 (Linear)    (Quad)   (Total)
    R1        2.30961   0.00460   0.00000   0.00506   0.00506   2.31467
    R2        2.56734   0.00787   0.00000   0.01320   0.01320   2.58054
    R3        2.86976   0.00281   0.00000   0.00474   0.00474   2.87449
    R4        2.74746   0.00547   0.00000  -0.00055  -0.00055   2.74691
    R5        1.90465   0.00174   0.00000   0.00428   0.00428   1.90893
    R6        2.85639   0.00596   0.00000   0.01648   0.01648   2.87286
    R7        2.91583   0.00665   0.00000   0.02973   0.02973   2.94556
    R8        2.05852   0.00006   0.00000   0.00012   0.00012   2.05863
    R9        2.54490  -0.00127   0.00000  -0.00732  -0.00732   2.53758
   R10        2.27966   0.00247   0.00000   0.00183   0.00183   2.28149
   R11        1.82716   0.00408   0.00000   0.00676   0.00676   1.83392
   R12        2.82271   0.00134   0.00000  -0.00377  -0.00377   2.81895
   R13        2.05642   0.00252   0.00000   0.00801   0.00801   2.06443
   R14        2.05685   0.00290   0.00000   0.00988   0.00988   2.06673
   R15        2.58491   0.00525   0.00000   0.01099   0.01100   2.59592
   R16        2.60531   0.00412   0.00000   0.01023   0.01023   2.61554
   R17        2.61628  -0.00440   0.00000  -0.01446  -0.01446   2.60182
   R18        2.04550  -0.00207   0.00000  -0.00521  -0.00521   2.04029
   R19        2.48159  -0.00119   0.00000  -0.00291  -0.00292   2.47867
   R20        2.57882   0.00253   0.00000   0.00466   0.00466   2.58347
   R21        2.03202   0.00296   0.00000   0.00775   0.00775   2.03977
   R22        1.90418   0.00118   0.00000   0.00238   0.00238   1.90656
   R23        2.87353   0.00514   0.00000   0.01904   0.01904   2.89258
   R24        2.06565   0.00074   0.00000  -0.00005  -0.00005   2.06560
   R25        2.07269   0.00074   0.00000   0.00263   0.00263   2.07532
   R26        2.76907   0.00463   0.00000   0.00703   0.00703   2.77610
   R27        2.06403   0.00067   0.00000   0.00430   0.00430   2.06833
   R28        2.07310  -0.00035   0.00000  -0.00293  -0.00293   2.07017
   R29        1.91421   0.00219   0.00000   0.00302   0.00302   1.91723
   R30        1.91617   0.00242   0.00000   0.00377   0.00377   1.91994
    A1        2.11916   0.00122   0.00000   0.00424   0.00424   2.12339
    A2        2.15643  -0.00133   0.00000  -0.00868  -0.00869   2.14774
    A3        2.00738   0.00012   0.00000   0.00434   0.00433   2.01172
    A4        2.11388   0.00185   0.00000   0.00613   0.00589   2.11976
    A5        2.11496  -0.00147   0.00000  -0.00479  -0.00503   2.10994
    A6        2.05343  -0.00039   0.00000  -0.00296  -0.00320   2.05024
    A7        1.85759   0.00210   0.00000   0.02660   0.02657   1.88416
    A8        1.92226   0.00231   0.00000   0.01791   0.01783   1.94009
    A9        1.89390  -0.00165   0.00000  -0.00372  -0.00350   1.89040
   A10        1.93149  -0.00187   0.00000  -0.00729  -0.00782   1.92367
   A11        1.93809  -0.00089   0.00000  -0.02115  -0.02130   1.91680
   A12        1.91929   0.00009   0.00000  -0.01079  -0.01100   1.90829
   A13        1.98654  -0.00360   0.00000  -0.02235  -0.02237   1.96418
   A14        2.14859   0.00239   0.00000   0.01117   0.01115   2.15974
   A15        2.14803   0.00121   0.00000   0.01111   0.01109   2.15912
   A16        1.84847   0.00519   0.00000   0.03301   0.03301   1.88148
   A17        1.98163   0.00252   0.00000   0.01893   0.01887   2.00049
   A18        1.89266  -0.00099   0.00000  -0.00189  -0.00216   1.89050
   A19        1.87249  -0.00136   0.00000  -0.01912  -0.01914   1.85335
   A20        1.89507   0.00015   0.00000   0.01119   0.01107   1.90614
   A21        1.93287  -0.00056   0.00000  -0.00102  -0.00088   1.93198
   A22        1.88664   0.00012   0.00000  -0.00966  -0.00975   1.87689
   A23        2.30858   0.00076   0.00000   0.00377   0.00375   2.31233
   A24        2.14723   0.00064   0.00000   0.00029   0.00028   2.14751
   A25        1.82703  -0.00139   0.00000  -0.00395  -0.00392   1.82310
   A26        1.93684   0.00050   0.00000   0.00208   0.00203   1.93887
   A27        2.21641   0.00108   0.00000   0.00793   0.00784   2.22425
   A28        2.12979  -0.00157   0.00000  -0.00964  -0.00973   2.12006
   A29        1.83442   0.00172   0.00000   0.00469   0.00471   1.83913
   A30        1.94541   0.00103   0.00000   0.00178   0.00178   1.94719
   A31        2.20759  -0.00151   0.00000  -0.00782  -0.00782   2.19977
   A32        2.13019   0.00048   0.00000   0.00603   0.00603   2.13622
   A33        1.88108  -0.00186   0.00000  -0.00459  -0.00460   1.87649
   A34        2.19571   0.00124   0.00000   0.00416   0.00413   2.19985
   A35        2.20636   0.00063   0.00000   0.00037   0.00035   2.20671
   A36        1.97338   0.00073   0.00000  -0.00505  -0.00520   1.96818
   A37        1.91351   0.00119   0.00000   0.03501   0.03512   1.94863
   A38        1.89088  -0.00172   0.00000  -0.03110  -0.03108   1.85979
   A39        1.92372  -0.00152   0.00000  -0.00816  -0.00826   1.91546
   A40        1.89997   0.00138   0.00000   0.00490   0.00463   1.90460
   A41        1.85848  -0.00011   0.00000   0.00421   0.00445   1.86293
   A42        1.90100   0.00279   0.00000   0.01309   0.01306   1.91406
   A43        1.91102  -0.00071   0.00000  -0.00695  -0.00692   1.90411
   A44        1.89848  -0.00038   0.00000  -0.00005  -0.00013   1.89835
   A45        1.88948  -0.00104   0.00000  -0.01017  -0.01014   1.87934
   A46        1.99300  -0.00073   0.00000   0.00425   0.00419   1.99719
   A47        1.86968  -0.00001   0.00000  -0.00105  -0.00105   1.86863
   A48        1.91856   0.00128   0.00000   0.01129   0.01110   1.92967
   A49        1.91409   0.00213   0.00000   0.01665   0.01646   1.93056
   A50        1.84850  -0.00036   0.00000   0.01457   0.01420   1.86270
    D1       -0.00115   0.00098   0.00000   0.04867   0.04863   0.04749
    D2        3.09351   0.00064   0.00000   0.00689   0.00689   3.10040
    D3       -3.12132   0.00045   0.00000   0.05410   0.05409  -3.06722
    D4       -0.02666   0.00012   0.00000   0.01232   0.01235  -0.01431
    D5        0.36053   0.00037   0.00000   0.36531   0.36536   0.72590
    D6        2.51466  -0.00020   0.00000   0.37726   0.37741   2.89207
    D7       -1.74698  -0.00065   0.00000   0.38390   0.38367  -1.36331
    D8       -2.80300   0.00094   0.00000   0.35993   0.36000  -2.44300
    D9       -0.64886   0.00038   0.00000   0.37188   0.37205  -0.27682
   D10        1.37268  -0.00008   0.00000   0.37852   0.37830   1.75099
   D11       -2.75912   0.00065   0.00000   0.02027   0.02044  -2.73868
   D12        1.42960   0.00037   0.00000   0.00333   0.00313   1.43274
   D13       -0.67214  -0.00011   0.00000   0.00805   0.00806  -0.66408
   D14        0.42781   0.00101   0.00000   0.06069   0.06087   0.48868
   D15       -1.66666   0.00073   0.00000   0.04375   0.04356  -1.62309
   D16        2.51479   0.00025   0.00000   0.04846   0.04848   2.56327
   D17        2.25632  -0.00091   0.00000   0.15095   0.15089   2.40721
   D18       -0.89237  -0.00051   0.00000   0.13996   0.13990  -0.75247
   D19       -1.93839   0.00210   0.00000   0.18449   0.18439  -1.75400
   D20        1.19611   0.00250   0.00000   0.17350   0.17340   1.36950
   D21        0.19831   0.00030   0.00000   0.15104   0.15119   0.34950
   D22       -2.95038   0.00070   0.00000   0.14005   0.14020  -2.81018
   D23       -3.12764   0.00185   0.00000   0.05975   0.05977  -3.06787
   D24        1.04769   0.00072   0.00000   0.03463   0.03465   1.08234
   D25       -0.98618   0.00181   0.00000   0.05703   0.05694  -0.92923
   D26        1.10638  -0.00101   0.00000   0.02044   0.02054   1.12692
   D27       -1.00148  -0.00214   0.00000  -0.00467  -0.00458  -1.00606
   D28       -3.03534  -0.00105   0.00000   0.01773   0.01771  -3.01763
   D29       -1.04126   0.00132   0.00000   0.05958   0.05958  -0.98169
   D30        3.13407   0.00019   0.00000   0.03446   0.03446  -3.11466
   D31        1.10021   0.00128   0.00000   0.05686   0.05675   1.15695
   D32        3.12150  -0.00057   0.00000  -0.05177  -0.05177   3.06974
   D33       -0.01300  -0.00098   0.00000  -0.04078  -0.04078  -0.05378
   D34       -1.79586  -0.00035   0.00000  -0.03497  -0.03506  -1.83092
   D35        1.31285  -0.00029   0.00000  -0.02980  -0.02985   1.28300
   D36        0.31064   0.00014   0.00000  -0.01718  -0.01710   0.29354
   D37       -2.86383   0.00020   0.00000  -0.01200  -0.01189  -2.87573
   D38        2.37951   0.00005   0.00000  -0.02270  -0.02274   2.35677
   D39       -0.79496   0.00011   0.00000  -0.01752  -0.01754  -0.81250
   D40        3.11083   0.00021   0.00000   0.00792   0.00794   3.11877
   D41       -0.01260  -0.00038   0.00000  -0.01487  -0.01494  -0.02753
   D42       -0.00226   0.00014   0.00000   0.00340   0.00340   0.00113
   D43       -3.12570  -0.00045   0.00000  -0.01939  -0.01947   3.13802
   D44       -3.11551  -0.00013   0.00000  -0.00630  -0.00631  -3.12182
   D45        0.03354   0.00005   0.00000   0.00346   0.00348   0.03702
   D46        0.00093  -0.00006   0.00000  -0.00223  -0.00223  -0.00130
   D47       -3.13320   0.00012   0.00000   0.00753   0.00755  -3.12564
   D48        0.00273  -0.00016   0.00000  -0.00325  -0.00324  -0.00051
   D49        3.12721   0.00042   0.00000   0.01842   0.01826  -3.13772
   D50       -0.00210   0.00012   0.00000   0.00177   0.00174  -0.00036
   D51        3.13677  -0.00003   0.00000   0.00014   0.00015   3.13692
   D52        0.00077  -0.00004   0.00000   0.00027   0.00031   0.00108
   D53        3.13484  -0.00022   0.00000  -0.00954  -0.00951   3.12534
   D54       -3.13824   0.00010   0.00000   0.00184   0.00185  -3.13639
   D55       -0.00417  -0.00008   0.00000  -0.00797  -0.00796  -0.01213
   D56       -3.10276   0.00021   0.00000   0.03220   0.03218  -3.07059
   D57        1.11730   0.00025   0.00000   0.04085   0.04085   1.15816
   D58       -0.92054   0.00088   0.00000   0.04603   0.04603  -0.87451
   D59        1.03193  -0.00072   0.00000  -0.00367  -0.00366   1.02827
   D60       -1.03119  -0.00068   0.00000   0.00499   0.00502  -1.02617
   D61       -3.06903  -0.00006   0.00000   0.01017   0.01020  -3.05884
   D62       -1.00043  -0.00053   0.00000  -0.00699  -0.00702  -1.00745
   D63       -3.06355  -0.00049   0.00000   0.00166   0.00165  -3.06190
   D64        1.18179   0.00013   0.00000   0.00684   0.00683   1.18862
   D65       -3.02904   0.00108   0.00000   0.03187   0.03200  -2.99703
   D66        1.22859  -0.00046   0.00000  -0.00186  -0.00193   1.22666
   D67       -0.95240   0.00121   0.00000   0.02511   0.02520  -0.92720
   D68       -2.97796  -0.00033   0.00000  -0.00862  -0.00873  -2.98669
   D69        1.12834   0.00001   0.00000   0.01934   0.01941   1.14775
   D70       -0.89722  -0.00153   0.00000  -0.01440  -0.01452  -0.91174
         Item               Value     Threshold  Converged?
 Maximum Force            0.007868     0.000450     NO 
 RMS     Force            0.001936     0.000300     NO 
 Maximum Displacement     1.025642     0.001800     NO 
 RMS     Displacement     0.205654     0.001200     NO 
 Predicted change in Energy=-2.411992D-03
 GradGradGradGradGradGradGradGradGradGradGradGradGradGradGradGradGradGrad

                          Input orientation:                          
 ---------------------------------------------------------------------
 Center     Atomic      Atomic             Coordinates (Angstroms)
 Number     Number       Type             X           Y           Z
 ---------------------------------------------------------------------
      1          8           0       -1.511651   -0.099877   -1.170160
      2          6           0       -1.673945   -0.084738    0.043817
      3          7           0       -0.631157   -0.256616    0.908583
      4          6           0        0.733325   -0.408070    0.430866
      5          6           0        1.528904   -1.130375    1.506275
      6          8           0        2.349717   -2.064424    0.999320
      7          8           0        1.446773   -0.878616    2.684187
      8          6           0        1.378428    0.976950    0.122362
      9          6           0        2.746782    0.907586   -0.467581
     10          6           0        3.995277    1.143907    0.054399
     11          7           0        4.975986    0.917651   -0.885102
     12          6           0        4.339179    0.546548   -1.970092
     13          7           0        2.986279    0.521718   -1.775035
     14          6           0       -3.025554    0.160201    0.697234
     15          6           0       -4.167960   -0.570168   -0.013023
     16          7           0       -5.448300   -0.210758    0.611206
     17          1           0       -0.772272   -0.206826    1.907602
     18          1           0        0.712992   -1.007173   -0.478758
     19          1           0        2.867683   -2.433588    1.732289
     20          1           0        1.415643    1.552652    1.050063
     21          1           0        0.690554    1.489381   -0.556127
     22          1           0        4.237599    1.468536    1.055197
     23          1           0        4.791938    0.289916   -2.915743
     24          1           0        2.286271    0.282354   -2.461028
     25          1           0       -3.016348   -0.110096    1.756314
     26          1           0       -3.205160    1.242532    0.648595
     27          1           0       -4.031612   -1.649617    0.105948
     28          1           0       -4.110731   -0.355207   -1.085687
     29          1           0       -6.198106   -0.786949    0.243626
     30          1           0       -5.690514    0.753305    0.401092
 ---------------------------------------------------------------------
                    Distance matrix (angstroms):
                    1          2          3          4          5
     1  O    0.000000
     2  C    1.224871   0.000000
     3  N    2.262965   1.365565   0.000000
     4  C    2.774561   2.459532   1.453604   0.000000
     5  C    4.179737   3.672925   2.405526   1.520254   0.000000
     6  O    4.845230   4.584975   3.487408   2.383144   1.342827
     7  O    4.920843   4.164213   2.803114   2.409953   1.207313
     8  C    3.344058   3.232696   2.485610   1.558721   2.525604
     9  C    4.432026   4.559502   3.828794   2.567521   3.087494
    10  C    5.776920   5.800841   4.908665   3.631899   3.655585
    11  N    6.573131   6.788907   6.003021   4.635675   4.668562
    12  C    5.940536   6.372755   5.799663   4.435998   4.774395
    13  N    4.580790   5.039216   4.570936   3.287295   3.952259
    14  C    2.417996   1.521117   2.439577   3.810912   4.802418
    15  C    2.935323   2.541453   3.668330   4.924013   5.922529
    16  N    4.322356   3.818844   4.826530   6.187402   7.094238
    17  H    3.167135   2.074034   1.010164   2.118506   2.511855
    18  H    2.500052   2.611788   2.072387   1.089383   2.149709
    19  H    5.748825   5.384647   4.202331   3.217438   1.881961
    20  H    4.028560   3.638561   2.735481   2.166424   2.723893
    21  H    2.784328   2.903211   2.634540   2.139230   3.437943
    22  H    6.361290   6.195313   5.167440   4.023851   3.780852
    23  H    6.552422   7.120885   6.658388   5.306535   5.676166
    24  H    4.029473   4.700246   4.489561   3.354308   4.278891
    25  H    3.290664   2.176082   2.535596   3.988188   4.665062
    26  H    2.824519   2.114715   2.990071   4.275927   5.364481
    27  H    3.221855   2.830424   3.761352   4.934738   5.757591
    28  H    2.612957   2.699418   4.011765   5.076180   6.254968
    29  H    4.943047   4.582691   5.631548   6.944303   7.837021
    30  H    4.545289   4.118591   5.184070   6.528046   7.542524
                    6          7          8          9         10
     6  O    0.000000
     7  O    2.249494   0.000000
     8  C    3.310954   3.163975   0.000000
     9  C    3.338009   3.848919   1.491723   0.000000
    10  C    3.727484   4.183451   2.623051   1.373700   0.000000
    11  N    4.397853   5.331205   3.736432   2.267989   1.376824
    12  C    4.426347   5.662104   3.650981   2.218923   2.138614
    13  N    3.845828   4.920942   2.528347   1.384084   2.179913
    14  C    5.825268   5.002882   4.515817   5.935928   7.118496
    15  C    6.762969   6.236610   5.759715   7.085481   8.341525
    16  N    8.024698   7.230858   6.946497   8.341093   9.556479
    17  H    3.744657   2.445106   3.035443   4.389436   5.290403
    18  H    2.445683   3.249489   2.177359   2.793336   3.960404
    19  H    0.970471   2.311500   4.054814   4.002185   4.109167
    20  H    3.736083   2.929573   1.092450   2.119265   2.795163
    21  H    4.219214   4.083982   1.093665   2.138784   3.378356
    22  H    4.006125   3.993926   3.047409   2.203645   1.079676
    23  H    5.180259   6.626825   4.621055   3.249258   3.191506
    24  H    4.181556   5.340960   2.824987   2.139350   3.160751
    25  H    5.760824   4.622880   4.813057   6.260595   7.323382
    26  H    6.474228   5.503033   4.621334   6.064952   7.225586
    27  H    6.456898   6.103642   6.013954   7.267382   8.499258
    28  H    7.000433   6.735855   5.776234   7.000156   8.321929
[...]
 3,-0.00013946,-0.00005898,-0.00011886,0.00018215,-0.00000302,-0.000008
 38,-0.00003327,0.00004871,0.00002209,0.00011377,-0.00072495,0.00059234
 ,0.00003018,0.00003022,0.00002687,0.00000540,-0.00030456,0.00010484,0.
 00023273,-0.00016963,-0.00056770,-0.00000810,0.00177116,0.00001183,0.0
 0016960,-0.00124328,-0.00002318,0.05100286,0.02830000,-0.00433017,-0.0
 0232907,0.00213246,0.00119377,0.00118704,-0.00646548,0.00106647,-0.000
 41928,0.00146700,-0.00016198,0.00040175,-0.00061286,-0.00067426,0.0006
 8377,-0.00039786,0.00054537,-0.00031859,0.00017324,0.00026058,-0.00029
 519,0.00032742,0.00013584,-0.00013527,0.00080999,-0.02795980,-0.003825
 28,0.00870482,-0.00464994,-0.00022331,-0.00714768,0.00652735,0.0004751
 0,-0.00401211,0.01817665,0.00246119,0.01544591,-0.04059079,-0.00542553
 ,-0.08103207,-0.00029830,0.00021972,0.00062431,0.00027176,0.00016786,0
 .00039123,-0.00024712,-0.00009331,-0.00009641,0.00010471,-0.00004583,-
 0.00015636,-0.00001033,0.00048929,-0.00022595,-0.00004646,0.00001709,-
 0.00001930,0.00016911,-0.00008480,0.00025485,0.00023716,-0.00035819,-0
 .00059617,-0.00122063,-0.00003045,0.00076568,-0.00051159,-0.00009137,-
 0.00049801,0.05241436,0.00752972,0.07001253,-0.00887399,0.00166826,0.0
 0346404,0.00037728,-0.00938543,0.03119955,0.00039167,0.00023124,-0.001
 33928,0.00032170,-0.00007138,-0.00005728,-0.00019306,0.00001751,0.0001
 8072,0.00016433,-0.00006359,-0.00001508,0.00019129,-0.00000122,-0.0001
 5361,0.00004452,-0.00003113,0.00002701,0.00013369,0.00002869,0.0002044
 0,-0.00008704,-0.00000429,0.00002662,-0.00018053,-0.00001065,-0.000063
 78,0.00016054,-0.00000306,-0.00022836,-0.00042953,-0.00012023,0.000161
 05,-0.06077345,-0.00963943,0.04910978,0.00324461,0.00409671,-0.0203240
 2,0.00160380,0.00048845,0.00062599,-0.00211655,0.00060468,-0.00051237,
 0.00017510,-0.00006616,0.00006037,-0.00001573,0.00000009,-0.00000228,-
 0.00000499,0.00002090,-0.00002216,0.00001875,0.00002112,0.00002246,-0.
 00001626,-0.00000131,-0.00000078,-0.00000075,0.00000148,0.00000141,0.0
 0062612,0.00024954,-0.00027612,0.06595929,0.00133755,0.00227173,-0.000
 78653,0.00118970,-0.00218644,-0.00535978,-0.00018194,-0.00032688,-0.00
 035665,-0.00009990,-0.00001683,-0.00020205,0.00001574,-0.00000871,0.00
 004793,-0.00003221,0.00002427,-0.00002324,-0.00004766,-0.00005564,-0.0
 0004844,-0.00002867,0.00002914,-0.00000687,0.00000026,-0.00001713,-0.0
 0000268,0.,-0.00000311,0.00000148,-0.00000276,0.00000251,-0.00000030,0
 .00001809,0.00000293,0.00000166,0.00004385,0.00000336,-0.00002447,-0.0
 1151759,-0.06103913,0.05749503,0.00316977,0.00354361,-0.01962185,0.001
 11414,0.00019829,0.00110500,0.00035119,0.00083240,0.00003624,0.0000566
 5,-0.00000637,-0.00001751,0.00000461,0.00000915,0.00000932,-0.00002242
 ,-0.00000071,0.00000135,0.00000143,-0.00000570,0.00002531,-0.00000029,
 0.00000091,-0.00000058,0.00000110,-0.00000074,-0.00000135,-0.00004109,
 -0.00000426,0.00003332,0.01286602,0.06325194,0.00184281,-0.00003694,0.
 00166730,-0.00254123,0.00146480,-0.00742848,-0.00156085,0.00004004,0.0
 0074029,0.00040443,-0.00038014,0.00047242,0.00027339,0.00001555,-0.000
 20409,-0.00011035,0.00002771,0.00004379,-0.00015066,-0.00002851,0.0001
 2475,-0.00006521,0.00005022,-0.00000401,-0.00007100,-0.00003611,-0.000
 08750,0.00005537,-0.00000174,-0.00000827,0.00007474,0.00001008,0.00005
 635,-0.00009254,-0.00000738,0.00009907,0.00012687,0.00002363,-0.000079
 46,0.05246879,0.05597958,-0.28353475,0.00393069,0.00357898,-0.02130540
 ,0.00067103,0.00078378,0.00242781,0.00023031,-0.00007580,0.00126966,-0
 .00010312,0.00005786,0.00004954,0.00002124,-0.00000658,0.00000123,0.00
 000159,-0.00001716,0.00001422,-0.00000527,-0.00000791,-0.00001486,0.00
 000952,0.00000065,0.00000107,-0.00000479,-0.00000080,0.00000454,-0.000
 23021,-0.00005734,0.00007739,-0.05369951,-0.05943601,0.30975228,0.0006
 8951,-0.00371918,-0.00044771,-0.00819329,0.03546415,-0.00590072,-0.003
 77207,-0.00117595,0.00067793,-0.00053119,-0.00142065,-0.00083316,0.000
 02377,-0.00028208,0.00028934,-0.00013397,0.00013364,-0.00009377,-0.000
 03749,0.00006912,-0.00016837,-0.00037126,0.00036423,-0.00011111,-0.000
 03637,-0.00007731,-0.00005410,0.00001790,-0.00002461,0.00000815,-0.000
 02252,0.00001017,0.00004597,-0.00002712,0.00000640,0.00000060,-0.00004
 236,-0.00002744,0.00004936,-0.05495634,0.05244389,-0.00449068,0.002601
 16,-0.02121712,0.00251650,0.00204912,-0.00009959,0.00056594,-0.0000494
 5,0.00064367,0.00046441,0.00013288,-0.00001597,0.00002442,0.00000254,0
 .00001260,0.00001112,-0.00008539,-0.00011664,0.00003061,-0.00002098,-0
 .00000236,-0.00000698,0.00000230,0.00000351,-0.00000164,-0.00000324,0.
 00000147,0.00000613,0.00009504,0.00001836,-0.00009708,0.00128556,-0.00
 681149,0.00061531,0.06292440,-0.00030228,0.00161696,-0.00030907,0.0017
 2191,-0.00533538,0.00238053,0.00086924,0.00017213,-0.00087966,-0.00011
 849,0.00002946,0.00010425,-0.00004192,0.00001487,-0.00002164,0.0000691
 3,-0.00002901,0.00002557,0.00005830,0.00001106,0.00000388,0.00006453,-
 0.00005608,0.00002305,0.00002773,0.00001770,0.00004644,-0.00001530,0.0
 0000785,-0.00000498,-0.00000828,0.00000027,-0.00002081,0.00002477,0.00
 000470,-0.00001880,-0.00001390,0.00001161,-0.00000526,0.05031927,-0.28
 266968,0.03891945,0.00210221,-0.02108856,0.00131399,0.00103076,0.00222
 188,0.00038652,-0.00022709,-0.00007908,-0.00023700,0.00000659,-0.00001
 961,-0.00001202,-0.00000657,-0.00000630,-0.00000477,0.00002816,0.00001
 061,-0.00001695,0.00001599,-0.00002039,0.00000015,-0.00000246,-0.00000
 334,0.00000052,0.00000212,-0.00000458,-0.00000251,0.00005368,-0.000023
 27,0.00000597,0.00115327,-0.00603599,0.00116246,-0.05350873,0.31036817
 ,0.00091193,0.00115893,-0.00041539,-0.00009011,-0.00674086,-0.00026004
 ,-0.00053301,-0.00001978,0.00005547,-0.00003905,-0.00038869,0.00004609
 ,0.00012300,0.00000203,-0.00004561,-0.00006860,0.00002250,0.00000348,-
 0.00009597,-0.00002822,0.00001806,-0.00009957,0.00011564,0.00002113,-0
 .00003498,-0.00004369,-0.00002356,0.00001520,-0.00000859,0.00000113,0.
 00001327,0.00001173,0.00000691,-0.00001105,-0.00000455,0.00003168,0.00
 003982,0.00000753,-0.00003792,-0.00481164,0.03944761,-0.05197013,0.002
 34777,-0.02286250,0.00190362,0.00169249,0.00089036,0.00033450,0.000464
 02,0.00050846,0.00045375,0.00002022,0.00001135,0.00002581,0.00000782,0
 .00000323,0.00000426,-0.00001687,-0.00001400,0.00000757,-0.00000041,-0
 .00001726,0.00001402,0.00000073,0.00000015,-0.00000097,0.00000327,-0.0
 0000272,-0.00000278,-0.00009546,-0.00000863,0.00006919,-0.00718367,0.0
 2940977,-0.00410998,0.00942341,-0.03976912,0.05421267,-0.00039908,0.00
 047861,0.00042858,0.00193095,-0.00115477,-0.00004980,-0.00006403,0.000
 37171,-0.00009448,-0.00004647,-0.00004477,-0.00004063,-0.00002556,-0.0
 0000554,-0.00002188,0.00000828,0.00000448,0.00000707,0.00001099,0.0000
 1087,0.00001834,0.00000541,-0.00002769,-0.00000236,0.00000399,0.000008
 57,0.00000460,-0.00000255,0.00000232,-0.00000122,-0.00000098,0.0000018
 4,-0.00000101,-0.00000125,0.00000173,-0.00000062,-0.00001066,0.0000101
 4,0.00000326,0.00193922,-0.02043649,0.00346702,-0.05346370,0.03177664,
 -0.00548810,-0.01295405,0.03769938,-0.00411790,0.00000793,-0.00010407,
 -0.00005743,-0.00002077,-0.00001750,0.00000912,-0.00000500,-0.00000247
 ,-0.00000448,0.00000483,0.00000503,-0.00000133,0.00000559,0.00000404,0
 .00000291,-0.00000004,-0.00000146,0.00000033,0.00000002,-0.00000296,0.
 00000019,0.00001414,-0.00002337,-0.00000274,0.00057966,0.00089911,0.00
 034589,-0.00230934,-0.00237875,-0.00288377,0.06818505,-0.00092795,0.00
 037532,0.00055146,0.00187166,-0.00067927,-0.00042661,-0.00075893,0.000
 56107,-0.00025081,-0.00000225,-0.00010746,-0.00013204,-0.00005638,-0.0
 0007889,0.00009933,-0.00000657,0.00003950,-0.00002599,0.00003628,0.000
 07516,-0.00005089,-0.00002075,-0.00001337,-0.00000742,0.00001448,0.000
 00844,0.00001230,-0.00000660,0.00000355,0.00000187,-0.00002186,0.00000
 632,0.00000239,0.00001354,0.00000157,-0.00001834,-0.00004583,0.0000197
 3,0.00001984,-0.00021539,-0.01707041,0.00229434,0.03895910,-0.28791001
 ,0.04553628,0.00393671,-0.00541911,0.00001769,-0.00002842,-0.00020551,
 -0.00001079,-0.00004545,-0.00002157,0.00002645,-0.00001407,-0.00001195
 ,-0.00000746,-0.00000769,-0.00000226,-0.00000107,0.00000481,0.00001867
 ,0.00000608,-0.00000072,-0.00000439,-0.00000045,0.00000071,-0.00000790
 ,0.00000117,0.00006690,-0.00003685,-0.00003352,0.00031793,0.00084553,-
 0.00024256,-0.00220596,-0.00034359,-0.00228927,-0.04282966,0.31360815,
 0.00029563,-0.00018191,0.00019740,0.00102987,-0.00002630,0.00056330,0.
 00018513,0.00022904,-0.00005604,-0.00006398,-0.00003183,-0.00002380,-0
 .00009651,0.00000733,0.00007063,0.00006212,-0.00003111,-0.00001053,0.0
 0007292,0.00001659,-0.00004516,0.00000493,-0.00002686,-0.00000723,0.00
 000230,0.00000563,0.00000519,-0.00000208,0.00000374,0.00000038,0.00000
 530,-0.00000587,-0.00000770,-0.00000048,-0.00000006,-0.00000381,0.0000
 0588,-0.00000876,0.00000326,0.00189889,-0.02095569,0.00256299,-0.00631
 072,0.04937663,-0.06060107,0.00146551,-0.00854477,0.00166224,-0.000110
 81,-0.00009038,-0.00004675,0.00003521,-0.00000360,0.00000206,-0.000007
 15,0.00000385,0.00000112,0.00000345,0.00000087,-0.00000123,-0.00000087
 ,-0.00000142,-0.00000215,-0.00000082,0.00000079,0.00000013,-0.00000116
 ,0.00000555,-0.00000083,-0.00001448,0.00001592,-0.00000059,0.00086836,
 0.00006840,0.00096099,-0.00282840,-0.00278277,-0.00170399,0.00734641,-
 0.04707452,0.06019419,-0.00074534,-0.00009943,0.00124209,0.00121648,0.
 00055693,-0.00263256,-0.00022157,-0.00012061,0.00059098,0.00002610,0.0
 0004705,0.00008766,0.00008466,-0.00001917,-0.00002986,-0.00005871,0.00
 002369,0.00000158,-0.00005615,0.00000429,0.00002901,-0.00000384,-0.000
 00121,-0.00001358,-0.00001877,-0.00000359,-0.00003843,0.00001898,-0.00
 000250,-0.00000319,0.00002041,0.00000252,0.00002389,-0.00003125,-0.000
 00327,0.00003570,0.00003807,0.00001699,-0.00001444,0.00335426,0.003417
 76,-0.01953224,-0.05846934,-0.00973069,0.04982402,-0.02189992,-0.00307
 719,0.03371451,0.00034069,-0.00014860,0.00009556,-0.00007350,0.0000227
 1,-0.00001884,0.00000797,-0.00000342,0.00000262,-0.00000201,-0.0000042
 6,0.00000335,-0.00000089,0.00000299,-0.00000602,0.00000345,0.00000083,
 -0.00000012,-0.00000244,-0.00000124,0.00000225,-0.00008296,-0.00002687
 ,-0.00000177,-0.00275693,-0.00245210,-0.00260713,0.00080939,0.00014197
 ,0.00088333,0.00226628,0.00049846,-0.00467428,0.07397216,0.00001031,-0
 .00064205,0.00031214,0.00056206,0.00036013,-0.00039059,-0.00015753,0.0
 0031974,0.00008771,-0.00002207,0.00008294,0.00008658,0.00000262,-0.000
 02741,0.00003383,-0.00001278,0.00000917,-0.00001002,0.00000064,0.00003
 012,-0.00001448,0.00000720,0.00000008,-0.00000326,-0.00000546,-0.00000
 376,-0.00000739,0.00000487,0.00000051,-0.00000243,0.00000477,-0.000005
 39,0.00000462,-0.00000586,-0.00000233,0.00001047,0.00000885,-0.0000197
 1,-0.00000777,0.00124046,0.00290396,-0.01955810,-0.00964668,-0.0656826
 0,0.05016467,0.00423773,0.00453243,-0.00815269,0.00015972,-0.00017068,
 0.00002782,-0.00004996,0.00000518,-0.00000902,-0.00000175,-0.00000360,
 -0.00000078,-0.00000016,-0.00000396,0.,0.00000108,-0.00000057,-0.00000
 893,0.00000010,0.00000158,-0.00000025,-0.00000011,0.00000815,-0.000000
 49,-0.00002308,0.00004484,0.00000923,-0.00233549,-0.00115021,-0.002755
 75,0.00104012,0.00109246,0.00019063,-0.00595282,-0.00615978,0.03054262
 ,0.01182618,0.06385705,0.00102944,0.00038022,0.00333831,0.00234178,0.0
 0015306,-0.00439942,-0.00032903,-0.00004719,0.00074806,0.00001977,0.00
 006985,0.00002528,0.00007671,0.00002830,-0.00012381,-0.00006709,0.0000
 2205,0.00001979,-0.00007461,-0.00002133,0.00011433,0.00000645,0.000013
 90,-0.00002346,-0.00004195,-0.00000437,-0.00006918,0.00003055,0.000000
 84,-0.00000340,0.00005799,0.00000773,0.00003837,-0.00007953,-0.0000080
 4,0.00005466,0.00008547,0.00001862,-0.00001754,0.00035416,0.00369408,-
 0.02156638,0.04641168,0.04809720,-0.27324065,0.00769527,-0.00141087,0.
 00076311,0.00017903,-0.00018266,0.00016819,-0.00006797,0.00002568,-0.0
 0000602,0.00000482,-0.00000027,-0.00000523,0.00000498,-0.00000817,0.00
 000809,-0.00000826,-0.00000521,-0.00001090,0.00000704,0.00000048,0.000
 00227,-0.00000825,-0.00000317,0.00000779,-0.00013478,-0.00003100,-0.00
 000286,-0.00213703,-0.00254668,-0.00112448,0.00049156,-0.00008207,0.00
 113005,0.00037828,0.00213856,-0.00477053,-0.05728267,-0.04971707,0.297
 68671,-0.00016943,0.00018410,0.00066895,0.00032660,-0.00137073,-0.0022
 1232,-0.00074070,0.00019772,0.00015421,0.00009311,0.00011823,-0.000138
 50,-0.00000960,-0.00006107,0.00010740,-0.00005808,0.00005067,-0.000043
 83,-0.00001409,0.00003849,-0.00004528,0.00001269,0.00002450,-0.0000149
 3,0.00000998,-0.00000845,-0.00000167,0.00000472,-0.00000047,0.00000232
 ,-0.00001491,0.00000181,0.00002072,-0.00000193,0.00000039,-0.00001216,
 -0.00003110,-0.00000700,0.00000583,-0.00670794,0.00256875,0.00304717,-
 0.02117180,-0.02438377,-0.01945751,-0.18252018,-0.13561958,-0.10236669
 ,-0.00001587,-0.00007930,0.00005411,-0.00003792,0.00000042,0.00000047,
 -0.00000574,-0.00000361,-0.00000190,-0.00001047,-0.00000444,0.00000149
 ,0.00000355,0.00000944,0.00000708,0.00000076,0.00000003,0.00000036,-0.
 00000339,-0.00000207,0.00000406,0.00005337,0.00001667,-0.00004570,0.00
 019700,0.00026640,0.00007011,0.00030885,0.00010180,0.00037969,0.001241
 65,0.00053720,-0.00059033,0.00064118,-0.00060862,0.00059951,0.20158868
 ,0.00015218,-0.00010208,-0.00004210,-0.00004059,0.00100769,0.00009140,
 0.00024384,-0.00025871,0.00017188,-0.00006477,-0.00008494,0.00002252,-
 0.00000752,0.00006243,-0.00010533,0.00003507,-0.00003823,0.00003167,0.
 00000302,-0.00004687,0.00006359,-0.00000385,-0.00000310,0.00000808,-0.
 00001238,0.00000187,-0.00001247,0.00000182,0.00000061,-0.00000190,0.00
 002435,-0.00000205,-0.00000347,-0.00002023,-0.00000186,0.00001212,0.00
 003950,0.00000444,0.00000040,0.00245815,0.00050371,0.00015325,0.006860
 87,0.00661154,0.00363783,-0.13661509,-0.21376463,-0.10963766,0.0000197
 4,0.00006852,-0.00003295,0.00002937,0.00000042,-0.00000069,0.00000373,
 0.00000880,0.00000095,0.00000882,0.00000209,0.00000143,-0.00000516,-0.
 00001171,-0.00000550,0.00000123,0.00000107,0.00000125,-0.00000196,0.00
 000205,0.00000045,-0.00005281,-0.00000934,0.00001216,0.00000140,-0.000
 08699,-0.00003381,0.00009542,0.00030827,-0.00005838,0.00033551,0.00049
 018,0.00032026,0.00029508,-0.00036139,0.00003830,0.14997997,0.22948590
 ,-0.00041195,0.00007086,0.00042515,0.00080931,-0.00074818,0.00000118,-
 0.00041100,0.00026896,-0.00024381,0.00012552,0.00003498,-0.00005730,0.
 00003146,-0.00011297,0.00017352,-0.00006256,0.00006002,-0.00005470,-0.
 00001277,0.00007752,-0.00011053,-0.00000830,0.00001020,-0.00001078,0.0
 0002468,-0.00000570,0.00003029,-0.00000366,-0.00000230,0.00000316,-0.0
 0005281,-0.00000190,0.00000717,0.00004659,0.00000450,-0.00002832,-0.00
 008880,-0.00001367,0.00000587,-0.00186165,-0.00010215,-0.00031399,0.01
 251604,0.00691954,-0.00100560,-0.13528960,-0.14562467,-0.10552420,-0.0
 0000541,-0.00007050,0.00006868,-0.00002937,0.00000030,0.00000396,0.000
 00043,-0.00001211,0.00000573,-0.00001634,-0.00000721,-0.00000255,0.000
 00676,0.00001921,0.00000809,-0.00000230,-0.00000059,-0.00000280,0.0000
 0348,-0.00000044,-0.00000163,0.00010797,0.00002652,-0.00003106,0.00025
 961,-0.00003290,0.00037070,0.00020786,0.00015536,-0.00004440,-0.000642
 47,0.00016701,0.00062187,0.00083317,0.00059244,0.00038270,0.11525928,0
 .12589767,0.10348935,0.00025369,-0.00014362,-0.00010421,-0.00038880,-0
 .00034792,0.00033599,0.00039809,-0.00010161,0.00006898,-0.00005192,0.0
 0008602,0.00008518,-0.00003425,0.00006688,-0.00005912,0.00005263,-0.00
 004115,0.00002189,0.00002422,-0.00003632,0.00003384,0.00001163,-0.0000
 0804,0.00000685,-0.00001434,0.00000303,-0.00001715,0.00000138,0.000000
 42,0.00000002,0.00003284,0.00000014,-0.00000934,-0.00002968,-0.0000040
 0,0.00001787,0.00005439,-0.00000641,-0.00000458,0.00097895,0.00116004,
 -0.00011504,-0.01037346,0.03766825,-0.01226800,-0.08161970,0.07516606,
 -0.03212729,-0.00002015,0.00003521,-0.00003519,0.00001083,0.00000580,-
 0.00001255,-0.00000487,0.00000717,-0.00000232,0.00000977,0.00000351,0.
 00000137,-0.00000262,-0.00001136,-0.00000866,0.00000033,0.00000089,0.0
 0000179,-0.00000216,0.00000275,0.00000094,-0.00006491,0.00001485,0.000
 02164,-0.00002611,-0.00009750,0.00009978,-0.00035007,-0.00116766,-0.00
 036181,-0.00690052,0.00093667,0.00142017,0.00162352,-0.00028434,0.0004
 5669,0.00703102,-0.02376472,0.00866682,0.08940026,0.00007759,-0.000038
 96,-0.00021127,-0.00015791,-0.00002111,0.00020090,0.00000638,-0.000001
 60,-0.00006230,0.00000488,0.00000518,0.00000743,-0.00001621,0.00000741
 ,0.00000754,0.00001567,-0.00000810,-0.00000022,0.00001091,-0.00000268,
 -0.00000907,-0.00000735,0.00000116,0.00000521,-0.00000211,-0.00000172,
 0.00000013,-0.00000201,-0.00000168,0.00000106,0.00000293,-0.00000130,-
 0.00000851,0.,-0.00000052,0.00000431,0.00000808,-0.00000479,-0.0000036
 2,0.00021023,0.00159496,0.00009524,0.00050433,-0.00588160,0.00403155,0
 .07987682,-0.36331465,0.09076551,-0.00000835,0.00001297,0.00000083,-0.
 00000106,0.00000033,-0.00000158,-0.00000237,0.00000233,0.00000011,0.00
 000047,0.00000010,-0.00000008,0.00000155,-0.00000032,-0.00000128,-0.00
 000123,0.00000074,-0.00000016,0.00000142,0.00000180,-0.00000102,-0.000
 00556,0.00000841,0.00001580,-0.00003393,-0.00007090,-0.00007080,0.0003
 9831,-0.00017314,0.00047633,0.00137231,0.00201912,-0.00083136,-0.00116
 330,0.00098511,-0.00062079,0.00805252,-0.02378769,0.01243023,-0.089143
 01,0.38867115,0.00006727,0.00008031,-0.00055403,-0.00037188,-0.0004346
 7,0.00065985,0.00008494,-0.00003932,-0.00021793,0.00001504,0.00004741,
 0.00002717,-0.00002297,0.00001630,0.00003575,0.00002528,-0.00001662,-0
 .00000702,0.00001488,-0.00001598,-0.00003853,-0.00000945,0.00000424,0.
 00001298,0.00000435,-0.00000591,0.00001735,-0.00000861,-0.00000332,0.0
 0000087,-0.00001090,-0.00000295,-0.00002251,0.00002391,0.00000239,-0.0
 0000089,-0.00000927,-0.00000653,-0.00001088,-0.00047559,0.00098760,0.0
 0001290,0.00799622,-0.01107673,-0.00128969,-0.04603979,0.13898279,-0.0
 5504242,-0.00003468,0.00006616,0.00000010,0.00000476,-0.00000009,-0.00
 000327,0.00000038,0.00000636,0.00000429,-0.00000187,0.00000389,-0.0000
 0318,0.00000827,-0.00000272,0.00000273,-0.00000340,0.00000137,-0.00000
 147,0.00000562,0.00000171,-0.00000510,0.00001137,0.00000977,0.00003876
 ,-0.00019605,0.00023306,-0.00023211,-0.00039491,-0.00036072,0.00027536
 ,0.00139820,-0.00030302,0.00043567,-0.00051460,-0.00142370,0.00087614,
 0.00454804,-0.02053096,0.00183425,0.03388544,-0.10622014,0.05319485\\-
 0.00000460,-0.00000471,0.00001301,-0.00000415,0.00001396,-0.00001674,0
 .00001144,-0.00001674,0.00001074,-0.00000870,0.00000520,-0.00001655,-0
 .00000180,0.00000377,0.00000442,-0.00000009,0.00000080,0.00000198,0.00
 000200,-0.00000031,-0.00000217,0.00000679,0.00000852,0.00001617,-0.000
 00095,-0.00000314,0.00000387,-0.00000152,-0.00000150,0.00000117,-0.000
 00694,-0.00000069,-0.00000155,0.00000149,-0.00000198,-0.00001179,-0.00
 001157,-0.00000585,0.00001527,0.00000134,0.00000785,-0.00000374,0.0000
 0209,-0.00000942,0.00000868,0.00000195,0.00000102,-0.00000470,-0.00000
 235,0.00000821,0.00000005,0.00000095,-0.00000289,-0.00000110,-0.000000
 07,-0.00000109,0.00000035,0.00000390,0.00000352,-0.00000200,0.00000002
 ,-0.00000697,-0.00000330,-0.00000008,0.00000069,-0.00000050,-0.0000003
 5,-0.00000068,-0.00000011,0.00001267,0.00000592,-0.00001160,-0.0000006
 3,-0.00000230,0.00000215,0.00000069,-0.00000326,0.00000183,-0.00000009
 ,0.00000164,-0.00000092,-0.00000088,0.00000129,-0.00000574,-0.00000045
 ,-0.00000098,0.00000141,-0.00000010,0.00000012,0.00000143\\\@


 MARY HAD A LITTLE LAMB
      HIS FEET WERE BLACK AS SOOT,
           AND EVERYWHERE THAT MARY WENT
                HIS SOOTY FOOT HE PUT.

                    -- NONAME
 Job cpu time:       0 days  4 hours 30 minutes 32.5 seconds.
 File lengths (MBytes):  RWF=    542 Int=      0 D2E=      0 Chk=     17 Scr=      1
 Normal termination of Gaussian 09 at Thu Jul 29 03:33:46 2021.
