 Entering Gaussian System, Link 0=g09
 Input=opt_freq-conf-455.com
 Output=opt_freq-conf-455.log
 Initial command:
 /aerosol/software/g09/l1.exe "/scratch/nicole/10562/Gau-102168.inp" -scrdir="/scratch/nicole/10562/"
 Entering Link 1 = /aerosol/software/g09/l1.exe PID=    102173.
  
 Copyright (c) 1988,1990,1992,1993,1995,1998,2003,2009,2013,
            Gaussian, Inc.  All Rights Reserved.
  
 This is part of the Gaussian(R) 09 program.  It is based on
 the Gaussian(R) 03 system (copyright 2003, Gaussian, Inc.),
 the Gaussian(R) 98 system (copyright 1998, Gaussian, Inc.),
 the Gaussian(R) 94 system (copyright 1995, Gaussian, Inc.),
 the Gaussian 92(TM) system (copyright 1992, Gaussian, Inc.),
 the Gaussian 90(TM) system (copyright 1990, Gaussian, Inc.),
 the Gaussian 88(TM) system (copyright 1988, Gaussian, Inc.),
 the Gaussian 86(TM) system (copyright 1986, Carnegie Mellon
 University), and the Gaussian 82(TM) system (copyright 1983,
 Carnegie Mellon University). Gaussian is a federally registered
 trademark of Gaussian, Inc.
  
 This software contains proprietary and confidential information,
 including trade secrets, belonging to Gaussian, Inc.
  
 This software is provided under written license and may be
 used, copied, transmitted, or stored only in accord with that
 written license.
  
 The following legend is applicable only to US Government
 contracts under FAR:
  
                    RESTRICTED RIGHTS LEGEND
  
 Use, reproduction and disclosure by the US Government is
 subject to restrictions as set forth in subparagraphs (a)
 and (c) of the Commercial Computer Software - Restricted
 Rights clause in FAR 52.227-19.
  
 Gaussian, Inc.
 340 Quinnipiac St., Bldg. 40, Wallingford CT 06492
  
  
 ---------------------------------------------------------------
 Warning -- This program may not be used in any manner that
 competes with the business of Gaussian, Inc. or will provide
 assistance to any competitor of Gaussian, Inc.  The licensee
 of this program is prohibited from giving any competitor of
 Gaussian, Inc. access to this program.  By using this program,
 the user acknowledges that Gaussian, Inc. is engaged in the
 business of creating and licensing software in the field of
 computational chemistry and represents and warrants to the
 licensee that it is not a competitor of Gaussian, Inc. and that
 it will not use this program in any manner prohibited above.
 ---------------------------------------------------------------
  

 Cite this work as:
 Gaussian 09, Revision D.01,
 M. J. Frisch, G. W. Trucks, H. B. Schlegel, G. E. Scuseria, 
 M. A. Robb, J. R. Cheeseman, G. Scalmani, V. Barone, B. Mennucci, 
 G. A. Petersson, H. Nakatsuji, M. Caricato, X. Li, H. P. Hratchian, 
 A. F. Izmaylov, J. Bloino, G. Zheng, J. L. Sonnenberg, M. Hada, 
 M. Ehara, K. Toyota, R. Fukuda, J. Hasegawa, M. Ishida, T. Nakajima, 
 Y. Honda, O. Kitao, H. Nakai, T. Vreven, J. A. Montgomery, Jr., 
 J. E. Peralta, F. Ogliaro, M. Bearpark, J. J. Heyd, E. Brothers, 
 K. N. Kudin, V. N. Staroverov, T. Keith, R. Kobayashi, J. Normand, 
 K. Raghavachari, A. Rendell, J. C. Burant, S. S. Iyengar, J. Tomasi, 
 M. Cossi, N. Rega, J. M. Millam, M. Klene, J. E. Knox, J. B. Cross, 
 V. Bakken, C. Adamo, J. Jaramillo, R. Gomperts, R. E. Stratmann, 
 O. Yazyev, A. J. Austin, R. Cammi, C. Pomelli, J. W. Ochterski, 
 R. L. Martin, K. Morokuma, V. G. Zakrzewski, G. A. Voth, 
 P. Salvador, J. J. Dannenberg, S. Dapprich, A. D. Daniels, 
 O. Farkas, J. B. Foresman, J. V. Ortiz, J. Cioslowski, 
 and D. J. Fox, Gaussian, Inc., Wallingford CT, 2013.
 
 ******************************************
 Gaussian 09:  ES64L-G09RevD.01 24-Apr-2013
                28-Jul-2021 
 ******************************************
 %mem=2gb
 %nproc=4
 Will use up to    4 processors via shared memory.
 %chk=conf-455.chk
 ----------------------------------------------------------------------
 # B3LYP/6-311++G(d,p) opt=calcfc freq=noraman nosymm integral(ultrafin
 egrid)
 ----------------------------------------------------------------------
 1/10=4,14=-1,18=20,19=15,26=4,38=1/1,3;
 2/9=110,12=2,15=1,17=6,18=5,40=1/2;
 3/5=4,6=6,7=1111,11=2,16=1,25=1,30=1,71=2,74=-5,75=-5,140=1/1,2,3;
 4//1;
 5/5=2,38=5/2;
 8/6=4,10=90,11=11/1;
 11/6=1,8=1,9=11,15=111,16=1,31=1/1,2,10;
 10/6=1,13=1,31=1/2;
 6/7=2,8=2,9=2,10=2,28=1/1;
 7/10=1,18=20,25=1,30=1/1,2,3,16;
 1/10=4,14=-1,18=20,19=15,26=4/3(2);
 2/9=110,15=1/2;
 99//99;
 2/9=110,15=1/2;
 3/5=4,6=6,7=1111,11=2,16=1,25=1,30=1,71=1,74=-5,75=-5/1,2,3;
 4/5=5,16=3,69=1/1;
 5/5=2,38=5/2;
 7/30=1/1,2,3,16;
 1/14=-1,18=20,19=15,26=4/3(-5);
 2/9=110,15=1/2;
 6/7=2,8=2,9=2,10=2,19=2,28=1/1;
 99/9=1/99;
 ------------------------------------------------------------
 Candidate Structure: Conf:455 OPT and FREQ calc in gas phase
 ------------------------------------------------------------
 Symbolic Z-matrix:
 Charge =  0 Multiplicity = 1
 O                     0.28008  -0.25923  -1.27944 
 C                     0.9495   -0.15887  -0.2498 
 N                     0.4937   -0.52865   0.97949 
 C                    -0.61605  -1.43415   1.23982 
 C                    -0.16578  -2.89331   1.09177 
 O                    -1.0117   -3.80859   1.62216 
 O                     0.85198  -3.23587   0.56269 
 C                    -1.87574  -1.18421   0.39051 
 C                    -2.39463   0.209     0.52312 
 C                    -3.31851   0.77342   1.35646 
 N                    -3.40808   2.13496   1.12826 
 C                    -2.54901   2.37777   0.1668 
 N                    -1.91356   1.2507   -0.23435 
 C                     2.35746   0.42422  -0.24031 
 C                     2.66699   1.2558   -1.48472 
 N                     3.99632   1.85969  -1.50811 
 H                     1.17862  -0.50482   1.71547 
 H                    -0.87804  -1.28132   2.29154 
 H                    -1.75658  -3.37408   2.04376 
 H                    -2.65134  -1.87719   0.72534 
 H                    -1.66079  -1.41998  -0.64787 
 H                    -3.9224    0.28943   2.11093 
 H                    -2.33695   3.33354  -0.27858 
 H                    -1.20225   1.15599  -0.94843 
 H                     2.49242   1.02514   0.66613 
 H                     3.07123  -0.40887  -0.17155 
 H                     2.56078   0.62307  -2.36526 
 H                     1.9279    2.05322  -1.57997 
 H                     4.12507   2.46199  -0.70287 
 H                     4.70929   1.14111  -1.45005 
 

 GradGradGradGradGradGradGradGradGradGradGradGradGradGradGradGradGradGrad
 Berny optimization.
 Initialization pass.
                           ----------------------------
                           !    Initial Parameters    !
                           ! (Angstroms and Degrees)  !
 --------------------------                            --------------------------
 ! Name  Definition              Value          Derivative Info.                !
 --------------------------------------------------------------------------------
 ! R1    R(1,2)                  1.2322         calculate D2E/DX2 analytically  !
 ! R2    R(2,3)                  1.3622         calculate D2E/DX2 analytically  !
 ! R3    R(2,14)                 1.524          calculate D2E/DX2 analytically  !
 ! R4    R(3,4)                  1.4558         calculate D2E/DX2 analytically  !
 ! R5    R(3,17)                 1.0057         calculate D2E/DX2 analytically  !
 ! R6    R(4,5)                  1.5342         calculate D2E/DX2 analytically  !
 ! R7    R(4,8)                  1.5397         calculate D2E/DX2 analytically  !
 ! R8    R(4,18)                 1.0946         calculate D2E/DX2 analytically  !
 ! R9    R(5,6)                  1.3545         calculate D2E/DX2 analytically  !
 ! R10   R(5,7)                  1.1971         calculate D2E/DX2 analytically  !
 ! R11   R(6,19)                 0.9599         calculate D2E/DX2 analytically  !
 ! R12   R(8,9)                  1.4926         calculate D2E/DX2 analytically  !
 ! R13   R(8,20)                 1.0927         calculate D2E/DX2 analytically  !
 ! R14   R(8,21)                 1.0863         calculate D2E/DX2 analytically  !
 ! R15   R(9,10)                 1.3662         calculate D2E/DX2 analytically  !
 ! R16   R(9,13)                 1.3749         calculate D2E/DX2 analytically  !
 ! R17   R(10,11)                1.3834         calculate D2E/DX2 analytically  !
 ! R18   R(10,22)                1.0808         calculate D2E/DX2 analytically  !
 ! R19   R(11,12)                1.312          calculate D2E/DX2 analytically  !
 ! R20   R(12,13)                1.3546         calculate D2E/DX2 analytically  !
 ! R21   R(12,23)                1.0756         calculate D2E/DX2 analytically  !
 ! R22   R(13,24)                1.0123         calculate D2E/DX2 analytically  !
 ! R23   R(14,15)                1.5284         calculate D2E/DX2 analytically  !
 ! R24   R(14,25)                1.0959         calculate D2E/DX2 analytically  !
 ! R25   R(14,26)                1.0992         calculate D2E/DX2 analytically  !
 ! R26   R(15,16)                1.4603         calculate D2E/DX2 analytically  !
 ! R27   R(15,27)                1.0895         calculate D2E/DX2 analytically  !
 ! R28   R(15,28)                1.0914         calculate D2E/DX2 analytically  !
 ! R29   R(16,29)                1.0138         calculate D2E/DX2 analytically  !
 ! R30   R(16,30)                1.0139         calculate D2E/DX2 analytically  !
 ! A1    A(1,2,3)              123.3788         calculate D2E/DX2 analytically  !
 ! A2    A(1,2,14)             122.5669         calculate D2E/DX2 analytically  !
 ! A3    A(3,2,14)             114.0402         calculate D2E/DX2 analytically  !
 ! A4    A(2,3,4)              125.8242         calculate D2E/DX2 analytically  !
 ! A5    A(2,3,17)             115.2206         calculate D2E/DX2 analytically  !
 ! A6    A(4,3,17)             113.7692         calculate D2E/DX2 analytically  !
 ! A7    A(3,4,5)              110.5236         calculate D2E/DX2 analytically  !
 ! A8    A(3,4,8)              115.0915         calculate D2E/DX2 analytically  !
 ! A9    A(3,4,18)             105.512          calculate D2E/DX2 analytically  !
 ! A10   A(5,4,8)              109.9549         calculate D2E/DX2 analytically  !
 ! A11   A(5,4,18)             107.2037         calculate D2E/DX2 analytically  !
 ! A12   A(8,4,18)             108.1509         calculate D2E/DX2 analytically  !
 ! A13   A(4,5,6)              114.9362         calculate D2E/DX2 analytically  !
 ! A14   A(4,5,7)              124.355          calculate D2E/DX2 analytically  !
 ! A15   A(6,5,7)              120.707          calculate D2E/DX2 analytically  !
 ! A16   A(5,6,19)             110.5326         calculate D2E/DX2 analytically  !
 ! A17   A(4,8,9)              112.7642         calculate D2E/DX2 analytically  !
 ! A18   A(4,8,20)             107.9844         calculate D2E/DX2 analytically  !
 ! A19   A(4,8,21)             109.2787         calculate D2E/DX2 analytically  !
 ! A20   A(9,8,20)             108.5416         calculate D2E/DX2 analytically  !
 ! A21   A(9,8,21)             110.8736         calculate D2E/DX2 analytically  !
 ! A22   A(20,8,21)            107.201          calculate D2E/DX2 analytically  !
 ! A23   A(8,9,10)             132.4452         calculate D2E/DX2 analytically  !
 ! A24   A(8,9,13)             122.4539         calculate D2E/DX2 analytically  !
 ! A25   A(10,9,13)            105.0494         calculate D2E/DX2 analytically  !
 ! A26   A(9,10,11)            110.4721         calculate D2E/DX2 analytically  !
 ! A27   A(9,10,22)            128.2159         calculate D2E/DX2 analytically  !
 ! A28   A(11,10,22)           121.311          calculate D2E/DX2 analytically  !
 ! A29   A(10,11,12)           105.1067         calculate D2E/DX2 analytically  !
 ! A30   A(11,12,13)           111.7273         calculate D2E/DX2 analytically  !
 ! A31   A(11,12,23)           126.6557         calculate D2E/DX2 analytically  !
 ! A32   A(13,12,23)           121.6167         calculate D2E/DX2 analytically  !
 ! A33   A(9,13,12)            107.644          calculate D2E/DX2 analytically  !
 ! A34   A(9,13,24)            124.304          calculate D2E/DX2 analytically  !
 ! A35   A(12,13,24)           128.0481         calculate D2E/DX2 analytically  !
 ! A36   A(2,14,15)            112.968          calculate D2E/DX2 analytically  !
 ! A37   A(2,14,25)            109.1919         calculate D2E/DX2 analytically  !
 ! A38   A(2,14,26)            108.079          calculate D2E/DX2 analytically  !
 ! A39   A(15,14,25)           110.4976         calculate D2E/DX2 analytically  !
 ! A40   A(15,14,26)           109.3782         calculate D2E/DX2 analytically  !
 ! A41   A(25,14,26)           106.4924         calculate D2E/DX2 analytically  !
 ! A42   A(14,15,16)           114.9869         calculate D2E/DX2 analytically  !
 ! A43   A(14,15,27)           108.8035         calculate D2E/DX2 analytically  !
 ! A44   A(14,15,28)           109.3562         calculate D2E/DX2 analytically  !
 ! A45   A(16,15,27)           108.4196         calculate D2E/DX2 analytically  !
 ! A46   A(16,15,28)           108.2352         calculate D2E/DX2 analytically  !
 ! A47   A(27,15,28)           106.7251         calculate D2E/DX2 analytically  !
 ! A48   A(15,16,29)           110.4008         calculate D2E/DX2 analytically  !
 ! A49   A(15,16,30)           110.2504         calculate D2E/DX2 analytically  !
 ! A50   A(29,16,30)           106.6351         calculate D2E/DX2 analytically  !
 ! D1    D(1,2,3,4)             19.7155         calculate D2E/DX2 analytically  !
 ! D2    D(1,2,3,17)           172.5228         calculate D2E/DX2 analytically  !
 ! D3    D(14,2,3,4)          -161.625          calculate D2E/DX2 analytically  !
 ! D4    D(14,2,3,17)           -8.8176         calculate D2E/DX2 analytically  !
 ! D5    D(1,2,14,15)           18.4503         calculate D2E/DX2 analytically  !
 ! D6    D(1,2,14,25)          141.8325         calculate D2E/DX2 analytically  !
 ! D7    D(1,2,14,26)         -102.7103         calculate D2E/DX2 analytically  !
 ! D8    D(3,2,14,15)         -160.2215         calculate D2E/DX2 analytically  !
 ! D9    D(3,2,14,25)          -36.8393         calculate D2E/DX2 analytically  !
 ! D10   D(3,2,14,26)           78.6178         calculate D2E/DX2 analytically  !
 ! D11   D(2,3,4,5)             79.9655         calculate D2E/DX2 analytically  !
 ! D12   D(2,3,4,8)            -45.3216         calculate D2E/DX2 analytically  !
 ! D13   D(2,3,4,18)          -164.4618         calculate D2E/DX2 analytically  !
 ! D14   D(17,3,4,5)           -73.1791         calculate D2E/DX2 analytically  !
 ! D15   D(17,3,4,8)           161.5337         calculate D2E/DX2 analytically  !
 ! D16   D(17,3,4,18)           42.3935         calculate D2E/DX2 analytically  !
 ! D17   D(3,4,5,6)            164.5717         calculate D2E/DX2 analytically  !
 ! D18   D(3,4,5,7)            -14.9493         calculate D2E/DX2 analytically  !
 ! D19   D(8,4,5,6)            -67.2837         calculate D2E/DX2 analytically  !
 ! D20   D(8,4,5,7)            113.1952         calculate D2E/DX2 analytically  !
 ! D21   D(18,4,5,6)            50.062          calculate D2E/DX2 analytically  !
 ! D22   D(18,4,5,7)          -129.4591         calculate D2E/DX2 analytically  !
 ! D23   D(3,4,8,9)            -56.2643         calculate D2E/DX2 analytically  !
 ! D24   D(3,4,8,20)          -176.1842         calculate D2E/DX2 analytically  !
 ! D25   D(3,4,8,21)            67.5248         calculate D2E/DX2 analytically  !
 ! D26   D(5,4,8,9)            178.1539         calculate D2E/DX2 analytically  !
 ! D27   D(5,4,8,20)            58.234          calculate D2E/DX2 analytically  !
 ! D28   D(5,4,8,21)           -58.057          calculate D2E/DX2 analytically  !
 ! D29   D(18,4,8,9)            61.3994         calculate D2E/DX2 analytically  !
 ! D30   D(18,4,8,20)          -58.5205         calculate D2E/DX2 analytically  !
 ! D31   D(18,4,8,21)         -174.8115         calculate D2E/DX2 analytically  !
 ! D32   D(4,5,6,19)            -2.2359         calculate D2E/DX2 analytically  !
 ! D33   D(7,5,6,19)           177.3042         calculate D2E/DX2 analytically  !
 ! D34   D(4,8,9,10)           -91.9136         calculate D2E/DX2 analytically  !
 ! D35   D(4,8,9,13)            85.0596         calculate D2E/DX2 analytically  !
 ! D36   D(20,8,9,10)           27.6848         calculate D2E/DX2 analytically  !
 ! D37   D(20,8,9,13)         -155.3421         calculate D2E/DX2 analytically  !
 ! D38   D(21,8,9,10)          145.1832         calculate D2E/DX2 analytically  !
 ! D39   D(21,8,9,13)          -37.8436         calculate D2E/DX2 analytically  !
 ! D40   D(8,9,10,11)          177.1271         calculate D2E/DX2 analytically  !
 ! D41   D(8,9,10,22)           -2.4995         calculate D2E/DX2 analytically  !
 ! D42   D(13,9,10,11)          -0.2284         calculate D2E/DX2 analytically  !
 ! D43   D(13,9,10,22)        -179.855          calculate D2E/DX2 analytically  !
 ! D44   D(8,9,13,12)         -177.4772         calculate D2E/DX2 analytically  !
 ! D45   D(8,9,13,24)            1.8542         calculate D2E/DX2 analytically  !
 ! D46   D(10,9,13,12)           0.2103         calculate D2E/DX2 analytically  !
 ! D47   D(10,9,13,24)         179.5417         calculate D2E/DX2 analytically  !
 ! D48   D(9,10,11,12)           0.157          calculate D2E/DX2 analytically  !
 ! D49   D(22,10,11,12)        179.8136         calculate D2E/DX2 analytically  !
 ! D50   D(10,11,12,13)         -0.0184         calculate D2E/DX2 analytically  !
 ! D51   D(10,11,12,23)       -179.8148         calculate D2E/DX2 analytically  !
 ! D52   D(11,12,13,9)          -0.1235         calculate D2E/DX2 analytically  !
 ! D53   D(11,12,13,24)       -179.4222         calculate D2E/DX2 analytically  !
 ! D54   D(23,12,13,9)         179.6847         calculate D2E/DX2 analytically  !
 ! D55   D(23,12,13,24)          0.386          calculate D2E/DX2 analytically  !
 ! D56   D(2,14,15,16)         178.7562         calculate D2E/DX2 analytically  !
 ! D57   D(2,14,15,27)         -59.4451         calculate D2E/DX2 analytically  !
 ! D58   D(2,14,15,28)          56.7759         calculate D2E/DX2 analytically  !
 ! D59   D(25,14,15,16)         56.0991         calculate D2E/DX2 analytically  !
 ! D60   D(25,14,15,27)        177.8978         calculate D2E/DX2 analytically  !
 ! D61   D(25,14,15,28)        -65.8812         calculate D2E/DX2 analytically  !
 ! D62   D(26,14,15,16)        -60.8223         calculate D2E/DX2 analytically  !
 ! D63   D(26,14,15,27)         60.9764         calculate D2E/DX2 analytically  !
 ! D64   D(26,14,15,28)        177.1974         calculate D2E/DX2 analytically  !
 ! D65   D(14,15,16,29)        -58.4127         calculate D2E/DX2 analytically  !
 ! D66   D(14,15,16,30)         59.1529         calculate D2E/DX2 analytically  !
 ! D67   D(27,15,16,29)        179.5809         calculate D2E/DX2 analytically  !
 ! D68   D(27,15,16,30)        -62.8534         calculate D2E/DX2 analytically  !
 ! D69   D(28,15,16,29)         64.1716         calculate D2E/DX2 analytically  !
 ! D70   D(28,15,16,30)       -178.2628         calculate D2E/DX2 analytically  !
 --------------------------------------------------------------------------------
 Trust Radius=3.00D-01 FncErr=1.00D-07 GrdErr=1.00D-06
 Number of steps in this run=    160 maximum allowed number of steps=    180.
 GradGradGradGradGradGradGradGradGradGradGradGradGradGradGradGradGradGrad

                          Input orientation:                          
 ---------------------------------------------------------------------
 Center     Atomic      Atomic             Coordinates (Angstroms)
 Number     Number       Type             X           Y           Z
 ---------------------------------------------------------------------
      1          8           0        0.280076   -0.259227   -1.279438
      2          6           0        0.949501   -0.158872   -0.249798
      3          7           0        0.493702   -0.528654    0.979487
      4          6           0       -0.616052   -1.434154    1.239824
      5          6           0       -0.165782   -2.893307    1.091772
      6          8           0       -1.011697   -3.808590    1.622156
      7          8           0        0.851977   -3.235870    0.562694
      8          6           0       -1.875739   -1.184206    0.390509
      9          6           0       -2.394627    0.209002    0.523119
     10          6           0       -3.318514    0.773416    1.356456
     11          7           0       -3.408081    2.134965    1.128260
     12          6           0       -2.549011    2.377768    0.166802
     13          7           0       -1.913559    1.250695   -0.234345
     14          6           0        2.357461    0.424218   -0.240307
     15          6           0        2.666987    1.255801   -1.484724
     16          7           0        3.996323    1.859687   -1.508106
     17          1           0        1.178621   -0.504817    1.715468
     18          1           0       -0.878044   -1.281316    2.291542
     19          1           0       -1.756579   -3.374081    2.043759
     20          1           0       -2.651343   -1.877186    0.725335
     21          1           0       -1.660789   -1.419981   -0.647874
     22          1           0       -3.922403    0.289426    2.110935
     23          1           0       -2.336948    3.333540   -0.278585
     24          1           0       -1.202253    1.155990   -0.948429
     25          1           0        2.492418    1.025139    0.666134
     26          1           0        3.071227   -0.408875   -0.171547
     27          1           0        2.560782    0.623066   -2.365263
     28          1           0        1.927898    2.053224   -1.579966
     29          1           0        4.125069    2.461991   -0.702866
     30          1           0        4.709286    1.141108   -1.450048
 ---------------------------------------------------------------------
                    Distance matrix (angstroms):
                    1          2          3          4          5
     1  O    0.000000
     2  C    1.232217   0.000000
     3  N    2.284943   1.362216   0.000000
     4  C    2.920647   2.509237   1.455768   0.000000
     5  C    3.572087   3.243578   2.457460   1.534205   0.000000
     6  O    4.762972   4.546531   3.665682   2.437346   1.354482
     7  O    3.546961   3.183955   2.762444   2.420701   1.197125
     8  C    2.879558   3.072993   2.528022   1.539683   2.517289
     9  C    3.259216   3.451945   3.015767   2.525264   3.862051
    10  C    4.578661   4.654585   4.046045   3.491457   4.842997
    11  N    5.013150   5.113634   4.726617   4.532823   5.983088
    12  C    4.129053   4.341391   4.285539   4.406638   5.858291
    13  N    2.860790   3.191274   3.230228   3.326427   4.688930
    14  C    2.421243   1.523954   2.422696   3.806062   4.375747
    15  C    2.834571   2.544819   3.738955   5.043547   5.646062
    16  N    4.283990   3.865365   4.915348   6.298770   6.831796
    17  H    3.136425   2.008593   1.005660   2.076236   2.810925
    18  H    3.890734   3.325389   2.041979   1.094583   2.131965
    19  H    4.989381   4.787572   3.780595   2.389651   1.915217
    20  H    3.902579   4.107257   3.431390   2.145550   2.710127
    21  H    2.348017   2.926171   2.843343   2.157564   2.726189
    22  H    5.427382   5.432262   4.631567   3.829037   5.027989
    23  H    4.556149   4.795677   4.950946   5.291310   6.735388
    24  H    2.075983   2.616676   3.071017   3.441065   4.651182
    25  H    3.213923   2.149746   2.550947   4.004975   4.754095
    26  H    3.006715   2.137837   2.825396   4.079117   4.271605
    27  H    2.675644   2.771795   4.097148   5.226956   5.634724
    28  H    2.855356   2.760430   3.908172   5.156035   5.999154
    29  H    4.745674   4.142273   4.996108   6.436786   7.093049
    30  H    4.648434   4.155301   5.144112   6.498200   6.819358
                    6          7          8          9         10
     6  O    0.000000
     7  O    2.218952   0.000000
     8  C    3.025048   3.417515   0.000000
     9  C    4.388784   4.733831   1.492602   0.000000
    10  C    5.136806   5.839300   2.616665   1.366228   0.000000
    11  N    6.427475   6.878505   3.729510   2.258897   1.383442
    12  C    6.538533   6.575438   3.631941   2.203256   2.140410
    13  N    5.464094   5.330360   2.514084   1.374883   2.175395
    14  C    5.721595   4.038259   4.572192   4.817829   5.906630
    15  C    6.988095   5.259401   5.486939   5.545012   6.643133
    16  N    8.185851   6.335600   6.881216   6.906147   7.930481
    17  H    3.964986   2.982321   3.397970   3.833971   4.689028
    18  H    2.617834   3.130842   2.149128   2.765573   3.324485
    19  H    0.959894   3.002869   2.746450   3.944355   4.484836
    20  H    2.687573   3.761080   1.092652   2.111628   2.805195
    21  H    3.358543   3.328202   1.086293   2.136195   3.402407
    22  H    5.050233   6.133471   3.052915   2.204932   1.080818
    23  H    7.508604   7.350792   4.590254   3.226266   3.192345
    24  H    5.593860   5.078562   2.779003   2.117545   3.152367
    25  H    6.046300   4.567051   4.902854   4.956787   5.857204
    26  H    5.607647   3.668254   5.038802   5.544357   6.675432
    27  H    6.949941   5.136568   5.526593   5.750676   6.959879
    28  H    7.297648   5.807161   5.369486   5.148625   6.146976
    29  H    8.432809   6.691815   7.106330   7.006099   7.905632
    30  H    8.165022   6.171539   7.222000   7.431540   8.512181
                   11         12         13         14         15
    11  N    0.000000
    12  C    1.312005   0.000000
    13  N    2.207312   1.354626   0.000000
    14  C    6.167747   5.296749   4.350254   0.000000
    15  C    6.671362   5.585068   4.748144   1.528369   0.000000
    16  N    7.864566   6.776069   6.076186   2.520666   1.460259
    17  H    5.324574   4.960130   4.055264   2.465324   3.944140
    18  H    4.407413   4.549236   3.723370   4.448325   5.767530
    19  H    5.823674   6.102022   5.157806   6.047260   7.311220
    20  H    4.102725   4.292675   3.353946   5.596162   6.556264
    21  H    4.341120   3.984411   2.714297   4.439990   5.156528
    22  H    2.153181   3.166548   3.234166   6.706951   7.568534
    23  H    2.136147   1.075566   2.125902   5.522960   5.550778
    24  H    3.183820   2.133129   1.012344   3.702498   3.907505
    25  H    6.021724   5.243561   4.502707   1.095881   2.170224
    26  H    7.081105   6.282271   5.254161   1.099197   2.158469
    27  H    7.079398   5.966600   4.995443   2.143903   1.089487
    28  H    5.984467   4.816559   4.148679   2.152411   1.091424
    29  H    7.759402   6.731029   6.176712   2.736954   2.047485
    30  H    8.574793   7.538328   6.734390   2.740162   2.045810
                   16         17         18         19         20
    16  N    0.000000
    17  H    4.890987   0.000000
    18  H    6.932725   2.272594   0.000000
    19  H    8.550085   4.117749   2.283175   0.000000
    20  H    7.946316   4.187168   2.439806   2.186216   0.000000
    21  H    6.595388   3.805938   3.045010   3.327548   1.753835
    22  H    8.846999   5.177611   3.430448   4.256359   2.868743
    23  H    6.617725   5.573908   5.480041   7.121958   5.315859
    24  H    5.275757   3.939948   4.067307   5.457290   3.755197
    25  H    2.772277   2.273308   4.395646   6.269368   5.906375
    26  H    2.790800   2.674321   4.735473   6.083399   5.975629
    27  H    2.079598   4.453634   6.094098   7.352296   6.555097
    28  H    2.078702   4.238499   5.829326   7.494157   6.460029
    29  H    1.013783   4.830305   6.928922   8.729116   8.172390
    30  H    1.013925   5.019478   7.147439   8.625603   8.247499
                   21         22         23         24         25
    21  H    0.000000
    22  H    3.955755   0.000000
    23  H    4.815551   4.182117   0.000000
    24  H    2.633669   4.184478   2.545182   0.000000
    25  H    4.995434   6.616543   5.435437   4.034170   0.000000
    26  H    4.862222   7.389737   6.577650   4.616815   1.758729
    27  H    4.994510   7.885388   5.973998   4.056089   3.058709
    28  H    5.080416   7.138610   4.639150   3.316883   2.533891
    29  H    6.967703   8.797688   6.534315   5.490564   2.569874
    30  H    6.912345   9.376140   7.471847   5.932801   3.066949
                   26         27         28         29         30
    26  H    0.000000
    27  H    2.477467   0.000000
    28  H    3.058230   1.750024   0.000000
    29  H    3.103989   2.931245   2.400823   0.000000
    30  H    2.592343   2.392081   2.930009   1.626137   0.000000
 Symmetry turned off by external request.
 Stoichiometry    C9H14N4O3
 Framework group  C1[X(C9H14N4O3)]
 Deg. of freedom    84
 Full point group                 C1      NOp   1
 Rotational constants (GHZ):      0.5402563      0.4097795      0.2497933
 Standard basis: 6-311++G(d,p) (5D, 7F)
   450 basis functions,   702 primitive gaussians,   466 cartesian basis functions
    60 alpha electrons       60 beta electrons
       nuclear repulsion energy      1133.9479686227 Hartrees.
 NAtoms=   30 NActive=   30 NUniq=   30 SFac= 1.00D+00 NAtFMM=   60 NAOKFM=F Big=F
 Integral buffers will be    131072 words long.
 Raffenetti 2 integral format.
 Two-electron integral symmetry is turned off.
 One-electron integrals computed using PRISM.
 NBasis=   450 RedAO= T EigKep=  1.31D-06  NBF=   450
 NBsUse=   450 1.00D-06 EigRej= -1.00D+00 NBFU=   450
 ExpMin= 3.60D-02 ExpMax= 8.59D+03 ExpMxC= 1.30D+03 IAcc=3 IRadAn=         5 AccDes= 0.00D+00
 Harris functional with IExCor=  402 and IRadAn=       5 diagonalized for initial guess.
 HarFok:  IExCor=  402 AccDes= 0.00D+00 IRadAn=         5 IDoV= 1 UseB2=F ITyADJ=14
 ICtDFT=  3500011 ScaDFX=  1.000000  1.000000  1.000000  1.000000
 FoFCou: FMM=F IPFlag=           0 FMFlag=      100000 FMFlg1=           0
         NFxFlg=           0 DoJE=T BraDBF=F KetDBF=T FulRan=T
         wScrn=  0.000000 ICntrl=     500 IOpCl=  0 I1Cent=   200000004 NGrid=           0
         NMat0=    1 NMatS0=      1 NMatT0=    0 NMatD0=    1 NMtDS0=    0 NMtDT0=    0
 Symmetry not used in FoFCou.
 Requested convergence on RMS density matrix=1.00D-08 within 128 cycles.
 Requested convergence on MAX density matrix=1.00D-06.
 Requested convergence on             energy=1.00D-06.
 No special actions if energy rises.
 SCF Done:  E(RB3LYP) =  -796.318175248     A.U. after   16 cycles
            NFock= 16  Conv=0.38D-08     -V/T= 2.0036
 DoSCS=F DFT=T ScalE2(SS,OS)=  1.000000  1.000000
 Range of M.O.s used for correlation:     1   450
 NBasis=   450 NAE=    60 NBE=    60 NFC=     0 NFV=     0
 NROrb=    450 NOA=    60 NOB=    60 NVA=   390 NVB=   390

 **** Warning!!: The largest alpha MO coefficient is  0.17457922D+03

 Symmetrizing basis deriv contribution to polar:
 IMax=3 JMax=2 DiffMx= 0.00D+00
 G2DrvN: will do    31 centers at a time, making    1 passes.
 Calling FoFCou, ICntrl=  3107 FMM=F I1Cent=   0 AccDes= 0.00D+00.
 End of G2Drv F.D. properties file   721 does not exist.
 End of G2Drv F.D. properties file   722 does not exist.
 End of G2Drv F.D. properties file   788 does not exist.
          IDoAtm=111111111111111111111111111111
          Differentiating once with respect to nuclear coordinates.
          There are    93 degrees of freedom in the 1st order CPHF.  IDoFFX=6 NUNeed=     0.
     87 vectors produced by pass  0 Test12= 2.52D-14 1.08D-09 XBig12= 2.51D-01 8.57D-02.
 AX will form    87 AO Fock derivatives at one time.
     87 vectors produced by pass  1 Test12= 2.52D-14 1.08D-09 XBig12= 1.58D-02 2.02D-02.
     87 vectors produced by pass  2 Test12= 2.52D-14 1.08D-09 XBig12= 2.05D-04 1.82D-03.
     87 vectors produced by pass  3 Test12= 2.52D-14 1.08D-09 XBig12= 9.79D-07 9.89D-05.
     87 vectors produced by pass  4 Test12= 2.52D-14 1.08D-09 XBig12= 2.26D-09 4.28D-06.
     84 vectors produced by pass  5 Test12= 2.52D-14 1.08D-09 XBig12= 3.54D-12 1.33D-07.
     36 vectors produced by pass  6 Test12= 2.52D-14 1.08D-09 XBig12= 7.92D-15 7.62D-09.
     10 vectors produced by pass  7 Test12= 2.52D-14 1.08D-09 XBig12= 7.10D-16 1.96D-09.
      4 vectors produced by pass  8 Test12= 2.52D-14 1.08D-09 XBig12= 5.44D-16 2.84D-09.
      4 vectors produced by pass  9 Test12= 2.52D-14 1.08D-09 XBig12= 1.49D-14 1.08D-08.
      3 vectors produced by pass 10 Test12= 2.52D-14 1.08D-09 XBig12= 1.43D-15 4.31D-09.
      3 vectors produced by pass 11 Test12= 2.52D-14 1.08D-09 XBig12= 1.96D-14 9.63D-09.
      3 vectors produced by pass 12 Test12= 2.52D-14 1.08D-09 XBig12= 8.49D-15 6.79D-09.
      3 vectors produced by pass 13 Test12= 2.52D-14 1.08D-09 XBig12= 1.16D-14 7.65D-09.
      2 vectors produced by pass 14 Test12= 2.52D-14 1.08D-09 XBig12= 3.31D-15 4.79D-09.
 InvSVY:  IOpt=1 It=  1 EMax= 1.11D-15
 Solved reduced A of dimension   587 with    93 vectors.
 End of Minotr F.D. properties file   721 does not exist.
 End of Minotr F.D. properties file   722 does not exist.
 End of Minotr F.D. properties file   788 does not exist.

 **********************************************************************

            Population analysis using the SCF density.

 **********************************************************************

 Alpha  occ. eigenvalues --  -19.20063 -19.13899 -19.11945 -14.37316 -14.36720
 Alpha  occ. eigenvalues --  -14.30717 -14.29604 -10.33150 -10.30611 -10.26720
 Alpha  occ. eigenvalues --  -10.22590 -10.21518 -10.21295 -10.20743 -10.20009
 Alpha  occ. eigenvalues --  -10.18790  -1.13912  -1.07143  -1.05776  -1.02461
 Alpha  occ. eigenvalues --   -0.96647  -0.90211  -0.87725  -0.83336  -0.78105
 Alpha  occ. eigenvalues --   -0.75359  -0.69710  -0.66248  -0.64153  -0.62032
 Alpha  occ. eigenvalues --   -0.61286  -0.60084  -0.57601  -0.54987  -0.54286
 Alpha  occ. eigenvalues --   -0.52367  -0.50719  -0.48535  -0.47817  -0.46788
 Alpha  occ. eigenvalues --   -0.46516  -0.45391  -0.44693  -0.44000  -0.43130
 Alpha  occ. eigenvalues --   -0.42287  -0.41823  -0.41512  -0.40597  -0.39987
 Alpha  occ. eigenvalues --   -0.39326  -0.36351  -0.35443  -0.31744  -0.30003
 Alpha  occ. eigenvalues --   -0.29088  -0.28650  -0.27536  -0.25637  -0.23857
 Alpha virt. eigenvalues --   -0.04101  -0.03186  -0.02326  -0.02035  -0.01083
 Alpha virt. eigenvalues --   -0.00132   0.00887   0.01195   0.01558   0.01832
 Alpha virt. eigenvalues --    0.02755   0.02890   0.03861   0.04180   0.04492
 Alpha virt. eigenvalues --    0.04826   0.05232   0.05587   0.06409   0.06734
 Alpha virt. eigenvalues --    0.07457   0.07695   0.08040   0.08214   0.08575
 Alpha virt. eigenvalues --    0.09433   0.09808   0.10313   0.10739   0.11091
 Alpha virt. eigenvalues --    0.11391   0.11662   0.12192   0.12564   0.12839
 Alpha virt. eigenvalues --    0.12914   0.13213   0.13373   0.13780   0.14096
 Alpha virt. eigenvalues --    0.14222   0.14711   0.15219   0.15327   0.15563
 Alpha virt. eigenvalues --    0.16273   0.16439   0.16654   0.16757   0.17796
 Alpha virt. eigenvalues --    0.18052   0.18487   0.18711   0.19018   0.19371
 Alpha virt. eigenvalues --    0.19895   0.20263   0.20867   0.21265   0.21568
 Alpha virt. eigenvalues --    0.21948   0.22239   0.22760   0.23069   0.23698
 Alpha virt. eigenvalues --    0.23873   0.24228   0.24491   0.25124   0.25409
 Alpha virt. eigenvalues --    0.25920   0.26100   0.26709   0.26966   0.27455
 Alpha virt. eigenvalues --    0.27755   0.28275   0.28512   0.28829   0.29459
 Alpha virt. eigenvalues --    0.29687   0.29915   0.30395   0.30600   0.31096
 Alpha virt. eigenvalues --    0.31788   0.31869   0.32156   0.32404   0.32901
 Alpha virt. eigenvalues --    0.33346   0.33686   0.34689   0.34934   0.35271
 Alpha virt. eigenvalues --    0.36419   0.36992   0.37341   0.37759   0.38798
 Alpha virt. eigenvalues --    0.39207   0.39478   0.40755   0.41511   0.42272
 Alpha virt. eigenvalues --    0.44328   0.44927   0.46517   0.47067   0.47518
 Alpha virt. eigenvalues --    0.47783   0.48478   0.49171   0.50326   0.51886
 Alpha virt. eigenvalues --    0.52421   0.53407   0.56163   0.57053   0.58205
 Alpha virt. eigenvalues --    0.58683   0.59059   0.60768   0.61402   0.62574
 Alpha virt. eigenvalues --    0.62634   0.63141   0.63797   0.64290   0.64962
 Alpha virt. eigenvalues --    0.66143   0.66366   0.67136   0.68262   0.68658
 Alpha virt. eigenvalues --    0.70105   0.70796   0.71532   0.72009   0.72574
 Alpha virt. eigenvalues --    0.73401   0.73964   0.74310   0.75439   0.75733
 Alpha virt. eigenvalues --    0.76785   0.77378   0.79509   0.80301   0.81438
 Alpha virt. eigenvalues --    0.82383   0.83232   0.83958   0.84725   0.88197
 Alpha virt. eigenvalues --    0.89502   0.90282   0.90680   0.90927   0.91453
 Alpha virt. eigenvalues --    0.92739   0.93744   0.94116   0.95351   0.95984
 Alpha virt. eigenvalues --    0.97365   0.98836   0.99428   1.01257   1.03663
 Alpha virt. eigenvalues --    1.04521   1.05797   1.07887   1.08248   1.08953
 Alpha virt. eigenvalues --    1.11702   1.12546   1.14046   1.15347   1.15679
 Alpha virt. eigenvalues --    1.16990   1.17769   1.18787   1.19927   1.20651
 Alpha virt. eigenvalues --    1.21136   1.23066   1.24697   1.25407   1.26461
 Alpha virt. eigenvalues --    1.27736   1.28111   1.30199   1.32124   1.33174
 Alpha virt. eigenvalues --    1.33262   1.34073   1.35471   1.38370   1.41015
 Alpha virt. eigenvalues --    1.42956   1.44188   1.46248   1.48597   1.50428
 Alpha virt. eigenvalues --    1.50576   1.50933   1.52455   1.54748   1.56299
 Alpha virt. eigenvalues --    1.57706   1.59017   1.59238   1.60372   1.62146
 Alpha virt. eigenvalues --    1.62657   1.64210   1.64779   1.65215   1.65594
 Alpha virt. eigenvalues --    1.66407   1.67561   1.68436   1.69076   1.69446
 Alpha virt. eigenvalues --    1.71093   1.72292   1.74802   1.75359   1.75846
 Alpha virt. eigenvalues --    1.77023   1.77820   1.79285   1.80522   1.81245
 Alpha virt. eigenvalues --    1.82543   1.84666   1.85753   1.86568   1.87645
 Alpha virt. eigenvalues --    1.89327   1.90966   1.92107   1.94418   1.96325
 Alpha virt. eigenvalues --    1.97188   1.98856   2.00924   2.02095   2.03543
 Alpha virt. eigenvalues --    2.05120   2.06624   2.08669   2.10745   2.11998
 Alpha virt. eigenvalues --    2.14683   2.16832   2.17558   2.19630   2.21684
 Alpha virt. eigenvalues --    2.22486   2.24401   2.26076   2.27669   2.30228
 Alpha virt. eigenvalues --    2.31473   2.33477   2.34885   2.37850   2.40937
 Alpha virt. eigenvalues --    2.44364   2.45145   2.47970   2.48535   2.52252
 Alpha virt. eigenvalues --    2.53051   2.53577   2.55597   2.56677   2.57711
 Alpha virt. eigenvalues --    2.59082   2.59791   2.60601   2.62396   2.63271
 Alpha virt. eigenvalues --    2.65059   2.66318   2.67361   2.70001   2.71223
 Alpha virt. eigenvalues --    2.72137   2.72857   2.76703   2.77551   2.78555
 Alpha virt. eigenvalues --    2.79004   2.81077   2.81659   2.82251   2.84309
 Alpha virt. eigenvalues --    2.85080   2.86203   2.88007   2.89089   2.89549
 Alpha virt. eigenvalues --    2.90436   2.91548   2.92990   2.93720   2.94890
 Alpha virt. eigenvalues --    2.95824   2.97137   2.97911   2.99653   3.01117
 Alpha virt. eigenvalues --    3.02885   3.03591   3.06752   3.07320   3.09881
 Alpha virt. eigenvalues --    3.11596   3.14422   3.15754   3.18993   3.20467
 Alpha virt. eigenvalues --    3.29389   3.32660   3.33570   3.35352   3.36405
 Alpha virt. eigenvalues --    3.42600   3.44902   3.52646   3.54654   3.54951
 Alpha virt. eigenvalues --    3.55949   3.61800   3.64314   3.65326   3.70481
 Alpha virt. eigenvalues --    3.72925   3.79737   3.83978   3.85541   3.87237
 Alpha virt. eigenvalues --    3.87721   3.89483   3.92123   3.94366   4.02655
 Alpha virt. eigenvalues --    4.03783   4.07571   4.08870   4.13820   4.19271
 Alpha virt. eigenvalues --    4.26552   4.30219   4.51078   4.72244   4.78494
 Alpha virt. eigenvalues --    4.79456   4.85531   4.95217   4.96422   4.97081
 Alpha virt. eigenvalues --    5.05961   5.14503   5.21178   5.28984   5.30727
 Alpha virt. eigenvalues --    5.37299   5.58297   5.80863   5.86708  23.76084
 Alpha virt. eigenvalues --   23.78909  23.82788  23.84552  23.86723  23.90287
 Alpha virt. eigenvalues --   23.92054  23.97323  24.15824  35.55239  35.58629
 Alpha virt. eigenvalues --   35.60699  35.70951  49.85782  49.99639  50.02348
          Condensed to atoms (all electrons):
               1          2          3          4          5          6
     1  O    8.082771   0.241648  -0.156008   0.018190  -0.043060  -0.000224
     2  C    0.241648   8.864568  -0.332761  -0.954867   0.290735   0.013918
     3  N   -0.156008  -0.332761   7.875663  -0.780528   0.398674  -0.007235
     4  C    0.018190  -0.954867  -0.780528  13.947891  -3.368613  -0.197423
     5  C   -0.043060   0.290735   0.398674  -3.368613   7.443254   0.346761
     6  O   -0.000224   0.013918  -0.007235  -0.197423   0.346761   7.907858
     7  O    0.002936   0.047775  -0.006816  -0.027259   0.502363  -0.125655
     8  C   -0.001757   0.934499  -0.482274  -4.801752   1.987245  -0.033403
     9  C    0.022632  -0.441508   0.600899   0.259265  -0.720928   0.000757
    10  C   -0.017960  -0.184328   0.061207   0.430395  -0.128356   0.004357
    11  N    0.000187   0.000043  -0.002926   0.005561   0.000247   0.000089
    12  C    0.001655  -0.038618   0.034227   0.074110  -0.016618  -0.000189
    13  N   -0.005236   0.055125  -0.072828   0.073689   0.016669   0.000048
    14  C    0.179808  -2.529307  -0.268244   0.533154  -0.251957  -0.012466
    15  C   -0.070145   0.603226  -0.018524  -0.104394   0.027522   0.000229
    16  N    0.009760  -0.044469  -0.000034   0.013303  -0.000177  -0.000005
    17  H   -0.004294  -0.015609   0.273416  -0.006810  -0.027656  -0.000625
    18  H   -0.001799   0.023433  -0.141654   0.799350  -0.241274   0.017732
    19  H   -0.000009  -0.019097   0.013409   0.192869  -0.102651   0.203371
    20  H    0.019660  -0.002289   0.002996  -0.281499   0.026346  -0.004021
    21  H   -0.022624   0.012376  -0.052420   0.189208  -0.098875   0.007518
    22  H   -0.000628   0.000247   0.000742  -0.009428   0.001344  -0.000057
    23  H   -0.001178  -0.002153   0.004199   0.000394  -0.001371  -0.000001
    24  H    0.038948   0.062256   0.009968  -0.064169   0.029345  -0.000049
    25  H    0.015568  -0.128430   0.060836   0.010665  -0.000101  -0.000232
    26  H   -0.002155  -0.077036   0.014632  -0.058045   0.031515   0.001084
    27  H    0.001354  -0.045653  -0.003918   0.013045  -0.005322  -0.000012
    28  H   -0.018039  -0.035337  -0.011202  -0.000193   0.002277   0.000004
    29  H    0.000404  -0.009116  -0.000138  -0.000189  -0.000028   0.000000
    30  H    0.000239  -0.002632   0.000679   0.001979  -0.000487  -0.000010
               7          8          9         10         11         12
     1  O    0.002936  -0.001757   0.022632  -0.017960   0.000187   0.001655
     2  C    0.047775   0.934499  -0.441508  -0.184328   0.000043  -0.038618
     3  N   -0.006816  -0.482274   0.600899   0.061207  -0.002926   0.034227
     4  C   -0.027259  -4.801752   0.259265   0.430395   0.005561   0.074110
     5  C    0.502363   1.987245  -0.720928  -0.128356   0.000247  -0.016618
     6  O   -0.125655  -0.033403   0.000757   0.004357   0.000089  -0.000189
     7  O    7.905759  -0.111304   0.061072   0.004619  -0.000008   0.000454
     8  C   -0.111304  21.868457  -8.894833  -3.566145  -0.013255  -0.499314
     9  C    0.061072  -8.894833  15.040510   0.183925  -0.100389   0.211756
    10  C    0.004619  -3.566145   0.183925   8.995478   0.420446  -0.181679
    11  N   -0.000008  -0.013255  -0.100389   0.420446   6.556372   0.361780
    12  C    0.000454  -0.499314   0.211756  -0.181679   0.361780   5.384448
    13  N   -0.000710  -0.168867  -0.139586   0.004491   0.040919   0.162210
    14  C   -0.033739  -0.292086   0.031000  -0.026519   0.001373   0.029678
    15  C   -0.005107   0.088843  -0.080981  -0.014955   0.000122  -0.000996
    16  N    0.000163   0.005776  -0.002033  -0.000588  -0.000007  -0.000084
    17  H   -0.007012   0.038864  -0.066262  -0.025967  -0.000032  -0.000276
    18  H   -0.009138  -0.102479  -0.125682   0.037600   0.002883  -0.003461
    19  H    0.019502  -0.175176   0.082724   0.013723  -0.000254   0.000926
    20  H    0.002023   0.457093   0.046735  -0.042717   0.000077   0.004285
    21  H   -0.002367   0.553794  -0.275263  -0.016123   0.001628  -0.006723
    22  H   -0.000056  -0.008293  -0.154920   0.514364  -0.078931   0.024721
    23  H    0.000035  -0.016235   0.090518  -0.021797  -0.069761   0.442769
    24  H    0.000101   0.069331  -0.044156  -0.037428   0.009742  -0.058911
    25  H    0.002950   0.004719   0.015782   0.002780  -0.000498  -0.000031
    26  H    0.001100   0.007653  -0.003087  -0.000756   0.000125  -0.000634
    27  H    0.000401   0.001624  -0.003480  -0.001897   0.000012   0.000549
    28  H   -0.000067   0.010443  -0.007874   0.001913   0.000122  -0.002870
    29  H   -0.000041   0.001112  -0.001039  -0.000520   0.000002   0.000071
    30  H    0.000012  -0.000963   0.000896   0.000160  -0.000002   0.000070
              13         14         15         16         17         18
     1  O   -0.005236   0.179808  -0.070145   0.009760  -0.004294  -0.001799
     2  C    0.055125  -2.529307   0.603226  -0.044469  -0.015609   0.023433
     3  N   -0.072828  -0.268244  -0.018524  -0.000034   0.273416  -0.141654
     4  C    0.073689   0.533154  -0.104394   0.013303  -0.006810   0.799350
     5  C    0.016669  -0.251957   0.027522  -0.000177  -0.027656  -0.241274
     6  O    0.000048  -0.012466   0.000229  -0.000005  -0.000625   0.017732
     7  O   -0.000710  -0.033739  -0.005107   0.000163  -0.007012  -0.009138
     8  C   -0.168867  -0.292086   0.088843   0.005776   0.038864  -0.102479
     9  C   -0.139586   0.031000  -0.080981  -0.002033  -0.066262  -0.125682
    10  C    0.004491  -0.026519  -0.014955  -0.000588  -0.025967   0.037600
    11  N    0.040919   0.001373   0.000122  -0.000007  -0.000032   0.002883
    12  C    0.162210   0.029678  -0.000996  -0.000084  -0.000276  -0.003461
    13  N    6.900000  -0.011925  -0.005310   0.001414   0.002019   0.000664
    14  C   -0.011925   8.548596  -0.901492   0.094795   0.101664  -0.008140
    15  C   -0.005310  -0.901492   6.758669  -0.126015   0.011841  -0.005052
    16  N    0.001414   0.094795  -0.126015   6.612718  -0.003469   0.001067
    17  H    0.002019   0.101664   0.011841  -0.003469   0.437796  -0.010438
    18  H    0.000664  -0.008140  -0.005052   0.001067  -0.010438   0.544842
    19  H   -0.000937   0.005824  -0.000353  -0.000008   0.003858  -0.024406
    20  H    0.018777   0.002786  -0.003282   0.000256  -0.004519  -0.013373
    21  H    0.013883  -0.017662   0.003117   0.000426  -0.000230   0.020506
    22  H    0.018204  -0.001601   0.000099  -0.000027   0.000009  -0.003176
    23  H   -0.114811   0.003223   0.000470  -0.000106   0.000236   0.000195
    24  H    0.329531  -0.054073   0.020699  -0.003591  -0.000030  -0.004067
    25  H    0.000403   0.410267  -0.057658  -0.007020  -0.005505  -0.001573
    26  H    0.000455   0.465916  -0.061136   0.002381  -0.004114  -0.000163
    27  H    0.001200   0.034962   0.342618  -0.020923   0.000613   0.000044
    28  H    0.002708   0.064735   0.299203  -0.018574   0.000981   0.000508
    29  H    0.000070   0.017127  -0.056589   0.402720   0.000375   0.000069
    30  H   -0.000110  -0.002927  -0.041157   0.405392  -0.000173   0.000050
              19         20         21         22         23         24
     1  O   -0.000009   0.019660  -0.022624  -0.000628  -0.001178   0.038948
     2  C   -0.019097  -0.002289   0.012376   0.000247  -0.002153   0.062256
     3  N    0.013409   0.002996  -0.052420   0.000742   0.004199   0.009968
     4  C    0.192869  -0.281499   0.189208  -0.009428   0.000394  -0.064169
     5  C   -0.102651   0.026346  -0.098875   0.001344  -0.001371   0.029345
     6  O    0.203371  -0.004021   0.007518  -0.000057  -0.000001  -0.000049
     7  O    0.019502   0.002023  -0.002367  -0.000056   0.000035   0.000101
     8  C   -0.175176   0.457093   0.553794  -0.008293  -0.016235   0.069331
     9  C    0.082724   0.046735  -0.275263  -0.154920   0.090518  -0.044156
    10  C    0.013723  -0.042717  -0.016123   0.514364  -0.021797  -0.037428
    11  N   -0.000254   0.000077   0.001628  -0.078931  -0.069761   0.009742
    12  C    0.000926   0.004285  -0.006723   0.024721   0.442769  -0.058911
    13  N   -0.000937   0.018777   0.013883   0.018204  -0.114811   0.329531
    14  C    0.005824   0.002786  -0.017662  -0.001601   0.003223  -0.054073
    15  C   -0.000353  -0.003282   0.003117   0.000099   0.000470   0.020699
    16  N   -0.000008   0.000256   0.000426  -0.000027  -0.000106  -0.003591
    17  H    0.003858  -0.004519  -0.000230   0.000009   0.000236  -0.000030
    18  H   -0.024406  -0.013373   0.020506  -0.003176   0.000195  -0.004067
    19  H    0.526147   0.007388  -0.002512   0.000072   0.000049  -0.000643
    20  H    0.007388   0.645423  -0.022332  -0.000715   0.000101  -0.003916
    21  H   -0.002512  -0.022332   0.450366  -0.000675  -0.000828  -0.005974
    22  H    0.000072  -0.000715  -0.000675   0.569226  -0.001615   0.001927
    23  H    0.000049   0.000101  -0.000828  -0.001615   0.539701  -0.006504
    24  H   -0.000643  -0.003916  -0.005974   0.001927  -0.006504   0.385931
    25  H    0.000208   0.000706  -0.001769  -0.000108   0.000285   0.001840
    26  H   -0.000368   0.000187  -0.000630   0.000007  -0.000098   0.000548
    27  H    0.000027   0.000153   0.000383  -0.000024   0.000186  -0.000130
    28  H   -0.000046   0.000109   0.000517   0.000055  -0.001362  -0.008858
    29  H   -0.000003   0.000017   0.000008  -0.000007   0.000026   0.000098
    30  H    0.000005  -0.000006   0.000033  -0.000001   0.000008  -0.000597
              25         26         27         28         29         30
     1  O    0.015568  -0.002155   0.001354  -0.018039   0.000404   0.000239
     2  C   -0.128430  -0.077036  -0.045653  -0.035337  -0.009116  -0.002632
     3  N    0.060836   0.014632  -0.003918  -0.011202  -0.000138   0.000679
     4  C    0.010665  -0.058045   0.013045  -0.000193  -0.000189   0.001979
     5  C   -0.000101   0.031515  -0.005322   0.002277  -0.000028  -0.000487
     6  O   -0.000232   0.001084  -0.000012   0.000004   0.000000  -0.000010
     7  O    0.002950   0.001100   0.000401  -0.000067  -0.000041   0.000012
     8  C    0.004719   0.007653   0.001624   0.010443   0.001112  -0.000963
     9  C    0.015782  -0.003087  -0.003480  -0.007874  -0.001039   0.000896
    10  C    0.002780  -0.000756  -0.001897   0.001913  -0.000520   0.000160
    11  N   -0.000498   0.000125   0.000012   0.000122   0.000002  -0.000002
    12  C   -0.000031  -0.000634   0.000549  -0.002870   0.000071   0.000070
    13  N    0.000403   0.000455   0.001200   0.002708   0.000070  -0.000110
    14  C    0.410267   0.465916   0.034962   0.064735   0.017127  -0.002927
    15  C   -0.057658  -0.061136   0.342618   0.299203  -0.056589  -0.041157
    16  N   -0.007020   0.002381  -0.020923  -0.018574   0.402720   0.405392
    17  H   -0.005505  -0.004114   0.000613   0.000981   0.000375  -0.000173
    18  H   -0.001573  -0.000163   0.000044   0.000508   0.000069   0.000050
    19  H    0.000208  -0.000368   0.000027  -0.000046  -0.000003   0.000005
    20  H    0.000706   0.000187   0.000153   0.000109   0.000017  -0.000006
    21  H   -0.001769  -0.000630   0.000383   0.000517   0.000008   0.000033
    22  H   -0.000108   0.000007  -0.000024   0.000055  -0.000007  -0.000001
    23  H    0.000285  -0.000098   0.000186  -0.001362   0.000026   0.000008
    24  H    0.001840   0.000548  -0.000130  -0.008858   0.000098  -0.000597
    25  H    0.616504  -0.067377   0.015642  -0.029428   0.012848  -0.004448
    26  H   -0.067377   0.548528  -0.022687   0.018257  -0.005359   0.011568
    27  H    0.015642  -0.022687   0.543123  -0.053507   0.018534  -0.026391
    28  H   -0.029428   0.018257  -0.053507   0.625140  -0.029299   0.019922
    29  H    0.012848  -0.005359   0.018534  -0.029299   0.496504  -0.074217
    30  H   -0.004448   0.011568  -0.026391   0.019922  -0.074217   0.483629
 Mulliken charges:
               1
     1  O   -0.290643
     2  C   -0.286638
     3  N   -0.014036
     4  C    0.092103
     5  C   -0.096821
     6  O   -0.122120
     7  O   -0.221986
     8  C   -0.861316
     9  C    0.413551
    10  C   -0.407723
    11  N   -0.135666
    12  C    0.076696
    13  N   -0.122156
    14  C   -0.112770
    15  C   -0.603512
    16  N   -0.323042
    17  H    0.311350
    18  H    0.246930
    19  H    0.256360
    20  H    0.143551
    21  H    0.273246
    22  H    0.129246
    23  H    0.155426
    24  H    0.332831
    25  H    0.132175
    26  H    0.199689
    27  H    0.209471
    28  H    0.169763
    29  H    0.226559
    30  H    0.229479
 Sum of Mulliken charges =   0.00000
 Mulliken charges with hydrogens summed into heavy atoms:
               1
     1  O   -0.290643
     2  C   -0.286638
     3  N    0.297314
     4  C    0.339034
     5  C   -0.096821
     6  O    0.134240
     7  O   -0.221986
     8  C   -0.444518
     9  C    0.413551
    10  C   -0.278477
    11  N   -0.135666
    12  C    0.232121
    13  N    0.210674
    14  C    0.219094
    15  C   -0.224277
    16  N    0.132997
 APT charges:
               1
     1  O   -0.362189
     2  C   -0.099624
     3  N   -0.348457
     4  C   -0.393245
     5  C   -0.562316
     6  O   -0.077589
     7  O   -0.121852
     8  C   -1.277497
     9  C    0.466678
    10  C   -0.752362
    11  N    0.057268
    12  C   -0.271247
    13  N   -0.502129
    14  C   -0.457627
    15  C   -0.991937
    16  N   -0.897114
    17  H    0.622012
    18  H    0.533177
    19  H    0.543094
    20  H    0.592210
    21  H    0.266136
    22  H    0.731433
    23  H    0.625170
    24  H    0.207709
    25  H    0.329983
    26  H    0.502373
    27  H    0.377230
    28  H    0.229388
    29  H    0.441015
    30  H    0.590309
 Sum of APT charges =   0.00000
 APT charges with hydrogens summed into heavy atoms:
               1
     1  O   -0.362189
     2  C   -0.099624
     3  N    0.273555
     4  C    0.139932
     5  C   -0.562316
     6  O    0.465505
     7  O   -0.121852
     8  C   -0.419150
     9  C    0.466678
    10  C   -0.020929
    11  N    0.057268
    12  C    0.353923
    13  N   -0.294420
    14  C    0.374730
    15  C   -0.385319
    16  N    0.134209
 Electronic spatial extent (au):  <R**2>=           4365.1637
 Charge=              0.0000 electrons
 Dipole moment (field-independent basis, Debye):
    X=              1.7774    Y=             -0.3536    Z=              3.1658  Tot=              3.6478
 Quadrupole moment (field-independent basis, Debye-Ang):
   XX=           -101.1395   YY=           -112.7695   ZZ=            -95.6911
   XY=             15.6733   XZ=              7.8423   YZ=             -6.2865
 Traceless Quadrupole moment (field-independent basis, Debye-Ang):
   XX=              2.0606   YY=             -9.5695   ZZ=              7.5089
   XY=             15.6733   XZ=              7.8423   YZ=             -6.2865
 Octapole moment (field-independent basis, Debye-Ang**2):
  XXX=            153.6052  YYY=            107.0607  ZZZ=            -38.8629  XYY=             13.0649
  XXY=            -54.9609  XXZ=             -9.0441  XZZ=              9.4999  YZZ=            -17.7903
  YYZ=            -31.6022  XYZ=             53.5863
 Hexadecapole moment (field-independent basis, Debye-Ang**3):
 XXXX=          -3076.7014 YYYY=          -2392.6111 ZZZZ=           -752.3977 XXXY=            159.3473
 XXXZ=            547.3562 YYYX=             84.6669 YYYZ=            303.5271 ZZZX=            472.7016
 ZZZY=            255.2629 XXYY=           -962.4822 XXZZ=           -673.3316 YYZZ=           -509.7196
 XXYZ=             76.5625 YYXZ=            225.8330 ZZXY=              1.7702
 N-N= 1.133947968623D+03 E-N=-4.127911187783D+03  KE= 7.934227723017D+02
  Exact polarizability:   0.000   0.000   0.000   0.000   0.000   0.000
 Approx polarizability: 208.522  -5.763 208.415 -26.520  -7.663 205.362
 Calling FoFJK, ICntrl=    100147 FMM=F ISym2X=0 I1Cent= 0 IOpClX= 0 NMat=1 NMatS=1 NMatT=0.
 -------------------------------------------------------------------
 Center     Atomic                   Forces (Hartrees/Bohr)
 Number     Number              X              Y              Z
 -------------------------------------------------------------------
      1        8           0.006896640    0.002380909    0.007520768
      2        6           0.001160971   -0.002442743   -0.010465753
      3        7          -0.004402477   -0.003912702    0.001035186
      4        6           0.004769458   -0.000138339    0.002623031
      5        6           0.005757653   -0.002735352   -0.001335460
      6        8           0.002663363   -0.003196687   -0.001452303
      7        8           0.000087582   -0.000675618    0.000161941
      8        6          -0.006466971    0.003066552    0.000306128
      9        6           0.002788896   -0.006027492   -0.003262204
     10        6          -0.004414672    0.008555330    0.003727845
     11        7          -0.003036851   -0.002766222    0.003742950
     12        6          -0.001703921    0.001967926    0.000989822
     13        7           0.003605522   -0.001566294   -0.004697826
     14        6          -0.001193908   -0.001650345    0.001476427
     15        6           0.000165338    0.000854634   -0.002146159
     16        7           0.000128440   -0.000541305    0.001332721
     17        1           0.002605914    0.001293001    0.002545644
     18        1          -0.001695565    0.000858109    0.000750282
     19        1          -0.005253600    0.000719403    0.002537701
     20        1          -0.001127070    0.000216020    0.000528295
     21        1           0.000023093   -0.000444466   -0.001546554
     22        1          -0.000162263    0.000364365   -0.000848859
     23        1          -0.001146825    0.003435546   -0.000353953
     24        1          -0.000425855   -0.001295555   -0.000528717
     25        1           0.000563135    0.000601982    0.000232920
     26        1          -0.002128472   -0.000257771    0.000376687
     27        1          -0.000996411    0.000298977   -0.001460946
     28        1          -0.000645815    0.001089347   -0.001075980
     29        1           0.001229302    0.002352122    0.000570386
     30        1           0.002355367   -0.000403330   -0.001284018
 -------------------------------------------------------------------
 Cartesian Forces:  Max     0.010465753 RMS     0.002900712
 FormGI is forming the generalized inverse of G from B-inverse, IUseBI=4.

 GradGradGradGradGradGradGradGradGradGradGradGradGradGradGradGradGradGrad
 Berny optimization.
 Internal  Forces:  Max     0.011836877 RMS     0.002916639
 Search for a local minimum.
 Step number   1 out of a maximum of  160
 All quantities printed in internal units (Hartrees-Bohrs-Radians)
 Mixed Optimization -- RFO/linear search
 Second derivative matrix not updated -- analytic derivatives used.
 ITU=  0
     Eigenvalues ---    0.00011   0.00072   0.00229   0.00272   0.00337
     Eigenvalues ---    0.00363   0.00660   0.00862   0.00970   0.01020
     Eigenvalues ---    0.01150   0.02021   0.02390   0.02695   0.03031
     Eigenvalues ---    0.03454   0.04120   0.04226   0.04363   0.04379
     Eigenvalues ---    0.04512   0.04733   0.04838   0.05256   0.05408
     Eigenvalues ---    0.06042   0.06186   0.06975   0.07728   0.08149
     Eigenvalues ---    0.08675   0.10285   0.10766   0.10782   0.11681
     Eigenvalues ---    0.12258   0.12712   0.13628   0.14648   0.16129
     Eigenvalues ---    0.16757   0.17910   0.18124   0.18316   0.18933
     Eigenvalues ---    0.20226   0.21524   0.21929   0.22806   0.23372
     Eigenvalues ---    0.23599   0.24151   0.24806   0.26898   0.28267
     Eigenvalues ---    0.30052   0.32029   0.32371   0.32454   0.33075
     Eigenvalues ---    0.33205   0.33385   0.33715   0.34154   0.34379
     Eigenvalues ---    0.35733   0.36449   0.36702   0.37043   0.37635
     Eigenvalues ---    0.40534   0.41538   0.43422   0.45045   0.45095
     Eigenvalues ---    0.45211   0.45747   0.47667   0.47783   0.54151
     Eigenvalues ---    0.58045   0.61547   0.75287   0.90564
 RFO step:  Lambda=-3.81951432D-03 EMin= 1.13812973D-04
 Linear search not attempted -- first point.
 Iteration  1 RMS(Cart)=  0.08929103 RMS(Int)=  0.00286524
 Iteration  2 RMS(Cart)=  0.00421432 RMS(Int)=  0.00012515
 Iteration  3 RMS(Cart)=  0.00000867 RMS(Int)=  0.00012510
 Iteration  4 RMS(Cart)=  0.00000000 RMS(Int)=  0.00012510
 Variable       Old X    -DE/DX   Delta X   Delta X   Delta X     New X
                                 (Linear)    (Quad)   (Total)
    R1        2.32855  -0.01022   0.00000  -0.01400  -0.01400   2.31456
    R2        2.57421   0.00758   0.00000   0.01653   0.01653   2.59074
    R3        2.87986   0.00040   0.00000  -0.00206  -0.00206   2.87780
    R4        2.75100   0.00440   0.00000   0.00047   0.00047   2.75147
    R5        1.90042   0.00367   0.00000   0.00736   0.00736   1.90778
    R6        2.89923   0.00656   0.00000   0.02312   0.02312   2.92234
    R7        2.90958   0.01184   0.00000   0.03172   0.03172   2.94130
    R8        2.06846   0.00125   0.00000   0.00298   0.00298   2.07144
    R9        2.55960   0.00372   0.00000   0.00615   0.00615   2.56575
   R10        2.26224   0.00020   0.00000  -0.00098  -0.00098   2.26126
   R11        1.81394   0.00552   0.00000   0.00979   0.00979   1.82373
   R12        2.82061   0.00394   0.00000   0.00185   0.00185   2.82246
   R13        2.06481   0.00082   0.00000   0.00296   0.00296   2.06778
   R14        2.05280   0.00158   0.00000   0.00635   0.00635   2.05914
   R15        2.58180   0.00886   0.00000   0.01754   0.01761   2.59941
   R16        2.59815   0.00340   0.00000   0.00773   0.00780   2.60595
   R17        2.61433  -0.00374   0.00000  -0.01583  -0.01585   2.59847
   R18        2.04245  -0.00066   0.00000  -0.00114  -0.00114   2.04131
   R19        2.47933   0.00258   0.00000   0.00579   0.00571   2.48504
   R20        2.55987   0.00820   0.00000   0.01514   0.01511   2.57498
   R21        2.03252   0.00297   0.00000   0.00712   0.00712   2.03964
   R22        1.91305   0.00019   0.00000   0.00163   0.00163   1.91468
   R23        2.88820   0.00575   0.00000   0.01833   0.01833   2.90653
   R24        2.07091   0.00059   0.00000   0.00087   0.00087   2.07178
   R25        2.07718  -0.00116   0.00000  -0.00315  -0.00315   2.07403
   R26        2.75949   0.00395   0.00000   0.00295   0.00295   2.76244
   R27        2.05883   0.00110   0.00000   0.00277   0.00277   2.06161
   R28        2.06249   0.00133   0.00000   0.00445   0.00445   2.06694
   R29        1.91577   0.00201   0.00000   0.00203   0.00203   1.91780
   R30        1.91604   0.00187   0.00000   0.00172   0.00172   1.91775
    A1        2.15337   0.00183   0.00000  -0.00311  -0.00311   2.15026
    A2        2.13920  -0.00318   0.00000  -0.00492  -0.00492   2.13428
    A3        1.99038   0.00134   0.00000   0.00803   0.00803   1.99841
    A4        2.19605   0.00810   0.00000   0.01101   0.01098   2.20703
    A5        2.01098  -0.00465   0.00000  -0.00739  -0.00744   2.00354
    A6        1.98565  -0.00294   0.00000   0.00185   0.00182   1.98747
    A7        1.92900  -0.00598   0.00000  -0.01184  -0.01196   1.91704
    A8        2.00873   0.00814   0.00000   0.01254   0.01256   2.02128
    A9        1.84153  -0.00058   0.00000   0.00415   0.00421   1.84574
   A10        1.91907   0.00041   0.00000   0.01302   0.01304   1.93211
   A11        1.87106   0.00189   0.00000   0.00238   0.00244   1.87350
   A12        1.88759  -0.00422   0.00000  -0.02173  -0.02170   1.86589
   A13        2.00601   0.00175   0.00000   0.00893   0.00892   2.01494
   A14        2.17040  -0.00013   0.00000  -0.00276  -0.00277   2.16763
   A15        2.10674  -0.00161   0.00000  -0.00622  -0.00622   2.10051
   A16        1.92916   0.00359   0.00000   0.01787   0.01787   1.94703
   A17        1.96811   0.01048   0.00000   0.03464   0.03464   2.00275
   A18        1.88468  -0.00350   0.00000  -0.00810  -0.00801   1.87667
   A19        1.90727  -0.00191   0.00000  -0.00367  -0.00371   1.90356
   A20        1.89441  -0.00414   0.00000  -0.01356  -0.01357   1.88084
   A21        1.93511  -0.00280   0.00000  -0.00960  -0.00975   1.92536
   A22        1.87101   0.00140   0.00000  -0.00149  -0.00161   1.86940
   A23        2.31160  -0.00159   0.00000   0.00267   0.00225   2.31385
   A24        2.13722   0.00388   0.00000   0.00456   0.00414   2.14136
   A25        1.83346  -0.00225   0.00000  -0.00537  -0.00548   1.82797
   A26        1.92810   0.00292   0.00000   0.00661   0.00667   1.93477
   A27        2.23779  -0.00126   0.00000  -0.00579  -0.00592   2.23187
   A28        2.11728  -0.00165   0.00000  -0.00070  -0.00083   2.11645
   A29        1.83446   0.00001   0.00000   0.00228   0.00226   1.83672
   A30        1.95001   0.00080   0.00000  -0.00014  -0.00016   1.94984
   A31        2.21056  -0.00246   0.00000  -0.01483  -0.01483   2.19573
   A32        2.12261   0.00167   0.00000   0.01500   0.01500   2.13761
   A33        1.87874  -0.00146   0.00000  -0.00338  -0.00327   1.87547
   A34        2.16951  -0.00037   0.00000  -0.00921  -0.00927   2.16024
   A35        2.23486   0.00184   0.00000   0.01252   0.01245   2.24731
   A36        1.97166   0.00234   0.00000   0.00757   0.00754   1.97920
   A37        1.90576   0.00028   0.00000   0.01446   0.01447   1.92023
   A38        1.88634  -0.00254   0.00000  -0.02421  -0.02416   1.86217
   A39        1.92855  -0.00142   0.00000  -0.00656  -0.00665   1.92190
   A40        1.90901   0.00086   0.00000   0.00663   0.00664   1.91565
   A41        1.85864   0.00034   0.00000   0.00134   0.00142   1.86006
   A42        2.00690   0.00103   0.00000   0.00580   0.00579   2.01269
   A43        1.89898   0.00025   0.00000   0.00465   0.00463   1.90361
   A44        1.90863   0.00021   0.00000   0.00015   0.00016   1.90878
   A45        1.89228  -0.00039   0.00000   0.00063   0.00059   1.89287
   A46        1.88906  -0.00066   0.00000  -0.00381  -0.00381   1.88525
   A47        1.86271  -0.00057   0.00000  -0.00858  -0.00858   1.85412
   A48        1.92686   0.00242   0.00000   0.02408   0.02359   1.95045
   A49        1.92423   0.00235   0.00000   0.02290   0.02241   1.94664
   A50        1.86113  -0.00083   0.00000   0.01608   0.01517   1.87630
    D1        0.34410   0.00065   0.00000   0.02297   0.02299   0.36709
    D2        3.01109   0.00074   0.00000   0.03638   0.03636   3.04745
    D3       -2.82089   0.00023   0.00000   0.02324   0.02326  -2.79762
    D4       -0.15390   0.00032   0.00000   0.03665   0.03663  -0.11727
    D5        0.32202   0.00024   0.00000   0.04585   0.04580   0.36782
    D6        2.47544   0.00025   0.00000   0.05332   0.05340   2.52884
    D7       -1.79263  -0.00057   0.00000   0.04944   0.04941  -1.74322
    D8       -2.79639   0.00059   0.00000   0.04556   0.04551  -2.75088
    D9       -0.64297   0.00060   0.00000   0.05303   0.05310  -0.58986
   D10        1.37214  -0.00022   0.00000   0.04915   0.04912   1.42126
   D11        1.39566  -0.00007   0.00000   0.00424   0.00423   1.39989
   D12       -0.79101  -0.00204   0.00000  -0.01342  -0.01336  -0.80437
   D13       -2.87040  -0.00108   0.00000   0.00355   0.00356  -2.86684
   D14       -1.27722   0.00029   0.00000  -0.00680  -0.00684  -1.28406
   D15        2.81930  -0.00167   0.00000  -0.02446  -0.02444   2.79486
   D16        0.73991  -0.00072   0.00000  -0.00749  -0.00752   0.73239
   D17        2.87232  -0.00261   0.00000   0.04969   0.04972   2.92203
   D18       -0.26091  -0.00281   0.00000   0.05667   0.05670  -0.20421
   D19       -1.17432   0.00383   0.00000   0.06705   0.06702  -1.10731
   D20        1.97563   0.00363   0.00000   0.07404   0.07400   2.04963
   D21        0.87375   0.00009   0.00000   0.04950   0.04950   0.92325
   D22       -2.25949  -0.00011   0.00000   0.05649   0.05649  -2.20299
   D23       -0.98200  -0.00232   0.00000   0.02545   0.02549  -0.95651
   D24       -3.07499  -0.00127   0.00000   0.02646   0.02653  -3.04846
   D25        1.17853   0.00001   0.00000   0.03464   0.03474   1.21327
   D26        3.10937  -0.00093   0.00000   0.02078   0.02068   3.13005
   D27        1.01637   0.00012   0.00000   0.02179   0.02172   1.03810
   D28       -1.01329   0.00140   0.00000   0.02998   0.02993  -0.98335
   D29        1.07162  -0.00101   0.00000   0.02319   0.02316   1.09479
   D30       -1.02138   0.00004   0.00000   0.02420   0.02421  -0.99717
   D31       -3.05104   0.00132   0.00000   0.03239   0.03242  -3.01862
   D32       -0.03902   0.00028   0.00000   0.03860   0.03860  -0.00043
   D33        3.09454   0.00048   0.00000   0.03191   0.03192   3.12646
   D34       -1.60419   0.00162   0.00000  -0.00767  -0.00771  -1.61191
   D35        1.48457   0.00278   0.00000   0.04686   0.04694   1.53151
   D36        0.48319   0.00100   0.00000  -0.00531  -0.00546   0.47773
   D37       -2.71123   0.00216   0.00000   0.04922   0.04920  -2.66203
   D38        2.53392  -0.00141   0.00000  -0.02086  -0.02086   2.51306
   D39       -0.66050  -0.00025   0.00000   0.03368   0.03380  -0.62670
   D40        3.09145   0.00107   0.00000   0.04961   0.04956   3.14101
   D41       -0.04363   0.00041   0.00000   0.02796   0.02793  -0.01569
   D42       -0.00399  -0.00008   0.00000   0.00177   0.00181  -0.00217
   D43       -3.13906  -0.00074   0.00000  -0.01988  -0.01981   3.12431
   D44       -3.09756  -0.00088   0.00000  -0.04389  -0.04386  -3.14142
   D45        0.03236  -0.00017   0.00000  -0.04995  -0.04984  -0.01748
   D46        0.00367  -0.00003   0.00000  -0.00209  -0.00211   0.00156
   D47        3.13359   0.00068   0.00000  -0.00814  -0.00809   3.12550
   D48        0.00274   0.00015   0.00000  -0.00078  -0.00081   0.00193
   D49        3.13834   0.00076   0.00000   0.01910   0.01913  -3.12571
   D50       -0.00032  -0.00016   0.00000  -0.00057  -0.00057  -0.00089
   D51       -3.13836  -0.00058   0.00000  -0.00831  -0.00818   3.13665
   D52       -0.00216   0.00012   0.00000   0.00170   0.00172  -0.00044
   D53       -3.13151  -0.00061   0.00000   0.00824   0.00830  -3.12321
   D54        3.13609   0.00050   0.00000   0.00891   0.00896  -3.13813
   D55        0.00674  -0.00022   0.00000   0.01546   0.01554   0.02228
   D56        3.11988   0.00076   0.00000   0.03883   0.03881  -3.12449
   D57       -1.03751   0.00115   0.00000   0.04719   0.04719  -0.99033
   D58        0.99093   0.00074   0.00000   0.03961   0.03960   1.03052
   D59        0.97911  -0.00023   0.00000   0.01948   0.01948   0.99859
   D60        3.10490   0.00016   0.00000   0.02783   0.02786   3.13276
   D61       -1.14984  -0.00025   0.00000   0.02026   0.02027  -1.12958
   D62       -1.06155  -0.00033   0.00000   0.01771   0.01770  -1.04385
   D63        1.06424   0.00006   0.00000   0.02607   0.02607   1.09031
   D64        3.09268  -0.00035   0.00000   0.01849   0.01849   3.11116
   D65       -1.01949  -0.00079   0.00000  -0.01035  -0.01059  -1.03008
   D66        1.03241   0.00111   0.00000   0.03812   0.03836   1.07077
   D67        3.13428  -0.00152   0.00000  -0.02084  -0.02108   3.11320
   D68       -1.09700   0.00038   0.00000   0.02763   0.02787  -1.06913
   D69        1.12001  -0.00030   0.00000  -0.00907  -0.00932   1.11069
   D70       -3.11127   0.00159   0.00000   0.03940   0.03963  -3.07164
         Item               Value     Threshold  Converged?
 Maximum Force            0.011837     0.000450     NO 
 RMS     Force            0.002917     0.000300     NO 
 Maximum Displacement     0.404862     0.001800     NO 
 RMS     Displacement     0.090850     0.001200     NO 
 Predicted change in Energy=-2.077069D-03
 GradGradGradGradGradGradGradGradGradGradGradGradGradGradGradGradGradGrad

                          Input orientation:                          
 ---------------------------------------------------------------------
 Center     Atomic      Atomic             Coordinates (Angstroms)
 Number     Number       Type             X           Y           Z
 ---------------------------------------------------------------------
      1          8           0        0.299052   -0.203812   -1.254628
      2          6           0        0.979601   -0.145940   -0.237934
      3          7           0        0.521849   -0.533403    0.994897
      4          6           0       -0.592518   -1.432004    1.260761
      5          6           0       -0.134252   -2.899664    1.095122
      6          8           0       -0.994921   -3.836621    1.569257
      7          8           0        0.906130   -3.227957    0.603490
      8          6           0       -1.888927   -1.164637    0.441960
      9          6           0       -2.421147    0.226684    0.550336
     10          6           0       -3.344136    0.807308    1.388844
     11          7           0       -3.501709    2.141262    1.094717
     12          6           0       -2.687437    2.371744    0.088170
     13          7           0       -2.010550    1.248006   -0.280312
     14          6           0        2.402488    0.396738   -0.241350
     15          6           0        2.707425    1.303764   -1.445500
     16          7           0        4.069953    1.830268   -1.502369
     17          1           0        1.214269   -0.512763    1.729288
     18          1           0       -0.846840   -1.286314    2.317007
     19          1           0       -1.784832   -3.432673    1.949045
     20          1           0       -2.659721   -1.846794    0.813255
     21          1           0       -1.709857   -1.420935   -0.601873
     22          1           0       -3.911923    0.336349    2.177946
     23          1           0       -2.551191    3.319747   -0.409512
     24          1           0       -1.314626    1.136693   -1.008246
     25          1           0        2.602216    0.932238    0.694229
     26          1           0        3.071657   -0.473116   -0.253185
     27          1           0        2.511769    0.751887   -2.366007
     28          1           0        2.016764    2.151903   -1.444803
     29          1           0        4.296469    2.377339   -0.678150
     30          1           0        4.754853    1.084602   -1.571500
 ---------------------------------------------------------------------
                    Distance matrix (angstroms):
                    1          2          3          4          5
     1  O    0.000000
     2  C    1.224811   0.000000
     3  N    2.284432   1.370962   0.000000
     4  C    2.937776   2.524203   1.456015   0.000000
     5  C    3.602318   3.255871   2.457581   1.546438   0.000000
     6  O    4.779748   4.559144   3.679909   2.457495   1.357735
     7  O    3.600916   3.195656   2.749817   2.429690   1.196608
     8  C    2.930673   3.119046   2.552653   1.556470   2.552611
     9  C    3.292826   3.510741   3.071903   2.569014   3.911615
    10  C    4.613364   4.716968   4.110783   3.549976   4.912359
    11  N    5.046244   5.204746   4.832474   4.610769   6.062236
    12  C    4.166019   4.460072   4.422844   4.498017   5.943101
    13  N    2.896779   3.299376   3.348525   3.401202   4.755574
    14  C    2.410775   1.522866   2.435215   3.817157   4.368921
    15  C    2.847715   2.558367   3.755991   5.069310   5.674390
    16  N    4.291684   3.880010   4.940883   6.325815   6.840655
    17  H    3.136371   2.014842   1.009555   2.080625   2.813890
    18  H    3.904030   3.341266   2.046499   1.096158   2.145621
    19  H    5.003162   4.819499   3.825826   2.428585   1.933313
    20  H    3.966089   4.152416   3.446792   2.155375   2.750632
    21  H    2.437866   2.998541   2.884077   2.172090   2.747538
    22  H    5.459546   5.476867   4.670589   3.871273   5.090686
    23  H    4.610160   4.950446   5.124715   5.404198   6.840073
    24  H    2.112254   2.738980   3.189741   3.502576   4.702087
    25  H    3.223851   2.159694   2.562505   4.014589   4.725722
    26  H    2.960195   2.117541   2.839519   4.078931   4.240745
    27  H    2.654174   2.771702   4.111865   5.249706   5.684599
    28  H    2.921660   2.795054   3.924000   5.193536   6.049497
    29  H    4.793122   4.190745   5.051660   6.494048   7.114952
    30  H    4.649148   4.188695   5.207942   6.553577   6.847525
                    6          7          8          9         10
     6  O    0.000000
     7  O    2.217470   0.000000
     8  C    3.034723   3.477891   0.000000
     9  C    4.425242   4.796680   1.493579   0.000000
    10  C    5.207440   5.913113   2.627316   1.375547   0.000000
    11  N    6.499558   6.964112   3.735790   2.264856   1.375054
    12  C    6.603183   6.673524   3.642633   2.210382   2.137865
    13  N    5.505074   5.415013   2.521372   1.379008   2.181455
    14  C    5.722064   4.011391   4.617472   4.891128   5.987468
    15  C    7.015675   5.289568   5.548150   5.607648   6.700848
    16  N    8.197650   6.326931   6.946807   6.994245   8.023358
    17  H    3.994266   2.955443   3.422277   3.892680   4.757893
    18  H    2.661790   3.127143   2.148617   2.808688   3.388395
    19  H    0.965076   3.015577   2.725092   3.968901   4.552218
    20  H    2.702315   3.829739   1.094221   2.103653   2.800711
    21  H    3.325730   3.400238   1.089653   2.132644   3.405715
    22  H    5.127678   6.196516   3.059268   2.209876   1.080216
    23  H    7.586245   7.473397   4.612299   3.241182   3.189858
    24  H    5.610668   5.155543   2.780115   2.116999   3.158076
    25  H    6.037142   4.493569   4.962952   5.074710   5.988088
    26  H    5.583146   3.607291   5.056562   5.595200   6.745231
    27  H    6.988389   5.218730   5.560923   5.754524   6.956551
    28  H    7.349641   5.862756   5.460195   5.232791   6.211017
    29  H    8.465397   6.675054   7.215218   7.159669   8.069467
    30  H    8.194064   6.175874   7.297459   7.532143   8.627522
                   11         12         13         14         15
    11  N    0.000000
    12  C    1.315028   0.000000
    13  N    2.216341   1.362623   0.000000
    14  C    6.299839   5.469604   4.494561   0.000000
    15  C    6.760728   5.709401   4.860048   1.538071   0.000000
    16  N    8.010720   6.963141   6.229364   2.534880   1.461822
    17  H    5.448576   5.122203   4.187871   2.474362   3.950768
    18  H    4.504508   4.662285   3.810914   4.464973   5.787726
    19  H    5.894598   6.161883   5.189387   6.082423   7.357795
    20  H    4.085676   4.280488   3.345907   5.636628   6.620744
    21  H    4.333405   3.976963   2.705007   4.510576   5.258144
    22  H    2.144614   3.163757   3.238729   6.762279   7.607958
    23  H    2.134248   1.079333   2.145017   5.754233   5.726299
    24  H    3.196082   2.147577   1.013207   3.866859   4.049198
    25  H    6.235385   5.515425   4.725151   1.096339   2.174291
    26  H    7.201455   6.432489   5.365802   1.097531   2.170619
    27  H    7.075937   5.973162   5.004760   2.156905   1.090955
    28  H    6.074769   4.952559   4.288628   2.162795   1.093779
    29  H    8.000648   7.025826   6.419670   2.775020   2.065539
    30  H    8.740483   7.732976   6.889452   2.788562   2.062976
                   16         17         18         19         20
    16  N    0.000000
    17  H    4.907987   0.000000
[...]
 30,-0.08831524,-0.05374983,-0.00031819,-0.00056459,-0.00032065,-0.0003
 3210,0.00082510,-0.00025832,0.00001654,-0.00047566,0.00018500,0.000063
 97,0.00034744,-0.00007931,-0.00011043,0.00009756,-0.00014251,-0.000082
 74,-0.00004063,0.00005338,0.00009939,0.00003681,-0.00041316,-0.0001979
 8,-0.00128729,-0.00007729,-0.00024061,0.00112954,0.00083908,-0.0007085
 1,-0.00038389,0.00038623,-0.06152720,0.07476435,0.00029865,-0.00100687
 ,-0.00297624,-0.00121521,0.00090250,0.00225404,0.00063845,-0.00041926,
 -0.00169792,-0.00025085,0.00055820,-0.00028164,-0.00009170,0.00032401,
 0.00012573,0.00001222,-0.00013870,-0.00000807,0.00015835,-0.00021079,-
 0.00008618,-0.00103978,0.00007735,0.00013074,0.00745647,-0.00949891,-0
 .01137326,0.00178982,0.00349112,-0.00138941,0.00107358,0.00162257,0.00
 517997,-0.00483247,-0.00371690,-0.00108816,0.20109545,-0.04961177,-0.2
 5190688,-0.00019230,0.00008666,-0.00010417,-0.00009613,0.00018015,0.00
 039159,0.00005437,0.00000389,-0.00022119,0.00000904,-0.00001132,-0.000
 05318,-0.00001501,-0.00001577,0.00001454,0.00000399,0.00013116,-0.0000
 1438,0.00003907,-0.00040641,0.00015916,0.00005783,0.00010231,0.0001369
 0,0.00102418,-0.00026906,0.00050329,-0.00060640,-0.00013919,-0.0005096
 0,-0.20549588,0.05814846,0.26289168,-0.00834636,-0.00353943,-0.0004741
 1,-0.00390702,-0.00655482,-0.03067909,0.00030037,0.00135802,0.00095468
 ,0.00022546,0.00011235,0.00002972,0.00008119,-0.00006147,-0.00011863,0
 .00003235,0.00009263,0.00001778,-0.00000357,0.00005133,0.00005905,-0.0
 0002279,0.00003698,-0.00016417,0.00008419,0.00001923,-0.00007171,-0.00
 002284,0.00002600,0.00003053,-0.00004762,0.00004546,0.00009189,0.00002
 328,-0.00011328,-0.00002890,-0.00007067,0.00013204,0.00006005,-0.06933
 795,-0.02399114,-0.06304156,-0.00025055,-0.00006093,0.00185110,0.00085
 022,0.00099976,0.00041635,-0.00087942,-0.00154831,0.00104711,0.0000071
 5,0.00000911,-0.00000138,-0.00001945,-0.00000169,-0.00002278,0.0000235
 0,-0.00000609,0.00010573,0.00010559,0.00007748,0.00004818,-0.00000935,
 0.00000010,0.00000258,-0.00001272,0.00000461,-0.00001075,0.00016826,-0
 .00024752,-0.00004998,0.07417378,-0.00488433,0.00071202,0.00006787,0.0
 0257415,-0.00484623,-0.01362045,-0.00032551,0.00024529,0.00107743,0.00
 033302,-0.00001222,0.00005190,-0.00019045,0.00005748,-0.00007449,0.000
 05738,-0.00001782,0.00000743,0.00016482,-0.00003049,0.00015192,0.00001
 429,0.00004082,-0.00010954,0.00006634,0.00004742,-0.00009129,-0.000006
 43,0.00002365,0.00000674,-0.00006308,0.00003754,0.00007377,0.00003665,
 -0.00015112,-0.00000926,-0.00014322,0.00014674,0.00004634,-0.02547869,
 -0.07227578,-0.07017467,0.00745835,0.00739196,0.02539279,0.00174927,0.
 00162235,-0.00124976,-0.00134775,-0.00032352,0.00084018,-0.00002919,0.
 00000027,0.00001021,0.00000021,0.00002222,-0.00002923,0.00000703,-0.00
 001145,0.00007247,0.00006664,0.00004995,0.00003609,-0.00000686,0.00000
 142,0.00000500,-0.00000039,0.00000609,0.00000563,0.00016445,-0.0002371
 7,0.00003286,0.02834178,0.07721913,0.00069793,-0.00042774,0.00241396,0
 .00173150,0.00221698,-0.00136729,0.00114302,0.00121154,0.00010737,-0.0
 0026079,-0.00012330,0.00070762,0.00003444,0.00001125,-0.00004375,0.000
 02525,0.00006368,-0.00000119,0.00003915,0.00002432,0.00008514,0.000016
 92,0.00005225,-0.00002896,0.00002763,0.00003170,-0.00005830,-0.0000160
 9,0.00001565,0.00003058,-0.00003014,0.00000619,0.00007630,0.00004729,-
 0.00007281,-0.00005051,-0.00003383,0.00002083,0.00003778,-0.06716305,-
 0.07271312,-0.25525574,-0.00723895,-0.00697424,-0.02067389,0.00039827,
 -0.00044824,0.00244261,0.00068237,-0.00019159,0.00091422,-0.00007815,-
 0.00007660,0.00001588,-0.00001122,0.00000174,-0.00001488,-0.00001194,0
 .00000195,0.00005395,0.00005569,0.00001573,0.00002304,-0.00000893,-0.0
 0000105,0.00000130,0.00000241,-0.00000897,-0.00000826,0.00010609,-0.00
 001528,-0.00006240,0.07149478,0.07533055,0.28018418,0.00168408,-0.0039
 9874,-0.00097287,-0.02189738,0.02439565,0.01059823,-0.00182376,-0.0027
 6433,-0.00017458,0.00076240,-0.00087639,0.00027847,-0.00117923,0.00037
 022,0.00034282,0.00027112,-0.00017425,-0.00007133,0.00062650,-0.000175
 18,-0.00027026,0.00010074,0.00001725,-0.00001221,0.00004082,0.00000535
 ,-0.00005962,-0.00000368,0.00000002,0.00000083,-0.00002711,0.00002588,
 0.00002951,0.00003938,-0.00005581,-0.00002627,-0.00006492,-0.00002519,
 0.00000679,-0.14788243,0.11704344,0.04825249,0.00016571,-0.00070058,-0
 .00076573,0.00158657,-0.00090797,-0.00075343,-0.00038137,0.00027057,0.
 00013218,-0.00003773,-0.00008765,0.00005541,0.00005303,0.00006859,0.00
 000655,-0.00002925,0.00000174,0.00001319,0.00000801,0.00002359,-0.0000
 2494,0.00000089,-0.00000025,0.00000329,0.00000170,0.00000074,0.0000023
 8,0.00010645,0.00002895,0.00004283,0.00668611,-0.00729878,-0.00288511,
 0.16014110,0.00017317,-0.00111203,-0.00029993,-0.00871946,0.01141644,0
 .00388243,-0.00058822,-0.00125304,0.00045335,0.00052983,-0.00089271,0.
 00014383,-0.00074612,0.00021091,0.00020025,0.00010252,-0.00015345,-0.0
 0006438,0.00036488,-0.00002113,-0.00012135,0.00008917,0.00002250,-0.00
 002551,0.00003968,-0.00002012,-0.00002521,0.00000232,0.00000173,-0.000
 01313,0.00000230,0.00004538,0.00001490,-0.00001028,-0.00001499,0.00001
 753,-0.00002016,0.00003138,0.00001753,0.11319682,-0.17327695,-0.058062
 38,0.01695142,-0.02191672,-0.00596840,0.00025201,0.00341439,-0.0013672
 8,-0.00020896,0.00003702,0.00023237,0.00002151,-0.00001008,0.00000933,
 0.00003432,0.00002344,0.00000337,-0.00000332,0.00000643,0.00001311,0.0
 0001426,0.00001794,-0.00001150,-0.00000099,0.00000109,-0.00000383,-0.0
 0002550,0.00001288,-0.00001197,0.00005470,-0.00011316,0.00000259,0.005
 80012,-0.00703062,-0.00295309,-0.12519667,0.19259741,-0.00090234,-0.00
 075402,-0.00050955,0.00208589,-0.00077529,-0.00191230,0.00110180,0.001
 34053,-0.00000359,-0.00040570,0.00054207,0.00011880,0.00084918,-0.0001
 9466,-0.00016069,-0.00021240,0.00010486,0.00003474,-0.00049275,0.00010
 525,0.00006839,-0.00004562,0.00001736,-0.00001671,0.00001351,0.0000074
 9,-0.00001208,-0.00001201,0.00001393,0.00002399,-0.00001112,-0.0000018
 4,0.00003554,0.00001138,-0.00002897,-0.00002722,-0.00003036,0.00003825
 ,0.00001725,0.04773461,-0.05875400,-0.06733676,-0.01406122,0.01933401,
 0.00532875,-0.00171085,-0.00186413,0.00103492,0.00026912,-0.00098612,0
 .00004280,0.00000064,0.00000700,-0.00001248,-0.00003132,-0.00003671,0.
 00000358,0.00001829,-0.00000378,0.00000885,0.00002568,0.00000344,0.000
 00790,-0.00000374,-0.00000086,0.00000112,0.00000622,-0.00000341,0.0000
 0161,0.00008315,-0.00003720,-0.00001813,0.01874194,-0.02011570,-0.0090
 8015,-0.05398818,0.05925685,0.07353849,-0.00094903,-0.00024521,-0.0001
 1191,0.00030815,0.00008951,0.00126668,0.00009557,-0.00012257,-0.000643
 78,-0.00006840,-0.00002614,-0.00000109,0.00005550,-0.00006964,0.000004
 42,-0.00000708,0.00003251,-0.00000116,-0.00005020,0.00004209,0.0000025
 4,0.00000604,0.00000590,0.00002534,-0.00002085,-0.00006982,0.00006291,
 0.00002630,-0.00001303,-0.00002852,0.00004209,-0.00001220,-0.00007845,
 -0.00006047,0.00008677,0.00003811,0.00003213,0.00001367,-0.00005418,0.
 00124575,0.00122774,-0.00106368,-0.07422040,-0.02117768,-0.07041072,-0
 .01696023,-0.01762205,-0.02829320,0.00015489,0.00010849,-0.00004798,0.
 00001075,0.00001304,-0.00000916,-0.00000340,-0.00001413,0.00000671,0.0
 0000494,0.00000569,-0.00001471,-0.00000941,-0.00001778,-0.00000194,0.0
 0000438,-0.00000098,-0.00000307,0.00000809,0.00001091,0.00001620,-0.00
 020478,-0.00002299,0.00014480,0.00013914,-0.00069709,0.00031918,0.0001
 6130,-0.00026680,-0.00030318,0.08811936,-0.00029415,-0.00081005,-0.001
 01615,0.00072843,0.00104468,0.00159308,-0.00024511,0.00001078,-0.00048
 555,-0.00011238,0.00002921,-0.00008533,0.00000841,0.00002660,0.0000301
 7,-0.00001088,-0.00001647,-0.00000469,-0.00000669,-0.00002464,-0.00004
 201,-0.00002516,-0.00002986,0.00005788,-0.00001763,0.00002696,-0.00001
 362,-0.00001352,-0.00000404,0.00002206,-0.00000634,-0.00001873,0.00003
 681,0.00003638,0.00001362,-0.00004092,0.00002418,-0.00004384,0.0000220
 7,0.00751905,0.00606811,0.02546146,-0.02395843,-0.07484859,-0.07515880
 ,-0.00747691,-0.00647897,-0.01179120,0.00032449,0.00017040,-0.00026895
 ,0.00001283,0.00000373,-0.00000683,0.00000023,0.00000431,0.00000618,-0
 .00001785,-0.00000318,-0.00002322,-0.00001348,-0.00000653,-0.00000885,
 -0.00000184,-0.00000096,0.00000209,0.00000432,-0.00001745,-0.00001804,
 0.00000503,0.00013037,-0.00007620,-0.00072130,-0.00365338,0.00405761,0
 .00046938,0.00139978,-0.00065535,0.03355081,0.08310933,0.00029950,-0.0
 0099927,0.00324022,-0.00294860,-0.00113448,-0.00361698,0.00028529,0.00
 025671,0.00060523,0.00008490,-0.00009116,-0.00001964,-0.00006251,0.000
 00472,-0.00003737,0.00003715,0.00001989,0.00000676,0.00006538,0.000001
 66,0.00004000,-0.00000173,0.00002268,-0.00004789,0.00003333,0.00007623
 ,-0.00006437,-0.00002758,0.00001756,0.00003847,-0.00004698,0.00000618,
 0.00008900,0.00006751,-0.00009945,-0.00005462,-0.00004603,-0.00000124,
 0.00005373,-0.00478884,-0.00391672,-0.02173050,-0.07565635,-0.07587632
 ,-0.26005387,0.00173029,0.00241115,0.00797907,-0.00009796,-0.00007339,
 0.00032593,0.00001010,0.00001091,-0.00000167,-0.00000443,0.00000903,-0
 .00001583,-0.00000010,-0.00000633,0.00004041,0.00003311,0.00001562,0.0
 0001656,-0.00000747,0.00000046,0.00000459,0.00000149,-0.00001285,-0.00
 001102,0.00022084,0.00002382,-0.00011884,0.00023396,0.00369887,-0.0013
 1714,-0.00015970,-0.00001665,0.00114754,0.08167806,0.07765880,0.279398
 88,0.00014857,0.00030543,0.00015008,0.00012784,-0.00028834,-0.00025502
 ,0.00031687,0.00010230,-0.00021612,-0.00003808,-0.00003116,-0.00000928
 ,0.00001034,-0.00002677,0.00000712,0.00001257,0.00002599,-0.00000378,-
 0.00000094,0.00000314,-0.00000372,-0.00000410,0.00002011,-0.00001014,-
 0.00000134,-0.00000692,0.00001578,0.00000470,0.00001097,-0.00000913,0.
 00000793,-0.00002704,-0.00002130,-0.00003901,0.00003027,0.00000893,-0.
 00002832,-0.00003013,-0.00001821,0.00191768,0.00057205,-0.00080785,-0.
 13466764,0.10810304,0.04303634,-0.02837917,0.01926937,0.01640141,-0.00
 000739,0.00009887,0.00002602,0.00001350,0.00001469,-0.00000937,-0.0000
 0622,-0.00000128,0.00000100,0.00000711,-0.00000195,0.00000250,-0.00000
 506,-0.00000684,-0.00000076,-0.00000024,-0.00000042,0.00000130,0.00000
 329,0.00000399,0.00001173,-0.00004904,-0.00000157,0.00001388,-0.000111
 60,0.00012991,-0.00007208,0.00066385,-0.00072373,0.00044124,0.00758394
 ,-0.00753635,-0.00217303,0.15789377,-0.00139520,0.00019534,-0.00069051
 ,0.00321753,0.00033193,0.00029293,-0.00086547,0.00000881,0.00045913,0.
 00010180,0.00001924,0.00006060,0.00025243,-0.00003555,-0.00006620,-0.0
 0014133,-0.00006932,0.00001138,-0.00022089,0.00005559,0.00007412,0.000
 02624,-0.00008061,0.00000424,-0.00002778,-0.00020470,0.00015688,0.0000
 4784,-0.00003918,-0.00008768,0.00010932,0.00007104,-0.00011804,-0.0001
 8982,0.00028746,0.00014051,0.00027245,0.00005847,-0.00000465,0.0124740
 3,-0.02082071,-0.00607535,0.11425523,-0.18878373,-0.06148131,-0.011198
 36,0.01215885,0.00667774,0.00013261,-0.00014404,-0.00009637,-0.0000205
 2,-0.00002869,0.00001901,0.00001594,-0.00002834,0.00000862,-0.00000939
 ,0.00002848,-0.00001563,-0.00000048,0.00001560,0.00000259,0.00000634,-
 0.00000181,-0.00002108,-0.00005332,0.00004551,-0.00003359,-0.00029696,
 -0.00034876,-0.00012086,-0.00003581,0.00122996,0.00026093,-0.00078812,
 -0.00267741,0.00370951,0.00586466,-0.00713443,-0.00298836,-0.11843786,
 0.20483728,-0.00017170,0.00011603,0.00034143,-0.00133797,-0.00036860,0
 .00077799,0.00012102,-0.00036674,-0.00023209,-0.00001697,0.00004480,-0
 .00001945,-0.00010614,-0.00001533,0.00001177,0.00004982,0.00002887,-0.
 00000463,0.00006523,0.00001319,-0.00003183,0.00000320,-0.00002454,0.00
 000805,-0.00000125,-0.00005993,0.00005566,0.00003063,0.00000526,-0.000
 05769,0.00005160,0.00002581,-0.00009313,-0.00008010,0.00001803,0.00011
 571,0.00007125,0.00003919,-0.00005340,-0.01225892,0.01960843,0.0052547
 5,0.04604871,-0.06029298,-0.07537751,0.00449021,-0.00250157,-0.0012123
 4,-0.00002096,0.00011076,0.00001090,0.00000253,0.00000159,0.00000138,0
 .00000221,-0.00000529,0.00000449,-0.00000296,0.00001156,-0.00000703,-0
 .00000519,-0.00000194,0.00000170,0.00000412,0.00000403,-0.00000892,-0.
 00003662,0.00003368,0.00000744,-0.00014868,-0.00018934,0.00006773,-0.0
 0043616,-0.00084875,0.00113905,0.00028444,0.00413746,-0.00221807,0.017
 98850,-0.02064057,-0.00794546,-0.05477788,0.05956147,0.07787432,0.0003
 0402,-0.00022080,0.00081232,-0.00071896,0.00006155,-0.00074576,0.00007
 124,0.00010686,0.00018428,-0.00001117,-0.00001903,-0.00001633,0.000005
 56,-0.00003835,-0.00000973,0.00001054,0.00002613,0.00000059,-0.0000069
 1,0.00002147,0.00000441,-0.00000066,-0.00000472,-0.00001016,0.00000557
 ,0.00001691,-0.00001803,-0.00000999,0.00000632,0.00001458,0.00000104,0
 .00001293,0.00003018,0.00002060,-0.00002195,-0.00001063,0.00001075,-0.
 00000922,0.00001986,0.00130702,0.00076179,-0.00070209,-0.01305429,-0.0
 1200408,-0.03387859,-0.11246230,-0.05168693,-0.11319542,0.00000642,-0.
 00007217,0.00003215,0.00000728,0.00000477,-0.00000227,-0.00000342,-0.0
 0000699,-0.00000119,0.00000271,0.00000143,0.00000247,0.00000389,0.0000
 0353,0.00000223,-0.00000290,0.00000113,-0.00000172,-0.00001550,-0.0000
 0296,-0.00001375,0.00004425,0.00000293,-0.00005577,0.00011127,-0.00058
 140,0.00097612,0.00003818,-0.00001882,0.00018156,-0.00623841,-0.002435
 06,0.00190356,0.00050988,0.00076310,-0.00012500,0.11941021,0.00095652,
 0.00018749,0.00069266,-0.00177309,-0.00023941,0.00003627,0.00064713,0.
 00007994,-0.00039337,-0.00017066,-0.00015841,0.00002754,-0.00018155,-0
 .00015685,0.00006141,0.00015426,0.00017883,-0.00002349,0.00013200,0.00
 006633,-0.00004446,-0.00001345,0.00008436,-0.00002986,-0.00003629,-0.0
 0000925,0.00006738,0.00000245,0.00001019,0.00000774,0.00003059,-0.0000
 9167,-0.00003622,-0.00003286,0.00007220,0.00000345,0.00008675,-0.00003
 554,-0.00005936,0.00145996,0.00107082,-0.00224298,-0.00884338,-0.00834
 280,-0.01122512,-0.03553056,-0.06313119,-0.10551847,-0.00008201,0.0000
 1796,0.00012199,0.00003043,0.00003831,-0.00002288,-0.00003203,-0.00001
 789,0.00000355,0.00004150,-0.00000574,0.00000054,-0.00001771,-0.000027
 38,-0.00000330,-0.00000566,0.00000031,0.00000242,0.00002067,-0.0000024
 1,0.00001255,-0.00010456,0.00011519,-0.00000657,-0.00033099,-0.0001792
 8,0.00071967,-0.00002822,-0.00040061,0.00000142,-0.00140674,0.00061249
 ,0.00108898,0.00064944,0.00049695,0.00063477,0.05511859,0.08114905,-0.
 00007643,0.00000626,-0.00012597,0.00041666,0.00029333,-0.00025992,-0.0
 0007919,-0.00002055,0.00007716,0.00006277,0.00004788,-0.00004233,0.000
 04275,0.00005828,-0.00001632,-0.00004439,-0.00005960,0.00000879,-0.000
 02859,-0.00003023,0.00001269,0.00000337,-0.00002190,0.00000984,0.00001
 161,0.00001158,-0.00002064,-0.00000328,-0.00000212,-0.00000250,-0.0000
 1699,0.00002129,0.00000989,0.00001343,-0.00003051,-0.00000245,-0.00003
 289,0.00000816,0.00001684,0.00144231,0.00028190,0.00249767,0.00471190,
 0.00813785,0.00359546,-0.11888403,-0.14980563,-0.32562401,0.00003913,0
 .00003666,-0.00004704,-0.00000114,-0.00000343,0.00000334,0.00000988,0.
 00000892,-0.00000233,-0.00001306,-0.00000032,-0.00000029,0.00000393,0.
 00000649,-0.00000160,0.00000254,0.00000025,0.00000075,-0.00000171,-0.0
 0000183,-0.00000222,0.00004073,-0.00001789,-0.00000408,-0.00019357,-0.
 00058506,-0.00008415,-0.00006204,-0.00006281,-0.00011917,0.00026557,0.
 00097253,0.00176553,-0.00054623,-0.00016096,0.00015739,0.12103267,0.13
 993510,0.33240861,0.00027685,-0.00006257,0.00010627,-0.00017053,-0.000
 09939,-0.00044634,0.00031158,0.00013084,-0.00012344,-0.00006838,-0.000
 01344,-0.00002806,-0.00005194,-0.00003569,0.00002162,0.00004584,0.0000
 4996,-0.00000637,0.00004388,0.00000893,-0.00002791,-0.00001651,0.00002
 837,-0.00000141,-0.00000556,0.00003453,-0.00001425,-0.00000870,0.00000
 478,0.00002181,-0.00001439,-0.00002845,0.00001317,0.00003075,-0.000038
 02,-0.00003103,-0.00003755,-0.00001534,-0.00001221,0.00165383,0.000628
 00,-0.00011999,-0.02343821,0.02717981,0.01237018,-0.20643948,0.1500070
 1,0.09211709,-0.00001330,0.00000385,0.00001598,0.00001502,0.00001750,-
 0.00001112,-0.00001027,-0.00000122,0.00000137,0.00000930,-0.00000642,0
 .00000116,-0.00000269,-0.00000837,-0.00000090,-0.00000200,0.00000003,0
 .00000439,0.00001965,-0.00001053,0.00001112,0.00003973,0.00009498,0.00
 002849,0.00003008,-0.00011110,0.00001225,0.00018893,-0.00110001,0.0006
 4658,0.00079434,0.00020953,-0.00066312,-0.00588366,-0.00385821,0.00031
 301,0.01065410,-0.01074053,-0.00811572,0.22204929,0.00028636,0.0000354
 2,0.00015376,-0.00057906,-0.00060490,-0.00007171,0.00025667,0.00011706
 ,-0.00013051,-0.00011877,-0.00001567,0.00001360,-0.00009894,-0.0000811
 6,0.00002518,0.00008622,0.00009955,-0.00001123,0.00007542,0.00003347,-
 0.00003728,-0.00001284,0.00002104,-0.00000699,-0.00001196,0.00000132,0
 .00002206,-0.00000341,0.00000589,0.00000694,0.00002092,-0.00002616,-0.
 00000704,-0.00000436,0.00001952,0.00000962,0.00004863,-0.00001465,-0.0
 0001859,-0.00146365,0.00206104,0.00014013,-0.01441903,0.00766010,0.011
 13009,0.16908516,-0.21299153,-0.13604410,-0.00001466,-0.00000838,0.000
 03988,0.00001161,0.00001124,-0.00000944,-0.00001612,-0.00001237,0.0000
 0379,0.00001331,0.00000063,-0.00000487,-0.00000928,-0.00000924,-0.0000
 0087,-0.00000330,0.00000111,-0.00000171,-0.00000709,-0.00000253,-0.000
 00616,-0.00004231,0.00003010,-0.00001525,0.00010576,-0.00008522,-0.000
 03654,0.00035675,-0.00034570,-0.00026991,0.00073305,0.00044076,-0.0001
 0707,-0.00221922,0.00055678,0.00092063,0.01021301,-0.01138197,0.000976
 37,-0.16226887,0.21448444,-0.00048806,-0.00022401,-0.00052138,0.000849
 05,0.00066973,0.00064328,-0.00053830,-0.00021569,0.00010585,0.00015708
 ,0.00006600,0.00001758,0.00012900,0.00015937,-0.00001928,-0.00012615,-
 0.00016212,0.00000874,-0.00009813,-0.00007273,0.00001641,0.00001609,-0
 .00003770,0.00002496,0.00001689,0.00001107,-0.00004901,0.00000041,-0.0
 0000703,-0.00000420,-0.00003790,0.00004256,0.00001386,0.00002599,-0.00
 005470,-0.00001703,-0.00010460,0.00001577,0.00002117,-0.00065271,-0.00
 151158,-0.00021767,0.00567053,-0.00028420,-0.00250004,0.06918241,-0.09
 946188,-0.08160667,0.00004309,0.00000590,-0.00008218,-0.00002820,-0.00
 003185,0.00001974,0.00002640,0.00002304,0.00000165,-0.00002694,-0.0000
 0126,0.00000304,0.00001317,0.00001468,-0.00000117,0.00000607,-0.000000
 75,0.00000334,0.00000976,0.00000168,0.00001200,0.00009975,-0.00002928,
 0.00005838,0.00010737,0.00000013,-0.00018638,0.00017687,0.00062251,0.0
 0001265,-0.00075231,0.00041555,0.00028327,-0.00118345,0.00052092,0.001
 43179,0.02358946,-0.02381137,-0.01420897,-0.09608262,0.12333724,0.0967
 3626\\0.00000016,0.00000318,-0.00000025,0.00000243,-0.00000256,-0.0000
 0063,-0.00000202,-0.00000205,0.00000134,0.00000124,0.00000132,0.000001
 41,0.00000334,0.00000152,-0.00000454,0.00000055,0.00000111,0.00000123,
 -0.00000060,-0.00000195,0.00000032,-0.00000117,0.00000023,-0.00000120,
 0.00000038,-0.00000096,0.00000031,-0.00000029,0.00000003,0.00000010,-0
 .00000005,0.00000014,-0.00000012,0.00000010,0.00000092,0.00000023,0.00
 000075,-0.00000112,-0.00000053,0.00000025,-0.00000326,0.00000014,-0.00
 000082,0.00000141,-0.00000025,-0.00000017,-0.00000056,0.00000135,-0.00
 000046,0.00000071,-0.00000036,-0.00000087,-0.00000089,0.00000034,-0.00
 000065,-0.00000041,-0.00000099,-0.00000161,0.00000135,-0.00000211,-0.0
 0000123,-0.00000083,0.00000069,-0.00000011,-0.00000021,-0.00000019,0.0
 0000007,0.00000037,0.00000028,0.00000009,0.00000083,0.00000060,0.00000
 035,0.00000090,0.00000034,-0.00000002,0.00000069,-0.00000007,-0.000000
 03,-0.00000068,0.00000037,0.00000009,0.00000039,0.00000120,0.00000011,
 0.00000034,0.00000063,0.00000019,0.00000004,0.00000038\\\@


 MOM AND DAD WENT TO ALPHA CENTAURI AND ALL
 I GOT WAS THIS DUMB T-SHIRT.
 Job cpu time:       0 days  4 hours 54 minutes 28.2 seconds.
 File lengths (MBytes):  RWF=    542 Int=      0 D2E=      0 Chk=     17 Scr=      1
 Normal termination of Gaussian 09 at Thu Jul 29 01:37:37 2021.
