 Entering Gaussian System, Link 0=g09
 Input=opt_freq-conf-640.com
 Output=opt_freq-conf-640.log
 Initial command:
 /aerosol/software/g09/l1.exe "/scratch/nicole/10559/Gau-102612.inp" -scrdir="/scratch/nicole/10559/"
 Entering Link 1 = /aerosol/software/g09/l1.exe PID=    102621.
  
 Copyright (c) 1988,1990,1992,1993,1995,1998,2003,2009,2013,
            Gaussian, Inc.  All Rights Reserved.
  
 This is part of the Gaussian(R) 09 program.  It is based on
 the Gaussian(R) 03 system (copyright 2003, Gaussian, Inc.),
 the Gaussian(R) 98 system (copyright 1998, Gaussian, Inc.),
 the Gaussian(R) 94 system (copyright 1995, Gaussian, Inc.),
 the Gaussian 92(TM) system (copyright 1992, Gaussian, Inc.),
 the Gaussian 90(TM) system (copyright 1990, Gaussian, Inc.),
 the Gaussian 88(TM) system (copyright 1988, Gaussian, Inc.),
 the Gaussian 86(TM) system (copyright 1986, Carnegie Mellon
 University), and the Gaussian 82(TM) system (copyright 1983,
 Carnegie Mellon University). Gaussian is a federally registered
 trademark of Gaussian, Inc.
  
 This software contains proprietary and confidential information,
 including trade secrets, belonging to Gaussian, Inc.
  
 This software is provided under written license and may be
 used, copied, transmitted, or stored only in accord with that
 written license.
  
 The following legend is applicable only to US Government
 contracts under FAR:
  
                    RESTRICTED RIGHTS LEGEND
  
 Use, reproduction and disclosure by the US Government is
 subject to restrictions as set forth in subparagraphs (a)
 and (c) of the Commercial Computer Software - Restricted
 Rights clause in FAR 52.227-19.
  
 Gaussian, Inc.
 340 Quinnipiac St., Bldg. 40, Wallingford CT 06492
  
  
 ---------------------------------------------------------------
 Warning -- This program may not be used in any manner that
 competes with the business of Gaussian, Inc. or will provide
 assistance to any competitor of Gaussian, Inc.  The licensee
 of this program is prohibited from giving any competitor of
 Gaussian, Inc. access to this program.  By using this program,
 the user acknowledges that Gaussian, Inc. is engaged in the
 business of creating and licensing software in the field of
 computational chemistry and represents and warrants to the
 licensee that it is not a competitor of Gaussian, Inc. and that
 it will not use this program in any manner prohibited above.
 ---------------------------------------------------------------
  

 Cite this work as:
 Gaussian 09, Revision D.01,
 M. J. Frisch, G. W. Trucks, H. B. Schlegel, G. E. Scuseria, 
 M. A. Robb, J. R. Cheeseman, G. Scalmani, V. Barone, B. Mennucci, 
 G. A. Petersson, H. Nakatsuji, M. Caricato, X. Li, H. P. Hratchian, 
 A. F. Izmaylov, J. Bloino, G. Zheng, J. L. Sonnenberg, M. Hada, 
 M. Ehara, K. Toyota, R. Fukuda, J. Hasegawa, M. Ishida, T. Nakajima, 
 Y. Honda, O. Kitao, H. Nakai, T. Vreven, J. A. Montgomery, Jr., 
 J. E. Peralta, F. Ogliaro, M. Bearpark, J. J. Heyd, E. Brothers, 
 K. N. Kudin, V. N. Staroverov, T. Keith, R. Kobayashi, J. Normand, 
 K. Raghavachari, A. Rendell, J. C. Burant, S. S. Iyengar, J. Tomasi, 
 M. Cossi, N. Rega, J. M. Millam, M. Klene, J. E. Knox, J. B. Cross, 
 V. Bakken, C. Adamo, J. Jaramillo, R. Gomperts, R. E. Stratmann, 
 O. Yazyev, A. J. Austin, R. Cammi, C. Pomelli, J. W. Ochterski, 
 R. L. Martin, K. Morokuma, V. G. Zakrzewski, G. A. Voth, 
 P. Salvador, J. J. Dannenberg, S. Dapprich, A. D. Daniels, 
 O. Farkas, J. B. Foresman, J. V. Ortiz, J. Cioslowski, 
 and D. J. Fox, Gaussian, Inc., Wallingford CT, 2013.
 
 ******************************************
 Gaussian 09:  ES64L-G09RevD.01 24-Apr-2013
                28-Jul-2021 
 ******************************************
 %mem=2gb
 %nproc=4
 Will use up to    4 processors via shared memory.
 %chk=conf-640.chk
 ----------------------------------------------------------------------
 # B3LYP/6-311++G(d,p) opt=calcfc freq=noraman nosymm integral(ultrafin
 egrid)
 ----------------------------------------------------------------------
 1/10=4,14=-1,18=20,19=15,26=4,38=1/1,3;
 2/9=110,12=2,15=1,17=6,18=5,40=1/2;
 3/5=4,6=6,7=1111,11=2,16=1,25=1,30=1,71=2,74=-5,75=-5,140=1/1,2,3;
 4//1;
 5/5=2,38=5/2;
 8/6=4,10=90,11=11/1;
 11/6=1,8=1,9=11,15=111,16=1,31=1/1,2,10;
 10/6=1,13=1,31=1/2;
 6/7=2,8=2,9=2,10=2,28=1/1;
 7/10=1,18=20,25=1,30=1/1,2,3,16;
 1/10=4,14=-1,18=20,19=15,26=4/3(2);
 2/9=110,15=1/2;
 99//99;
 2/9=110,15=1/2;
 3/5=4,6=6,7=1111,11=2,16=1,25=1,30=1,71=1,74=-5,75=-5/1,2,3;
 4/5=5,16=3,69=1/1;
 5/5=2,38=5/2;
 7/30=1/1,2,3,16;
 1/14=-1,18=20,19=15,26=4/3(-5);
 2/9=110,15=1/2;
 6/7=2,8=2,9=2,10=2,19=2,28=1/1;
 99/9=1/99;
 ------------------------------------------------------------
 Candidate Structure: Conf:640 OPT and FREQ calc in gas phase
 ------------------------------------------------------------
 Symbolic Z-matrix:
 Charge =  0 Multiplicity = 1
 O                     0.92904  -1.24196  -0.873 
 C                     1.14845  -0.10723  -0.44526 
 N                     0.2273    0.87891  -0.54866 
 C                    -0.97462   0.70331  -1.33263 
 C                    -1.08429   1.83216  -2.33354 
 O                    -1.97773   1.54387  -3.30167 
 O                    -0.49299   2.87836  -2.27439 
 C                    -2.26049   0.68855  -0.4937 
 C                    -2.33041  -0.37329   0.56466 
 C                    -3.14952  -0.49021   1.64953 
 N                    -2.89099  -1.66012   2.3362 
 C                    -1.92679  -2.23652   1.662 
 N                    -1.55644  -1.50578   0.58175 
 C                     2.45641   0.27932   0.21253 
 C                     3.08644  -0.86428   1.00797 
 N                     4.40372  -0.56311   1.56443 
 H                     0.49677   1.83106  -0.35097 
 H                    -0.88867  -0.23908  -1.87118 
 H                    -2.00681   2.31839  -3.87722 
 H                    -3.09639   0.5662   -1.18687 
 H                    -2.4066    1.65964  -0.01709 
 H                    -3.91554   0.19426   1.98446 
 H                    -1.45505  -3.17397   1.89963 
 H                    -0.77922  -1.70241  -0.03841 
 H                     2.29431   1.15407   0.84898 
 H                     3.14994   0.58266  -0.5804 
 H                     2.43604  -1.14432   1.83845 
 H                     3.16991  -1.73687   0.3616 
 H                     4.3486    0.23292   2.18976 
 H                     5.04569  -0.30467   0.82302 
 

 GradGradGradGradGradGradGradGradGradGradGradGradGradGradGradGradGradGrad
 Berny optimization.
 Initialization pass.
                           ----------------------------
                           !    Initial Parameters    !
                           ! (Angstroms and Degrees)  !
 --------------------------                            --------------------------
 ! Name  Definition              Value          Derivative Info.                !
 --------------------------------------------------------------------------------
 ! R1    R(1,2)                  1.2324         calculate D2E/DX2 analytically  !
 ! R2    R(2,3)                  1.3534         calculate D2E/DX2 analytically  !
 ! R3    R(2,14)                 1.5142         calculate D2E/DX2 analytically  !
 ! R4    R(3,4)                  1.4457         calculate D2E/DX2 analytically  !
 ! R5    R(3,17)                 1.0091         calculate D2E/DX2 analytically  !
 ! R6    R(4,5)                  1.5127         calculate D2E/DX2 analytically  !
 ! R7    R(4,8)                  1.5354         calculate D2E/DX2 analytically  !
 ! R8    R(4,18)                 1.0888         calculate D2E/DX2 analytically  !
 ! R9    R(5,6)                  1.3486         calculate D2E/DX2 analytically  !
 ! R10   R(5,7)                  1.2032         calculate D2E/DX2 analytically  !
 ! R11   R(6,19)                 0.9654         calculate D2E/DX2 analytically  !
 ! R12   R(8,9)                  1.5008         calculate D2E/DX2 analytically  !
 ! R13   R(8,20)                 1.0928         calculate D2E/DX2 analytically  !
 ! R14   R(8,21)                 1.0916         calculate D2E/DX2 analytically  !
 ! R15   R(9,10)                 1.3644         calculate D2E/DX2 analytically  !
 ! R16   R(9,13)                 1.3718         calculate D2E/DX2 analytically  !
 ! R17   R(10,11)                1.381          calculate D2E/DX2 analytically  !
 ! R18   R(10,22)                1.0805         calculate D2E/DX2 analytically  !
 ! R19   R(11,12)                1.3101         calculate D2E/DX2 analytically  !
 ! R20   R(12,13)                1.3558         calculate D2E/DX2 analytically  !
 ! R21   R(12,23)                1.076          calculate D2E/DX2 analytically  !
 ! R22   R(13,24)                1.0136         calculate D2E/DX2 analytically  !
 ! R23   R(14,15)                1.5289         calculate D2E/DX2 analytically  !
 ! R24   R(14,25)                1.0939         calculate D2E/DX2 analytically  !
 ! R25   R(14,26)                1.0962         calculate D2E/DX2 analytically  !
 ! R26   R(15,16)                1.4614         calculate D2E/DX2 analytically  !
 ! R27   R(15,27)                1.0914         calculate D2E/DX2 analytically  !
 ! R28   R(15,28)                1.0891         calculate D2E/DX2 analytically  !
 ! R29   R(16,29)                1.0138         calculate D2E/DX2 analytically  !
 ! R30   R(16,30)                1.0142         calculate D2E/DX2 analytically  !
 ! A1    A(1,2,3)              121.5484         calculate D2E/DX2 analytically  !
 ! A2    A(1,2,14)             122.6579         calculate D2E/DX2 analytically  !
 ! A3    A(3,2,14)             115.7913         calculate D2E/DX2 analytically  !
 ! A4    A(2,3,4)              121.2506         calculate D2E/DX2 analytically  !
 ! A5    A(2,3,17)             119.3924         calculate D2E/DX2 analytically  !
 ! A6    A(4,3,17)             116.2863         calculate D2E/DX2 analytically  !
 ! A7    A(3,4,5)              109.175          calculate D2E/DX2 analytically  !
 ! A8    A(3,4,8)              113.6491         calculate D2E/DX2 analytically  !
 ! A9    A(3,4,18)             107.922          calculate D2E/DX2 analytically  !
 ! A10   A(5,4,8)              107.9384         calculate D2E/DX2 analytically  !
 ! A11   A(5,4,18)             108.9258         calculate D2E/DX2 analytically  !
 ! A12   A(8,4,18)             109.1496         calculate D2E/DX2 analytically  !
 ! A13   A(4,5,6)              111.317          calculate D2E/DX2 analytically  !
 ! A14   A(4,5,7)              125.5017         calculate D2E/DX2 analytically  !
 ! A15   A(6,5,7)              123.1454         calculate D2E/DX2 analytically  !
 ! A16   A(5,6,19)             106.0485         calculate D2E/DX2 analytically  !
 ! A17   A(4,8,9)              115.5387         calculate D2E/DX2 analytically  !
 ! A18   A(4,8,20)             107.1636         calculate D2E/DX2 analytically  !
 ! A19   A(4,8,21)             110.0055         calculate D2E/DX2 analytically  !
 ! A20   A(9,8,20)             109.4183         calculate D2E/DX2 analytically  !
 ! A21   A(9,8,21)             108.3769         calculate D2E/DX2 analytically  !
 ! A22   A(20,8,21)            105.9131         calculate D2E/DX2 analytically  !
 ! A23   A(8,9,10)             130.4895         calculate D2E/DX2 analytically  !
 ! A24   A(8,9,13)             124.5113         calculate D2E/DX2 analytically  !
 ! A25   A(10,9,13)            104.9555         calculate D2E/DX2 analytically  !
 ! A26   A(9,10,11)            110.8288         calculate D2E/DX2 analytically  !
 ! A27   A(9,10,22)            128.1563         calculate D2E/DX2 analytically  !
 ! A28   A(11,10,22)           121.0148         calculate D2E/DX2 analytically  !
 ! A29   A(10,11,12)           104.7504         calculate D2E/DX2 analytically  !
 ! A30   A(11,12,13)           111.9587         calculate D2E/DX2 analytically  !
 ! A31   A(11,12,23)           126.3198         calculate D2E/DX2 analytically  !
 ! A32   A(13,12,23)           121.7214         calculate D2E/DX2 analytically  !
 ! A33   A(9,13,12)            107.5037         calculate D2E/DX2 analytically  !
 ! A34   A(9,13,24)            125.8148         calculate D2E/DX2 analytically  !
 ! A35   A(12,13,24)           126.3288         calculate D2E/DX2 analytically  !
 ! A36   A(2,14,15)            113.0179         calculate D2E/DX2 analytically  !
 ! A37   A(2,14,25)            109.2018         calculate D2E/DX2 analytically  !
 ! A38   A(2,14,26)            107.6311         calculate D2E/DX2 analytically  !
 ! A39   A(15,14,25)           110.8868         calculate D2E/DX2 analytically  !
 ! A40   A(15,14,26)           108.8199         calculate D2E/DX2 analytically  !
 ! A41   A(25,14,26)           107.0571         calculate D2E/DX2 analytically  !
 ! A42   A(14,15,16)           114.5457         calculate D2E/DX2 analytically  !
 ! A43   A(14,15,27)           110.0138         calculate D2E/DX2 analytically  !
 ! A44   A(14,15,28)           108.7903         calculate D2E/DX2 analytically  !
 ! A45   A(16,15,27)           107.476          calculate D2E/DX2 analytically  !
 ! A46   A(16,15,28)           108.7849         calculate D2E/DX2 analytically  !
 ! A47   A(27,15,28)           106.9591         calculate D2E/DX2 analytically  !
 ! A48   A(15,16,29)           110.346          calculate D2E/DX2 analytically  !
 ! A49   A(15,16,30)           110.1652         calculate D2E/DX2 analytically  !
 ! A50   A(29,16,30)           106.5732         calculate D2E/DX2 analytically  !
 ! D1    D(1,2,3,4)             -9.0351         calculate D2E/DX2 analytically  !
 ! D2    D(1,2,3,17)          -168.4865         calculate D2E/DX2 analytically  !
 ! D3    D(14,2,3,4)           170.4087         calculate D2E/DX2 analytically  !
 ! D4    D(14,2,3,17)           10.9574         calculate D2E/DX2 analytically  !
 ! D5    D(1,2,14,15)          -33.549          calculate D2E/DX2 analytically  !
 ! D6    D(1,2,14,25)         -157.4765         calculate D2E/DX2 analytically  !
 ! D7    D(1,2,14,26)           86.6363         calculate D2E/DX2 analytically  !
 ! D8    D(3,2,14,15)          147.014          calculate D2E/DX2 analytically  !
 ! D9    D(3,2,14,25)           23.0865         calculate D2E/DX2 analytically  !
 ! D10   D(3,2,14,26)          -92.8008         calculate D2E/DX2 analytically  !
 ! D11   D(2,3,4,5)           -125.8807         calculate D2E/DX2 analytically  !
 ! D12   D(2,3,4,8)            113.5711         calculate D2E/DX2 analytically  !
 ! D13   D(2,3,4,18)            -7.6271         calculate D2E/DX2 analytically  !
 ! D14   D(17,3,4,5)            34.1759         calculate D2E/DX2 analytically  !
 ! D15   D(17,3,4,8)           -86.3724         calculate D2E/DX2 analytically  !
 ! D16   D(17,3,4,18)          152.4295         calculate D2E/DX2 analytically  !
 ! D17   D(3,4,5,6)            164.2008         calculate D2E/DX2 analytically  !
 ! D18   D(3,4,5,7)            -17.9287         calculate D2E/DX2 analytically  !
 ! D19   D(8,4,5,6)            -71.8144         calculate D2E/DX2 analytically  !
 ! D20   D(8,4,5,7)            106.0562         calculate D2E/DX2 analytically  !
 ! D21   D(18,4,5,6)            46.5777         calculate D2E/DX2 analytically  !
 ! D22   D(18,4,5,7)          -135.5517         calculate D2E/DX2 analytically  !
 ! D23   D(3,4,8,9)            -58.5958         calculate D2E/DX2 analytically  !
 ! D24   D(3,4,8,20)           179.1816         calculate D2E/DX2 analytically  !
 ! D25   D(3,4,8,21)            64.4837         calculate D2E/DX2 analytically  !
 ! D26   D(5,4,8,9)           -179.8379         calculate D2E/DX2 analytically  !
 ! D27   D(5,4,8,20)            57.9396         calculate D2E/DX2 analytically  !
 ! D28   D(5,4,8,21)           -56.7584         calculate D2E/DX2 analytically  !
 ! D29   D(18,4,8,9)            61.9133         calculate D2E/DX2 analytically  !
 ! D30   D(18,4,8,20)          -60.3092         calculate D2E/DX2 analytically  !
 ! D31   D(18,4,8,21)         -175.0072         calculate D2E/DX2 analytically  !
 ! D32   D(4,5,6,19)           178.314          calculate D2E/DX2 analytically  !
 ! D33   D(7,5,6,19)             0.3845         calculate D2E/DX2 analytically  !
 ! D34   D(4,8,9,10)           163.5485         calculate D2E/DX2 analytically  !
 ! D35   D(4,8,9,13)           -19.2303         calculate D2E/DX2 analytically  !
 ! D36   D(20,8,9,10)          -75.4396         calculate D2E/DX2 analytically  !
 ! D37   D(20,8,9,13)          101.7816         calculate D2E/DX2 analytically  !
 ! D38   D(21,8,9,10)           39.6128         calculate D2E/DX2 analytically  !
 ! D39   D(21,8,9,13)         -143.166          calculate D2E/DX2 analytically  !
 ! D40   D(8,9,10,11)          178.0604         calculate D2E/DX2 analytically  !
 ! D41   D(8,9,10,22)           -1.8368         calculate D2E/DX2 analytically  !
 ! D42   D(13,9,10,11)           0.4303         calculate D2E/DX2 analytically  !
 ! D43   D(13,9,10,22)        -179.4669         calculate D2E/DX2 analytically  !
 ! D44   D(8,9,13,12)         -178.3463         calculate D2E/DX2 analytically  !
 ! D45   D(8,9,13,24)            8.1382         calculate D2E/DX2 analytically  !
 ! D46   D(10,9,13,12)          -0.5334         calculate D2E/DX2 analytically  !
 ! D47   D(10,9,13,24)        -174.049          calculate D2E/DX2 analytically  !
 ! D48   D(9,10,11,12)          -0.1528         calculate D2E/DX2 analytically  !
 ! D49   D(22,10,11,12)        179.7528         calculate D2E/DX2 analytically  !
 ! D50   D(10,11,12,13)         -0.201          calculate D2E/DX2 analytically  !
 ! D51   D(10,11,12,23)        179.7219         calculate D2E/DX2 analytically  !
 ! D52   D(11,12,13,9)           0.4761         calculate D2E/DX2 analytically  !
 ! D53   D(11,12,13,24)        173.949          calculate D2E/DX2 analytically  !
 ! D54   D(23,12,13,9)        -179.4508         calculate D2E/DX2 analytically  !
 ! D55   D(23,12,13,24)         -5.978          calculate D2E/DX2 analytically  !
 ! D56   D(2,14,15,16)         175.1479         calculate D2E/DX2 analytically  !
 ! D57   D(2,14,15,27)         -63.6736         calculate D2E/DX2 analytically  !
 ! D58   D(2,14,15,28)          53.1883         calculate D2E/DX2 analytically  !
 ! D59   D(25,14,15,16)        -61.8547         calculate D2E/DX2 analytically  !
 ! D60   D(25,14,15,27)         59.3238         calculate D2E/DX2 analytically  !
 ! D61   D(25,14,15,28)        176.1857         calculate D2E/DX2 analytically  !
 ! D62   D(26,14,15,16)         55.645          calculate D2E/DX2 analytically  !
 ! D63   D(26,14,15,27)        176.8234         calculate D2E/DX2 analytically  !
 ! D64   D(26,14,15,28)        -66.3147         calculate D2E/DX2 analytically  !
 ! D65   D(14,15,16,29)         59.4691         calculate D2E/DX2 analytically  !
 ! D66   D(14,15,16,30)        -57.9352         calculate D2E/DX2 analytically  !
 ! D67   D(27,15,16,29)        -63.0946         calculate D2E/DX2 analytically  !
 ! D68   D(27,15,16,30)        179.5011         calculate D2E/DX2 analytically  !
 ! D69   D(28,15,16,29)       -178.5683         calculate D2E/DX2 analytically  !
 ! D70   D(28,15,16,30)         64.0274         calculate D2E/DX2 analytically  !
 --------------------------------------------------------------------------------
 Trust Radius=3.00D-01 FncErr=1.00D-07 GrdErr=1.00D-06
 Number of steps in this run=    160 maximum allowed number of steps=    180.
 GradGradGradGradGradGradGradGradGradGradGradGradGradGradGradGradGradGrad

                          Input orientation:                          
 ---------------------------------------------------------------------
 Center     Atomic      Atomic             Coordinates (Angstroms)
 Number     Number       Type             X           Y           Z
 ---------------------------------------------------------------------
      1          8           0        0.929043   -1.241963   -0.873004
      2          6           0        1.148453   -0.107229   -0.445265
      3          7           0        0.227295    0.878910   -0.548664
      4          6           0       -0.974618    0.703315   -1.332629
      5          6           0       -1.084293    1.832158   -2.333541
      6          8           0       -1.977728    1.543869   -3.301668
      7          8           0       -0.492986    2.878356   -2.274390
      8          6           0       -2.260494    0.688548   -0.493701
      9          6           0       -2.330413   -0.373288    0.564662
     10          6           0       -3.149524   -0.490207    1.649530
     11          7           0       -2.890995   -1.660122    2.336198
     12          6           0       -1.926786   -2.236516    1.661995
     13          7           0       -1.556443   -1.505777    0.581748
     14          6           0        2.456413    0.279321    0.212533
     15          6           0        3.086444   -0.864276    1.007965
     16          7           0        4.403718   -0.563113    1.564429
     17          1           0        0.496774    1.831061   -0.350975
     18          1           0       -0.888672   -0.239080   -1.871181
     19          1           0       -2.006809    2.318387   -3.877224
     20          1           0       -3.096390    0.566200   -1.186873
     21          1           0       -2.406602    1.659641   -0.017086
     22          1           0       -3.915536    0.194263    1.984460
     23          1           0       -1.455054   -3.173967    1.899627
     24          1           0       -0.779216   -1.702408   -0.038411
     25          1           0        2.294314    1.154066    0.848976
     26          1           0        3.149944    0.582658   -0.580398
     27          1           0        2.436040   -1.144321    1.838451
     28          1           0        3.169914   -1.736868    0.361604
     29          1           0        4.348596    0.232922    2.189758
     30          1           0        5.045691   -0.304669    0.823024
 ---------------------------------------------------------------------
                    Distance matrix (angstroms):
                    1          2          3          4          5
     1  O    0.000000
     2  C    1.232365   0.000000
     3  N    2.257377   1.353401   0.000000
     4  C    2.760306   2.439637   1.445694   0.000000
     5  C    3.954354   3.508841   2.411375   1.512660   0.000000
     6  O    4.701977   4.545126   3.589335   2.364291   1.348557
     7  O    4.578546   3.867007   2.737648   2.418612   1.203193
     8  C    3.747518   3.500932   2.495667   1.535413   2.465016
     9  C    3.666815   3.632251   3.057673   2.568456   3.849206
    10  C    4.854176   4.796607   4.255520   3.879173   5.052070
    11  N    5.006648   5.144429   4.949025   4.766406   6.104642
    12  C    3.946025   4.293192   4.385540   4.303139   5.764391
    13  N    2.891979   3.213588   3.185324   2.980511   4.456865
    14  C    2.413619   1.514225   2.430616   3.786723   4.629298
    15  C    2.887053   2.537875   3.692767   4.942464   5.985940
    16  N    4.298288   3.852720   4.897663   6.238853   7.144912
    17  H    3.146880   2.047082   1.009104   2.097726   2.535812
    18  H    2.303523   2.490080   2.060178   1.088821   2.131213
    19  H    5.506419   5.255248   4.259416   3.185724   1.862904
    20  H    4.424034   4.361442   3.398820   2.131187   2.639323
    21  H    4.503158   3.992941   2.798130   2.166978   2.672869
    22  H    5.804979   5.624805   4.903928   4.462198   5.416989
    23  H    4.135703   4.656355   5.024962   5.070662   6.566465
    24  H    1.956197   2.534963   2.817203   2.738739   4.225382
    25  H    3.251175   2.139842   2.510314   3.955818   4.690758
    26  H    2.889163   2.121361   2.937796   4.194332   4.750108
    27  H    3.103637   2.819361   3.830188   5.010200   6.217531
    28  H    2.605895   2.719019   4.041025   5.099222   6.172522
    29  H    4.821737   4.159323   4.990128   6.400398   7.248040
    30  H    4.549926   4.103170   5.147749   6.473561   7.218493
                    6          7          8          9         10
     6  O    0.000000
     7  O    2.245131   0.000000
     8  C    2.948933   3.330194   0.000000
     9  C    4.329940   4.691432   1.500838   0.000000
    10  C    5.479500   5.813911   2.602552   1.364387   0.000000
    11  N    6.548675   6.899692   3.731235   2.260207   1.380960
    12  C    6.239539   6.611567   3.648888   2.199698   2.131862
    13  N    4.955677   5.339390   2.543097   1.371806   2.170126
    14  C    5.797439   4.651745   4.787007   4.843923   5.838121
    15  C    7.072336   6.131352   5.766802   5.457099   6.280034
    16  N    8.297055   7.110412   7.086203   6.810586   7.554073
    17  H    3.861636   2.403327   2.988015   3.700072   4.762961
    18  H    2.532043   3.168209   2.154028   2.833718   4.191649
    19  H    0.965395   2.274709   3.764167   5.203862   6.303888
    20  H    2.584491   3.647803   1.092785   2.130078   3.027210
    21  H    3.314486   3.200408   1.091573   2.115901   2.819821
    22  H    5.789618   6.087364   3.020722   2.202397   1.080487
    23  H    7.041635   7.414756   4.614734   3.223692   3.183762
    24  H    4.756426   5.105383   2.849236   2.129899   3.152290
    25  H    5.969098   4.527432   4.771348   4.878703   5.742811
    26  H    5.884068   4.627178   5.412168   5.679727   6.768080
    27  H    7.288932   6.455741   5.554797   4.993606   5.626906
    28  H    7.119060   6.454889   6.008620   5.670465   6.568730
    29  H    8.479193   7.097032   7.147630   6.900550   7.552256
    30  H    8.352161   7.099476   7.490032   7.380946   8.238876
                   11         12         13         14         15
    11  N    0.000000
    12  C    1.310143   0.000000
    13  N    2.209738   1.355753   0.000000
    14  C    6.071751   5.257642   4.407482   0.000000
    15  C    6.174735   5.238633   4.706334   1.528877   0.000000
    16  N    7.417000   6.548670   6.113738   2.515813   1.461356
    17  H    5.557539   5.144986   4.027426   2.562347   3.977179
    18  H    4.871416   4.189363   2.840299   3.974946   4.947919
    19  H    7.430809   7.171923   5.891476   6.387821   7.741812
    20  H    4.172617   4.164041   3.129305   5.733607   6.714984
    21  H    4.097976   4.269610   3.331853   5.060328   6.131431
    22  H    2.147591   3.157181   3.228475   6.614278   7.148550
    23  H    2.131724   1.076018   2.128366   5.483707   5.172517
    24  H    3.178075   2.119804   1.013579   3.802567   4.091540
    25  H    6.084316   5.474918   4.687696   1.093853   2.174041
    26  H    7.073156   6.224890   5.278467   1.096239   2.149546
    27  H    5.375044   4.500919   4.201175   2.161199   1.091402
    28  H    6.374914   5.283656   4.737121   2.143903   1.089113
    29  H    7.484433   6.764398   6.362252   2.737139   2.047805
    30  H    8.192553   7.283635   6.714837   2.723620   2.045974
                   16         17         18         19         20
    16  N    0.000000
    17  H    4.966392   0.000000
    18  H    6.318054   2.918214   0.000000
    19  H    8.888728   4.351994   3.437306   0.000000
    20  H    8.068248   3.899926   2.447605   3.390476   0.000000
    21  H    7.336367   2.927535   3.057273   3.936299   1.743509
    22  H    8.364211   5.253745   4.920940   6.520312   3.296466
    23  H    6.422937   5.824530   4.811792   7.990143   5.119504
    24  H    5.543455   3.769782   2.347841   5.693001   3.440181
    25  H    2.812501   2.264808   4.412653   6.495558   5.792232
    26  H    2.735877   2.941166   4.318772   6.361912   6.275728
    27  H    2.069939   4.172198   5.063056   8.024848   6.533471
    28  H    2.084889   4.514816   4.868348   7.823759   6.853354
    29  H    1.013779   4.883227   6.644019   9.030427   8.181719
    30  H    1.014201   5.160645   6.517646   8.871894   8.431582
                   21         22         23         24         25
    21  H    0.000000
    22  H    2.903515   0.000000
    23  H    5.286114   4.172067   0.000000
    24  H    3.735267   4.186390   2.525516   0.000000
    25  H    4.806691   6.385356   5.821811   4.288763   0.000000
    26  H    5.687918   7.526642   6.439624   4.577508   1.761170
    27  H    5.895456   6.492737   4.389056   3.764564   2.506338
    28  H    6.540429   7.521072   5.081446   3.969487   3.059690
    29  H    7.248337   8.266772   6.735980   5.916477   2.620358
    30  H    7.752481   9.049942   7.186906   6.051883   3.114266
                   26         27         28         29         30
    26  H    0.000000
    27  H    3.056623   0.000000
    28  H    2.503591   1.752359   0.000000
    29  H    3.038559   2.382874   2.934538   0.000000
    30  H    2.520079   2.923421   2.404713   1.625701   0.000000
 Symmetry turned off by external request.
 Stoichiometry    C9H14N4O3
 Framework group  C1[X(C9H14N4O3)]
 Deg. of freedom    84
 Full point group                 C1      NOp   1
 Rotational constants (GHZ):      0.5050640      0.4053310      0.2477507
 Standard basis: 6-311++G(d,p) (5D, 7F)
   450 basis functions,   702 primitive gaussians,   466 cartesian basis functions
    60 alpha electrons       60 beta electrons
       nuclear repulsion energy      1124.8072977319 Hartrees.
 NAtoms=   30 NActive=   30 NUniq=   30 SFac= 1.00D+00 NAtFMM=   60 NAOKFM=F Big=F
 Integral buffers will be    131072 words long.
 Raffenetti 2 integral format.
 Two-electron integral symmetry is turned off.
 One-electron integrals computed using PRISM.
 NBasis=   450 RedAO= T EigKep=  1.21D-06  NBF=   450
 NBsUse=   450 1.00D-06 EigRej= -1.00D+00 NBFU=   450
 ExpMin= 3.60D-02 ExpMax= 8.59D+03 ExpMxC= 1.30D+03 IAcc=3 IRadAn=         5 AccDes= 0.00D+00
 Harris functional with IExCor=  402 and IRadAn=       5 diagonalized for initial guess.
 HarFok:  IExCor=  402 AccDes= 0.00D+00 IRadAn=         5 IDoV= 1 UseB2=F ITyADJ=14
 ICtDFT=  3500011 ScaDFX=  1.000000  1.000000  1.000000  1.000000
 FoFCou: FMM=F IPFlag=           0 FMFlag=      100000 FMFlg1=           0
         NFxFlg=           0 DoJE=T BraDBF=F KetDBF=T FulRan=T
         wScrn=  0.000000 ICntrl=     500 IOpCl=  0 I1Cent=   200000004 NGrid=           0
         NMat0=    1 NMatS0=      1 NMatT0=    0 NMatD0=    1 NMtDS0=    0 NMtDT0=    0
 Symmetry not used in FoFCou.
 Requested convergence on RMS density matrix=1.00D-08 within 128 cycles.
 Requested convergence on MAX density matrix=1.00D-06.
 Requested convergence on             energy=1.00D-06.
 No special actions if energy rises.
 SCF Done:  E(RB3LYP) =  -796.333838674     A.U. after   15 cycles
            NFock= 15  Conv=0.64D-08     -V/T= 2.0036
 DoSCS=F DFT=T ScalE2(SS,OS)=  1.000000  1.000000
 Range of M.O.s used for correlation:     1   450
 NBasis=   450 NAE=    60 NBE=    60 NFC=     0 NFV=     0
 NROrb=    450 NOA=    60 NOB=    60 NVA=   390 NVB=   390

 **** Warning!!: The largest alpha MO coefficient is  0.22642846D+03

 Symmetrizing basis deriv contribution to polar:
 IMax=3 JMax=2 DiffMx= 0.00D+00
 G2DrvN: will do    31 centers at a time, making    1 passes.
 Calling FoFCou, ICntrl=  3107 FMM=F I1Cent=   0 AccDes= 0.00D+00.
 End of G2Drv F.D. properties file   721 does not exist.
 End of G2Drv F.D. properties file   722 does not exist.
 End of G2Drv F.D. properties file   788 does not exist.
          IDoAtm=111111111111111111111111111111
          Differentiating once with respect to nuclear coordinates.
          There are    93 degrees of freedom in the 1st order CPHF.  IDoFFX=6 NUNeed=     0.
     87 vectors produced by pass  0 Test12= 2.52D-14 1.08D-09 XBig12= 2.33D-01 9.02D-02.
 AX will form    87 AO Fock derivatives at one time.
     87 vectors produced by pass  1 Test12= 2.52D-14 1.08D-09 XBig12= 2.29D-02 3.60D-02.
     87 vectors produced by pass  2 Test12= 2.52D-14 1.08D-09 XBig12= 3.21D-04 2.15D-03.
     87 vectors produced by pass  3 Test12= 2.52D-14 1.08D-09 XBig12= 1.44D-06 1.15D-04.
     87 vectors produced by pass  4 Test12= 2.52D-14 1.08D-09 XBig12= 3.26D-09 5.35D-06.
     83 vectors produced by pass  5 Test12= 2.52D-14 1.08D-09 XBig12= 4.45D-12 1.95D-07.
     33 vectors produced by pass  6 Test12= 2.52D-14 1.08D-09 XBig12= 7.41D-15 7.20D-09.
     10 vectors produced by pass  7 Test12= 2.52D-14 1.08D-09 XBig12= 9.57D-16 3.86D-09.
 InvSVY:  IOpt=1 It=  1 EMax= 8.33D-16
 Solved reduced A of dimension   561 with    93 vectors.
 End of Minotr F.D. properties file   721 does not exist.
 End of Minotr F.D. properties file   722 does not exist.
 End of Minotr F.D. properties file   788 does not exist.

 **********************************************************************

            Population analysis using the SCF density.

 **********************************************************************

 Alpha  occ. eigenvalues --  -19.20831 -19.15568 -19.12027 -14.37177 -14.35893
 Alpha  occ. eigenvalues --  -14.30675 -14.28756 -10.34399 -10.30458 -10.25872
 Alpha  occ. eigenvalues --  -10.21586 -10.21048 -10.20766 -10.20631 -10.20064
 Alpha  occ. eigenvalues --  -10.17646  -1.15477  -1.07548  -1.06532  -1.01765
 Alpha  occ. eigenvalues --   -0.96674  -0.90197  -0.87074  -0.83163  -0.78148
 Alpha  occ. eigenvalues --   -0.75653  -0.69359  -0.67049  -0.63161  -0.62609
 Alpha  occ. eigenvalues --   -0.60848  -0.59219  -0.56081  -0.53640  -0.53370
 Alpha  occ. eigenvalues --   -0.52377  -0.51352  -0.50474  -0.49485  -0.47701
 Alpha  occ. eigenvalues --   -0.46045  -0.45609  -0.44721  -0.43595  -0.43426
 Alpha  occ. eigenvalues --   -0.42667  -0.41382  -0.40776  -0.40467  -0.39794
 Alpha  occ. eigenvalues --   -0.38706  -0.36628  -0.36269  -0.32749  -0.30240
 Alpha  occ. eigenvalues --   -0.29511  -0.28144  -0.26817  -0.25703  -0.22750
 Alpha virt. eigenvalues --   -0.03840  -0.02737  -0.02426  -0.01495  -0.00180
 Alpha virt. eigenvalues --    0.00325   0.00798   0.01121   0.01730   0.02444
 Alpha virt. eigenvalues --    0.02841   0.03290   0.03662   0.04375   0.04634
 Alpha virt. eigenvalues --    0.05112   0.05655   0.06058   0.06886   0.07292
 Alpha virt. eigenvalues --    0.07508   0.07811   0.08000   0.08920   0.09106
 Alpha virt. eigenvalues --    0.09385   0.09959   0.10181   0.10513   0.11150
 Alpha virt. eigenvalues --    0.11826   0.11986   0.12427   0.12705   0.12970
 Alpha virt. eigenvalues --    0.13155   0.13395   0.13595   0.13803   0.14224
 Alpha virt. eigenvalues --    0.14424   0.14836   0.15184   0.15557   0.15851
 Alpha virt. eigenvalues --    0.16391   0.16536   0.16912   0.17165   0.17717
 Alpha virt. eigenvalues --    0.18212   0.18656   0.18991   0.19296   0.19606
 Alpha virt. eigenvalues --    0.19912   0.20437   0.20910   0.21312   0.21652
 Alpha virt. eigenvalues --    0.22108   0.22571   0.22840   0.23227   0.23568
 Alpha virt. eigenvalues --    0.23998   0.24111   0.25095   0.25273   0.25794
 Alpha virt. eigenvalues --    0.26259   0.26669   0.26861   0.27104   0.27652
 Alpha virt. eigenvalues --    0.27993   0.28599   0.29133   0.29494   0.29647
 Alpha virt. eigenvalues --    0.29994   0.30141   0.30241   0.30846   0.31045
 Alpha virt. eigenvalues --    0.31548   0.31657   0.32573   0.32879   0.33550
 Alpha virt. eigenvalues --    0.34181   0.34564   0.34769   0.35430   0.35622
 Alpha virt. eigenvalues --    0.36035   0.36432   0.36683   0.37222   0.38731
 Alpha virt. eigenvalues --    0.39029   0.39465   0.40689   0.42168   0.42359
 Alpha virt. eigenvalues --    0.42796   0.44887   0.45723   0.46611   0.47207
 Alpha virt. eigenvalues --    0.47982   0.48883   0.49223   0.50376   0.51772
 Alpha virt. eigenvalues --    0.52996   0.53590   0.54954   0.56088   0.57785
 Alpha virt. eigenvalues --    0.59325   0.59944   0.60474   0.61487   0.61969
 Alpha virt. eigenvalues --    0.62681   0.64097   0.64562   0.64947   0.65410
 Alpha virt. eigenvalues --    0.65951   0.66535   0.67453   0.68106   0.68526
 Alpha virt. eigenvalues --    0.69996   0.70770   0.71003   0.72458   0.72563
 Alpha virt. eigenvalues --    0.73148   0.73600   0.74230   0.75638   0.75934
 Alpha virt. eigenvalues --    0.77078   0.77873   0.78680   0.80094   0.81215
 Alpha virt. eigenvalues --    0.82099   0.83088   0.83616   0.85166   0.87303
 Alpha virt. eigenvalues --    0.88140   0.88601   0.89883   0.91539   0.91789
 Alpha virt. eigenvalues --    0.93090   0.94462   0.94654   0.95433   0.96450
 Alpha virt. eigenvalues --    0.97775   0.99086   1.00533   1.02286   1.03550
 Alpha virt. eigenvalues --    1.04854   1.05760   1.07644   1.09036   1.09412
 Alpha virt. eigenvalues --    1.10721   1.11803   1.13891   1.14509   1.15919
 Alpha virt. eigenvalues --    1.16456   1.18702   1.19903   1.20246   1.21577
 Alpha virt. eigenvalues --    1.22636   1.24113   1.24408   1.25184   1.26267
 Alpha virt. eigenvalues --    1.28337   1.28652   1.29954   1.31368   1.33130
 Alpha virt. eigenvalues --    1.34112   1.35873   1.36508   1.37489   1.39277
 Alpha virt. eigenvalues --    1.42084   1.45011   1.47188   1.48112   1.48970
 Alpha virt. eigenvalues --    1.49651   1.52021   1.53297   1.54849   1.55622
 Alpha virt. eigenvalues --    1.56620   1.57554   1.58691   1.60265   1.61456
 Alpha virt. eigenvalues --    1.62538   1.63063   1.63932   1.65620   1.66129
 Alpha virt. eigenvalues --    1.66763   1.66976   1.67957   1.69464   1.70196
 Alpha virt. eigenvalues --    1.70992   1.71138   1.74052   1.74679   1.75948
 Alpha virt. eigenvalues --    1.77419   1.78509   1.78988   1.79935   1.81491
 Alpha virt. eigenvalues --    1.83005   1.84683   1.85522   1.87223   1.88660
 Alpha virt. eigenvalues --    1.88995   1.90656   1.92782   1.95558   1.95689
 Alpha virt. eigenvalues --    1.97967   1.98721   2.01022   2.02643   2.05734
 Alpha virt. eigenvalues --    2.06850   2.08500   2.10938   2.12899   2.13220
 Alpha virt. eigenvalues --    2.14451   2.16974   2.18742   2.19582   2.20382
 Alpha virt. eigenvalues --    2.23022   2.25070   2.27677   2.28409   2.30491
 Alpha virt. eigenvalues --    2.31793   2.32130   2.35736   2.39445   2.42274
 Alpha virt. eigenvalues --    2.46148   2.46470   2.47926   2.50531   2.52053
 Alpha virt. eigenvalues --    2.52380   2.54356   2.54796   2.55347   2.58547
 Alpha virt. eigenvalues --    2.59012   2.60330   2.61417   2.62351   2.63335
 Alpha virt. eigenvalues --    2.65995   2.68039   2.68360   2.70324   2.71302
 Alpha virt. eigenvalues --    2.72337   2.73366   2.73905   2.76070   2.78609
 Alpha virt. eigenvalues --    2.79915   2.81287   2.81909   2.83116   2.84682
 Alpha virt. eigenvalues --    2.85331   2.86457   2.87759   2.88010   2.89512
 Alpha virt. eigenvalues --    2.90023   2.91167   2.91779   2.93052   2.94618
 Alpha virt. eigenvalues --    2.95491   2.96572   2.99029   3.00319   3.01297
 Alpha virt. eigenvalues --    3.03079   3.03941   3.07026   3.09256   3.10982
 Alpha virt. eigenvalues --    3.13131   3.13885   3.14973   3.16413   3.22430
 Alpha virt. eigenvalues --    3.24311   3.30905   3.33810   3.34845   3.36917
 Alpha virt. eigenvalues --    3.40431   3.46920   3.52945   3.54492   3.55693
 Alpha virt. eigenvalues --    3.58761   3.61912   3.65521   3.68146   3.72056
 Alpha virt. eigenvalues --    3.73963   3.76144   3.81418   3.83121   3.84077
 Alpha virt. eigenvalues --    3.88355   3.90636   3.93190   3.95963   3.98497
 Alpha virt. eigenvalues --    4.05668   4.08904   4.11591   4.13416   4.17285
 Alpha virt. eigenvalues --    4.25378   4.36389   4.52335   4.72267   4.79396
 Alpha virt. eigenvalues --    4.82498   4.85996   4.95846   4.97070   4.98235
 Alpha virt. eigenvalues --    5.04618   5.14097   5.16891   5.29497   5.29730
 Alpha virt. eigenvalues --    5.40807   5.59335   5.80660   5.83054  23.77182
 Alpha virt. eigenvalues --   23.79644  23.82380  23.84586  23.87178  23.90874
 Alpha virt. eigenvalues --   23.91531  23.97977  24.16564  35.56393  35.59096
 Alpha virt. eigenvalues --   35.60868  35.71973  49.85627  49.98395  50.01561
          Condensed to atoms (all electrons):
               1          2          3          4          5          6
     1  O    8.055871   0.512837  -0.167568  -0.125445   0.069008   0.000284
     2  C    0.512837   8.107015   0.119987  -0.338646  -0.051081   0.012587
     3  N   -0.167568   0.119987   7.723915  -0.727199  -0.041115   0.031047
     4  C   -0.125445  -0.338646  -0.727199  18.083816  -5.248065  -0.048192
     5  C    0.069008  -0.051081  -0.041115  -5.248065   9.117982   0.093808
     6  O    0.000284   0.012587   0.031047  -0.048192   0.093808   7.971424
     7  O    0.000481   0.047081   0.061957  -0.079982   0.435737  -0.127268
     8  C    0.038001  -0.484755   0.363250  -8.614500   3.233656  -0.107047
     9  C   -0.062756   0.208754   0.169346   3.077331  -1.404096   0.054197
    10  C   -0.001756  -0.078366  -0.037758  -0.419202   0.071882   0.006536
    11  N   -0.000798  -0.002315  -0.000539   0.039766  -0.008302  -0.000017
    12  C   -0.009496   0.031609  -0.027567   0.110901  -0.033478   0.000596
    13  N   -0.029981   0.059122   0.028903  -0.172328  -0.017901  -0.001173
    14  C   -0.002012  -1.847907  -0.653989   0.185148  -0.200746   0.002158
    15  C   -0.038354  -0.038697   0.035877   0.009028  -0.000432  -0.000225
    16  N    0.006309   0.049807  -0.013731   0.008963   0.001414   0.000011
    17  H    0.001013  -0.023884   0.304923  -0.129902   0.029490   0.004457
    18  H    0.003876  -0.001413  -0.203620   0.738858  -0.088599  -0.015554
    19  H    0.000089  -0.006138  -0.002352  -0.228317   0.221281   0.218916
    20  H    0.003120   0.010492   0.054583  -0.429196   0.054132   0.024056
    21  H   -0.002100   0.004777  -0.053116   0.404411  -0.135288  -0.007152
    22  H    0.000428  -0.003159   0.001730  -0.059258   0.012232   0.000408
    23  H   -0.004207   0.004938   0.000105   0.014999  -0.002348   0.000020
    24  H    0.072486   0.016269   0.010727  -0.104953   0.020566   0.000721
    25  H    0.012698  -0.137481   0.013921   0.063894  -0.004443  -0.000021
    26  H   -0.003922   0.045839   0.009131  -0.018747  -0.000427  -0.000148
    27  H   -0.006214   0.010574  -0.001887  -0.013974  -0.001083  -0.000040
    28  H    0.006114  -0.030563   0.000237   0.004637   0.003675   0.000036
    29  H   -0.000158  -0.011336  -0.001652   0.000363   0.000411   0.000002
    30  H   -0.000009   0.011400   0.000197   0.000785  -0.000194   0.000002
               7          8          9         10         11         12
     1  O    0.000481   0.038001  -0.062756  -0.001756  -0.000798  -0.009496
     2  C    0.047081  -0.484755   0.208754  -0.078366  -0.002315   0.031609
     3  N    0.061957   0.363250   0.169346  -0.037758  -0.000539  -0.027567
     4  C   -0.079982  -8.614500   3.077331  -0.419202   0.039766   0.110901
     5  C    0.435737   3.233656  -1.404096   0.071882  -0.008302  -0.033478
     6  O   -0.127268  -0.107047   0.054197   0.006536  -0.000017   0.000596
     7  O    7.981142  -0.097166   0.028777  -0.006269   0.000035   0.000582
     8  C   -0.097166  23.050976  -8.644446  -0.449802  -0.138315  -0.436662
     9  C    0.028777  -8.644446  14.545731  -3.165058  -0.048964   0.444351
    10  C   -0.006269  -0.449802  -3.165058   9.806256   0.486393  -0.588257
    11  N    0.000035  -0.138315  -0.048964   0.486393   6.558073   0.345112
    12  C    0.000582  -0.436662   0.444351  -0.588257   0.345112   5.500242
    13  N    0.000714   0.052003  -0.234369   0.163230   0.026134   0.082426
    14  C    0.009501  -0.558091   0.091929   0.020704   0.002445   0.032263
    15  C   -0.000713  -0.048970   0.006226  -0.016300  -0.000685   0.005446
    16  N   -0.000083   0.007112  -0.003560   0.000338  -0.000076  -0.000047
    17  H    0.020293   0.046168   0.011467   0.009255  -0.000421  -0.004190
    18  H   -0.012467  -0.372709   0.040210   0.026191   0.000048   0.029935
    19  H   -0.013244   0.028861  -0.001468   0.002164   0.000019   0.000080
    20  H    0.009175   0.774619  -0.084477  -0.106217   0.000906  -0.000877
    21  H   -0.002564   0.054077  -0.017271  -0.013579   0.001670   0.020878
    22  H   -0.000180   0.055640  -0.232298   0.554818  -0.079105   0.022336
    23  H    0.000031  -0.036388   0.095971  -0.032104  -0.068305   0.469255
    24  H   -0.000745   0.108980  -0.136441   0.034824   0.010500  -0.069860
    25  H   -0.001309   0.000304  -0.005698  -0.006018  -0.000377   0.002248
    26  H   -0.001026   0.007992   0.000870   0.003329   0.000089  -0.000637
    27  H   -0.000088   0.002599  -0.010444   0.011882   0.000534  -0.005796
    28  H    0.000154   0.009704  -0.000902  -0.002863  -0.000316   0.000714
    29  H    0.000003   0.000661  -0.000502  -0.000254  -0.000005   0.000150
    30  H   -0.000008  -0.000036   0.000033  -0.000058  -0.000002  -0.000077
              13         14         15         16         17         18
     1  O   -0.029981  -0.002012  -0.038354   0.006309   0.001013   0.003876
     2  C    0.059122  -1.847907  -0.038697   0.049807  -0.023884  -0.001413
     3  N    0.028903  -0.653989   0.035877  -0.013731   0.304923  -0.203620
     4  C   -0.172328   0.185148   0.009028   0.008963  -0.129902   0.738858
     5  C   -0.017901  -0.200746  -0.000432   0.001414   0.029490  -0.088599
     6  O   -0.001173   0.002158  -0.000225   0.000011   0.004457  -0.015554
     7  O    0.000714   0.009501  -0.000713  -0.000083   0.020293  -0.012467
     8  C    0.052003  -0.558091  -0.048970   0.007112   0.046168  -0.372709
     9  C   -0.234369   0.091929   0.006226  -0.003560   0.011467   0.040210
    10  C    0.163230   0.020704  -0.016300   0.000338   0.009255   0.026191
    11  N    0.026134   0.002445  -0.000685  -0.000076  -0.000421   0.000048
    12  C    0.082426   0.032263   0.005446  -0.000047  -0.004190   0.029935
    13  N    6.994867  -0.073978  -0.009326   0.001720   0.002721  -0.012276
    14  C   -0.073978   8.651018  -0.375714   0.008804   0.036498   0.058238
    15  C   -0.009326  -0.375714   6.790513  -0.132528  -0.003012   0.006320
    16  N    0.001720   0.008804  -0.132528   6.612522  -0.001550   0.000575
    17  H    0.002721   0.036498  -0.003012  -0.001550   0.400606  -0.009628
    18  H   -0.012276   0.058238   0.006320   0.000575  -0.009628   0.543060
    19  H   -0.000682  -0.002537  -0.000241   0.000013   0.000733   0.006806
    20  H    0.020591  -0.002360  -0.001257   0.000048   0.006554  -0.052299
    21  H    0.005374   0.016773   0.003143  -0.000312  -0.013656   0.036625
    22  H    0.027935  -0.003074  -0.000329   0.000026   0.001100  -0.001705
    23  H   -0.128855  -0.000619   0.004687  -0.000846  -0.000359   0.002813
    24  H    0.372933  -0.012751  -0.015880   0.002073   0.000089  -0.026387
    25  H   -0.001811   0.445423  -0.048895  -0.000183  -0.005360   0.002156
    26  H    0.001360   0.308203  -0.057277  -0.009832  -0.000799  -0.001636
    27  H    0.006135   0.035796   0.271793  -0.017076   0.001134  -0.002130
    28  H   -0.001703   0.004128   0.324588  -0.012873   0.001410  -0.000434
    29  H    0.000089   0.022143  -0.059091   0.405037   0.000422   0.000108
    30  H    0.000066  -0.011937  -0.051721   0.406221  -0.000330   0.000006
              19         20         21         22         23         24
     1  O    0.000089   0.003120  -0.002100   0.000428  -0.004207   0.072486
     2  C   -0.006138   0.010492   0.004777  -0.003159   0.004938   0.016269
     3  N   -0.002352   0.054583  -0.053116   0.001730   0.000105   0.010727
     4  C   -0.228317  -0.429196   0.404411  -0.059258   0.014999  -0.104953
     5  C    0.221281   0.054132  -0.135288   0.012232  -0.002348   0.020566
     6  O    0.218916   0.024056  -0.007152   0.000408   0.000020   0.000721
     7  O   -0.013244   0.009175  -0.002564  -0.000180   0.000031  -0.000745
     8  C    0.028861   0.774619   0.054077   0.055640  -0.036388   0.108980
     9  C   -0.001468  -0.084477  -0.017271  -0.232298   0.095971  -0.136441
    10  C    0.002164  -0.106217  -0.013579   0.554818  -0.032104   0.034824
    11  N    0.000019   0.000906   0.001670  -0.079105  -0.068305   0.010500
    12  C    0.000080  -0.000877   0.020878   0.022336   0.469255  -0.069860
    13  N   -0.000682   0.020591   0.005374   0.027935  -0.128855   0.372933
    14  C   -0.002537  -0.002360   0.016773  -0.003074  -0.000619  -0.012751
    15  C   -0.000241  -0.001257   0.003143  -0.000329   0.004687  -0.015880
    16  N    0.000013   0.000048  -0.000312   0.000026  -0.000846   0.002073
    17  H    0.000733   0.006554  -0.013656   0.001100  -0.000359   0.000089
    18  H    0.006806  -0.052299   0.036625  -0.001705   0.002813  -0.026387
    19  H    0.481077  -0.003443  -0.001169   0.000155   0.000002  -0.000340
    20  H   -0.003443   0.573347  -0.066581   0.000613  -0.001041   0.011555
    21  H   -0.001169  -0.066581   0.577223  -0.005772   0.001634  -0.007970
    22  H    0.000155   0.000613  -0.005772   0.568505  -0.002066   0.003617
    23  H    0.000002  -0.001041   0.001634  -0.002066   0.540983  -0.016192
    24  H   -0.000340   0.011555  -0.007970   0.003617  -0.016192   0.390623
    25  H   -0.000024  -0.000905   0.002254  -0.000216   0.000286  -0.000757
    26  H    0.000031   0.000206  -0.000908   0.000109  -0.000256   0.002696
    27  H   -0.000009   0.000435  -0.001082   0.000133  -0.002554   0.003031
    28  H    0.000018   0.000051  -0.000127   0.000008  -0.000102  -0.000318
    29  H   -0.000001   0.000003  -0.000015   0.000001  -0.000067   0.000033
    30  H    0.000001   0.000000   0.000005  -0.000002  -0.000032  -0.000042
              25         26         27         28         29         30
     1  O    0.012698  -0.003922  -0.006214   0.006114  -0.000158  -0.000009
     2  C   -0.137481   0.045839   0.010574  -0.030563  -0.011336   0.011400
     3  N    0.013921   0.009131  -0.001887   0.000237  -0.001652   0.000197
     4  C    0.063894  -0.018747  -0.013974   0.004637   0.000363   0.000785
     5  C   -0.004443  -0.000427  -0.001083   0.003675   0.000411  -0.000194
     6  O   -0.000021  -0.000148  -0.000040   0.000036   0.000002   0.000002
     7  O   -0.001309  -0.001026  -0.000088   0.000154   0.000003  -0.000008
     8  C    0.000304   0.007992   0.002599   0.009704   0.000661  -0.000036
     9  C   -0.005698   0.000870  -0.010444  -0.000902  -0.000502   0.000033
    10  C   -0.006018   0.003329   0.011882  -0.002863  -0.000254  -0.000058
    11  N   -0.000377   0.000089   0.000534  -0.000316  -0.000005  -0.000002
    12  C    0.002248  -0.000637  -0.005796   0.000714   0.000150  -0.000077
    13  N   -0.001811   0.001360   0.006135  -0.001703   0.000089   0.000066
    14  C    0.445423   0.308203   0.035796   0.004128   0.022143  -0.011937
    15  C   -0.048895  -0.057277   0.271793   0.324588  -0.059091  -0.051721
    16  N   -0.000183  -0.009832  -0.017076  -0.012873   0.405037   0.406221
    17  H   -0.005360  -0.000799   0.001134   0.001410   0.000422  -0.000330
    18  H    0.002156  -0.001636  -0.002130  -0.000434   0.000108   0.000006
    19  H   -0.000024   0.000031  -0.000009   0.000018  -0.000001   0.000001
    20  H   -0.000905   0.000206   0.000435   0.000051   0.000003   0.000000
    21  H    0.002254  -0.000908  -0.001082  -0.000127  -0.000015   0.000005
    22  H   -0.000216   0.000109   0.000133   0.000008   0.000001  -0.000002
    23  H    0.000286  -0.000256  -0.002554  -0.000102  -0.000067  -0.000032
    24  H   -0.000757   0.002696   0.003031  -0.000318   0.000033  -0.000042
    25  H    0.613385  -0.062019  -0.024749   0.014189   0.009982  -0.004507
    26  H   -0.062019   0.579722   0.017416  -0.019955  -0.006228   0.013289
    27  H   -0.024749   0.017416   0.601551  -0.046078  -0.027778   0.020383
    28  H    0.014189  -0.019955  -0.046078   0.543719   0.019199  -0.025700
    29  H    0.009982  -0.006228  -0.027778   0.019199   0.492285  -0.074715
    30  H   -0.004507   0.013289   0.020383  -0.025700  -0.074715   0.491077
 Mulliken charges:
               1
     1  O   -0.327840
     2  C   -0.197348
     3  N    0.002258
     4  C    0.015006
     5  C   -0.127678
     6  O   -0.114430
     7  O   -0.252550
     8  C   -1.845717
     9  C    1.277557
    10  C   -0.273943
    11  N   -0.123181
    12  C    0.077818
    13  N   -0.161941
    14  C   -0.185457
    15  C   -0.557973
    16  N   -0.318294
    17  H    0.314758
    18  H    0.305031
    19  H    0.299718
    20  H    0.204168
    21  H    0.199819
    22  H    0.137370
    23  H    0.160619
    24  H    0.330913
    25  H    0.124033
    26  H    0.193532
    27  H    0.177588
    28  H    0.209351
    29  H    0.230910
    30  H    0.225902
 Sum of Mulliken charges =   0.00000
 Mulliken charges with hydrogens summed into heavy atoms:
               1
     1  O   -0.327840
     2  C   -0.197348
     3  N    0.317015
     4  C    0.320037
     5  C   -0.127678
     6  O    0.185287
     7  O   -0.252550
     8  C   -1.441730
     9  C    1.277557
    10  C   -0.136573
    11  N   -0.123181
    12  C    0.238438
    13  N    0.168973
    14  C    0.132108
    15  C   -0.171034
    16  N    0.138519
 APT charges:
               1
     1  O   -0.364049
     2  C   -0.172377
     3  N   -0.403113
     4  C   -0.205131
     5  C   -0.554225
     6  O   -0.620981
     7  O   -0.023953
     8  C   -2.357890
     9  C    1.624901
    10  C   -1.030299
    11  N    0.068507
    12  C   -0.220121
    13  N   -0.583023
    14  C   -0.367658
    15  C   -1.046792
    16  N   -0.864095
    17  H    0.572213
    18  H    0.438634
    19  H    1.098546
    20  H    0.608715
    21  H    0.427878
    22  H    0.713998
    23  H    0.617943
    24  H    0.186362
    25  H    0.273196
    26  H    0.529502
    27  H    0.235646
    28  H    0.400004
    29  H    0.418891
    30  H    0.598770
 Sum of APT charges =   0.00000
 APT charges with hydrogens summed into heavy atoms:
               1
     1  O   -0.364049
     2  C   -0.172377
     3  N    0.169100
     4  C    0.233503
     5  C   -0.554225
     6  O    0.477565
     7  O   -0.023953
     8  C   -1.321297
     9  C    1.624901
    10  C   -0.316301
    11  N    0.068507
    12  C    0.397822
    13  N   -0.396660
    14  C    0.435040
    15  C   -0.411142
    16  N    0.153565
 Electronic spatial extent (au):  <R**2>=           4434.0910
 Charge=              0.0000 electrons
 Dipole moment (field-independent basis, Debye):
    X=              1.6431    Y=              4.2028    Z=             -3.6531  Tot=              5.8059
 Quadrupole moment (field-independent basis, Debye-Ang):
   XX=           -101.0996   YY=           -100.2337   ZZ=           -100.2482
   XY=             -3.2242   XZ=             11.1887   YZ=              4.1438
 Traceless Quadrupole moment (field-independent basis, Debye-Ang):
   XX=             -0.5724   YY=              0.2935   ZZ=              0.2790
   XY=             -3.2242   XZ=             11.1887   YZ=              4.1438
 Octapole moment (field-independent basis, Debye-Ang**2):
  XXX=            113.1870  YYY=            -13.5342  ZZZ=            -45.0911  XYY=             20.8640
  XXY=             77.8188  XXZ=            -54.7142  XZZ=             33.0628  YZZ=             47.5523
  YYZ=              5.6751  XYZ=              8.3885
 Hexadecapole moment (field-independent basis, Debye-Ang**3):
 XXXX=          -3238.2053 YYYY=          -1208.1814 ZZZZ=          -1468.2666 XXXY=             34.3778
 XXXZ=           -142.0296 YYYX=             -6.1765 YYYZ=            500.4491 ZZZX=             64.2125
 ZZZY=            433.6523 XXYY=           -776.5637 XXZZ=           -887.8920 YYZZ=           -439.0700
 XXYZ=            282.8030 YYXZ=             31.8527 ZZXY=            -88.7767
 N-N= 1.124807297732D+03 E-N=-4.109782307432D+03  KE= 7.935147897888D+02
  Exact polarizability:   0.000   0.000   0.000   0.000   0.000   0.000
 Approx polarizability: 198.953  -7.868 223.571  -6.937 -10.093 194.592
 Calling FoFJK, ICntrl=    100147 FMM=F ISym2X=0 I1Cent= 0 IOpClX= 0 NMat=1 NMatS=1 NMatT=0.
 -------------------------------------------------------------------
 Center     Atomic                   Forces (Hartrees/Bohr)
 Number     Number              X              Y              Z
 -------------------------------------------------------------------
      1        8           0.001531182    0.000093599    0.003571581
      2        6           0.005241690   -0.005194797   -0.004414178
      3        7          -0.002059345    0.003148286   -0.001286062
      4        6          -0.001157505    0.001815536    0.001173307
      5        6          -0.002882300   -0.002221918   -0.004490135
      6        8           0.002349374   -0.000410283    0.001884536
      7        8           0.003410482    0.003286061    0.001166081
      8        6          -0.009251915   -0.003572409    0.003915510
      9        6           0.002663980    0.006636785   -0.006448538
     10        6          -0.006163666   -0.001590220    0.010896785
     11        7          -0.003903505    0.003249159    0.000030161
     12        6           0.000245821   -0.004687393    0.003746841
     13        7           0.003682754   -0.001999240   -0.006051735
     14        6          -0.002446393    0.002191121   -0.001096455
     15        6           0.002657218   -0.002097746    0.002951495
     16        7          -0.000245435    0.000965992   -0.001156457
     17        1           0.000653422    0.001416449    0.001577811
     18        1           0.001103373   -0.000854669   -0.001487092
     19        1          -0.002578122    0.002788884   -0.004551786
     20        1          -0.000842529   -0.000267553   -0.001673467
     21        1           0.001273125    0.002493051    0.000694424
     22        1           0.000578450    0.000036780   -0.000387499
     23        1           0.000711808   -0.002249276    0.001499068
     24        1           0.002619201   -0.001970113   -0.001796511
     25        1           0.001597391    0.000907849    0.000883120
     26        1          -0.000489337    0.000483624   -0.001223936
     27        1          -0.001923932   -0.000882643    0.000213701
     28        1          -0.000070728   -0.001428031   -0.000175521
     29        1           0.001035555    0.000677852    0.002386855
     30        1           0.002659883   -0.000764739   -0.000351906
 -------------------------------------------------------------------
 Cartesian Forces:  Max     0.010896785 RMS     0.002980797
 FormGI is forming the generalized inverse of G from B-inverse, IUseBI=4.
 GSVD:  received Info=                   1 from GESDD.

 GradGradGradGradGradGradGradGradGradGradGradGradGradGradGradGradGradGrad
 Berny optimization.
 Internal  Forces:  Max     0.010531089 RMS     0.002698803
 Search for a local minimum.
 Step number   1 out of a maximum of  160
 All quantities printed in internal units (Hartrees-Bohrs-Radians)
 Mixed Optimization -- RFO/linear search
 Second derivative matrix not updated -- analytic derivatives used.
 ITU=  0
     Eigenvalues ---    0.00020   0.00033   0.00247   0.00272   0.00278
     Eigenvalues ---    0.00524   0.00572   0.00887   0.01042   0.01584
     Eigenvalues ---    0.01965   0.02025   0.02324   0.02953   0.03053
     Eigenvalues ---    0.03599   0.03898   0.04160   0.04302   0.04416
     Eigenvalues ---    0.04442   0.04658   0.04853   0.05327   0.05425
     Eigenvalues ---    0.05821   0.06108   0.06180   0.07738   0.08397
     Eigenvalues ---    0.08542   0.10697   0.10795   0.11443   0.11709
     Eigenvalues ---    0.11952   0.12948   0.13643   0.14657   0.15666
     Eigenvalues ---    0.16281   0.17649   0.18335   0.18475   0.18913
     Eigenvalues ---    0.20946   0.21605   0.22458   0.23073   0.23496
     Eigenvalues ---    0.24500   0.24681   0.25525   0.27731   0.28477
     Eigenvalues ---    0.30601   0.32596   0.32980   0.33203   0.33457
     Eigenvalues ---    0.33742   0.34004   0.34181   0.34337   0.34611
     Eigenvalues ---    0.35920   0.36789   0.37082   0.37543   0.37725
     Eigenvalues ---    0.40936   0.41795   0.43447   0.44971   0.45092
     Eigenvalues ---    0.45545   0.46659   0.47427   0.48046   0.52690
     Eigenvalues ---    0.58681   0.68198   0.77875   0.88362
 RFO step:  Lambda=-3.91236396D-03 EMin= 2.02443750D-04
 Linear search not attempted -- first point.
 Iteration  1 RMS(Cart)=  0.08032396 RMS(Int)=  0.00310192
 Iteration  2 RMS(Cart)=  0.00437087 RMS(Int)=  0.00016732
 Iteration  3 RMS(Cart)=  0.00001372 RMS(Int)=  0.00016723
 Iteration  4 RMS(Cart)=  0.00000000 RMS(Int)=  0.00016723
 Variable       Old X    -DE/DX   Delta X   Delta X   Delta X     New X
                                 (Linear)    (Quad)   (Total)
    R1        2.32883  -0.00160   0.00000  -0.00458  -0.00458   2.32426
    R2        2.55756   0.01030   0.00000   0.01797   0.01797   2.57553
    R3        2.86147   0.00347   0.00000   0.00893   0.00893   2.87040
    R4        2.73197   0.00773   0.00000   0.01300   0.01300   2.74496
    R5        1.90693   0.00182   0.00000   0.00349   0.00349   1.91042
    R6        2.85851   0.00651   0.00000   0.02234   0.02234   2.88085
    R7        2.90151   0.00948   0.00000   0.02863   0.02863   2.93014
    R8        2.05757   0.00156   0.00000   0.00619   0.00619   2.06377
    R9        2.54840   0.00156   0.00000  -0.00401  -0.00401   2.54440
   R10        2.27370   0.00459   0.00000   0.00505   0.00505   2.27875
   R11        1.82433   0.00503   0.00000   0.00844   0.00844   1.83278
   R12        2.83617   0.00285   0.00000   0.00018   0.00018   2.83635
   R13        2.06506   0.00174   0.00000   0.00480   0.00480   2.06987
   R14        2.06277   0.00235   0.00000   0.00613   0.00613   2.06890
   R15        2.57832   0.01053   0.00000   0.02045   0.02043   2.59874
   R16        2.59234   0.00906   0.00000   0.01722   0.01734   2.60968
   R17        2.60964  -0.00164   0.00000  -0.01073  -0.01086   2.59878
   R18        2.04182  -0.00051   0.00000  -0.00112  -0.00112   2.04071
   R19        2.47581   0.00465   0.00000   0.00680   0.00674   2.48255
   R20        2.56200   0.00878   0.00000   0.01774   0.01783   2.57983
   R21        2.03338   0.00260   0.00000   0.00622   0.00622   2.03960
   R22        1.91539   0.00349   0.00000   0.00837   0.00837   1.92375
   R23        2.88916   0.00635   0.00000   0.02409   0.02409   2.91325
   R24        2.06708   0.00100   0.00000   0.00235   0.00235   2.06944
   R25        2.07159   0.00071   0.00000   0.00187   0.00187   2.07346
   R26        2.76156   0.00363   0.00000  -0.00158  -0.00158   2.75999
   R27        2.06245   0.00154   0.00000   0.00461   0.00461   2.06707
   R28        2.05813   0.00124   0.00000   0.00343   0.00343   2.06156
   R29        1.91576   0.00195   0.00000   0.00180   0.00180   1.91757
   R30        1.91656   0.00175   0.00000   0.00115   0.00115   1.91771
    A1        2.12142   0.00282   0.00000   0.00741   0.00740   2.12882
    A2        2.14078  -0.00285   0.00000  -0.00893  -0.00895   2.13183
    A3        2.02094   0.00004   0.00000   0.00161   0.00159   2.02253
    A4        2.11622   0.00762   0.00000   0.02054   0.02045   2.13668
    A5        2.08379  -0.00393   0.00000  -0.01094  -0.01104   2.07275
    A6        2.02958  -0.00333   0.00000  -0.00261  -0.00269   2.02689
    A7        1.90546  -0.00354   0.00000  -0.01511  -0.01532   1.89014
    A8        1.98355   0.00212   0.00000   0.01484   0.01489   1.99845
    A9        1.88359   0.00041   0.00000  -0.00657  -0.00672   1.87687
   A10        1.88388   0.00197   0.00000   0.01522   0.01528   1.89916
   A11        1.90111  -0.00038   0.00000  -0.00966  -0.00978   1.89133
   A12        1.90502  -0.00067   0.00000   0.00022   0.00029   1.90531
   A13        1.94285   0.00282   0.00000   0.00773   0.00772   1.95057
   A14        2.19042  -0.00314   0.00000  -0.01358  -0.01359   2.17683
   A15        2.14929   0.00033   0.00000   0.00613   0.00612   2.15541
   A16        1.85090   0.00567   0.00000   0.03043   0.03043   1.88133
   A17        2.01653   0.00403   0.00000   0.00378   0.00378   2.02031
   A18        1.87036  -0.00046   0.00000  -0.00757  -0.00761   1.86275
   A19        1.91996  -0.00346   0.00000  -0.01955  -0.01958   1.90038
   A20        1.90971  -0.00162   0.00000   0.01075   0.01075   1.92046
   A21        1.89153   0.00026   0.00000   0.00225   0.00220   1.89374
   A22        1.84853   0.00102   0.00000   0.01129   0.01117   1.85970
   A23        2.27747  -0.00232   0.00000  -0.00828  -0.00850   2.26897
   A24        2.17313   0.00351   0.00000   0.00990   0.00964   2.18277
   A25        1.83182  -0.00121   0.00000  -0.00272  -0.00263   1.82919
   A26        1.93433   0.00069   0.00000   0.00199   0.00198   1.93630
   A27        2.23675  -0.00079   0.00000  -0.00872  -0.00873   2.22802
   A28        2.11211   0.00010   0.00000   0.00672   0.00672   2.11882
   A29        1.82824   0.00261   0.00000   0.00692   0.00685   1.83509
   A30        1.95405  -0.00002   0.00000  -0.00061  -0.00047   1.95358
   A31        2.20470  -0.00100   0.00000  -0.00652  -0.00660   2.19810
   A32        2.12444   0.00102   0.00000   0.00712   0.00704   2.13148
   A33        1.87629  -0.00207   0.00000  -0.00561  -0.00581   1.87049
   A34        2.19588   0.00220   0.00000   0.00290   0.00218   2.19806
   A35        2.20485  -0.00011   0.00000  -0.00351  -0.00416   2.20069
   A36        1.97253   0.00060   0.00000  -0.00273  -0.00274   1.96979
   A37        1.90593   0.00128   0.00000   0.02037   0.02040   1.92633
   A38        1.87852  -0.00139   0.00000  -0.01188  -0.01185   1.86666
   A39        1.93534  -0.00140   0.00000  -0.01039  -0.01040   1.92494
   A40        1.89926   0.00104   0.00000   0.00780   0.00778   1.90704
   A41        1.86850  -0.00019   0.00000  -0.00342  -0.00337   1.86513
   A42        1.99920   0.00275   0.00000   0.01450   0.01449   2.01369
   A43        1.92010  -0.00159   0.00000  -0.01362  -0.01369   1.90641
   A44        1.89875  -0.00020   0.00000  -0.00044  -0.00049   1.89825
   A45        1.87581   0.00010   0.00000   0.00819   0.00825   1.88406
   A46        1.89866  -0.00113   0.00000  -0.00223  -0.00225   1.89641
   A47        1.86679  -0.00009   0.00000  -0.00777  -0.00782   1.85897
   A48        1.92590   0.00228   0.00000   0.02610   0.02549   1.95139
   A49        1.92274   0.00268   0.00000   0.02580   0.02519   1.94793
   A50        1.86005  -0.00079   0.00000   0.01857   0.01745   1.87751
    D1       -0.15769  -0.00177   0.00000  -0.03648  -0.03655  -0.19424
    D2       -2.94064  -0.00220   0.00000  -0.05837  -0.05837  -2.99902
    D3        2.97419  -0.00065   0.00000  -0.02588  -0.02588   2.94831
    D4        0.19124  -0.00108   0.00000  -0.04777  -0.04771   0.14354
    D5       -0.58554  -0.00001   0.00000  -0.04985  -0.04988  -0.63542
    D6       -2.74848   0.00042   0.00000  -0.04966  -0.04971  -2.79820
    D7        1.51209   0.00072   0.00000  -0.04983  -0.04982   1.46227
    D8        2.56588  -0.00118   0.00000  -0.06068  -0.06066   2.50521
    D9        0.40293  -0.00075   0.00000  -0.06049  -0.06050   0.34243
   D10       -1.61968  -0.00045   0.00000  -0.06066  -0.06060  -1.68028
   D11       -2.19703   0.00085   0.00000  -0.02969  -0.02980  -2.22683
   D12        1.98219  -0.00054   0.00000  -0.04817  -0.04817   1.93402
   D13       -0.13312  -0.00134   0.00000  -0.05335  -0.05333  -0.18645
   D14        0.59648   0.00106   0.00000  -0.01026  -0.01031   0.58618
   D15       -1.50748  -0.00033   0.00000  -0.02874  -0.02867  -1.53615
   D16        2.66040  -0.00113   0.00000  -0.03392  -0.03384   2.62656
   D17        2.86584  -0.00128   0.00000  -0.00724  -0.00713   2.85872
   D18       -0.31291  -0.00090   0.00000   0.00130   0.00138  -0.31153
   D19       -1.25340   0.00037   0.00000   0.01127   0.01126  -1.24213
   D20        1.85103   0.00075   0.00000   0.01981   0.01978   1.87081
   D21        0.81293   0.00046   0.00000   0.01479   0.01474   0.82767
   D22       -2.36582   0.00084   0.00000   0.02333   0.02325  -2.34257
   D23       -1.02269  -0.00185   0.00000   0.00186   0.00191  -1.02078
   D24        3.12731  -0.00209   0.00000  -0.00881  -0.00872   3.11859
   D25        1.12545  -0.00129   0.00000  -0.00809  -0.00805   1.11741
   D26       -3.13876  -0.00013   0.00000   0.00067   0.00060  -3.13817
   D27        1.01124  -0.00037   0.00000  -0.01000  -0.01003   1.00120
   D28       -0.99062   0.00044   0.00000  -0.00928  -0.00936  -0.99998
   D29        1.08059  -0.00041   0.00000   0.00345   0.00343   1.08402
   D30       -1.05259  -0.00065   0.00000  -0.00723  -0.00720  -1.05980
   D31       -3.05445   0.00015   0.00000  -0.00651  -0.00652  -3.06098
   D32        3.11217  -0.00023   0.00000  -0.01037  -0.01033   3.10184
   D33        0.00671  -0.00051   0.00000  -0.01818  -0.01823  -0.01152
   D34        2.85446  -0.00154   0.00000  -0.04158  -0.04160   2.81286
   D35       -0.33563  -0.00224   0.00000  -0.07645  -0.07646  -0.41210
   D36       -1.31667  -0.00057   0.00000  -0.04058  -0.04059  -1.35726
   D37        1.77642  -0.00127   0.00000  -0.07545  -0.07546   1.70097
   D38        0.69137  -0.00009   0.00000  -0.02025  -0.02022   0.67115
   D39       -2.49872  -0.00078   0.00000  -0.05512  -0.05508  -2.55380
   D40        3.10774  -0.00064   0.00000  -0.03198  -0.03175   3.07600
   D41       -0.03206  -0.00038   0.00000  -0.02423  -0.02410  -0.05616
   D42        0.00751  -0.00016   0.00000  -0.00256  -0.00255   0.00496
   D43       -3.13229   0.00011   0.00000   0.00518   0.00509  -3.12720
   D44       -3.11273   0.00061   0.00000   0.02473   0.02490  -3.08783
   D45        0.14204   0.00045   0.00000   0.08197   0.08218   0.22421
   D46       -0.00931  -0.00001   0.00000  -0.00295  -0.00295  -0.01225
   D47       -3.03773  -0.00016   0.00000   0.05429   0.05433  -2.98340
   D48       -0.00267   0.00028   0.00000   0.00721   0.00723   0.00456
   D49        3.13728   0.00004   0.00000   0.00009   0.00012   3.13740
   D50       -0.00351  -0.00030   0.00000  -0.00922  -0.00925  -0.01276
   D51        3.13674  -0.00007   0.00000  -0.01643  -0.01635   3.12039
   D52        0.00831   0.00021   0.00000   0.00794   0.00792   0.01623
   D53        3.03598   0.00056   0.00000  -0.04914  -0.04894   2.98704
   D54       -3.13201  -0.00001   0.00000   0.01479   0.01472  -3.11729
   D55       -0.10434   0.00034   0.00000  -0.04229  -0.04214  -0.14647
   D56        3.05691  -0.00070   0.00000   0.00084   0.00088   3.05778
   D57       -1.11131   0.00016   0.00000   0.01144   0.01139  -1.09992
   D58        0.92831  -0.00097   0.00000  -0.00589  -0.00587   0.92244
   D59       -1.07957   0.00037   0.00000   0.01768   0.01771  -1.06186
   D60        1.03539   0.00122   0.00000   0.02828   0.02823   1.06362
   D61        3.07502   0.00009   0.00000   0.01095   0.01096   3.08598
   D62        0.97119  -0.00004   0.00000   0.01219   0.01223   0.98342
   D63        3.08615   0.00081   0.00000   0.02279   0.02274   3.10889
   D64       -1.15741  -0.00032   0.00000   0.00546   0.00548  -1.15193
   D65        1.03793   0.00064   0.00000   0.01278   0.01311   1.05104
   D66       -1.01116  -0.00141   0.00000  -0.04149  -0.04175  -1.05291
   D67       -1.10121   0.00078   0.00000   0.01456   0.01480  -1.08641
   D68        3.13288  -0.00126   0.00000  -0.03972  -0.04006   3.09282
   D69       -3.11660   0.00142   0.00000   0.02049   0.02079  -3.09581
   D70        1.11749  -0.00062   0.00000  -0.03379  -0.03407   1.08342
         Item               Value     Threshold  Converged?
 Maximum Force            0.010531     0.000450     NO 
 RMS     Force            0.002699     0.000300     NO 
 Maximum Displacement     0.336541     0.001800     NO 
 RMS     Displacement     0.081947     0.001200     NO 
 Predicted change in Energy=-2.132086D-03
 GradGradGradGradGradGradGradGradGradGradGradGradGradGradGradGradGradGrad

                          Input orientation:                          
 ---------------------------------------------------------------------
 Center     Atomic      Atomic             Coordinates (Angstroms)
 Number     Number       Type             X           Y           Z
 ---------------------------------------------------------------------
      1          8           0        0.925813   -1.272282   -0.789309
      2          6           0        1.161396   -0.116654   -0.440333
      3          7           0        0.239188    0.878496   -0.569711
      4          6           0       -0.984886    0.711439   -1.333714
      5          6           0       -1.086707    1.859468   -2.331561
      6          8           0       -1.986034    1.601015   -3.299706
      7          8           0       -0.466903    2.891175   -2.257209
      8          6           0       -2.277406    0.676651   -0.477894
      9          6           0       -2.339808   -0.400262    0.565735
     10          6           0       -3.135678   -0.504041    1.682420
     11          7           0       -2.925550   -1.700919    2.326273
     12          6           0       -2.009017   -2.317046    1.614804
     13          7           0       -1.626204   -1.582043    0.529928
     14          6           0        2.495351    0.289711    0.161867
     15          6           0        3.098288   -0.799049    1.071637
     16          7           0        4.432009   -0.511307    1.592711
     17          1           0        0.522650    1.831271   -0.385629
     18          1           0       -0.899319   -0.223217   -1.892082
     19          1           0       -2.030695    2.378404   -3.877900
     20          1           0       -3.114963    0.571717   -1.175912
     21          1           0       -2.401998    1.646099    0.015327
     22          1           0       -3.852497    0.214739    2.050794
     23          1           0       -1.580428   -3.283109    1.833759
     24          1           0       -0.847810   -1.791400   -0.091852
     25          1           0        2.394249    1.231168    0.712027
     26          1           0        3.178813    0.481741   -0.674738
     27          1           0        2.432502   -0.966231    1.923267
     28          1           0        3.135125   -1.738237    0.517837
     29          1           0        4.443095    0.333874    2.154163
     30          1           0        5.107505   -0.391295    0.844953
 ---------------------------------------------------------------------
                    Distance matrix (angstroms):
                    1          2          3          4          5
     1  O    0.000000
     2  C    1.229943   0.000000
     3  N    2.268375   1.362912   0.000000
     4  C    2.807543   2.467872   1.452572   0.000000
     5  C    4.029471   3.540589   2.413384   1.524480   0.000000
     6  O    4.799664   4.586144   3.595347   2.378816   1.346436
     7  O    4.629121   3.872910   2.719759   2.423303   1.205863
     8  C    3.762437   3.529321   2.526345   1.550563   2.500581
     9  C    3.641545   3.653908   3.094460   2.584493   3.882135
    10  C    4.816155   4.808430   4.286400   3.898764   5.088861
    11  N    4.972281   5.183352   5.005564   4.793866   6.144357
    12  C    3.935038   4.372280   4.476385   4.349060   5.819598
    13  N    2.889486   3.295374   3.277674   3.023989   4.508123
    14  C    2.409981   1.518951   2.443797   3.811386   4.638153
    15  C    2.899434   2.550150   3.699004   4.973891   6.013622
    16  N    4.306566   3.871166   4.918065   6.277087   7.174727
    17  H    3.155557   2.050708   1.010949   2.103700   2.525367
    18  H    2.376500   2.522990   2.063646   1.092098   2.136781
    19  H    5.622085   5.313344   4.283247   3.216422   1.884561
    20  H    4.458438   4.393425   3.422269   2.140480   2.666018
    21  H    4.498746   4.001588   2.812001   2.168343   2.698779
    22  H    5.754100   5.608446   4.904030   4.463720   5.436890
    23  H    4.147909   4.766081   5.138738   5.132637   6.636245
    24  H    1.975264   2.638773   2.922030   2.797358   4.289779
    25  H    3.267656   2.159742   2.532098   3.984185   4.666395
    26  H    2.857575   2.117308   2.968138   4.221777   4.778897
    27  H    3.117987   2.814977   3.798497   5.010094   6.202658
    28  H    2.608986   2.728228   4.051729   5.138448   6.235898
    29  H    4.859530   4.207604   5.038743   6.463035   7.282024
    30  H    4.575314   4.159226   5.226294   6.563523   7.316040
                    6          7          8          9         10
     6  O    0.000000
     7  O    2.249238   0.000000
     8  C    2.983617   3.368679   0.000000
     9  C    4.367139   4.723383   1.500932   0.000000
    10  C    5.529423   5.845556   2.607225   1.375196   0.000000
    11  N    6.590683   6.938341   3.733133   2.265898   1.375215
    12  C    6.285231   6.670545   3.662463   2.209983   2.135631
    13  N    4.992737   5.396461   2.557629   1.380984   2.183766
    14  C    5.812471   4.625418   4.830966   4.900810   5.886477
    15  C    7.121746   6.116335   5.785916   5.476117   6.270759
    16  N    8.341997   7.099162   7.121440   6.850148   7.568222
    17  H    3.852058   2.367577   3.030177   3.752133   4.807689
    18  H    2.547583   3.165397   2.169980   2.854333   4.225781
    19  H    0.969864   2.309766   3.810101   5.249993   6.359766
    20  H    2.616188   3.682569   1.095327   2.139846   3.054135
    21  H    3.341333   3.234073   1.094815   2.120002   2.817904
    22  H    5.833806   6.097905   3.014720   2.207228   1.079896
    23  H    7.097298   7.489842   4.637803   3.239652   3.188247
    24  H    4.805659   5.173042   2.878202   2.143302   3.168544
    25  H    5.951274   4.445017   4.852604   5.009418   5.876454
    26  H    5.900752   4.647670   5.463247   5.724673   6.811810
    27  H    7.307096   6.384552   5.536052   4.993812   5.592517
    28  H    7.207670   6.488987   6.009880   5.636255   6.496342
    29  H    8.525493   7.078705   7.225674   7.004987   7.639532
    30  H    8.453744   7.174402   7.578083   7.452551   8.286381
                   11         12         13         14         15
    11  N    0.000000
    12  C    1.313709   0.000000
    13  N    2.220200   1.365186   0.000000
    14  C    6.167125   5.403290   4.541602   0.000000
    15  C    6.218851   5.355737   4.819477   1.541626   0.000000
    16  N    7.489123   6.689395   6.243231   2.537634   1.460522
    17  H    5.632128   5.255436   4.136004   2.562755   3.959308
    18  H    4.907518   4.232469   2.870696   4.000698   5.009598
    19  H    7.478863   7.226168   5.939503   6.416187   7.803883
    20  H    4.179240   4.166072   3.124895   5.774496   6.747960
    21  H    4.100866   4.291768   3.359697   5.083826   6.111275
    22  H    2.145895   3.162031   3.240037   6.623355   7.092244
    23  H    2.134303   1.079309   2.143758   5.672058   5.351801
    24  H    3.189439   2.130113   1.018007   3.946152   4.232039
    25  H    6.285157   5.726569   4.910332   1.095098   2.178709
    26  H    7.143761   6.323669   5.366434   1.097226   2.167194
    27  H    5.423182   4.652627   4.335172   2.164225   1.093844
    28  H    6.324841   5.291555   4.763906   2.156061   1.090929
    29  H    7.646367   6.996287   6.568506   2.786557   2.064917
    30  H    8.272810   7.412562   6.845433   2.784551   2.062668
                   16         17         18         19         20
    16  N    0.000000
    17  H    4.968359   0.000000
    18  H    6.375722   2.917587   0.000000
    19  H    8.946762   4.360605   3.462935   0.000000
    20  H    8.111412   3.929790   2.460468   3.426440   0.000000
    21  H    7.337997   2.957807   3.064408   3.978864   1.755467
    22  H    8.328867   5.262247   4.945638   6.568852   3.329117
    23  H    6.624982   5.958650   4.869161   8.054720   5.125680
    24  H    5.687959   3.884355   2.388027   5.755053   3.449564
    25  H    2.822107   2.251190   4.443446   6.477940   5.860939
    26  H    2.774521   2.993329   4.313937   6.402855   6.314340
[...]
 323458,0.07138374,-0.08116922,-0.03426159,0.00012078,-0.00004828,0.000
 49220,-0.00016011,0.00037809,-0.00023505,0.00023167,-0.00018015,0.0002
 3951,0.00004228,-0.00006655,-0.00021232,-0.00002211,-0.00028919,0.0009
 9708,0.00003136,-0.00001008,0.00003162,-0.00012936,0.00018274,-0.00001
 151,-0.00017276,0.00008757,0.00002669,0.00066542,0.00062416,-0.0010552
 5,-0.00001151,-0.00061263,-0.00040752,-0.07431157,0.07738286,-0.001891
 17,-0.00527013,-0.00332452,-0.00150964,0.00674695,0.00195644,0.0017049
 1,-0.00242048,-0.00050331,-0.00057113,0.00051582,0.00078451,-0.0000061
 1,0.00016674,-0.00059118,0.00020627,-0.00014317,0.00013837,0.00000063,
 -0.00026257,0.00025348,-0.00127811,-0.00080029,0.00026678,-0.00394052,
 -0.00604976,0.00167797,-0.00047978,0.00183907,0.00382025,0.00186210,0.
 00613845,-0.00165524,0.01151927,-0.01206146,-0.01279252,0.18760351,-0.
 03687965,-0.21183735,-0.00016921,-0.00084758,-0.00060051,-0.00013011,-
 0.00041502,0.00059686,-0.00007666,0.00019986,-0.00039402,0.00002479,-0
 .00007515,0.00018213,-0.00001662,0.00113683,-0.00096840,-0.00004549,0.
 00003009,0.00001236,0.00000021,0.00046077,-0.00034169,0.00013495,0.000
 05737,-0.00016510,0.00072956,0.00038390,0.00095787,-0.00119965,-0.0001
 0485,-0.00019175,-0.19225309,0.04787897,0.22297674,-0.00721928,-0.0034
 1467,-0.00411061,0.00409409,-0.02941178,-0.00577502,-0.00013735,0.0008
 2939,0.00054992,0.00029627,0.00014750,0.00023518,-0.00005152,-0.000059
 51,-0.00007076,0.00007003,0.00000095,0.00008811,0.00007271,0.00006680,
 0.00005727,0.00005642,-0.00001960,0.00003824,0.00009528,-0.00013815,-0
 .00000951,-0.00002986,0.00000661,0.00007710,-0.00006163,0.00006792,0.0
 0009619,0.00001498,0.00010660,-0.00016546,-0.00018895,-0.00004215,0.00
 022563,-0.05107369,-0.00423681,-0.00127429,-0.00028480,0.00715130,0.00
 150163,0.00070407,0.00002568,0.00107561,-0.00158098,0.00041164,-0.0011
 1859,0.00026760,-0.00020990,0.00009924,-0.00000198,-0.00000135,-0.0000
 0344,0.00002891,0.00000717,-0.00002067,-0.00002774,0.00001611,-0.00000
 387,-0.00001292,0.00000078,0.00000735,-0.00000511,-0.00000309,-0.00000
 451,0.00037851,0.00008181,-0.00033548,0.05310835,-0.00248981,0.0013478
 9,-0.00102024,0.00424565,-0.00917335,-0.00020405,0.00105857,0.00088037
 ,0.00124050,-0.00051529,0.00062522,-0.00016781,-0.00021754,-0.00026405
 ,-0.00002131,0.00007363,0.00006410,0.00005020,0.00013679,0.00017564,0.
 00001213,0.00000956,-0.00002388,-0.00001981,0.00009108,-0.00010797,-0.
 00000651,-0.00001066,0.00001323,0.00005555,-0.00005714,0.00005692,0.00
 006301,0.00001523,0.00005664,-0.00014355,-0.00013892,-0.00003703,0.000
 13121,-0.00904005,-0.28133176,-0.07057675,-0.00133012,-0.01995555,-0.0
 0561248,-0.00010342,0.00264158,-0.00031642,-0.00028001,0.00119161,-0.0
 0036101,0.00018958,0.00009010,0.00015795,-0.00001040,-0.00000605,-0.00
 001282,0.00000238,0.00000068,-0.00001575,-0.00002467,0.00001825,-0.000
 00055,-0.00001630,0.00000429,0.00000561,0.00001788,0.00001945,-0.00000
 302,0.00026006,0.00004065,-0.00012838,0.00687732,0.30794634,-0.0050706
 3,-0.00163053,0.00040420,0.00511976,-0.01276939,-0.00518042,-0.0000459
 2,0.00087919,0.00005614,0.00015259,0.00023866,0.00000807,-0.00022878,-
 0.00037596,0.00000742,0.00008904,0.00009712,0.00006419,0.00021933,0.00
 024065,-0.00003454,0.00002674,0.00001747,0.00001983,0.00006825,-0.0001
 4316,-0.00000832,-0.00002356,-0.00000457,0.00004462,-0.00006191,0.0000
 5242,0.00009179,0.00001130,0.00011652,-0.00015164,-0.00022244,-0.00003
 510,0.00019512,-0.00365624,-0.06806306,-0.06692013,0.00011290,0.027481
 56,0.00655484,0.00207056,-0.00081102,0.00184126,-0.00124957,0.00026462
 ,0.00024731,0.00013375,-0.00006014,0.00007153,-0.00002243,0.00000033,-
 0.00000639,0.00000251,-0.00000443,-0.00001361,-0.00001110,0.00000432,0
 .00001123,-0.00000039,0.00000152,0.00001065,-0.00000591,-0.00000696,-0
 .00000043,0.00038040,0.00012171,-0.00025803,0.00566279,0.07360234,0.07
 199770,0.00292748,0.00025714,-0.00297885,-0.02341504,0.00610888,0.0233
 3923,-0.00315387,-0.00121652,-0.00302179,0.00044820,0.00109958,-0.0009
 3864,-0.00043079,-0.00066904,0.00014087,-0.00010399,0.00024795,-0.0002
 8549,0.00012272,0.00023099,-0.00014953,0.00016308,0.00003870,0.0000418
 5,-0.00003400,0.00001624,-0.00001694,0.00001823,-0.00000716,-0.0000435
 6,0.00000577,-0.00005075,0.00002659,0.00001453,-0.00001298,0.00001035,
 0.00004360,0.00005107,-0.00006099,-0.17041688,0.02520135,0.12728944,0.
 00407083,-0.00115692,-0.00540335,0.00221166,-0.00038898,-0.00038655,-0
 .00028283,-0.00033536,0.00053966,-0.00010739,0.00002287,-0.00003860,-0
 .00004680,0.00000220,-0.00001690,-0.00002199,-0.00001190,0.00001565,-0
 .00000980,-0.00000371,0.00002492,0.00000251,0.00000123,-0.00000232,-0.
 00000113,-0.00000206,0.00000269,-0.00009293,0.00001433,0.00010055,0.00
 144309,0.00001990,-0.00163481,0.18601569,-0.00020392,-0.00055337,-0.00
 151604,-0.00347871,0.00016097,0.00631732,0.00021883,0.00007554,0.00037
 967,-0.00006782,0.00031134,0.00022610,0.00004346,0.00007992,-0.0000549
 4,-0.00001212,-0.00001539,0.00000315,-0.00006538,-0.00004505,0.0000726
 1,-0.00000350,-0.00003034,-0.00001283,0.00002397,-0.00005120,-0.000003
 90,0.00000273,0.00000247,0.00002135,-0.00001471,0.00001118,0.00002102,
 -0.00000154,0.00003870,-0.00005630,-0.00006074,-0.00002383,0.00002040,
 0.02544828,-0.05179472,-0.03173677,-0.01378678,0.00156257,0.01783325,-
 0.00136959,0.00031239,-0.00203273,-0.00017020,0.00032181,-0.00076935,0
 .00013800,-0.00001791,0.00007700,0.00001332,-0.00000602,-0.00000629,0.
 00000386,0.00000799,-0.00000168,-0.00001271,0.00000979,-0.00000859,-0.
 00000603,0.00000073,0.00000180,0.00000161,0.00000474,0.00000378,0.0000
 9189,0.00004163,0.00001539,0.02191241,-0.00431705,-0.02091719,-0.03004
 579,0.05436251,0.00047661,0.00062748,-0.00052372,-0.01063963,0.0010969
 5,0.01058366,-0.00109851,0.00006999,-0.00129545,0.00011144,0.00061521,
 -0.00080017,-0.00025535,-0.00024476,-0.00001764,-0.00002691,0.00010157
 ,-0.00009751,0.00006301,0.00007512,-0.00001611,0.00013905,0.00001226,0
 .00005970,0.00000382,-0.00001459,-0.00002150,0.00000106,0.00000689,0.0
 0001281,0.00000868,0.00000681,0.00004652,0.00001123,-0.00000955,-0.000
 02602,-0.00000238,0.00001643,0.00001654,0.12590038,-0.03157972,-0.1692
 3888,0.01887721,-0.00186774,-0.02280291,0.00067920,-0.00110640,0.00354
 022,-0.00029149,0.00006053,0.00012444,0.00001773,-0.00000685,0.0000133
 9,-0.00002110,0.00000565,-0.00002511,0.00001563,0.00000028,-0.00000132
 ,-0.00001246,0.00000161,0.00000666,-0.00000671,-0.00000220,-0.00000207
 ,-0.00001155,-0.00001394,-0.00000595,0.00003459,0.00002470,-0.00001060
 ,0.00542290,-0.00118280,-0.00607513,-0.13588040,0.02949340,0.18871985,
 0.00004505,0.00001658,0.00026773,0.00068406,-0.00020414,-0.00010243,0.
 00034011,-0.00008771,0.00015819,-0.00002889,-0.00002206,-0.00004206,0.
 00000958,0.00003961,-0.00000887,0.00000741,-0.00001463,0.00001109,-0.0
 0000158,-0.00002016,0.00000554,0.00000186,-0.00000608,0.00002793,-0.00
 000479,0.00000454,0.00001178,0.00000012,-0.00000298,0.00000051,-0.0000
 0875,0.00000911,-0.00003244,-0.00001735,-0.00003143,0.00001175,-0.0000
 1120,-0.00000685,-0.00002937,0.00569449,-0.00089704,-0.00466108,-0.161
 38779,0.02454029,0.12177944,-0.03148969,0.00766746,0.01835745,0.000014
 12,0.00002554,0.00005100,0.00000759,-0.00000521,0.00000310,0.00000084,
 0.00000054,0.00000264,0.00001211,0.00000307,-0.00001070,0.00000366,-0.
 00000009,-0.00000047,0.00000686,0.00000289,0.00000293,0.00001333,0.000
 01372,0.00001034,-0.00003341,-0.00001283,0.00001731,0.00009688,-0.0003
 4086,0.00035740,0.00033679,0.00115455,-0.00195856,0.18782975,-0.000177
 23,0.00030368,0.00003224,-0.00146390,0.00032385,-0.00034532,0.00020084
 ,-0.00015643,-0.00036496,0.00000842,-0.00006111,0.00004654,0.00000025,
 0.00005851,-0.00000210,-0.00000349,-0.00001382,0.00000716,-0.00000115,
 -0.00004607,-0.00001192,0.00001788,0.00003863,-0.00002245,-0.00005014,
 0.00000634,-0.00001533,-0.00003689,-0.00003103,-0.00001585,0.00004289,
 0.00003157,0.00003806,0.00003259,-0.00003326,0.00006601,0.00009663,0.0
 0008095,-0.00001461,-0.01174275,0.00184905,0.01795834,0.02738402,-0.05
 772396,-0.03087360,-0.00502444,0.00239768,0.00329749,0.00000239,-0.000
 02646,0.00016697,-0.00001752,0.00000230,-0.00001254,-0.00000245,0.0000
 0361,-0.00000175,-0.00000671,-0.00001131,0.00002073,0.00000841,-0.0000
 1692,0.00000762,0.00001721,-0.00000896,-0.00000062,-0.00005134,-0.0000
 6526,-0.00002223,-0.00003730,-0.00000537,-0.00012807,-0.00069099,0.000
 87374,-0.00080440,0.00084885,-0.00157159,0.00374229,-0.02913736,0.0563
 1233,-0.00108586,-0.00078970,0.00000193,0.00314474,0.00066312,0.000155
 48,-0.00107975,0.00026574,0.00026826,0.00003688,0.00007697,-0.00005486
 ,0.00002258,0.00006600,-0.00002486,-0.00002785,-0.00000525,-0.00000710
 ,-0.00005970,-0.00004985,0.00002289,0.00000956,0.00003624,-0.00008475,
 -0.00003266,0.00011962,-0.00006673,-0.00001027,-0.00000977,0.00005008,
 0.00003913,0.00001170,0.00003328,-0.00003306,-0.00009837,0.00009266,0.
 00012796,0.00004165,0.00006454,0.01421874,-0.00290155,-0.02099584,0.12
 817266,-0.03045308,-0.18303673,-0.01362441,0.00368932,0.01208173,0.000
 12928,0.00002278,-0.00020440,0.00001961,0.00000287,-0.00000512,0.00000
 972,-0.00000417,-0.00001092,-0.00001433,-0.00001262,0.00003374,-0.0000
 1402,-0.00000178,0.00000509,-0.00000603,-0.00000793,-0.00000663,-0.000
 02894,-0.00004091,-0.00000707,0.00000607,-0.00002716,-0.00024217,-0.00
 012420,0.00021806,0.00125529,-0.00167509,0.00332555,-0.00293214,-0.130
 90900,0.02782348,0.19890688,-0.00045141,-0.00116660,0.00011970,0.00035
 339,0.00235271,0.00062332,0.00017599,-0.00051440,-0.00030460,0.0000078
 6,-0.00005765,-0.00000528,0.00002213,0.00009582,-0.00003613,-0.0000084
 8,-0.00001966,0.00000717,-0.00003117,-0.00007290,0.00001704,0.00001582
 ,0.00001913,-0.00000339,-0.00005527,0.00007294,0.00000388,-0.00000044,
 -0.00004675,-0.00003325,0.00005402,-0.00002059,-0.00003408,-0.00005080
 ,-0.00001677,0.00013259,0.00011974,0.00003110,-0.00004886,0.00091302,0
 .00521188,0.00187374,-0.04975621,-0.00697935,0.00162756,-0.00741792,-0
 .03303563,-0.01694612,0.00014985,-0.00004605,0.00009310,-0.00004049,0.
 00002198,-0.00002488,0.00000156,0.00000046,-0.00000489,-0.00000218,-0.
 00000538,0.00000927,0.00000700,-0.00001283,0.00000370,0.00001107,-0.00
 000811,-0.00000370,-0.00004245,-0.00004895,0.00000489,-0.00018269,0.00
 002565,-0.00009330,0.00004712,0.00054377,-0.00160583,0.00033400,-0.000
 56960,-0.00027833,0.00207079,0.02148814,0.00597987,0.05880697,-0.00055
 789,0.00273014,-0.00060863,-0.00155307,-0.00356471,-0.00131739,0.00017
 759,0.00048187,0.00022425,-0.00000942,0.00006290,-0.00012892,-0.000083
 46,-0.00009774,-0.00000955,0.00004447,0.00002192,0.00003956,0.00007009
 ,0.00008426,0.00000269,0.00001619,-0.00001972,0.00003671,0.00004872,-0
 .00005624,0.00000956,-0.00000180,0.00002404,0.00002271,-0.00003680,0.0
 0002149,0.00001385,0.00001583,0.00002603,-0.00009196,-0.00007778,-0.00
 002943,0.00004009,0.00197705,-0.02064985,-0.00238456,-0.01230704,-0.28
 880204,-0.07310186,-0.00304600,-0.00163993,-0.00296486,-0.00018033,0.0
 0017598,0.00001360,0.00005285,0.00000110,0.00003724,-0.00000483,-0.000
 00152,-0.00000351,0.00001598,0.00000626,-0.00001910,-0.00000858,0.0000
 0832,-0.00000096,-0.00000806,0.00000489,0.00000348,0.00002082,0.000032
 08,0.00000092,0.00012133,-0.00000196,0.00003995,0.00053223,-0.00079475
 ,0.00323156,-0.00038980,0.00096563,-0.00011923,0.00068162,-0.00319772,
 -0.00134198,0.01544497,0.31255823,0.00031193,-0.00119872,-0.00052025,0
 .00052936,0.00212817,0.00135780,-0.00019348,-0.00047825,-0.00000113,-0
 .00001550,-0.00009921,0.00005238,0.00007544,0.00005935,0.00003140,-0.0
 0003444,-0.00001353,-0.00003911,-0.00005086,-0.00003887,-0.00000699,-0
 .00004267,-0.00002340,-0.00002019,-0.00000869,0.00005570,0.00000261,0.
 00001882,0.00003021,-0.00001132,-0.00000479,-0.00001873,-0.00003538,-0
 .00001004,-0.00006577,0.00001227,0.00000437,-0.00001977,-0.00002275,-0
 .00045312,0.02750674,0.00465566,-0.00099748,-0.07313058,-0.07010443,-0
 .00399382,-0.01426483,-0.00655221,0.00036334,-0.00012128,0.00000350,-0
 .00005799,0.00000857,-0.00002206,0.00000345,-0.00000019,0.00000658,-0.
 00001203,0.00000349,-0.00000047,0.00000485,0.00000501,-0.00000824,-0.0
 0000646,0.00000657,-0.00000311,0.00004186,0.00004074,0.00001449,-0.000
 08736,-0.00002746,0.00011494,-0.00172511,0.00359133,-0.00387641,0.0005
 7917,-0.00053223,0.00147944,-0.00130026,-0.02158534,-0.00626577,0.0097
 5217,0.07761565,0.07877737,0.00009994,0.00080032,-0.00009010,-0.000427
 16,-0.00075224,-0.00009277,0.00001260,0.00014671,0.00013539,-0.0000368
 9,0.00000283,-0.00003796,-0.00003943,-0.00000185,-0.00004895,0.0000326
 5,-0.00000271,0.00004088,0.00002179,0.00000756,0.00002976,0.00000179,-
 0.00001027,0.00000196,0.00001934,-0.00001040,-0.00000457,0.00000451,0.
 00001956,0.00001577,0.00000284,0.00001473,0.00001436,0.00001085,-0.000
 01106,-0.00003085,-0.00001040,0.00000021,0.00001309,0.00100522,-0.0010
 3189,0.00059967,-0.00323884,-0.03604261,-0.01331233,-0.06588353,-0.032
 74680,-0.00584595,-0.00003454,0.00003590,-0.00009042,0.00001530,0.0000
 0494,0.00001178,-0.00000329,0.00000152,-0.00000831,0.00000690,0.000005
 06,-0.00000171,-0.00000839,0.00000525,-0.00000398,-0.00001185,-0.00000
 070,-0.00000201,0.00000497,0.00000668,-0.00000423,0.00001698,-0.000022
 54,0.00001698,-0.00008254,0.00094657,-0.00044063,-0.00000882,0.0002175
 3,0.00001372,0.00069063,0.00004429,0.00077778,-0.00610410,-0.00054750,
 -0.00277626,0.06975622,0.00000122,0.00010758,-0.00002680,0.00033725,-0
 .00035628,0.00030768,-0.00009891,0.00009963,0.00001885,0.00007364,-0.0
 0000265,0.00002946,0.00004101,-0.00000111,0.00004865,-0.00003682,0.000
 00605,-0.00004102,-0.00003027,0.00000032,-0.00002458,0.00000150,0.0000
 0401,-0.00001701,0.00000751,-0.00001990,-0.00001211,-0.00000376,0.0000
 1131,0.00000007,-0.00001060,-0.00000020,0.00003570,0.00002029,-0.00000
 188,-0.00004114,-0.00004089,0.00000448,0.00003663,0.00105971,0.0025173
 4,0.00041384,0.00245650,-0.00610932,0.00440714,-0.03767165,-0.37486288
 ,-0.15666268,0.00004389,-0.00001990,0.00000237,-0.00000207,-0.00000456
 ,-0.00000272,0.00000568,-0.00000267,0.00000551,-0.00000898,-0.00000379
 ,0.00000586,0.00000171,0.00000092,0.00000166,-0.00000150,0.00000243,-0
 .00000156,0.00000592,0.00000489,-0.00000459,0.00004899,0.00000436,-0.0
 0000682,-0.00018269,0.00012446,-0.00070547,-0.00002122,-0.00009206,-0.
 00006189,-0.00037194,0.00005923,0.00010622,-0.00221308,0.00172044,0.00
 007540,0.03922871,0.38477936,0.00070619,0.00090262,0.00026347,-0.00171
 938,-0.00037496,-0.00017641,0.00076811,-0.00019473,0.00000698,-0.00020
 783,-0.00007282,-0.00016488,-0.00012488,0.00003477,-0.00017217,0.00012
 530,-0.00003082,0.00014021,0.00010640,-0.00001915,0.00007235,0.0000003
 0,-0.00001777,0.00009932,-0.00001667,0.00006058,0.00005806,0.00000491,
 -0.00001239,-0.00000146,0.00001933,0.00000690,-0.00012747,-0.00003904,
 -0.00002359,0.00010952,0.00012586,-0.00002679,-0.00013856,0.00190775,-
 0.00190189,0.00109132,-0.00516154,-0.01375625,-0.00860428,-0.00309621,
 -0.10989106,-0.06080820,-0.00012411,0.00010078,0.00004436,-0.00000261,
 0.00002738,0.00000919,-0.00002151,0.00001035,-0.00001129,0.00004462,0.
 00001768,-0.00003498,-0.00000316,-0.00000087,-0.00000850,0.00000821,-0
 .00000250,0.00000524,0.00000473,0.00000636,0.00000827,-0.00016872,-0.0
 0006409,0.00010458,-0.00051009,0.00065785,-0.00026077,-0.00000578,0.00
 001861,-0.00035145,0.00046513,0.00083607,0.00053279,-0.00159303,0.0006
 7145,0.00060588,0.01162251,0.14826439,0.07876234,0.00032212,0.00030535
 ,0.00002878,-0.00021940,-0.00065117,-0.00015477,0.00056568,-0.00002714
 ,0.00011394,-0.00008869,-0.00009747,-0.00002280,-0.00003723,0.00002976
 ,-0.00007741,0.00005910,-0.00002023,0.00007054,0.00004422,-0.00000884,
 0.00003529,-0.00000443,-0.00001682,0.00004578,0.00000314,0.00000224,0.
 00003284,0.00000699,-0.00000102,-0.00000625,0.00000121,0.00000082,-0.0
 0004827,-0.00000947,0.00001047,0.00002074,0.00001951,-0.00001804,-0.00
 005290,0.00173258,0.00048401,0.00111331,-0.02680538,0.00542604,0.02545
 536,-0.24793836,0.04780934,0.17119377,-0.00004805,0.00003453,0.0000192
 7,-0.00000364,0.00000841,0.00000480,-0.00000891,0.00000507,-0.00000392
 ,0.00001934,0.00000968,-0.00001822,0.00000020,0.00000190,-0.00000602,-
 0.00000015,0.00000025,0.00000133,0.00000680,0.00001067,0.00000449,-0.0
 0006560,-0.00002265,0.00007503,-0.00001595,0.00008720,-0.00012717,-0.0
 0003191,0.00059871,-0.00129285,-0.00488258,-0.00174915,-0.00396940,0.0
 0105332,-0.00040736,0.00008560,0.00418724,-0.00263917,-0.00311481,0.27
 213829,-0.00025806,-0.00056125,-0.00023529,0.00059489,0.00072213,0.000
 55560,-0.00043091,-0.00009073,-0.00013971,0.00011543,0.00008649,0.0000
 6516,0.00009265,-0.00002263,0.00012910,-0.00009326,0.00002004,-0.00011
 557,-0.00007601,0.00000245,-0.00005399,0.00000712,0.00000882,-0.000039
 24,-0.00000135,-0.00004337,-0.00001770,0.00000027,-0.00001064,-0.00001
 353,-0.00001980,-0.00003239,0.00004559,0.00000354,0.00006109,-0.000050
 97,-0.00008281,-0.00000567,0.00004405,-0.00010856,-0.00023364,-0.00135
 327,-0.00187955,0.00095736,0.00779112,0.02462282,-0.04925202,-0.053729
 14,0.00006320,-0.00006991,-0.00000073,-0.00000392,-0.00000774,-0.00000
 581,0.00001308,-0.00000406,0.00001216,-0.00002540,-0.00000755,0.000014
 64,0.00000526,-0.00000233,0.00000676,0.00000504,0.00000154,0.00000105,
 -0.00000460,0.00000112,0.00000325,0.00008711,0.00007027,-0.00001679,0.
 00016848,-0.00015971,-0.00001864,0.00015090,0.00024862,0.00025248,-0.0
 0299816,0.00062782,-0.00072516,-0.00047424,-0.00006996,0.00049126,0.02
 969222,-0.00796959,-0.02522610,-0.04916540,0.05573547,0.00026911,0.000
 21250,0.00006311,-0.00056071,-0.00023670,-0.00054329,0.00034106,-0.000
 04045,0.00008225,-0.00010589,-0.00006458,-0.00000235,-0.00005236,0.000
 03861,-0.00008728,0.00006441,-0.00002213,0.00007666,0.00004615,-0.0000
 1922,0.00003959,-0.00000890,-0.00001233,0.00002104,0.00000034,0.000023
 65,0.00001792,0.00000278,0.00000484,0.00000465,0.00001684,0.00001409,-
 0.00003392,-0.00000315,-0.00002145,0.00003457,0.00004787,0.00000012,-0
 .00003978,-0.00144367,-0.00019559,0.00220276,-0.01756415,0.00667647,0.
 00756211,0.20014288,-0.08265291,-0.20412968,-0.00003694,0.00004311,-0.
 00000541,-0.00000247,0.00000557,0.00000232,-0.00001099,0.00000593,-0.0
 0000731,0.00001463,0.00000609,-0.00000869,-0.00000251,0.00000058,-0.00
 000639,-0.00000415,-0.00000195,-0.00000103,-0.00000072,-0.00000110,-0.
 00000038,-0.00006543,-0.00003486,0.00003309,0.00011443,0.00000749,-0.0
 0009535,0.00042860,-0.00018152,-0.00035955,-0.00248600,0.00017810,0.00
 044044,0.00076767,0.00008925,0.00037549,0.00949737,0.00384896,-0.01105
 346,-0.18940609,0.07232941,0.20541785\\-0.00000321,-0.00000033,0.00000
 020,0.00000306,-0.00000120,-0.00000250,0.00000080,-0.00000043,-0.00000
 127,0.00000058,-0.00000073,-0.00000170,-0.00000003,-0.00000007,-0.0000
 0018,0.00000036,0.00000008,-0.00000004,0.00000036,0.00000017,-0.000000
 30,0.00000124,0.00000233,0.00000165,-0.00000215,-0.00000260,-0.0000011
 8,0.00000019,-0.00000147,0.00000004,-0.00000028,0.00000151,-0.00000061
 ,-0.00000048,0.00000199,0.00000153,-0.00000026,0.00000103,0.,0.0000027
 4,-0.00000322,0.00000339,-0.00000119,0.00000291,0.00000016,0.00000093,
 -0.00000028,-0.00000097,0.00000034,0.00000076,0.00000130,-0.00000015,0
 .00000083,0.,0.00000041,0.00000008,-0.00000004,-0.00000047,0.00000062,
 0.00000083,0.00000077,0.00000036,-0.00000049,-0.00000030,0.00000033,-0
 .00000021,-0.00000074,0.00000020,-0.00000006,0.00000004,-0.00000075,-0
 .00000079,-0.00000120,0.00000092,-0.00000023,-0.00000161,0.00000070,-0
 .00000038,0.,-0.00000152,-0.00000065,-0.00000002,-0.00000095,0.0000015
 8,0.,-0.00000052,0.00000035,0.00000027,-0.00000073,0.00000054\\\@


 IT IS BETTER TO THINK YOU ARE HALF DRY THAN TO KNOW YOU
 ARE ALL WET.  -- SNOOPY
 Job cpu time:       0 days  4 hours 44 minutes 37.3 seconds.
 File lengths (MBytes):  RWF=    542 Int=      0 D2E=      0 Chk=     17 Scr=      1
 Normal termination of Gaussian 09 at Thu Jul 29 01:14:23 2021.
