 Entering Gaussian System, Link 0=g09
 Input=opt_freq-conf-599.com
 Output=opt_freq-conf-599.log
 Initial command:
 /aerosol/software/g09/l1.exe "/scratch/nicole/10564/Gau-102170.inp" -scrdir="/scratch/nicole/10564/"
 Entering Link 1 = /aerosol/software/g09/l1.exe PID=    102175.
  
 Copyright (c) 1988,1990,1992,1993,1995,1998,2003,2009,2013,
            Gaussian, Inc.  All Rights Reserved.
  
 This is part of the Gaussian(R) 09 program.  It is based on
 the Gaussian(R) 03 system (copyright 2003, Gaussian, Inc.),
 the Gaussian(R) 98 system (copyright 1998, Gaussian, Inc.),
 the Gaussian(R) 94 system (copyright 1995, Gaussian, Inc.),
 the Gaussian 92(TM) system (copyright 1992, Gaussian, Inc.),
 the Gaussian 90(TM) system (copyright 1990, Gaussian, Inc.),
 the Gaussian 88(TM) system (copyright 1988, Gaussian, Inc.),
 the Gaussian 86(TM) system (copyright 1986, Carnegie Mellon
 University), and the Gaussian 82(TM) system (copyright 1983,
 Carnegie Mellon University). Gaussian is a federally registered
 trademark of Gaussian, Inc.
  
 This software contains proprietary and confidential information,
 including trade secrets, belonging to Gaussian, Inc.
  
 This software is provided under written license and may be
 used, copied, transmitted, or stored only in accord with that
 written license.
  
 The following legend is applicable only to US Government
 contracts under FAR:
  
                    RESTRICTED RIGHTS LEGEND
  
 Use, reproduction and disclosure by the US Government is
 subject to restrictions as set forth in subparagraphs (a)
 and (c) of the Commercial Computer Software - Restricted
 Rights clause in FAR 52.227-19.
  
 Gaussian, Inc.
 340 Quinnipiac St., Bldg. 40, Wallingford CT 06492
  
  
 ---------------------------------------------------------------
 Warning -- This program may not be used in any manner that
 competes with the business of Gaussian, Inc. or will provide
 assistance to any competitor of Gaussian, Inc.  The licensee
 of this program is prohibited from giving any competitor of
 Gaussian, Inc. access to this program.  By using this program,
 the user acknowledges that Gaussian, Inc. is engaged in the
 business of creating and licensing software in the field of
 computational chemistry and represents and warrants to the
 licensee that it is not a competitor of Gaussian, Inc. and that
 it will not use this program in any manner prohibited above.
 ---------------------------------------------------------------
  

 Cite this work as:
 Gaussian 09, Revision D.01,
 M. J. Frisch, G. W. Trucks, H. B. Schlegel, G. E. Scuseria, 
 M. A. Robb, J. R. Cheeseman, G. Scalmani, V. Barone, B. Mennucci, 
 G. A. Petersson, H. Nakatsuji, M. Caricato, X. Li, H. P. Hratchian, 
 A. F. Izmaylov, J. Bloino, G. Zheng, J. L. Sonnenberg, M. Hada, 
 M. Ehara, K. Toyota, R. Fukuda, J. Hasegawa, M. Ishida, T. Nakajima, 
 Y. Honda, O. Kitao, H. Nakai, T. Vreven, J. A. Montgomery, Jr., 
 J. E. Peralta, F. Ogliaro, M. Bearpark, J. J. Heyd, E. Brothers, 
 K. N. Kudin, V. N. Staroverov, T. Keith, R. Kobayashi, J. Normand, 
 K. Raghavachari, A. Rendell, J. C. Burant, S. S. Iyengar, J. Tomasi, 
 M. Cossi, N. Rega, J. M. Millam, M. Klene, J. E. Knox, J. B. Cross, 
 V. Bakken, C. Adamo, J. Jaramillo, R. Gomperts, R. E. Stratmann, 
 O. Yazyev, A. J. Austin, R. Cammi, C. Pomelli, J. W. Ochterski, 
 R. L. Martin, K. Morokuma, V. G. Zakrzewski, G. A. Voth, 
 P. Salvador, J. J. Dannenberg, S. Dapprich, A. D. Daniels, 
 O. Farkas, J. B. Foresman, J. V. Ortiz, J. Cioslowski, 
 and D. J. Fox, Gaussian, Inc., Wallingford CT, 2013.
 
 ******************************************
 Gaussian 09:  ES64L-G09RevD.01 24-Apr-2013
                28-Jul-2021 
 ******************************************
 %mem=2gb
 %nproc=4
 Will use up to    4 processors via shared memory.
 %chk=conf-599.chk
 ----------------------------------------------------------------------
 # B3LYP/6-311++G(d,p) opt=calcfc freq=noraman nosymm integral(ultrafin
 egrid)
 ----------------------------------------------------------------------
 1/10=4,14=-1,18=20,19=15,26=4,38=1/1,3;
 2/9=110,12=2,15=1,17=6,18=5,40=1/2;
 3/5=4,6=6,7=1111,11=2,16=1,25=1,30=1,71=2,74=-5,75=-5,140=1/1,2,3;
 4//1;
 5/5=2,38=5/2;
 8/6=4,10=90,11=11/1;
 11/6=1,8=1,9=11,15=111,16=1,31=1/1,2,10;
 10/6=1,13=1,31=1/2;
 6/7=2,8=2,9=2,10=2,28=1/1;
 7/10=1,18=20,25=1,30=1/1,2,3,16;
 1/10=4,14=-1,18=20,19=15,26=4/3(2);
 2/9=110,15=1/2;
 99//99;
 2/9=110,15=1/2;
 3/5=4,6=6,7=1111,11=2,16=1,25=1,30=1,71=1,74=-5,75=-5/1,2,3;
 4/5=5,16=3,69=1/1;
 5/5=2,38=5/2;
 7/30=1/1,2,3,16;
 1/14=-1,18=20,19=15,26=4/3(-5);
 2/9=110,15=1/2;
 6/7=2,8=2,9=2,10=2,19=2,28=1/1;
 99/9=1/99;
 ------------------------------------------------------------
 Candidate Structure: Conf:599 OPT and FREQ calc in gas phase
 ------------------------------------------------------------
 Symbolic Z-matrix:
 Charge =  0 Multiplicity = 1
 O                     2.72597   1.58442   0.80496 
 C                     1.89025   0.7942    0.39654 
 N                     1.01823   1.17937  -0.59685 
 C                    -0.22342   0.51242  -0.94559 
 C                    -0.35346   0.36518  -2.47029 
 O                     0.79938   0.38118  -3.14534 
 O                    -1.40833   0.21685  -3.03333 
 C                    -1.43812   1.22132  -0.31345 
 C                    -2.59983   0.32156  -0.04955 
 C                    -3.27608   0.03772   1.09941 
 N                    -4.28908  -0.87107   0.85532 
 C                    -4.21717  -1.12742  -0.42721 
 N                    -3.2084   -0.43415  -1.01823 
 C                     1.79286  -0.63724   0.89213 
 C                     2.89167  -0.97889   1.89448 
 N                     4.25342  -0.88716   1.38912 
 H                     1.0638    2.17973  -0.7571 
 H                    -0.16805  -0.50709  -0.56088 
 H                     1.5207    0.5465   -2.51517 
 H                    -1.72582   2.06197  -0.94728 
 H                    -1.14041   1.63792   0.64684 
 H                    -3.10629   0.4317    2.08936 
 H                    -4.85382  -1.7908   -0.98585 
 H                    -2.91886  -0.4383   -1.98574 
 H                     0.81068  -0.78591   1.35308 
 H                     1.8427   -1.31413   0.03058 
 H                     2.81273  -0.30246   2.7475 
 H                     2.7276   -1.99298   2.26837 
 H                     4.36042  -1.47269   0.5682 
 H                     4.41663   0.06831   1.08825 
 

 GradGradGradGradGradGradGradGradGradGradGradGradGradGradGradGradGradGrad
 Berny optimization.
 Initialization pass.
                           ----------------------------
                           !    Initial Parameters    !
                           ! (Angstroms and Degrees)  !
 --------------------------                            --------------------------
 ! Name  Definition              Value          Derivative Info.                !
 --------------------------------------------------------------------------------
 ! R1    R(1,2)                  1.2205         calculate D2E/DX2 analytically  !
 ! R2    R(2,3)                  1.3768         calculate D2E/DX2 analytically  !
 ! R3    R(2,14)                 1.5179         calculate D2E/DX2 analytically  !
 ! R4    R(3,4)                  1.4519         calculate D2E/DX2 analytically  !
 ! R5    R(3,17)                 1.0141         calculate D2E/DX2 analytically  !
 ! R6    R(4,5)                  1.5373         calculate D2E/DX2 analytically  !
 ! R7    R(4,8)                  1.542          calculate D2E/DX2 analytically  !
 ! R8    R(4,18)                 1.0911         calculate D2E/DX2 analytically  !
 ! R9    R(5,6)                  1.336          calculate D2E/DX2 analytically  !
 ! R10   R(5,7)                  1.2049         calculate D2E/DX2 analytically  !
 ! R11   R(6,19)                 0.972          calculate D2E/DX2 analytically  !
 ! R12   R(8,9)                  1.4929         calculate D2E/DX2 analytically  !
 ! R13   R(8,20)                 1.0914         calculate D2E/DX2 analytically  !
 ! R14   R(8,21)                 1.0883         calculate D2E/DX2 analytically  !
 ! R15   R(9,10)                 1.3631         calculate D2E/DX2 analytically  !
 ! R16   R(9,13)                 1.3711         calculate D2E/DX2 analytically  !
 ! R17   R(10,11)                1.3826         calculate D2E/DX2 analytically  !
 ! R18   R(10,22)                1.0789         calculate D2E/DX2 analytically  !
 ! R19   R(11,12)                1.3099         calculate D2E/DX2 analytically  !
 ! R20   R(12,13)                1.3592         calculate D2E/DX2 analytically  !
 ! R21   R(12,23)                1.0759         calculate D2E/DX2 analytically  !
 ! R22   R(13,24)                1.0099         calculate D2E/DX2 analytically  !
 ! R23   R(14,15)                1.526          calculate D2E/DX2 analytically  !
 ! R24   R(14,25)                1.0951         calculate D2E/DX2 analytically  !
 ! R25   R(14,26)                1.0968         calculate D2E/DX2 analytically  !
 ! R26   R(15,16)                1.4554         calculate D2E/DX2 analytically  !
 ! R27   R(15,27)                1.0915         calculate D2E/DX2 analytically  !
 ! R28   R(15,28)                1.0932         calculate D2E/DX2 analytically  !
 ! R29   R(16,29)                1.014          calculate D2E/DX2 analytically  !
 ! R30   R(16,30)                1.0149         calculate D2E/DX2 analytically  !
 ! A1    A(1,2,3)              119.6035         calculate D2E/DX2 analytically  !
 ! A2    A(1,2,14)             123.04           calculate D2E/DX2 analytically  !
 ! A3    A(3,2,14)             117.3065         calculate D2E/DX2 analytically  !
 ! A4    A(2,3,4)              125.904          calculate D2E/DX2 analytically  !
 ! A5    A(2,3,17)             111.1928         calculate D2E/DX2 analytically  !
 ! A6    A(4,3,17)             116.9738         calculate D2E/DX2 analytically  !
 ! A7    A(3,4,5)              110.7664         calculate D2E/DX2 analytically  !
 ! A8    A(3,4,8)              111.347          calculate D2E/DX2 analytically  !
 ! A9    A(3,4,18)             107.5253         calculate D2E/DX2 analytically  !
 ! A10   A(5,4,8)              112.5815         calculate D2E/DX2 analytically  !
 ! A11   A(5,4,18)             105.3371         calculate D2E/DX2 analytically  !
 ! A12   A(8,4,18)             108.9662         calculate D2E/DX2 analytically  !
 ! A13   A(4,5,6)              115.2759         calculate D2E/DX2 analytically  !
 ! A14   A(4,5,7)              123.32           calculate D2E/DX2 analytically  !
 ! A15   A(6,5,7)              121.3869         calculate D2E/DX2 analytically  !
 ! A16   A(5,6,19)             108.3499         calculate D2E/DX2 analytically  !
 ! A17   A(4,8,9)              114.1036         calculate D2E/DX2 analytically  !
 ! A18   A(4,8,20)             108.8859         calculate D2E/DX2 analytically  !
 ! A19   A(4,8,21)             108.7983         calculate D2E/DX2 analytically  !
 ! A20   A(9,8,20)             111.2071         calculate D2E/DX2 analytically  !
 ! A21   A(9,8,21)             106.7145         calculate D2E/DX2 analytically  !
 ! A22   A(20,8,21)            106.8403         calculate D2E/DX2 analytically  !
 ! A23   A(8,9,10)             131.3425         calculate D2E/DX2 analytically  !
 ! A24   A(8,9,13)             123.5522         calculate D2E/DX2 analytically  !
 ! A25   A(10,9,13)            105.1028         calculate D2E/DX2 analytically  !
 ! A26   A(9,10,11)            110.5822         calculate D2E/DX2 analytically  !
 ! A27   A(9,10,22)            128.2644         calculate D2E/DX2 analytically  !
 ! A28   A(11,10,22)           121.1521         calculate D2E/DX2 analytically  !
 ! A29   A(10,11,12)           105.1456         calculate D2E/DX2 analytically  !
 ! A30   A(11,12,13)           111.5099         calculate D2E/DX2 analytically  !
 ! A31   A(11,12,23)           126.6264         calculate D2E/DX2 analytically  !
 ! A32   A(13,12,23)           121.8634         calculate D2E/DX2 analytically  !
 ! A33   A(9,13,12)            107.6581         calculate D2E/DX2 analytically  !
 ! A34   A(9,13,24)            123.4952         calculate D2E/DX2 analytically  !
 ! A35   A(12,13,24)           128.8467         calculate D2E/DX2 analytically  !
 ! A36   A(2,14,15)            112.2951         calculate D2E/DX2 analytically  !
 ! A37   A(2,14,25)            108.844          calculate D2E/DX2 analytically  !
 ! A38   A(2,14,26)            108.8205         calculate D2E/DX2 analytically  !
 ! A39   A(15,14,25)           109.8114         calculate D2E/DX2 analytically  !
 ! A40   A(15,14,26)           110.1863         calculate D2E/DX2 analytically  !
 ! A41   A(25,14,26)           106.7147         calculate D2E/DX2 analytically  !
 ! A42   A(14,15,16)           115.5643         calculate D2E/DX2 analytically  !
 ! A43   A(14,15,27)           108.8135         calculate D2E/DX2 analytically  !
 ! A44   A(14,15,28)           108.9203         calculate D2E/DX2 analytically  !
 ! A45   A(16,15,27)           107.4558         calculate D2E/DX2 analytically  !
 ! A46   A(16,15,28)           108.521          calculate D2E/DX2 analytically  !
 ! A47   A(27,15,28)           107.2617         calculate D2E/DX2 analytically  !
 ! A48   A(15,16,29)           110.0871         calculate D2E/DX2 analytically  !
 ! A49   A(15,16,30)           108.224          calculate D2E/DX2 analytically  !
 ! A50   A(29,16,30)           106.6573         calculate D2E/DX2 analytically  !
 ! D1    D(1,2,3,4)           -163.0385         calculate D2E/DX2 analytically  !
 ! D2    D(1,2,3,17)           -11.2382         calculate D2E/DX2 analytically  !
 ! D3    D(14,2,3,4)            19.4548         calculate D2E/DX2 analytically  !
 ! D4    D(14,2,3,17)          171.2551         calculate D2E/DX2 analytically  !
 ! D5    D(1,2,14,15)           -2.7675         calculate D2E/DX2 analytically  !
 ! D6    D(1,2,14,25)          119.0351         calculate D2E/DX2 analytically  !
 ! D7    D(1,2,14,26)         -125.0281         calculate D2E/DX2 analytically  !
 ! D8    D(3,2,14,15)          174.6464         calculate D2E/DX2 analytically  !
 ! D9    D(3,2,14,25)          -63.5511         calculate D2E/DX2 analytically  !
 ! D10   D(3,2,14,26)           52.3857         calculate D2E/DX2 analytically  !
 ! D11   D(2,3,4,5)           -134.8834         calculate D2E/DX2 analytically  !
 ! D12   D(2,3,4,8)             99.0215         calculate D2E/DX2 analytically  !
 ! D13   D(2,3,4,18)           -20.2766         calculate D2E/DX2 analytically  !
 ! D14   D(17,3,4,5)            74.7447         calculate D2E/DX2 analytically  !
 ! D15   D(17,3,4,8)           -51.3504         calculate D2E/DX2 analytically  !
 ! D16   D(17,3,4,18)         -170.6486         calculate D2E/DX2 analytically  !
 ! D17   D(3,4,5,6)             23.8293         calculate D2E/DX2 analytically  !
 ! D18   D(3,4,5,7)           -157.6646         calculate D2E/DX2 analytically  !
 ! D19   D(8,4,5,6)            149.2328         calculate D2E/DX2 analytically  !
 ! D20   D(8,4,5,7)            -32.2611         calculate D2E/DX2 analytically  !
 ! D21   D(18,4,5,6)           -92.1433         calculate D2E/DX2 analytically  !
 ! D22   D(18,4,5,7)            86.3628         calculate D2E/DX2 analytically  !
 ! D23   D(3,4,8,9)           -152.0728         calculate D2E/DX2 analytically  !
 ! D24   D(3,4,8,20)            83.0445         calculate D2E/DX2 analytically  !
 ! D25   D(3,4,8,21)           -33.0524         calculate D2E/DX2 analytically  !
 ! D26   D(5,4,8,9)             82.84           calculate D2E/DX2 analytically  !
 ! D27   D(5,4,8,20)           -42.0426         calculate D2E/DX2 analytically  !
 ! D28   D(5,4,8,21)          -158.1396         calculate D2E/DX2 analytically  !
 ! D29   D(18,4,8,9)           -33.6364         calculate D2E/DX2 analytically  !
 ! D30   D(18,4,8,20)         -158.519          calculate D2E/DX2 analytically  !
 ! D31   D(18,4,8,21)           85.384          calculate D2E/DX2 analytically  !
 ! D32   D(4,5,6,19)            -3.6863         calculate D2E/DX2 analytically  !
 ! D33   D(7,5,6,19)           177.776          calculate D2E/DX2 analytically  !
 ! D34   D(4,8,9,10)           122.7649         calculate D2E/DX2 analytically  !
 ! D35   D(4,8,9,13)           -56.5688         calculate D2E/DX2 analytically  !
 ! D36   D(20,8,9,10)         -113.596          calculate D2E/DX2 analytically  !
 ! D37   D(20,8,9,13)           67.0704         calculate D2E/DX2 analytically  !
 ! D38   D(21,8,9,10)            2.5702         calculate D2E/DX2 analytically  !
 ! D39   D(21,8,9,13)         -176.7635         calculate D2E/DX2 analytically  !
 ! D40   D(8,9,10,11)         -179.668          calculate D2E/DX2 analytically  !
 ! D41   D(8,9,10,22)            0.7448         calculate D2E/DX2 analytically  !
 ! D42   D(13,9,10,11)          -0.2431         calculate D2E/DX2 analytically  !
 ! D43   D(13,9,10,22)        -179.8304         calculate D2E/DX2 analytically  !
 ! D44   D(8,9,13,12)          179.8357         calculate D2E/DX2 analytically  !
 ! D45   D(8,9,13,24)           -0.1672         calculate D2E/DX2 analytically  !
 ! D46   D(10,9,13,12)           0.3539         calculate D2E/DX2 analytically  !
 ! D47   D(10,9,13,24)        -179.6491         calculate D2E/DX2 analytically  !
 ! D48   D(9,10,11,12)           0.0335         calculate D2E/DX2 analytically  !
 ! D49   D(22,10,11,12)        179.6548         calculate D2E/DX2 analytically  !
 ! D50   D(10,11,12,13)          0.1996         calculate D2E/DX2 analytically  !
 ! D51   D(10,11,12,23)       -179.6095         calculate D2E/DX2 analytically  !
 ! D52   D(11,12,13,9)          -0.3581         calculate D2E/DX2 analytically  !
 ! D53   D(11,12,13,24)        179.6451         calculate D2E/DX2 analytically  !
 ! D54   D(23,12,13,9)         179.4615         calculate D2E/DX2 analytically  !
 ! D55   D(23,12,13,24)         -0.5354         calculate D2E/DX2 analytically  !
 ! D56   D(2,14,15,16)         -61.6341         calculate D2E/DX2 analytically  !
 ! D57   D(2,14,15,27)          59.314          calculate D2E/DX2 analytically  !
 ! D58   D(2,14,15,28)         175.9403         calculate D2E/DX2 analytically  !
 ! D59   D(25,14,15,16)        177.1165         calculate D2E/DX2 analytically  !
 ! D60   D(25,14,15,27)        -61.9354         calculate D2E/DX2 analytically  !
 ! D61   D(25,14,15,28)         54.6909         calculate D2E/DX2 analytically  !
 ! D62   D(26,14,15,16)         59.8484         calculate D2E/DX2 analytically  !
 ! D63   D(26,14,15,27)       -179.2034         calculate D2E/DX2 analytically  !
 ! D64   D(26,14,15,28)        -62.5771         calculate D2E/DX2 analytically  !
 ! D65   D(14,15,16,29)        -55.923          calculate D2E/DX2 analytically  !
 ! D66   D(14,15,16,30)         60.2916         calculate D2E/DX2 analytically  !
 ! D67   D(27,15,16,29)       -177.6021         calculate D2E/DX2 analytically  !
 ! D68   D(27,15,16,30)        -61.3876         calculate D2E/DX2 analytically  !
 ! D69   D(28,15,16,29)         66.7147         calculate D2E/DX2 analytically  !
 ! D70   D(28,15,16,30)       -177.0708         calculate D2E/DX2 analytically  !
 --------------------------------------------------------------------------------
 Trust Radius=3.00D-01 FncErr=1.00D-07 GrdErr=1.00D-06
 Number of steps in this run=    160 maximum allowed number of steps=    180.
 GradGradGradGradGradGradGradGradGradGradGradGradGradGradGradGradGradGrad

                          Input orientation:                          
 ---------------------------------------------------------------------
 Center     Atomic      Atomic             Coordinates (Angstroms)
 Number     Number       Type             X           Y           Z
 ---------------------------------------------------------------------
      1          8           0        2.725971    1.584423    0.804964
      2          6           0        1.890253    0.794201    0.396535
      3          7           0        1.018228    1.179373   -0.596848
      4          6           0       -0.223423    0.512422   -0.945592
      5          6           0       -0.353465    0.365177   -2.470292
      6          8           0        0.799382    0.381175   -3.145336
      7          8           0       -1.408327    0.216853   -3.033330
      8          6           0       -1.438118    1.221322   -0.313451
      9          6           0       -2.599832    0.321563   -0.049549
     10          6           0       -3.276084    0.037720    1.099414
     11          7           0       -4.289075   -0.871068    0.855325
     12          6           0       -4.217169   -1.127420   -0.427213
     13          7           0       -3.208396   -0.434153   -1.018235
     14          6           0        1.792865   -0.637241    0.892133
     15          6           0        2.891674   -0.978892    1.894484
     16          7           0        4.253425   -0.887160    1.389122
     17          1           0        1.063800    2.179732   -0.757100
     18          1           0       -0.168050   -0.507092   -0.560880
     19          1           0        1.520703    0.546501   -2.515168
     20          1           0       -1.725825    2.061974   -0.947285
     21          1           0       -1.140410    1.637918    0.646836
     22          1           0       -3.106286    0.431698    2.089360
     23          1           0       -4.853822   -1.790798   -0.985847
     24          1           0       -2.918858   -0.438301   -1.985735
     25          1           0        0.810684   -0.785913    1.353080
     26          1           0        1.842697   -1.314126    0.030580
     27          1           0        2.812732   -0.302459    2.747501
     28          1           0        2.727601   -1.992983    2.268367
     29          1           0        4.360421   -1.472691    0.568202
     30          1           0        4.416630    0.068305    1.088249
 ---------------------------------------------------------------------
                    Distance matrix (angstroms):
                    1          2          3          4          5
     1  O    0.000000
     2  C    1.220528   0.000000
     3  N    2.246225   1.376806   0.000000
     4  C    3.593404   2.519590   1.451945   0.000000
     5  C    4.657981   3.665655   2.460538   1.537303   0.000000
     6  O    4.556799   3.729000   2.679516   2.429450   1.336037
     7  O    5.804754   4.793531   3.570863   2.418679   1.204885
     8  C    4.326931   3.429952   2.472997   1.541956   2.561527
     9  C    5.539781   4.536875   3.758421   2.546888   3.302736
    10  C    6.205131   5.268523   4.756237   3.704879   4.625119
    11  N    7.432553   6.416207   5.872017   4.656917   5.298779
    12  C    7.555100   6.455369   5.723588   4.348311   4.618466
    13  N    6.528048   5.432002   4.543719   3.132306   3.301217
    14  C    2.411239   1.517936   2.473300   2.960469   4.113086
    15  C    2.790178   2.527955   3.791391   4.471452   5.602564
    16  N    2.963626   3.065418   4.322167   5.239455   6.138962
    17  H    2.357381   1.983328   1.014138   2.114804   2.869891
    18  H    3.822999   2.616605   2.062211   1.091090   2.107388
    19  H    3.681471   2.945495   2.081576   2.346637   1.883453
    20  H    4.808005   4.060680   2.903725   2.158316   2.661211
    21  H    3.869982   3.155856   2.533126   2.154862   3.457692
    22  H    6.082241   5.287955   4.978589   4.186687   5.326619
    23  H    8.488367   7.353622   6.591981   5.171754   5.206248
    24  H    6.613888   5.506526   4.477335   3.041569   2.731596
    25  H    3.096328   2.139441   2.776264   2.835303   4.159138
    26  H    3.127527   2.140381   2.700176   2.925413   3.727942
    27  H    2.709483   2.753302   4.074401   4.849867   6.139699
    28  H    3.865150   3.460246   4.603830   5.031415   6.124441
    29  H    3.474684   3.357083   4.422786   5.219567   5.901773
    30  H    2.288491   2.718083   3.952614   5.085651   5.958620
                    6          7          8          9         10
     6  O    0.000000
     7  O    2.216648   0.000000
     8  C    3.705648   2.899585   0.000000
     9  C    4.598055   3.214592   1.492913   0.000000
    10  C    5.894513   4.538742   2.602925   1.363084   0.000000
    11  N    6.592859   4.960234   3.724525   2.257146   1.382616
    12  C    5.901681   4.060605   3.640420   2.204078   2.138640
    13  N    4.609946   2.779328   2.524124   1.371061   2.170640
    14  C    4.280810   5.136767   3.917518   4.593675   5.117888
    15  C    5.623812   6.648547   5.335075   5.968843   6.301339
    16  N    5.839554   7.268587   6.303817   7.106188   7.591629
    17  H    3.001399   3.891726   2.715690   4.168407   5.183575
    18  H    2.899026   2.859264   2.159099   2.619482   3.565567
    19  H    0.971981   2.992721   3.749342   4.807149   6.027704
    20  H    3.746089   2.803010   1.091429   2.144493   3.269539
    21  H    4.441031   3.954090   1.088270   2.085103   2.706763
    22  H    6.531373   5.401035   3.029816   2.200808   1.078908
    23  H    6.429586   4.482665   4.603479   3.227877   3.190775
    24  H    3.980141   1.951509   2.782710   2.104279   3.142030
    25  H    4.647362   5.016986   3.444333   3.850388   4.176648
    26  H    3.748199   4.722352   4.160602   4.734761   5.401093
    27  H    6.264700   7.176701   5.455371   6.124438   6.317088
    28  H    6.217945   7.077943   5.860952   6.253911   6.444722
    29  H    5.468838   7.007429   6.454307   7.214297   7.802547
    30  H    5.577241   7.137199   6.129624   7.112627   7.692783
                   11         12         13         14         15
    11  N    0.000000
    12  C    1.309881   0.000000
    13  N    2.206578   1.359246   0.000000
    14  C    6.086545   6.172638   5.357551   0.000000
    15  C    7.256352   7.479839   6.781705   1.526046   0.000000
    16  N    8.559176   8.666473   7.853620   2.522659   1.455393
    17  H    6.368718   6.239769   5.015201   3.344674   4.510978
    18  H    4.372752   4.098541   3.075417   2.444049   3.951370
    19  H    6.864637   6.331251   5.056369   3.617322   4.863273
    20  H    4.292131   4.080381   2.904084   4.801083   6.216415
    21  H    4.031448   4.274006   3.367863   3.720299   4.966088
    22  H    2.149194   3.161969   3.227579   5.155353   6.164679
    23  H    2.134187   1.075857   2.132829   7.002568   8.303506
    24  H    3.183772   2.142309   1.009904   5.524675   7.007898
    25  H    5.124700   5.344659   4.679730   1.095105   2.158908
    26  H    6.202833   6.080001   5.233345   1.096781   2.164919
    27  H    7.371521   7.757505   7.102964   2.143502   1.091527
    28  H    7.244938   7.499679   6.961879   2.146110   1.093201
    29  H    8.675147   8.642055   7.802713   2.719421   2.039627
    30  H    8.759337   8.846970   7.926586   2.724042   2.017951
                   16         17         18         19         20
    16  N    0.000000
    17  H    4.917906   0.000000
    18  H    4.847309   2.962259   0.000000
    19  H    4.976609   2.442745   2.789478   0.000000
    20  H    7.064532   2.798579   3.029203   3.910864   0.000000
    21  H    6.001704   2.668921   2.646720   4.274456   1.750358
    22  H    7.509664   5.342993   4.066734   6.528697   3.712773
    23  H    9.455104   7.129915   4.876982   6.959624   4.962832
    24  H    7.939318   4.921911   3.098691   4.578191   2.958561
    25  H    3.444418   3.648558   2.167696   4.152445   4.453764
    26  H    2.799918   3.665264   2.245938   3.169613   5.008854
    27  H    2.064622   4.637053   4.457839   5.485049   6.311932
    28  H    2.079436   5.416016   4.312460   5.548675   6.827599
    29  H    1.014004   5.095520   4.765949   4.652775   7.199511
    30  H    1.014926   4.370915   4.906119   4.647546   6.771105
                   21         22         23         24         25
    21  H    0.000000
    22  H    2.720388   0.000000
    23  H    5.311419   4.177351   0.000000
    24  H    3.795259   4.171142   2.563808   0.000000
    25  H    3.190690   4.167413   6.210234   5.017769   0.000000
    26  H    4.241846   5.637278   6.789972   5.244522   1.758712
    27  H    4.879056   6.000576   8.656160   7.434589   2.487235
    28  H    5.547460   6.320234   8.252804   7.238572   2.443224
    29  H    6.319906   7.854447   9.349788   7.783346   3.699775
    30  H    5.791306   7.597930   9.679847   7.969656   3.715195
                   26         27         28         29         30
    26  H    0.000000
    27  H    3.057139   0.000000
    28  H    2.500318   1.759173   0.000000
    29  H    2.579363   2.917898   2.413994   0.000000
    30  H    3.107235   2.337322   2.914517   1.627353   0.000000
 Symmetry turned off by external request.
 Stoichiometry    C9H14N4O3
 Framework group  C1[X(C9H14N4O3)]
 Deg. of freedom    84
 Full point group                 C1      NOp   1
 Rotational constants (GHZ):      0.7676288      0.2889335      0.2376474
 Standard basis: 6-311++G(d,p) (5D, 7F)
   450 basis functions,   702 primitive gaussians,   466 cartesian basis functions
    60 alpha electrons       60 beta electrons
       nuclear repulsion energy      1119.2355079682 Hartrees.
 NAtoms=   30 NActive=   30 NUniq=   30 SFac= 1.00D+00 NAtFMM=   60 NAOKFM=F Big=F
 Integral buffers will be    131072 words long.
 Raffenetti 2 integral format.
 Two-electron integral symmetry is turned off.
 One-electron integrals computed using PRISM.
 NBasis=   450 RedAO= T EigKep=  2.10D-06  NBF=   450
 NBsUse=   450 1.00D-06 EigRej= -1.00D+00 NBFU=   450
 ExpMin= 3.60D-02 ExpMax= 8.59D+03 ExpMxC= 1.30D+03 IAcc=3 IRadAn=         5 AccDes= 0.00D+00
 Harris functional with IExCor=  402 and IRadAn=       5 diagonalized for initial guess.
 HarFok:  IExCor=  402 AccDes= 0.00D+00 IRadAn=         5 IDoV= 1 UseB2=F ITyADJ=14
 ICtDFT=  3500011 ScaDFX=  1.000000  1.000000  1.000000  1.000000
 FoFCou: FMM=F IPFlag=           0 FMFlag=      100000 FMFlg1=           0
         NFxFlg=           0 DoJE=T BraDBF=F KetDBF=T FulRan=T
         wScrn=  0.000000 ICntrl=     500 IOpCl=  0 I1Cent=   200000004 NGrid=           0
         NMat0=    1 NMatS0=      1 NMatT0=    0 NMatD0=    1 NMtDS0=    0 NMtDT0=    0
 Symmetry not used in FoFCou.
 Requested convergence on RMS density matrix=1.00D-08 within 128 cycles.
 Requested convergence on MAX density matrix=1.00D-06.
 Requested convergence on             energy=1.00D-06.
 No special actions if energy rises.
 SCF Done:  E(RB3LYP) =  -796.323639492     A.U. after   15 cycles
            NFock= 15  Conv=0.40D-08     -V/T= 2.0035
 DoSCS=F DFT=T ScalE2(SS,OS)=  1.000000  1.000000
 Range of M.O.s used for correlation:     1   450
 NBasis=   450 NAE=    60 NBE=    60 NFC=     0 NFV=     0
 NROrb=    450 NOA=    60 NOB=    60 NVA=   390 NVB=   390

 **** Warning!!: The largest alpha MO coefficient is  0.13861135D+03

 Symmetrizing basis deriv contribution to polar:
 IMax=3 JMax=2 DiffMx= 0.00D+00
 G2DrvN: will do    31 centers at a time, making    1 passes.
 Calling FoFCou, ICntrl=  3107 FMM=F I1Cent=   0 AccDes= 0.00D+00.
 End of G2Drv F.D. properties file   721 does not exist.
 End of G2Drv F.D. properties file   722 does not exist.
 End of G2Drv F.D. properties file   788 does not exist.
          IDoAtm=111111111111111111111111111111
          Differentiating once with respect to nuclear coordinates.
          There are    93 degrees of freedom in the 1st order CPHF.  IDoFFX=6 NUNeed=     0.
     87 vectors produced by pass  0 Test12= 2.52D-14 1.08D-09 XBig12= 2.13D-01 8.74D-02.
 AX will form    87 AO Fock derivatives at one time.
     87 vectors produced by pass  1 Test12= 2.52D-14 1.08D-09 XBig12= 2.24D-02 2.80D-02.
     87 vectors produced by pass  2 Test12= 2.52D-14 1.08D-09 XBig12= 2.29D-04 1.77D-03.
     87 vectors produced by pass  3 Test12= 2.52D-14 1.08D-09 XBig12= 1.06D-06 9.64D-05.
     87 vectors produced by pass  4 Test12= 2.52D-14 1.08D-09 XBig12= 2.63D-09 3.36D-06.
     83 vectors produced by pass  5 Test12= 2.52D-14 1.08D-09 XBig12= 4.52D-12 1.57D-07.
     34 vectors produced by pass  6 Test12= 2.52D-14 1.08D-09 XBig12= 7.25D-15 8.61D-09.
      9 vectors produced by pass  7 Test12= 2.52D-14 1.08D-09 XBig12= 4.54D-16 1.82D-09.
 InvSVY:  IOpt=1 It=  1 EMax= 7.22D-16
 Solved reduced A of dimension   561 with    93 vectors.
 End of Minotr F.D. properties file   721 does not exist.
 End of Minotr F.D. properties file   722 does not exist.
 End of Minotr F.D. properties file   788 does not exist.

 **********************************************************************

            Population analysis using the SCF density.

 **********************************************************************

 Alpha  occ. eigenvalues --  -19.21026 -19.15498 -19.13114 -14.38617 -14.36740
 Alpha  occ. eigenvalues --  -14.29959 -14.29765 -10.34971 -10.31598 -10.27647
 Alpha  occ. eigenvalues --  -10.22810 -10.22182 -10.21566 -10.21168 -10.21134
 Alpha  occ. eigenvalues --  -10.18929  -1.15485  -1.08622  -1.07306  -1.02736
 Alpha  occ. eigenvalues --   -0.98035  -0.90087  -0.88028  -0.83112  -0.79022
 Alpha  occ. eigenvalues --   -0.76432  -0.70336  -0.67381  -0.66058  -0.62112
 Alpha  occ. eigenvalues --   -0.61055  -0.60317  -0.59090  -0.55910  -0.54957
 Alpha  occ. eigenvalues --   -0.52676  -0.50463  -0.50058  -0.49599  -0.48714
 Alpha  occ. eigenvalues --   -0.47171  -0.45634  -0.45152  -0.44713  -0.44345
 Alpha  occ. eigenvalues --   -0.43195  -0.42063  -0.41883  -0.41376  -0.40299
 Alpha  occ. eigenvalues --   -0.39345  -0.37592  -0.36766  -0.33911  -0.31411
 Alpha  occ. eigenvalues --   -0.29736  -0.29074  -0.27699  -0.25538  -0.24130
 Alpha virt. eigenvalues --   -0.04882  -0.03919  -0.02733  -0.01684  -0.00888
 Alpha virt. eigenvalues --   -0.00346   0.00573   0.01011   0.01435   0.01598
 Alpha virt. eigenvalues --    0.02339   0.03047   0.03319   0.03839   0.04146
 Alpha virt. eigenvalues --    0.04825   0.05250   0.05486   0.06454   0.06780
 Alpha virt. eigenvalues --    0.06880   0.07203   0.07867   0.08604   0.08914
 Alpha virt. eigenvalues --    0.09214   0.09373   0.09694   0.10424   0.10637
 Alpha virt. eigenvalues --    0.11198   0.11442   0.11660   0.11940   0.12197
 Alpha virt. eigenvalues --    0.12276   0.12592   0.13232   0.13612   0.13966
 Alpha virt. eigenvalues --    0.14172   0.14367   0.14759   0.15062   0.15348
 Alpha virt. eigenvalues --    0.15699   0.16150   0.16421   0.16859   0.17217
 Alpha virt. eigenvalues --    0.17545   0.18335   0.18731   0.18994   0.19329
 Alpha virt. eigenvalues --    0.19893   0.20037   0.20221   0.20629   0.21330
 Alpha virt. eigenvalues --    0.21409   0.21871   0.22293   0.22654   0.23214
 Alpha virt. eigenvalues --    0.23467   0.23896   0.24240   0.24724   0.25065
 Alpha virt. eigenvalues --    0.25118   0.25669   0.26393   0.26548   0.26649
 Alpha virt. eigenvalues --    0.27188   0.27608   0.28054   0.28578   0.28823
 Alpha virt. eigenvalues --    0.29039   0.29530   0.29844   0.30290   0.30762
 Alpha virt. eigenvalues --    0.31063   0.31596   0.32246   0.32468   0.33023
 Alpha virt. eigenvalues --    0.33099   0.33898   0.34349   0.35060   0.35114
 Alpha virt. eigenvalues --    0.35550   0.35946   0.35970   0.37452   0.38202
 Alpha virt. eigenvalues --    0.38780   0.39015   0.40057   0.40805   0.41930
 Alpha virt. eigenvalues --    0.43412   0.43747   0.44792   0.45409   0.47578
 Alpha virt. eigenvalues --    0.47844   0.49293   0.49673   0.50909   0.52186
 Alpha virt. eigenvalues --    0.53194   0.54193   0.55218   0.55884   0.56640
 Alpha virt. eigenvalues --    0.57516   0.58609   0.59618   0.60948   0.61533
 Alpha virt. eigenvalues --    0.62243   0.62600   0.63695   0.64961   0.65471
 Alpha virt. eigenvalues --    0.66510   0.66659   0.67429   0.68439   0.69147
 Alpha virt. eigenvalues --    0.69746   0.70231   0.70809   0.72020   0.72289
 Alpha virt. eigenvalues --    0.72516   0.73025   0.73400   0.74383   0.75292
 Alpha virt. eigenvalues --    0.76020   0.76699   0.77441   0.79181   0.80261
 Alpha virt. eigenvalues --    0.81283   0.83155   0.84524   0.85395   0.86477
 Alpha virt. eigenvalues --    0.87088   0.88143   0.88555   0.89312   0.90664
 Alpha virt. eigenvalues --    0.91009   0.92149   0.93075   0.94451   0.94980
 Alpha virt. eigenvalues --    0.96927   0.99616   1.00404   1.01431   1.02780
 Alpha virt. eigenvalues --    1.03612   1.04161   1.05357   1.06760   1.08828
 Alpha virt. eigenvalues --    1.09457   1.11164   1.11322   1.12152   1.13228
 Alpha virt. eigenvalues --    1.17915   1.18347   1.18896   1.20154   1.20418
 Alpha virt. eigenvalues --    1.21590   1.22893   1.23563   1.24453   1.25115
 Alpha virt. eigenvalues --    1.26280   1.26791   1.28581   1.29849   1.31537
 Alpha virt. eigenvalues --    1.32281   1.33744   1.35431   1.37547   1.38588
 Alpha virt. eigenvalues --    1.39712   1.42606   1.43992   1.45097   1.46790
 Alpha virt. eigenvalues --    1.49289   1.50091   1.52794   1.53794   1.54887
 Alpha virt. eigenvalues --    1.56048   1.57575   1.58548   1.59328   1.60256
 Alpha virt. eigenvalues --    1.62187   1.63280   1.63739   1.65511   1.65604
 Alpha virt. eigenvalues --    1.67326   1.68650   1.68956   1.69499   1.70513
 Alpha virt. eigenvalues --    1.72288   1.73408   1.74103   1.74907   1.76123
 Alpha virt. eigenvalues --    1.76435   1.77274   1.78486   1.79537   1.81176
 Alpha virt. eigenvalues --    1.81912   1.83640   1.84173   1.85128   1.86814
 Alpha virt. eigenvalues --    1.87336   1.88359   1.89897   1.92376   1.93055
 Alpha virt. eigenvalues --    1.95432   1.97231   1.98089   2.00320   2.02387
 Alpha virt. eigenvalues --    2.06318   2.07201   2.07966   2.10071   2.11385
 Alpha virt. eigenvalues --    2.12761   2.17402   2.18645   2.19516   2.22758
 Alpha virt. eigenvalues --    2.25105   2.26073   2.26472   2.27353   2.28975
 Alpha virt. eigenvalues --    2.30348   2.34669   2.35740   2.38709   2.40051
 Alpha virt. eigenvalues --    2.44198   2.46571   2.48119   2.49442   2.50090
 Alpha virt. eigenvalues --    2.51693   2.55036   2.55722   2.57496   2.58514
 Alpha virt. eigenvalues --    2.59654   2.59972   2.60127   2.61887   2.62838
 Alpha virt. eigenvalues --    2.63821   2.64867   2.66416   2.69328   2.70757
 Alpha virt. eigenvalues --    2.71595   2.72309   2.74213   2.76085   2.77388
 Alpha virt. eigenvalues --    2.78250   2.79286   2.80348   2.82482   2.83399
 Alpha virt. eigenvalues --    2.84557   2.85223   2.85973   2.89059   2.90146
 Alpha virt. eigenvalues --    2.90934   2.91099   2.92301   2.93388   2.93865
 Alpha virt. eigenvalues --    2.97339   2.97655   2.99017   3.01092   3.01896
 Alpha virt. eigenvalues --    3.03482   3.03849   3.05687   3.08869   3.10147
 Alpha virt. eigenvalues --    3.14223   3.14982   3.17146   3.17775   3.22380
 Alpha virt. eigenvalues --    3.27260   3.30505   3.34075   3.35886   3.36387
 Alpha virt. eigenvalues --    3.42266   3.44987   3.48012   3.51936   3.54159
 Alpha virt. eigenvalues --    3.55336   3.60904   3.62399   3.69819   3.71907
 Alpha virt. eigenvalues --    3.73300   3.78621   3.81442   3.83821   3.84371
 Alpha virt. eigenvalues --    3.86096   3.88988   3.89959   3.94298   3.96561
 Alpha virt. eigenvalues --    4.02785   4.06557   4.09089   4.16134   4.22203
 Alpha virt. eigenvalues --    4.25905   4.33061   4.50827   4.73999   4.75848
 Alpha virt. eigenvalues --    4.78157   4.85645   4.94661   4.95251   4.97047
 Alpha virt. eigenvalues --    5.05537   5.09039   5.22091   5.23849   5.29184
 Alpha virt. eigenvalues --    5.38540   5.57372   5.76363   5.88151  23.74901
 Alpha virt. eigenvalues --   23.77389  23.81170  23.83481  23.86151  23.90632
 Alpha virt. eigenvalues --   23.92050  23.96673  24.16034  35.55919  35.56652
 Alpha virt. eigenvalues --   35.60823  35.70876  49.84001  49.99105  50.00726
          Condensed to atoms (all electrons):
               1          2          3          4          5          6
     1  O    8.017298   0.343847  -0.127436   0.058597   0.004286  -0.000283
     2  C    0.343847   7.926908   0.624529  -1.881378   0.181605   0.070118
     3  N   -0.127436   0.624529   8.715533  -2.523087   0.299781   0.143114
     4  C    0.058597  -1.881378  -2.523087  15.078765  -2.922538  -0.284755
     5  C    0.004286   0.181605   0.299781  -2.922538   9.069599   0.172291
     6  O   -0.000283   0.070118   0.143114  -0.284755   0.172291   7.866681
     7  O   -0.000131  -0.010295  -0.004965  -0.039177   0.395419  -0.115169
     8  C    0.025019  -0.391483  -0.210707  -1.474352   0.135417   0.025325
     9  C   -0.007602   0.383507   0.436640  -0.679495  -0.618524   0.016179
    10  C   -0.000979   0.020376   0.007898   0.385161  -0.128876   0.005843
    11  N    0.000005   0.002079   0.001785  -0.004716   0.004972   0.000098
    12  C   -0.000160   0.029704   0.017639   0.042751   0.055199   0.000996
    13  N    0.000177  -0.017530  -0.008867  -0.208379   0.209510  -0.000206
    14  C    0.011280  -1.561897  -0.551359   1.153901  -0.513618   0.021416
    15  C   -0.003334   0.650399   0.289074  -1.085963  -0.137091   0.015400
    16  N   -0.046638  -0.070777  -0.035246   0.122421   0.019233  -0.001074
    17  H    0.015170  -0.028364   0.236364   0.119292  -0.045659  -0.003713
    18  H    0.004371  -0.258817  -0.143850   0.447607  -0.008014  -0.027374
    19  H   -0.001050  -0.088371  -0.021254   0.127754  -0.003542   0.196426
    20  H    0.003821   0.007416   0.000008  -0.090331  -0.079214   0.001896
    21  H   -0.010208  -0.045142  -0.019543  -0.005910   0.044526  -0.002779
    22  H    0.000002   0.004101   0.000988  -0.004570  -0.007583   0.000131
    23  H    0.000001   0.000310   0.000012   0.003872   0.003370  -0.000100
    24  H   -0.000051   0.010910   0.008995   0.021628  -0.018595   0.006103
    25  H    0.009937  -0.059057   0.001732   0.035186   0.053362  -0.001901
    26  H   -0.007926   0.056775   0.036497  -0.102263  -0.051840   0.004689
    27  H   -0.017102  -0.040812  -0.004062   0.002461  -0.002721   0.000098
    28  H    0.004154   0.007099  -0.000664   0.004767  -0.000512  -0.000151
    29  H    0.002512  -0.005355   0.001578   0.000591   0.003282  -0.000223
    30  H    0.016384   0.037821   0.000177  -0.001768  -0.000977   0.000306
               7          8          9         10         11         12
     1  O   -0.000131   0.025019  -0.007602  -0.000979   0.000005  -0.000160
     2  C   -0.010295  -0.391483   0.383507   0.020376   0.002079   0.029704
     3  N   -0.004965  -0.210707   0.436640   0.007898   0.001785   0.017639
     4  C   -0.039177  -1.474352  -0.679495   0.385161  -0.004716   0.042751
     5  C    0.395419   0.135417  -0.618524  -0.128876   0.004972   0.055199
     6  O   -0.115169   0.025325   0.016179   0.005843   0.000098   0.000996
     7  O    7.994873   0.006198   0.025158  -0.008459   0.001042   0.000697
     8  C    0.006198  15.074634  -4.792314  -1.908347  -0.068781  -0.225702
     9  C    0.025158  -4.792314  11.720612  -0.417012  -0.198916  -0.009046
    10  C   -0.008459  -1.908347  -0.417012   7.531040   0.560364  -0.239966
    11  N    0.001042  -0.068781  -0.198916   0.560364   6.558466   0.351457
    12  C    0.000697  -0.225702  -0.009046  -0.239966   0.351457   5.377821
    13  N   -0.016965  -0.206766  -0.187085   0.101223   0.052133   0.130281
    14  C   -0.000056  -0.078646   0.066681   0.062136  -0.001433  -0.008257
    15  C   -0.002672  -0.134850   0.230166   0.010773   0.001518   0.005338
    16  N    0.000114  -0.003199  -0.016704   0.000934  -0.000032   0.000000
    17  H   -0.000961   0.064365  -0.056582  -0.004743  -0.000077   0.001038
    18  H   -0.013531   0.069406  -0.106421   0.048465   0.002567  -0.041610
    19  H    0.024466  -0.015391   0.028396  -0.001407  -0.000073  -0.000045
    20  H   -0.005797   0.362764   0.051934  -0.042052   0.004089  -0.007598
    21  H   -0.000383   0.733557  -0.364218  -0.027201  -0.002309  -0.004349
    22  H    0.000047  -0.111504  -0.083958   0.519544  -0.072177   0.035410
    23  H   -0.001651   0.010695   0.079998  -0.020251  -0.072687   0.440742
    24  H    0.032761  -0.052102  -0.068837   0.025678   0.011524  -0.018035
    25  H    0.001391  -0.015417   0.002597  -0.016752   0.000826   0.000032
    26  H   -0.001559  -0.037327   0.031286   0.007089  -0.000215   0.002543
    27  H    0.000032  -0.002603  -0.001471   0.000816  -0.000019  -0.000259
    28  H   -0.000044   0.005425   0.000557  -0.000241  -0.000025   0.000050
    29  H    0.000041   0.000396  -0.001076   0.000097  -0.000002  -0.000023
    30  H   -0.000010   0.000081   0.001093   0.000025  -0.000002   0.000051
              13         14         15         16         17         18
     1  O    0.000177   0.011280  -0.003334  -0.046638   0.015170   0.004371
     2  C   -0.017530  -1.561897   0.650399  -0.070777  -0.028364  -0.258817
     3  N   -0.008867  -0.551359   0.289074  -0.035246   0.236364  -0.143850
     4  C   -0.208379   1.153901  -1.085963   0.122421   0.119292   0.447607
     5  C    0.209510  -0.513618  -0.137091   0.019233  -0.045659  -0.008014
     6  O   -0.000206   0.021416   0.015400  -0.001074  -0.003713  -0.027374
     7  O   -0.016965  -0.000056  -0.002672   0.000114  -0.000961  -0.013531
     8  C   -0.206766  -0.078646  -0.134850  -0.003199   0.064365   0.069406
     9  C   -0.187085   0.066681   0.230166  -0.016704  -0.056582  -0.106421
    10  C    0.101223   0.062136   0.010773   0.000934  -0.004743   0.048465
    11  N    0.052133  -0.001433   0.001518  -0.000032  -0.000077   0.002567
    12  C    0.130281  -0.008257   0.005338   0.000000   0.001038  -0.041610
    13  N    7.014499  -0.025767  -0.007237   0.000208   0.000353   0.079838
    14  C   -0.025767   8.830419  -2.830304   0.490834  -0.007135   0.186685
    15  C   -0.007237  -2.830304  10.035825  -0.624032  -0.007169  -0.194117
    16  N    0.000208   0.490834  -0.624032   6.739217   0.004381   0.017525
    17  H    0.000353  -0.007135  -0.007169   0.004381   0.395017  -0.000754
    18  H    0.079838   0.186685  -0.194117   0.017525  -0.000754   0.632602
    19  H   -0.000993   0.011319  -0.026045   0.003544  -0.006070   0.026562
    20  H    0.009642   0.017176   0.009671  -0.000878  -0.002898   0.018788
    21  H    0.025408  -0.023157  -0.030107   0.001051   0.008033   0.014657
    22  H    0.018771   0.004965   0.002850  -0.000094  -0.000700   0.000452
    23  H   -0.122052  -0.000178  -0.000045   0.000006   0.000063  -0.004277
    24  H    0.342269   0.001086   0.001620   0.000022   0.000401  -0.005905
    25  H    0.002088   0.356013  -0.018291   0.009794  -0.000676   0.015504
    26  H   -0.006322   0.302488   0.130891  -0.048406  -0.001251  -0.044559
    27  H    0.000020   0.083059   0.292777  -0.025466  -0.000577   0.005238
    28  H   -0.000105   0.070342   0.232229  -0.021368   0.000183  -0.000741
    29  H    0.000086   0.054363  -0.095074   0.384028   0.000414   0.004186
    30  H   -0.000035  -0.055913  -0.000269   0.390512   0.000446  -0.004158
              19         20         21         22         23         24
     1  O   -0.001050   0.003821  -0.010208   0.000002   0.000001  -0.000051
     2  C   -0.088371   0.007416  -0.045142   0.004101   0.000310   0.010910
     3  N   -0.021254   0.000008  -0.019543   0.000988   0.000012   0.008995
     4  C    0.127754  -0.090331  -0.005910  -0.004570   0.003872   0.021628
     5  C   -0.003542  -0.079214   0.044526  -0.007583   0.003370  -0.018595
     6  O    0.196426   0.001896  -0.002779   0.000131  -0.000100   0.006103
     7  O    0.024466  -0.005797  -0.000383   0.000047  -0.001651   0.032761
     8  C   -0.015391   0.362764   0.733557  -0.111504   0.010695  -0.052102
     9  C    0.028396   0.051934  -0.364218  -0.083958   0.079998  -0.068837
    10  C   -0.001407  -0.042052  -0.027201   0.519544  -0.020251   0.025678
    11  N   -0.000073   0.004089  -0.002309  -0.072177  -0.072687   0.011524
    12  C   -0.000045  -0.007598  -0.004349   0.035410   0.440742  -0.018035
    13  N   -0.000993   0.009642   0.025408   0.018771  -0.122052   0.342269
    14  C    0.011319   0.017176  -0.023157   0.004965  -0.000178   0.001086
    15  C   -0.026045   0.009671  -0.030107   0.002850  -0.000045   0.001620
    16  N    0.003544  -0.000878   0.001051  -0.000094   0.000006   0.000022
    17  H   -0.006070  -0.002898   0.008033  -0.000700   0.000063   0.000401
    18  H    0.026562   0.018788   0.014657   0.000452  -0.004277  -0.005905
    19  H    0.470170   0.001641  -0.001625   0.000000   0.000057  -0.002501
    20  H    0.001641   0.551398  -0.058709   0.003141  -0.001282   0.000260
    21  H   -0.001625  -0.058709   0.578114  -0.006600   0.000270   0.000795
    22  H    0.000000   0.003141  -0.006600   0.564181  -0.000980   0.001896
    23  H    0.000057  -0.001282   0.000270  -0.000980   0.531922  -0.005778
    24  H   -0.002501   0.000260   0.000795   0.001896  -0.005778   0.351235
    25  H    0.002784   0.004516  -0.006335  -0.001681  -0.000138   0.000527
    26  H   -0.012233  -0.002218  -0.002265   0.000640   0.000182  -0.000519
    27  H   -0.000466  -0.000046   0.000064   0.000185  -0.000006   0.000022
    28  H    0.000367   0.000095   0.000107  -0.000042   0.000001  -0.000016
    29  H    0.000322  -0.000061   0.000144  -0.000012   0.000000   0.000016
    30  H   -0.000338  -0.000029   0.000088   0.000013   0.000001  -0.000006
              25         26         27         28         29         30
     1  O    0.009937  -0.007926  -0.017102   0.004154   0.002512   0.016384
     2  C   -0.059057   0.056775  -0.040812   0.007099  -0.005355   0.037821
     3  N    0.001732   0.036497  -0.004062  -0.000664   0.001578   0.000177
     4  C    0.035186  -0.102263   0.002461   0.004767   0.000591  -0.001768
     5  C    0.053362  -0.051840  -0.002721  -0.000512   0.003282  -0.000977
     6  O   -0.001901   0.004689   0.000098  -0.000151  -0.000223   0.000306
     7  O    0.001391  -0.001559   0.000032  -0.000044   0.000041  -0.000010
     8  C   -0.015417  -0.037327  -0.002603   0.005425   0.000396   0.000081
     9  C    0.002597   0.031286  -0.001471   0.000557  -0.001076   0.001093
    10  C   -0.016752   0.007089   0.000816  -0.000241   0.000097   0.000025
    11  N    0.000826  -0.000215  -0.000019  -0.000025  -0.000002  -0.000002
    12  C    0.000032   0.002543  -0.000259   0.000050  -0.000023   0.000051
    13  N    0.002088  -0.006322   0.000020  -0.000105   0.000086  -0.000035
    14  C    0.356013   0.302488   0.083059   0.070342   0.054363  -0.055913
    15  C   -0.018291   0.130891   0.292777   0.232229  -0.095074  -0.000269
    16  N    0.009794  -0.048406  -0.025466  -0.021368   0.384028   0.390512
    17  H   -0.000676  -0.001251  -0.000577   0.000183   0.000414   0.000446
    18  H    0.015504  -0.044559   0.005238  -0.000741   0.004186  -0.004158
    19  H    0.002784  -0.012233  -0.000466   0.000367   0.000322  -0.000338
    20  H    0.004516  -0.002218  -0.000046   0.000095  -0.000061  -0.000029
    21  H   -0.006335  -0.002265   0.000064   0.000107   0.000144   0.000088
    22  H   -0.001681   0.000640   0.000185  -0.000042  -0.000012   0.000013
    23  H   -0.000138   0.000182  -0.000006   0.000001   0.000000   0.000001
    24  H    0.000527  -0.000519   0.000022  -0.000016   0.000016  -0.000006
    25  H    0.575787  -0.076179  -0.021764  -0.006257   0.000417  -0.004925
    26  H   -0.076179   0.616615   0.013716  -0.012300  -0.004484   0.009066
    27  H   -0.021764   0.013716   0.545952  -0.027373   0.013614  -0.018186
    28  H   -0.006257  -0.012300  -0.027373   0.577072  -0.017002   0.011324
    29  H    0.000417  -0.004484   0.013614  -0.017002   0.517858  -0.068758
    30  H   -0.004925   0.009066  -0.018186   0.011324  -0.068758   0.434329
 Mulliken charges:
               1
     1  O   -0.293961
     2  C    0.101774
     3  N   -0.171303
     4  C   -0.296072
     5  C   -0.112547
     6  O   -0.109383
     7  O   -0.260413
     8  C   -0.783793
     9  C    0.534454
    10  C   -0.471177
    11  N   -0.131460
    12  C    0.063302
    13  N   -0.178197
    14  C   -0.066445
    15  C   -0.711931
    16  N   -0.289908
    17  H    0.321810
    18  H    0.279670
    19  H    0.287595
    20  H    0.242858
    21  H    0.204024
    22  H    0.132586
    23  H    0.157925
    24  H    0.354599
    25  H    0.156880
    26  H    0.199387
    27  H    0.204878
    28  H    0.173069
    29  H    0.208125
    30  H    0.253655
 Sum of Mulliken charges =   0.00000
 Mulliken charges with hydrogens summed into heavy atoms:
               1
     1  O   -0.293961
     2  C    0.101774
     3  N    0.150507
     4  C   -0.016402
     5  C   -0.112547
     6  O    0.178212
     7  O   -0.260413
     8  C   -0.336911
     9  C    0.534454
    10  C   -0.338590
    11  N   -0.131460
    12  C    0.221227
    13  N    0.176401
    14  C    0.289822
    15  C   -0.333984
    16  N    0.171872
 APT charges:
               1
     1  O   -0.010707
     2  C    0.055289
     3  N   -0.639520
     4  C   -0.260124
     5  C   -0.600038
     6  O    0.058430
     7  O    0.147101
     8  C   -1.346256
     9  C    0.558431
    10  C   -0.791856
    11  N   -0.111886
    12  C   -0.373617
    13  N   -0.548744
    14  C   -0.148082
    15  C   -1.623314
    16  N   -0.125536
    17  H    0.682236
    18  H    0.267837
    19  H    0.274802
    20  H    0.588078
    21  H    0.289789
    22  H    0.405159
    23  H    0.958265
    24  H    0.470070
    25  H    0.143866
    26  H    0.316949
    27  H    0.432098
    28  H    0.482892
    29  H    0.277502
    30  H    0.170887
 Sum of APT charges =   0.00000
 APT charges with hydrogens summed into heavy atoms:
               1
     1  O   -0.010707
     2  C    0.055289
     3  N    0.042716
     4  C    0.007713
     5  C   -0.600038
     6  O    0.333232
     7  O    0.147101
     8  C   -0.468389
     9  C    0.558431
    10  C   -0.386697
    11  N   -0.111886
    12  C    0.584648
    13  N   -0.078674
    14  C    0.312733
    15  C   -0.708323
    16  N    0.322852
 Electronic spatial extent (au):  <R**2>=           4659.7475
 Charge=              0.0000 electrons
 Dipole moment (field-independent basis, Debye):
    X=              1.2732    Y=              0.3309    Z=             -1.9759  Tot=              2.3737
 Quadrupole moment (field-independent basis, Debye-Ang):
   XX=           -126.5759   YY=            -93.5148   ZZ=           -108.8776
   XY=             -5.6492   XZ=             -2.9241   YZ=              2.2026
 Traceless Quadrupole moment (field-independent basis, Debye-Ang):
   XX=            -16.9198   YY=             16.1413   ZZ=              0.7785
   XY=             -5.6492   XZ=             -2.9241   YZ=              2.2026
 Octapole moment (field-independent basis, Debye-Ang**2):
  XXX=             86.6438  YYY=            -20.4137  ZZZ=            120.3908  XYY=             17.9079
  XXY=             -4.2026  XXZ=            -79.4534  XZZ=             22.4150  YZZ=             -4.1681
  YYZ=              5.5964  XYZ=            -17.8803
 Hexadecapole moment (field-independent basis, Debye-Ang**3):
 XXXX=          -4954.2733 YYYY=           -540.6232 ZZZZ=          -1659.1403 XXXY=            -56.2679
 XXXZ=           -306.8526 YYYX=           -111.7761 YYYZ=             99.8599 ZZZX=           -364.9859
 ZZZY=            142.7786 XXYY=           -823.4552 XXZZ=          -1041.6647 YYZZ=           -331.1798
 XXYZ=            159.5166 YYXZ=           -100.6487 ZZXY=            -12.5593
 N-N= 1.119235507968D+03 E-N=-4.097677607397D+03  KE= 7.935099951090D+02
  Exact polarizability:   0.000   0.000   0.000   0.000   0.000   0.000
 Approx polarizability: 225.044  30.976 183.503   8.492   6.870 213.704
 Calling FoFJK, ICntrl=    100147 FMM=F ISym2X=0 I1Cent= 0 IOpClX= 0 NMat=1 NMatS=1 NMatT=0.
 -------------------------------------------------------------------
 Center     Atomic                   Forces (Hartrees/Bohr)
 Number     Number              X              Y              Z
 -------------------------------------------------------------------
      1        8          -0.003196164   -0.000929182   -0.000295864
      2        6           0.008015825    0.000833582    0.005736274
      3        7           0.003363098    0.002073733   -0.006874832
      4        6          -0.000741712    0.002720343    0.003125553
      5        6           0.000804445    0.000344817   -0.000840059
      6        8           0.000800069   -0.001224974   -0.002652308
      7        8           0.000841427   -0.000376900   -0.002400140
      8        6          -0.007135594   -0.003073331    0.000396949
      9        6           0.005819164    0.004502256   -0.004034294
     10        6          -0.008618187   -0.005724750    0.008380203
     11        7           0.000343971    0.002403326    0.005775906
     12        6           0.000454666    0.000096684   -0.000183628
     13        7          -0.002541447   -0.001800584   -0.005664910
     14        6          -0.002026112    0.000095921   -0.000763112
     15        6           0.003026386   -0.000703221    0.004540047
     16        7           0.000986397    0.001233751   -0.003240857
     17        1          -0.001072995    0.001462474   -0.000977191
     18        1          -0.001052785   -0.000361832   -0.000211601
     19        1           0.000545489    0.001460454    0.000311623
     20        1          -0.001184746    0.002653530   -0.001794278
     21        1           0.002756701    0.000518558    0.001400894
     22        1           0.000321464    0.000372382    0.000419991
     23        1          -0.002031927   -0.002219314   -0.000144913
     24        1          -0.000433653    0.000583650   -0.003219301
     25        1          -0.001446071   -0.000821226    0.000367928
     26        1          -0.000547514   -0.000970743    0.000138498
     27        1          -0.000516762   -0.000558296    0.001405874
     28        1          -0.001130838   -0.000111590    0.000378660
     29        1           0.002637621   -0.003093428   -0.000590308
     30        1           0.002959784    0.000613910    0.001509199
 -------------------------------------------------------------------
 Cartesian Forces:  Max     0.008618187 RMS     0.002849387
 FormGI is forming the generalized inverse of G from B-inverse, IUseBI=4.
 GSVD:  received Info=                   1 from GESDD.

 GradGradGradGradGradGradGradGradGradGradGradGradGradGradGradGradGradGrad
 Berny optimization.
 Internal  Forces:  Max     0.013413164 RMS     0.003245596
 Search for a local minimum.
 Step number   1 out of a maximum of  160
 All quantities printed in internal units (Hartrees-Bohrs-Radians)
 Mixed Optimization -- RFO/linear search
 Second derivative matrix not updated -- analytic derivatives used.
 ITU=  0
     Eigenvalues ---    0.00064   0.00216   0.00310   0.00362   0.00420
     Eigenvalues ---    0.00504   0.00674   0.00883   0.00939   0.01566
     Eigenvalues ---    0.01603   0.02059   0.02585   0.02931   0.03503
     Eigenvalues ---    0.03603   0.04087   0.04217   0.04264   0.04390
     Eigenvalues ---    0.04433   0.04791   0.05005   0.05053   0.05427
     Eigenvalues ---    0.05640   0.06164   0.06292   0.07608   0.08075
     Eigenvalues ---    0.08673   0.10460   0.10866   0.10872   0.11601
     Eigenvalues ---    0.11749   0.12642   0.12787   0.14990   0.16423
     Eigenvalues ---    0.16693   0.18577   0.18603   0.19114   0.19885
     Eigenvalues ---    0.21523   0.22060   0.22270   0.23137   0.23371
     Eigenvalues ---    0.24689   0.24938   0.27256   0.27738   0.30912
     Eigenvalues ---    0.31915   0.32513   0.32966   0.33199   0.33382
     Eigenvalues ---    0.33459   0.34319   0.34359   0.34630   0.34711
     Eigenvalues ---    0.37094   0.37233   0.37611   0.38202   0.39627
     Eigenvalues ---    0.41620   0.41985   0.44479   0.44929   0.44961
     Eigenvalues ---    0.45385   0.46539   0.47415   0.47976   0.50009
     Eigenvalues ---    0.58740   0.67241   0.80821   0.87866
 RFO step:  Lambda=-4.99291769D-03 EMin= 6.41537254D-04
 Linear search not attempted -- first point.
 Iteration  1 RMS(Cart)=  0.07718550 RMS(Int)=  0.00131629
 Iteration  2 RMS(Cart)=  0.00195223 RMS(Int)=  0.00023895
 Iteration  3 RMS(Cart)=  0.00000211 RMS(Int)=  0.00023895
 Iteration  4 RMS(Cart)=  0.00000000 RMS(Int)=  0.00023895
 Variable       Old X    -DE/DX   Delta X   Delta X   Delta X     New X
                                 (Linear)    (Quad)   (Total)
    R1        2.30646  -0.00289   0.00000  -0.00821  -0.00821   2.29825
    R2        2.60179   0.01341   0.00000   0.03370   0.03370   2.63548
    R3        2.86848   0.00504   0.00000   0.00653   0.00653   2.87501
    R4        2.74378   0.00937   0.00000   0.02151   0.02151   2.76529
    R5        1.91644   0.00155   0.00000   0.00346   0.00346   1.91990
    R6        2.90508   0.00526   0.00000   0.01439   0.01439   2.91947
    R7        2.91387   0.00942   0.00000   0.02258   0.02258   2.93645
    R8        2.06186   0.00021   0.00000   0.00241   0.00241   2.06428
    R9        2.52474   0.00235   0.00000   0.00469   0.00469   2.52943
   R10        2.27690   0.00043   0.00000   0.00088   0.00088   2.27778
   R11        1.83678   0.00086   0.00000   0.00350   0.00350   1.84028
   R12        2.82120   0.00651   0.00000   0.00532   0.00532   2.82652
   R13        2.06250   0.00340   0.00000   0.00943   0.00943   2.07193
   R14        2.05653   0.00219   0.00000   0.00711   0.00711   2.06364
   R15        2.57586   0.01214   0.00000   0.02336   0.02337   2.59923
   R16        2.59093   0.00806   0.00000   0.01630   0.01636   2.60729
   R17        2.61277  -0.00346   0.00000  -0.01470  -0.01475   2.59802
   R18        2.03884   0.00057   0.00000   0.00208   0.00208   2.04093
   R19        2.47532   0.00448   0.00000   0.00862   0.00858   2.48390
   R20        2.56860   0.00547   0.00000   0.00802   0.00805   2.57665
   R21        2.03308   0.00265   0.00000   0.00663   0.00663   2.03971
   R22        1.90844   0.00296   0.00000   0.00634   0.00634   1.91479
   R23        2.88381   0.00895   0.00000   0.02620   0.02620   2.91001
   R24        2.06945   0.00156   0.00000   0.00500   0.00500   2.07445
   R25        2.07262   0.00047   0.00000   0.00057   0.00057   2.07318
   R26        2.75029   0.00689   0.00000   0.00437   0.00437   2.75467
   R27        2.06269   0.00079   0.00000   0.00131   0.00131   2.06400
   R28        2.06585   0.00040   0.00000   0.00130   0.00130   2.06715
   R29        1.91619   0.00254   0.00000   0.00165   0.00165   1.91784
   R30        1.91793   0.00061   0.00000  -0.00122  -0.00122   1.91671
    A1        2.08747  -0.00325   0.00000  -0.00616  -0.00617   2.08131
    A2        2.14745  -0.00168   0.00000  -0.00201  -0.00202   2.14544
    A3        2.04738   0.00495   0.00000   0.00844   0.00843   2.05582
    A4        2.19744   0.00572   0.00000   0.01035   0.01023   2.20767
    A5        1.94068  -0.00143   0.00000  -0.00493  -0.00510   1.93558
    A6        2.04158  -0.00383   0.00000  -0.01910  -0.01920   2.02238
    A7        1.93324  -0.00553   0.00000  -0.01154  -0.01165   1.92159
    A8        1.94337   0.00333   0.00000   0.02530   0.02532   1.96869
    A9        1.87667   0.00027   0.00000   0.00126   0.00125   1.87792
   A10        1.96492   0.00357   0.00000   0.00151   0.00150   1.96641
   A11        1.83848   0.00039   0.00000  -0.00677  -0.00683   1.83165
   A12        1.90182  -0.00231   0.00000  -0.01181  -0.01185   1.88996
   A13        2.01194   0.00040   0.00000   0.00297   0.00297   2.01491
   A14        2.15234   0.00265   0.00000  -0.00013  -0.00013   2.15221
   A15        2.11860  -0.00305   0.00000  -0.00296  -0.00297   2.11564
   A16        1.89106   0.00012   0.00000  -0.00752  -0.00752   1.88354
   A17        1.99148   0.01106   0.00000   0.02687   0.02685   2.01834
   A18        1.90042  -0.00144   0.00000   0.00171   0.00151   1.90193
   A19        1.89889  -0.00620   0.00000  -0.03165  -0.03165   1.86724
   A20        1.94093  -0.00342   0.00000  -0.00369  -0.00386   1.93707
   A21        1.86252  -0.00229   0.00000   0.00438   0.00464   1.86716
   A22        1.86471   0.00163   0.00000  -0.00016  -0.00027   1.86445
   A23        2.29236  -0.00460   0.00000  -0.00900  -0.00916   2.28320
   A24        2.15639   0.00700   0.00000   0.01511   0.01494   2.17133
   A25        1.83439  -0.00240   0.00000  -0.00587  -0.00587   1.82852
   A26        1.93002   0.00182   0.00000   0.00514   0.00515   1.93518
   A27        2.23864  -0.00122   0.00000  -0.01056  -0.01057   2.22807
   A28        2.11450  -0.00060   0.00000   0.00539   0.00538   2.11988
   A29        1.83514   0.00045   0.00000   0.00129   0.00124   1.83638
   A30        1.94622   0.00241   0.00000   0.00498   0.00500   1.95122
   A31        2.21005  -0.00262   0.00000  -0.01373  -0.01375   2.19629
   A32        2.12692   0.00021   0.00000   0.00877   0.00875   2.13567
   A33        1.87899  -0.00227   0.00000  -0.00549  -0.00551   1.87348
   A34        2.15540   0.00172   0.00000   0.00312   0.00291   2.15831
   A35        2.24880   0.00055   0.00000   0.00237   0.00217   2.25097
   A36        1.95992   0.00504   0.00000   0.00727   0.00724   1.96716
   A37        1.89969  -0.00205   0.00000  -0.00261  -0.00259   1.89710
   A38        1.89928  -0.00046   0.00000   0.00939   0.00937   1.90865
   A39        1.91657  -0.00109   0.00000  -0.00394  -0.00395   1.91262
   A40        1.92311  -0.00192   0.00000  -0.00235  -0.00243   1.92069
   A41        1.86252   0.00025   0.00000  -0.00847  -0.00848   1.85405
   A42        2.01698   0.00618   0.00000   0.01933   0.01928   2.03626
   A43        1.89915  -0.00127   0.00000   0.00012  -0.00008   1.89907
   A44        1.90102  -0.00265   0.00000  -0.01755  -0.01754   1.88347
   A45        1.87546  -0.00099   0.00000   0.00594   0.00581   1.88127
   A46        1.89405  -0.00184   0.00000  -0.00191  -0.00179   1.89226
   A47        1.87207   0.00027   0.00000  -0.00743  -0.00748   1.86459
   A48        1.92138   0.00306   0.00000   0.03113   0.03009   1.95148
   A49        1.88886   0.00401   0.00000   0.03680   0.03574   1.92461
   A50        1.86152  -0.00046   0.00000   0.03022   0.02825   1.88977
    D1       -2.84556   0.00069   0.00000   0.02861   0.02865  -2.81691
    D2       -0.19614   0.00032   0.00000  -0.00773  -0.00778  -0.20392
    D3        0.33955   0.00002   0.00000   0.02192   0.02197   0.36152
    D4        2.98897  -0.00035   0.00000  -0.01442  -0.01447   2.97450
    D5       -0.04830  -0.00067   0.00000  -0.02987  -0.02984  -0.07815
    D6        2.07755  -0.00017   0.00000  -0.03190  -0.03190   2.04565
    D7       -2.18215  -0.00125   0.00000  -0.03827  -0.03831  -2.22046
    D8        3.04815  -0.00001   0.00000  -0.02302  -0.02299   3.02516
    D9       -1.10918   0.00049   0.00000  -0.02506  -0.02505  -1.13422
   D10        0.91430  -0.00059   0.00000  -0.03142  -0.03145   0.88285
   D11       -2.35416   0.00180   0.00000  -0.00730  -0.00727  -2.36143
   D12        1.72825  -0.00120   0.00000  -0.01959  -0.01948   1.70877
   D13       -0.35389  -0.00047   0.00000  -0.02067  -0.02066  -0.37456
   D14        1.30454   0.00140   0.00000   0.02680   0.02674   1.33128
   D15       -0.89623  -0.00159   0.00000   0.01451   0.01453  -0.88171
   D16       -2.97838  -0.00087   0.00000   0.01344   0.01335  -2.96503
   D17        0.41590  -0.00213   0.00000  -0.03391  -0.03385   0.38205
   D18       -2.75177  -0.00218   0.00000  -0.03905  -0.03899  -2.79076
   D19        2.60460   0.00068   0.00000  -0.00827  -0.00830   2.59631
   D20       -0.56306   0.00063   0.00000  -0.01341  -0.01344  -0.57650
   D21       -1.60820   0.00005   0.00000  -0.02598  -0.02601  -1.63422
   D22        1.50731   0.00000   0.00000  -0.03112  -0.03115   1.47616
   D23       -2.65417   0.00039   0.00000  -0.01264  -0.01244  -2.66661
   D24        1.44940  -0.00204   0.00000  -0.02871  -0.02864   1.42076
   D25       -0.57687   0.00020   0.00000  -0.01213  -0.01218  -0.58905
   D26        1.44583   0.00238   0.00000  -0.01827  -0.01818   1.42765
   D27       -0.73378  -0.00005   0.00000  -0.03435  -0.03438  -0.76816
   D28       -2.76006   0.00219   0.00000  -0.01776  -0.01792  -2.77797
   D29       -0.58707   0.00126   0.00000  -0.00330  -0.00321  -0.59028
   D30       -2.76668  -0.00117   0.00000  -0.01937  -0.01941  -2.78609
   D31        1.49023   0.00107   0.00000  -0.00278  -0.00295   1.48729
   D32       -0.06434  -0.00114   0.00000  -0.03061  -0.03061  -0.09494
   D33        3.10278  -0.00119   0.00000  -0.02562  -0.02563   3.07715
   D34        2.14265  -0.00296   0.00000  -0.05834  -0.05828   2.08437
   D35       -0.98731  -0.00367   0.00000  -0.09011  -0.09010  -1.07741
   D36       -1.98262   0.00084   0.00000  -0.03847  -0.03842  -2.02104
   D37        1.17060   0.00013   0.00000  -0.07024  -0.07024   1.10036
   D38        0.04486  -0.00033   0.00000  -0.03805  -0.03809   0.00677
   D39       -3.08511  -0.00104   0.00000  -0.06983  -0.06991   3.12817
   D40       -3.13580  -0.00028   0.00000  -0.02287  -0.02260   3.12479
   D41        0.01300  -0.00036   0.00000  -0.01832  -0.01815  -0.00515
   D42       -0.00424   0.00039   0.00000   0.00468   0.00467   0.00043
   D43       -3.13863   0.00031   0.00000   0.00922   0.00911  -3.12952
   D44        3.13873   0.00000   0.00000   0.01719   0.01741  -3.12705
   D45       -0.00292  -0.00020   0.00000   0.04605   0.04622   0.04330
   D46        0.00618  -0.00053   0.00000  -0.00746  -0.00743  -0.00126
   D47       -3.13547  -0.00072   0.00000   0.02139   0.02138  -3.11409
   D48        0.00058  -0.00011   0.00000  -0.00001   0.00001   0.00060
   D49        3.13557  -0.00004   0.00000  -0.00425  -0.00419   3.13138
   D50        0.00348  -0.00022   0.00000  -0.00486  -0.00492  -0.00144
   D51       -3.13478   0.00002   0.00000  -0.01165  -0.01158   3.13683
   D52       -0.00625   0.00047   0.00000   0.00796   0.00800   0.00175
   D53        3.13540   0.00068   0.00000  -0.02294  -0.02285   3.11255
   D54        3.13219   0.00024   0.00000   0.01433   0.01434  -3.13665
   D55       -0.00934   0.00044   0.00000  -0.01657  -0.01650  -0.02585
   D56       -1.07572  -0.00168   0.00000  -0.03072  -0.03076  -1.10648
   D57        1.03523   0.00029   0.00000  -0.00966  -0.00967   1.02555
   D58        3.07074  -0.00156   0.00000  -0.02816  -0.02811   3.04263
   D59        3.09127  -0.00168   0.00000  -0.02951  -0.02955   3.06172
   D60       -1.08098   0.00029   0.00000  -0.00846  -0.00846  -1.08943
   D61        0.95454  -0.00156   0.00000  -0.02696  -0.02689   0.92765
   D62        1.04455  -0.00018   0.00000  -0.01542  -0.01548   1.02908
   D63       -3.12769   0.00179   0.00000   0.00563   0.00561  -3.12208
   D64       -1.09218  -0.00007   0.00000  -0.01286  -0.01282  -1.10500
   D65       -0.97604  -0.00101   0.00000  -0.04418  -0.04465  -1.02069
   D66        1.05229   0.00240   0.00000   0.02999   0.03055   1.08284
   D67       -3.09974  -0.00272   0.00000  -0.06167  -0.06226   3.12119
   D68       -1.07142   0.00068   0.00000   0.01249   0.01295  -1.05847
   D69        1.16439  -0.00158   0.00000  -0.05510  -0.05560   1.10879
   D70       -3.09047   0.00183   0.00000   0.01906   0.01960  -3.07086
         Item               Value     Threshold  Converged?
 Maximum Force            0.013413     0.000450     NO 
 RMS     Force            0.003246     0.000300     NO 
 Maximum Displacement     0.337505     0.001800     NO 
 RMS     Displacement     0.076925     0.001200     NO 
 Predicted change in Energy=-2.684276D-03
 GradGradGradGradGradGradGradGradGradGradGradGradGradGradGradGradGradGrad

                          Input orientation:                          
 ---------------------------------------------------------------------
 Center     Atomic      Atomic             Coordinates (Angstroms)
 Number     Number       Type             X           Y           Z
 ---------------------------------------------------------------------
      1          8           0        2.719690    1.617149    0.811664
      2          6           0        1.910178    0.804580    0.407284
      3          7           0        1.025501    1.170655   -0.606792
      4          6           0       -0.227543    0.498811   -0.952969
      5          6           0       -0.340058    0.342126   -2.485796
      6          8           0        0.817878    0.391083   -3.155436
      7          8           0       -1.384671    0.154474   -3.057143
      8          6           0       -1.472563    1.187642   -0.328426
      9          6           0       -2.647904    0.296932   -0.078591
     10          6           0       -3.300829   -0.023843    1.088739
     11          7           0       -4.353699   -0.873273    0.843711
     12          6           0       -4.343542   -1.069340   -0.455966
     13          7           0       -3.333286   -0.384164   -1.063467
     14          6           0        1.844402   -0.624800    0.924176
     15          6           0        2.973318   -0.949458    1.919899
     16          7           0        4.335885   -0.894532    1.404823
     17          1           0        1.048215    2.174324   -0.762756
     18          1           0       -0.171910   -0.522233   -0.568728
     19          1           0        1.522698    0.608738   -2.519661
     20          1           0       -1.754993    2.045248   -0.950424
     21          1           0       -1.163853    1.587411    0.639775
     22          1           0       -3.074130    0.319402    2.087346
     23          1           0       -5.032422   -1.691647   -1.006609
     24          1           0       -3.074001   -0.366636   -2.042835
     25          1           0        0.871241   -0.779596    1.407961
     26          1           0        1.879338   -1.320078    0.076263
     27          1           0        2.907605   -0.259424    2.763984
     28          1           0        2.793929   -1.953029    2.316455
     29          1           0        4.470453   -1.530897    0.625782
     30          1           0        4.554998    0.044432    1.090029
 ---------------------------------------------------------------------
                    Distance matrix (angstroms):
                    1          2          3          4          5
     1  O    0.000000
     2  C    1.216183   0.000000
     3  N    2.254252   1.394638   0.000000
     4  C    3.612588   2.552182   1.463329   0.000000
     5  C    4.675573   3.694231   2.466144   1.544918   0.000000
     6  O    4.567058   3.749277   2.673280   2.440363   1.338518
     7  O    5.826909   4.825031   3.584100   2.425915   1.205349
     8  C    4.365692   3.482950   2.513583   1.553904   2.579091
     9  C    5.598802   4.611929   3.812648   2.581364   3.335091
    10  C    6.246301   5.320269   4.797789   3.726503   4.655900
    11  N    7.499071   6.499370   5.934424   4.704874   5.354636
    12  C    7.662464   6.585271   5.819532   4.432557   4.705352
    13  N    6.645290   5.574059   4.650272   3.230711   3.392629
    14  C    2.409383   1.521392   2.497624   3.013159   4.163499
    15  C    2.807131   2.548513   3.830541   4.538321   5.661873
    16  N    3.045073   3.125080   4.389789   5.322167   6.207309
    17  H    2.362852   1.997041   1.015968   2.114494   2.872824
    18  H    3.852764   2.654831   2.073913   1.092368   2.109631
    19  H    3.680680   2.958969   2.054756   2.351584   1.882043
    20  H    4.828148   4.100745   2.934985   2.173610   2.694445
    21  H    3.887459   3.180652   2.553602   2.144426   3.463896
    22  H    6.072879   5.282171   4.978953   4.168783   5.328160
    23  H    8.622615   7.511987   6.712008   5.280895   5.323769
    24  H    6.756510   5.675991   4.607754   3.168459   2.858846
    25  H    3.084919   2.142513   2.808293   2.900972   4.229285
    26  H    3.142341   2.150511   2.720175   2.967595   3.775287
    27  H    2.714479   2.771462   4.116986   4.921362   6.202368
    28  H    3.875058   3.468480   4.629267   5.082316   6.176668
    29  H    3.606926   3.472348   4.548112   5.355682   6.027533
    30  H    2.432957   2.835319   4.074915   5.220440   6.069326
                    6          7          8          9         10
     6  O    0.000000
     7  O    2.217400   0.000000
     8  C    3.724596   2.919085   0.000000
     9  C    4.635459   3.238491   1.495729   0.000000
    10  C    5.928654   4.570755   2.611246   1.375452   0.000000
    11  N    6.658602   5.008797   3.731249   2.264897   1.374811
    12  C    6.005017   4.125380   3.654142   2.210046   2.136921
    13  N    4.712696   2.839362   2.544238   1.379718   2.182401
    14  C    4.327702   5.185082   3.981987   4.694246   5.182821
    15  C    5.674681   6.706838   5.421072   6.094718   6.396289
    16  N    5.901284   7.330369   6.409187   7.238330   7.692686
    17  H    2.992979   3.906781   2.741625   4.201664   5.212884
    18  H    2.916314   2.849725   2.161739   2.653641   3.575712
    19  H    0.973836   2.991327   3.756092   4.842516   6.056989
    20  H    3.770677   2.854896   1.096420   2.148020   3.290734
    21  H    4.445457   3.971055   1.092031   2.093751   2.713738
    22  H    6.529902   5.417309   3.025691   2.207590   1.080011
    23  H    6.571243   4.573723   4.628481   3.240616   3.189118
    24  H    4.118099   2.038188   2.814175   2.116634   3.158436
    25  H    4.711468   5.089084   3.518307   3.969021   4.251968
    26  H    3.807709   4.758811   4.205671   4.809846   5.435021
    27  H    6.311074   7.244340   5.553636   6.265256   6.434795
    28  H    6.272259   7.125855   5.921331   6.357052   6.509618
    29  H    5.597582   7.119472   6.604575   7.382960   7.929588
    30  H    5.666587   7.245054   6.296859   7.301453   7.856123
                   11         12         13         14         15
    11  N    0.000000
    12  C    1.314422   0.000000
    13  N    2.217611   1.363503   0.000000
    14  C    6.203602   6.355554   5.551314   0.000000
    15  C    7.406022   7.693865   6.999520   1.539909   0.000000
    16  N    8.707708   8.878376   8.072739   2.551718   1.457707
    17  H    6.406970   6.299724   5.082700   3.363741   4.545401
    18  H    4.427817   4.208866   3.202831   2.510936   4.033391
    19  H    6.931137   6.441083   5.165939   3.672209   4.923613
    20  H    4.299995   4.079918   2.899280   4.857873   6.289988
    21  H    4.033816   4.285954   3.390366   3.744912   5.019024
    22  H    2.146252   3.163613   3.238794   5.141638   6.181397
    23  H    2.134030   1.079365   2.144717   7.221967   8.556119
    24  H    3.197883   2.150275   1.013261   5.749825   7.253482
    25  H    5.256154   5.545461   4.893094   1.097749   2.170175
    26  H    6.295979   6.250630   5.417228   1.097081   2.175579
    27  H    7.535966   7.975160   7.322134   2.156106   1.092220
    28  H    7.377224   7.707835   7.171330   2.145748   1.093888
    29  H    8.851306   8.892116   8.066405   2.793956   2.062577
    30  H    8.959226   9.100253   8.188177   2.796910   2.044068
                   16         17         18         19         20
    16  N    0.000000
    17  H    4.992500   0.000000
    18  H    4.934950   2.966104   0.000000
    19  H    5.057214   2.400605   2.820803   0.000000
    20  H    7.161585   2.812447   3.040362   3.907598   0.000000
    21  H    6.082143   2.684177   2.625839   4.261149   1.757212
    22  H    7.539748   5.343926   4.023177   6.514525   3.734529
    23  H    9.706471   7.209670   5.018351   7.109901   4.970823
    24  H    8.189715   5.008767   3.258731   4.723172   2.958095
    25  H    3.466552   3.670011   2.249822   4.216406   4.520932
    26  H    2.825029   3.688572   2.293510   3.253666   5.058445
[...]
 003490,-0.00003211,0.00003110,-0.00001899,0.00000365,-0.00001698,0.000
 01187,-0.00002203,0.00001899,-0.00004170,-0.00002125,-0.00003910,0.000
 26421,0.00002795,0.00019252,0.00003695,0.00015395,-0.00020430,-0.00052
 858,-0.00083841,0.00004823,0.00023815,-0.00013529,0.00021844,-0.000422
 04,0.00153941,-0.00061910,0.00049340,-0.00101553,-0.00032181,0.0197099
 6,0.03438286,-0.00016802,-0.00002354,-0.00012465,0.00028406,-0.0001979
 4,0.00025576,0.00029038,-0.00007635,-0.00112624,-0.00084887,0.00023649
 ,0.00024063,0.00446907,0.00057401,0.00434740,-0.00320589,-0.00030231,-
 0.00044533,-0.00110436,-0.00049926,-0.00800956,-0.00072179,-0.00008138
 ,0.00071530,0.00544601,0.00272157,-0.01282630,-0.00212037,-0.00230591,
 -0.00076026,0.00065316,-0.00041955,0.00460116,0.00141915,0.00254344,-0
 .00208433,0.08609915,-0.00442368,-0.41964376,-0.00007558,0.00005664,0.
 00004880,-0.00001743,-0.00000430,0.00000714,0.00002977,0.00001323,-0.0
 0003375,-0.00011608,0.00004417,0.00018602,-0.00030294,-0.00009965,-0.0
 0016558,0.00003367,0.00014392,0.00068552,0.00002276,0.00012871,0.00000
 204,0.00039941,0.00020550,-0.00006251,0.00039837,0.00010492,0.00002247
 ,-0.00020372,0.00018325,0.00006023,-0.09065188,0.00149940,0.43413875,0
 .00075391,0.00009266,0.00082523,-0.00117370,-0.00278521,-0.00070913,-0
 .00043338,0.00016860,-0.00040385,-0.00013389,-0.00018597,-0.00082130,-
 0.00000445,0.00015103,0.00034305,0.00007489,-0.00010045,-0.00021131,-0
 .00005403,-0.00004556,-0.00013160,0.00020245,0.00007226,-0.00006016,-0
 .00003230,-0.00004039,-0.00004051,-0.00000140,0.00002149,0.00001011,-0
 .00002566,-0.00003347,-0.00001847,-0.00002055,-0.00000534,0.00001711,0
 .00001034,0.00002160,0.00003027,-0.23086520,-0.02814671,0.10533092,-0.
 01903985,-0.00342856,0.01461788,-0.00555294,0.00144067,-0.00461478,-0.
 00023929,-0.00001958,0.00048380,-0.00018086,0.00062131,-0.00085952,-0.
 00008245,0.00006527,0.00011439,0.00000678,0.00001789,0.00002900,0.0000
 1162,0.00002343,0.00004794,-0.00000585,0.00000639,0.00000360,-0.000000
 34,-0.00000152,-0.00000028,0.00002769,0.00000428,-0.00000319,0.2549860
 0,0.00273756,-0.00604968,-0.00176331,-0.03153000,-0.00150528,0.0156094
 3,0.00167686,-0.00038311,-0.00039785,0.00042391,0.00001588,0.00028402,
 0.00008585,0.00005631,0.00006551,0.00004728,0.00002894,-0.00003767,0.0
 0001137,-0.00001655,0.00000008,0.00016965,0.00019983,0.00032643,0.0001
 0620,0.00002156,-0.00002626,0.00002742,0.00002139,0.00008000,-0.000019
 42,-0.00001963,-0.00001575,-0.00003118,-0.00002907,-0.00005834,-0.0000
 3571,-0.00004383,-0.00001914,-0.03192105,-0.04948853,0.02079822,0.0053
 8957,0.00032014,-0.00455100,0.00211905,0.00058508,0.00152674,0.0004873
 9,-0.00040967,-0.00058474,0.00019706,0.00007433,0.00048148,-0.00001652
 ,-0.00007147,-0.00013450,-0.00005590,-0.00005934,-0.00010084,0.0000681
 7,-0.00021159,-0.00008856,0.00003819,-0.00000199,-0.00003738,-0.000005
 05,-0.00000068,-0.00000389,-0.00001313,0.00001423,0.00000486,0.0317748
 7,0.05340437,-0.00092726,0.00076043,-0.00007439,0.01014366,-0.00134407
 ,-0.00551620,-0.00121331,0.00143920,-0.00045049,0.00045163,0.00087153,
 0.00030006,0.00039773,-0.00044089,-0.00079604,-0.00052781,0.00008457,0
 .00028982,-0.00007970,0.00007349,0.00018181,-0.00029531,-0.00008099,-0
 .00002634,0.00003622,-0.00003050,-0.00006601,-0.00000214,-0.00006344,0
 .00014817,0.00004810,-0.00000666,-0.00002324,0.00001280,0.00004459,0.0
 0001499,-0.00002499,-0.00006025,-0.00006011,0.10531627,0.01854945,-0.1
 0357973,-0.01698903,-0.00314255,0.01124639,-0.00364778,0.00078971,-0.0
 0150093,-0.00047320,0.00016379,0.00033425,-0.00055500,-0.00013112,-0.0
 0134544,0.00018404,-0.00003164,0.00024908,0.00008773,-0.00003628,0.000
 00716,-0.00000356,0.00008469,0.00001547,-0.00001191,0.00001698,0.00001
 883,-0.00000293,0.00000319,-0.00000079,-0.00001931,0.00001383,-0.00003
 152,-0.11397340,-0.02099644,0.11212551,0.00012126,-0.00122206,0.000425
 39,-0.00232822,-0.00408798,-0.00020824,-0.00017490,0.00061017,-0.00150
 287,0.00019178,0.00095763,0.00034600,0.00019321,-0.00000377,-0.0005696
 2,-0.00032121,-0.00008134,0.00011735,-0.00004599,-0.00001520,0.0000915
 7,-0.00019244,-0.00012867,0.00022113,0.00002422,0.00003311,0.00002582,
 -0.00000157,0.00000578,0.00006333,0.00001777,0.00000028,-0.00002253,-0
 .00002916,-0.00001381,-0.00001324,-0.00001105,-0.00004972,-0.00006200,
 -0.04288146,0.00370814,0.00029394,-0.00067404,-0.01626197,-0.02064219,
 0.00298478,-0.00068523,0.00070347,-0.00008395,-0.00011759,0.00008768,-
 0.00123805,0.00060833,-0.00032882,0.00018722,0.00010114,0.00016467,0.0
 0007236,-0.00007436,-0.00007823,0.00006733,-0.00007676,-0.00003888,0.0
 0001416,-0.00000789,-0.00001584,-0.00000447,0.00000124,-0.00000300,-0.
 00004018,0.00002031,-0.00000372,-0.00050069,0.01857247,0.02118894,0.04
 809440,-0.00215558,-0.00519274,0.00481492,0.00029840,-0.01746095,-0.02
 971538,-0.00081128,0.00100351,0.00296770,0.00003442,-0.00036071,-0.000
 07641,0.00052166,0.00005328,0.00027860,-0.00011332,0.00033606,0.000168
 50,-0.00018674,-0.00005744,-0.00004291,0.00013140,0.00025523,-0.000198
 14,0.00004425,0.00000299,-0.00003268,0.00000512,-0.00000788,-0.0000134
 9,-0.00002840,-0.00001970,0.00003198,0.00001747,0.00001151,-0.00001780
 ,-0.00001228,0.00001018,0.00006154,0.00454929,-0.15135138,-0.12439167,
 0.00080752,0.00525683,0.00624496,-0.00110493,0.00024701,0.00084453,-0.
 00056505,0.00026985,0.00010972,0.00101792,0.00012450,-0.00005277,0.000
 09447,-0.00061045,0.00003751,-0.00010791,0.00003528,0.00006827,-0.0000
 6159,0.00002953,0.00004831,-0.00000317,0.00000322,0.00000402,-0.000001
 56,0.00000086,0.00000018,0.00005504,0.00000718,-0.00002488,0.00030721,
 0.00334185,0.00367205,-0.00347586,0.16338354,0.00244875,0.00192023,-0.
 00111298,-0.00282227,0.00669962,0.01030800,0.00033151,-0.00002077,-0.0
 0106166,-0.00055536,-0.00000173,0.00000238,-0.00018912,0.00028107,0.00
 026964,0.00012008,-0.00015458,-0.00018089,-0.00003473,-0.00006798,-0.0
 0013019,-0.00004691,0.00001333,-0.00005629,0.00000448,0.00003777,-0.00
 002292,-0.00000296,-0.00001433,-0.00005879,-0.00002683,-0.00001602,0.0
 0002227,0.00001216,0.00000538,0.00001374,0.00000304,0.00003501,0.00006
 080,0.00131026,-0.12363857,-0.19311061,0.00076611,-0.01358043,-0.01830
 274,0.00130015,0.00113525,0.00252916,0.00030800,-0.00036314,0.00014796
 ,-0.00042911,0.00067705,-0.00024964,-0.00004908,0.00024903,0.00009947,
 -0.00004019,0.00003214,0.00004106,-0.00000975,0.00003823,0.00001363,-0
 .00001392,0.00001173,0.00001203,0.00000344,-0.00000366,0.00000458,0.00
 002988,-0.00000609,-0.00000046,0.00029513,-0.01033740,-0.01247736,0.00
 146299,0.13473385,0.21397698,0.00060750,0.00064411,0.00051011,-0.00012
 125,-0.00162062,-0.00008203,-0.00006384,0.00009043,0.00007490,-0.00003
 105,-0.00009153,-0.00007208,0.00007310,0.00005362,0.00020711,0.0000116
 2,0.00002148,-0.00005602,-0.00008590,-0.00002652,-0.00008489,0.0000399
 7,0.00003057,-0.00007765,-0.00000221,0.00001200,-0.00001349,-0.0000012
 0,-0.00000137,-0.00003876,-0.00002099,-0.00001673,0.00001994,0.0000051
 2,0.00000187,-0.00000045,-0.00000028,0.00001583,0.00005128,-0.00121052
 ,-0.01503582,-0.02041387,-0.04649233,-0.00290362,-0.00205475,-0.009268
 47,0.02533342,0.02819753,-0.00001790,0.00004126,0.00001424,0.00017970,
 0.00004828,-0.00002190,-0.00004325,-0.00005174,0.00005865,-0.00003137,
 0.00001562,0.00002614,-0.00001218,0.00001406,0.00000322,-0.00000685,0.
 00000430,0.00000317,0.00000062,-0.00000070,0.00000160,0.00003111,0.000
 00056,-0.00000845,0.00060303,-0.00042765,0.00064266,-0.00345603,0.0016
 3683,-0.00340708,0.06332539,0.00033265,-0.00065766,0.00055841,-0.00018
 881,0.00011431,0.00108354,-0.00015788,0.00005315,-0.00045604,0.0001318
 0,0.00009753,0.00005546,0.00004813,-0.00000158,-0.00003903,-0.00007304
 ,-0.00002681,-0.00001960,-0.00005514,-0.00001051,-0.00003198,-0.000016
 82,-0.00002958,-0.00001137,-0.00000334,0.00001232,-0.00001746,0.000001
 06,-0.00000634,-0.00002228,-0.00001272,-0.00001537,0.00001437,-0.00000
 254,-0.00000025,-0.00000294,-0.00000360,0.00000362,0.00003831,0.000171
 12,0.00555808,0.00668565,0.00184604,-0.16034175,-0.13155408,0.00156488
 ,0.00224311,0.00102574,-0.00001412,-0.00002026,-0.00002290,-0.00005684
 ,0.00001484,0.00000450,0.00001528,0.00004586,0.00005367,0.00000092,-0.
 00000390,0.00000067,0.00001504,0.00000169,-0.00001025,-0.00000527,0.00
 001033,-0.00000012,-0.00000002,0.00000001,0.00000136,0.00001492,0.0000
 0420,-0.00000896,-0.00069612,0.00026557,-0.00057612,0.00111394,0.00024
 032,0.00196806,-0.00396002,0.16851460,0.00134765,0.00101373,0.00187998
 ,-0.00143849,-0.00308480,-0.00108575,0.00044939,0.00024651,0.00072915,
 -0.00009908,-0.00021972,-0.00014919,0.00007750,0.00006184,0.00008247,0
 .00001558,0.00006542,0.00004405,-0.00003326,-0.00001188,0.00000295,0.0
 0006191,0.00007783,-0.00005581,0.00000299,-0.00001184,-0.00000458,-0.0
 0000455,-0.00000034,-0.00002179,-0.00000206,0.00000654,0.00001555,0.00
 001234,0.00000577,-0.00000414,-0.00000068,0.00001365,0.00002415,-0.003
 76916,-0.01279442,-0.01825576,0.00226216,-0.12592174,-0.19793371,0.006
 66200,-0.01037512,-0.01060860,-0.00004185,0.00008345,-0.00006353,0.000
 15713,0.00009568,0.00000188,0.00001040,-0.00011623,-0.00007052,-0.0000
 2818,0.00001354,0.00001823,-0.00002041,0.00000599,0.00001548,-0.000002
 85,-0.00000213,0.00000401,0.00000230,-0.00000077,0.00000090,0.00001698
 ,-0.00000547,-0.00000726,-0.00021551,0.00002818,0.00039208,-0.00321403
 ,0.00111001,-0.00142886,-0.00357385,0.14139515,0.21638006,0.00071154,0
 .00017766,0.00022003,-0.00423325,-0.00102440,-0.00370310,0.00008484,0.
 00186789,-0.00067355,0.00035933,0.00021591,0.00011855,0.00004603,0.000
 02542,0.00016995,-0.00002748,-0.00005566,-0.00011697,-0.00009559,-0.00
 002607,-0.00011818,-0.00000918,-0.00003445,-0.00002780,0.00000368,0.00
 003032,-0.00001737,0.00001128,-0.00000202,-0.00001637,-0.00002907,-0.0
 0003891,0.00000997,-0.00001162,-0.00000758,-0.00000386,-0.00000379,-0.
 00000030,0.00004382,0.00178860,0.02304458,-0.00948223,-0.05071093,-0.0
 2992756,0.01252420,-0.01477914,-0.03358422,0.01283267,-0.00032301,0.00
 017190,-0.00040225,0.00002488,-0.00003192,0.00002389,-0.00004801,0.000
 06742,0.00014680,-0.00000698,-0.00000685,0.00000990,0.00001552,-0.0000
 0371,-0.00001940,-0.00000292,0.00001084,-0.00000067,-0.00000328,0.0000
 0036,0.00000072,0.00002339,0.00001137,-0.00000757,0.00086661,0.0001723
 6,0.00065553,0.00079776,-0.00053982,0.00029287,0.00001355,0.00026741,-
 0.00063262,0.06943371,0.00099382,0.00034172,0.00097390,-0.00040315,0.0
 0029937,-0.00049403,0.00023540,-0.00031023,0.00046685,-0.00018956,-0.0
 0017347,-0.00005047,-0.00015510,-0.00004457,-0.00012783,0.00010281,0.0
 0004170,0.00006152,0.00015520,0.00004226,0.00011614,-0.00000389,0.0000
 2943,0.00003006,-0.00000220,-0.00003619,0.00003007,-0.00001591,0.00000
 513,0.00002360,0.00003622,0.00005260,-0.00002392,0.00000973,0.00000532
 ,0.00001507,0.00000694,0.00000141,-0.00007224,-0.00057316,-0.00551410,
 0.00114286,-0.03416827,-0.26639776,0.08576777,-0.00276271,0.00213866,-
 0.00001628,0.00005440,0.00010169,0.00005144,-0.00004310,-0.00001084,-0
 .00001338,-0.00001557,-0.00003996,-0.00012653,0.00001710,0.00000384,-0
 .00001250,-0.00001453,0.00000143,0.00001462,0.00000521,-0.00001892,0.0
 0000257,0.00000380,-0.00000132,-0.00000063,-0.00003620,-0.00001682,0.0
 0001799,0.00066857,-0.00004780,0.00006249,0.00008068,0.00057480,0.0004
 3258,-0.00267967,-0.01821780,0.00737069,0.03853508,0.28466733,0.000847
 45,-0.00008289,0.00101611,-0.00464847,-0.00216413,-0.00204105,0.000052
 55,0.00150127,-0.00065951,0.00033060,0.00026064,0.00006677,0.00009029,
 0.00004089,0.00013804,-0.00005275,-0.00006239,-0.00008249,-0.00010783,
 -0.00003580,-0.00010422,-0.00001125,-0.00001720,-0.00001111,0.00000200
 ,0.00002435,-0.00000831,0.00000992,0.00000335,-0.00000603,-0.00002506,
 -0.00003283,0.00000393,-0.00001189,-0.00000878,-0.00000353,-0.00000072
 ,-0.00000795,0.00002518,-0.00087690,0.02230893,-0.00975898,0.01351954,
 0.08242581,-0.08325605,0.00820143,0.01374204,-0.00439722,-0.00019399,0
 .00013399,-0.00036046,0.00004592,-0.00002216,0.00006431,0.00000016,0.0
 0006471,0.00011656,-0.00000495,-0.00000866,0.00000754,0.00001324,-0.00
 000772,-0.00001854,0.00000030,0.00000296,-0.00000168,-0.00000484,0.000
 00139,-0.00000034,0.00001864,0.00001523,-0.00000684,0.00030108,-0.0003
 0650,0.00094481,0.00098799,-0.00014172,0.00023464,-0.00407262,-0.02185
 596,0.01087658,-0.01633093,-0.09585240,0.08880442,-0.00003003,-0.00034
 074,-0.00003488,-0.00036542,0.00095493,-0.00056516,0.00015775,-0.00009
 228,0.00023063,-0.00013098,-0.00004450,-0.00000467,-0.00023428,-0.0000
 4530,-0.00018540,0.00012024,-0.00003028,0.00007586,0.00019658,0.000040
 91,0.00015269,-0.00003017,0.00002253,0.00002322,0.00002001,-0.00004228
 ,0.00000516,-0.00000292,-0.00002044,0.00002854,0.00004856,0.00003167,-
 0.00001384,-0.00000106,0.00000508,0.00001190,0.00001496,-0.00000470,-0
 .00004934,0.00186146,0.00105536,0.00134267,-0.00743072,0.02608960,0.02
 849269,-0.03890062,-0.00542999,0.03259848,0.00002362,0.00002013,-0.000
 01350,-0.00006403,-0.00001179,-0.00001051,-0.00004574,0.00007029,-0.00
 015548,0.00002339,-0.00000489,-0.00000570,-0.00000927,0.00001458,0.000
 01069,-0.00000995,0.00000575,0.00000812,-0.00000005,0.00000314,0.00000
 011,-0.00004804,-0.00000450,0.00000475,0.00050784,-0.00049224,-0.00031
 205,-0.00060061,-0.00038441,-0.00092387,-0.00518584,-0.00074752,0.0022
 8028,0.00105143,-0.00055778,-0.00048166,0.04970187,0.00069279,0.000079
 63,0.00028917,-0.00003402,-0.00108868,-0.00022541,0.00000261,0.0001324
 5,0.00016488,0.00008543,0.00004230,0.00002870,0.00032804,0.00005392,0.
 00003507,-0.00020775,0.00002860,0.00005497,-0.00020217,-0.00004761,-0.
 00008543,0.00002516,-0.00000566,-0.00000743,-0.00000863,0.00002720,-0.
 00000824,0.00000659,0.00001444,-0.00001188,-0.00003465,-0.00002956,0.0
 0001415,0.00000088,-0.00000344,-0.00001586,-0.00001438,-0.00000255,0.0
 0003939,-0.00084416,-0.00003510,0.00047868,0.00028585,0.00287805,0.001
 59370,0.01291444,-0.20894058,-0.17458454,0.00000525,-0.00000661,-0.000
 04541,0.00003767,0.00001649,0.00001664,0.00016166,-0.00008150,0.000063
 06,-0.00001565,-0.00000212,0.00000202,0.00000468,-0.00001116,-0.000007
 50,0.00000833,-0.00000270,-0.00000703,-0.00000214,-0.00000024,-0.00000
 119,0.00003876,0.00001244,-0.00001192,-0.00034429,0.00025110,0.0001908
 0,0.00059569,0.00002093,0.00000005,-0.00119538,0.00172550,0.00111095,0
 .00018175,0.00040424,0.00037426,-0.01623771,0.22526474,-0.00053809,0.0
 0002153,0.00002182,-0.00003843,0.00067427,-0.00010419,0.00007988,-0.00
 011679,-0.00003600,-0.00004248,-0.00003615,-0.00000601,-0.00019459,-0.
 00003606,-0.00005128,0.00011755,-0.00002460,-0.00001115,0.00012746,0.0
 0003008,0.00006709,-0.00001683,0.00000065,0.00000364,0.00000886,-0.000
 02120,0.00000643,-0.00000891,-0.00001080,0.00000333,0.00002586,0.00002
 292,-0.00000811,0.00000029,0.00000173,0.00001120,0.00000906,0.00000350
 ,-0.00002486,-0.00054120,0.00094453,0.00238935,-0.00550117,-0.00827228
 ,-0.01362373,0.05859187,-0.20820359,-0.25327978,0.00002057,-0.00000422
 ,0.00001134,-0.00004329,-0.00001246,-0.00000237,-0.00006588,0.00005430
 ,-0.00004389,0.00001223,0.00000006,-0.00000314,-0.00000296,0.00000584,
 0.00000470,-0.00000588,0.00000200,0.00000462,0.00000125,0.00000066,0.0
 0000117,-0.00002677,-0.00000719,0.00000668,-0.00026715,0.00003477,-0.0
 0019623,0.00057015,-0.00037383,0.00050779,0.00426480,0.00124011,-0.000
 56131,-0.00001280,0.00017855,-0.00027595,-0.05246557,0.20148915,0.2571
 1073,0.00310420,0.00022961,0.00053427,-0.00459896,-0.00135454,-0.00289
 885,0.00090973,0.00019146,0.00170748,-0.00038735,-0.00033638,-0.000048
 65,-0.00027694,-0.00002946,-0.00033272,0.00019405,0.00006469,0.0002191
 2,0.00032467,0.00006205,0.00029651,0.00001929,0.00010880,0.00004615,0.
 00003612,-0.00008916,0.00000998,-0.00001028,-0.00002490,0.00004341,0.0
 0008397,0.00006678,-0.00001914,0.00001171,0.00001579,0.00001276,0.0000
 1738,-0.00000128,-0.00008349,0.00075446,-0.00120343,-0.00004730,-0.012
 96156,-0.03525265,0.01299531,-0.04996535,-0.05736203,0.04202374,0.0000
 3386,0.00012899,-0.00013725,-0.00001665,0.00001546,-0.00000952,-0.0000
 4281,-0.00005889,-0.00037065,0.00002624,-0.00000216,-0.00000852,-0.000
 03288,0.00001940,0.00003028,-0.00001254,0.00000178,0.00001016,0.000002
 80,0.00000393,-0.00000020,-0.00007245,-0.00001603,0.00001016,0.0002956
 7,0.00044262,-0.00010663,-0.00018223,0.00003092,-0.00013766,0.00116074
 ,0.00047062,-0.00028200,-0.00494793,0.00071583,0.00240277,-0.00063797,
 0.00376534,-0.00405782,0.06717102,-0.00067592,-0.00232970,-0.00046765,
 0.00206395,0.00209782,0.00081377,-0.00062371,-0.00022517,-0.00078051,0
 .00012291,0.00015698,0.00001351,-0.00008803,-0.00001002,0.00009267,0.0
 0003690,-0.00007005,-0.00010876,-0.00001656,-0.00001213,-0.00007609,-0
 .00004148,-0.00005307,-0.00001430,0.00000106,0.00001574,-0.00000084,0.
 00000584,0.00000059,-0.00000549,-0.00001401,-0.00002169,-0.00000145,-0
 .00000973,-0.00000445,0.00000456,0.00000231,-0.00000281,0.00001135,0.0
 0084320,0.00002954,-0.00039935,0.00180265,0.00156292,0.00217647,-0.089
 65777,-0.37606801,0.09473375,-0.00003583,-0.00005727,0.00012044,-0.000
 03887,-0.00002345,-0.00001813,-0.00008351,0.00011947,0.00011436,0.0000
 0366,-0.00000137,0.00000630,0.00001096,0.00000570,-0.00001138,-0.00000
 262,0.00000590,-0.00000004,-0.00000248,0.00000057,0.00000023,0.0000036
 3,0.00000705,0.00000153,0.00037563,-0.00026236,0.00012016,-0.00010670,
 -0.00014719,-0.00006566,0.00004712,0.00042677,-0.00016049,0.00050320,0
 .00211883,-0.00029274,-0.00382262,-0.02069451,0.01241452,0.08939685,0.
 39343536,-0.00082342,-0.00015617,-0.00107244,-0.00000686,0.00130969,0.
 00072642,-0.00008157,-0.00043078,-0.00014010,-0.00012500,-0.00005446,-
 0.00005561,-0.00028274,-0.00004326,-0.00001622,0.00018129,-0.00001114,
 -0.00005189,0.00017296,0.00003243,0.00006845,-0.00000994,0.00001456,0.
 00001121,0.00002312,-0.00002785,0.00000737,0.00000317,-0.00001008,0.00
 001951,0.00003018,0.00001443,-0.00001289,-0.00000459,0.00000085,0.0000
 0794,0.00001051,-0.00000263,-0.00003586,-0.00041308,-0.00158866,0.0010
 7152,-0.00158198,0.01579664,-0.00654148,0.06070755,0.12363294,-0.08059
 931,0.00002280,-0.00000833,0.00011198,-0.00003234,-0.00000290,-0.00001
 330,-0.00015663,0.00003262,-0.00006360,0.00001181,-0.00000012,0.000000
 34,-0.00000575,0.00001087,0.00000393,-0.00000841,0.00000734,0.00000385
 ,-0.00000092,0.00000230,0.00000007,-0.00003703,-0.00000408,0.00001041,
 -0.00011936,0.00021984,-0.00012361,-0.00004719,-0.00011499,-0.00005075
 ,-0.00009747,0.00050407,-0.00021669,0.00451675,0.00003144,-0.00130658,
 -0.01004415,-0.03093381,0.00807810,-0.05180171,-0.10822074,0.08017923\
 \0.00000006,-0.00000008,-0.00000008,-0.00000250,0.00000025,-0.00000051
 ,-0.00000047,-0.00000049,0.00000184,0.00000012,-0.00000020,-0.00000102
 ,0.00000082,0.00000058,0.00000021,0.00000019,0.00000036,0.00000046,0.0
 0000056,0.00000019,0.00000013,0.00000136,0.00000026,-0.00000033,-0.000
 00177,-0.00000116,0.00000053,0.00000077,0.00000013,-0.00000215,0.00000
 031,-0.00000034,-0.00000145,0.00000066,-0.00000005,-0.00000053,0.00000
 105,-0.00000022,0.00000002,0.00000030,-0.00000001,0.00000065,-0.000001
 03,-0.00000097,0.00000193,-0.00000346,0.00000148,-0.00000225,-0.000000
 09,-0.00000028,0.00000066,0.00000033,0.00000046,-0.00000055,0.00000012
 ,0.00000038,0.00000042,-0.00000004,-0.00000047,0.00000020,-0.00000052,
 -0.00000031,-0.00000027,-0.00000046,-0.00000055,-0.00000054,0.00000064
 ,0.00000002,-0.00000095,-0.00000019,0.00000016,0.00000015,0.00000105,-
 0.00000005,0.00000050,0.00000023,0.00000036,0.00000011,-0.00000060,0.0
 0000022,0.00000027,-0.00000024,-0.00000002,0.00000025,0.00000128,-0.00
 000010,0.00000087,0.00000154,0.00000049,0.00000145\\\@


 Not by the face shall a man be known, but by the mask.
                               -- Karen Blixen
 Job cpu time:       0 days  4 hours 48 minutes 50.1 seconds.
 File lengths (MBytes):  RWF=    542 Int=      0 D2E=      0 Chk=     17 Scr=      1
 Normal termination of Gaussian 09 at Thu Jul 29 01:12:04 2021.
