 Entering Gaussian System, Link 0=g09
 Input=opt_freq-conf-801.com
 Output=opt_freq-conf-801.log
 Initial command:
 /aerosol/software/g09/l1.exe "/scratch/nicole/10567/Gau-91609.inp" -scrdir="/scratch/nicole/10567/"
 Entering Link 1 = /aerosol/software/g09/l1.exe PID=     91614.
  
 Copyright (c) 1988,1990,1992,1993,1995,1998,2003,2009,2013,
            Gaussian, Inc.  All Rights Reserved.
  
 This is part of the Gaussian(R) 09 program.  It is based on
 the Gaussian(R) 03 system (copyright 2003, Gaussian, Inc.),
 the Gaussian(R) 98 system (copyright 1998, Gaussian, Inc.),
 the Gaussian(R) 94 system (copyright 1995, Gaussian, Inc.),
 the Gaussian 92(TM) system (copyright 1992, Gaussian, Inc.),
 the Gaussian 90(TM) system (copyright 1990, Gaussian, Inc.),
 the Gaussian 88(TM) system (copyright 1988, Gaussian, Inc.),
 the Gaussian 86(TM) system (copyright 1986, Carnegie Mellon
 University), and the Gaussian 82(TM) system (copyright 1983,
 Carnegie Mellon University). Gaussian is a federally registered
 trademark of Gaussian, Inc.
  
 This software contains proprietary and confidential information,
 including trade secrets, belonging to Gaussian, Inc.
  
 This software is provided under written license and may be
 used, copied, transmitted, or stored only in accord with that
 written license.
  
 The following legend is applicable only to US Government
 contracts under FAR:
  
                    RESTRICTED RIGHTS LEGEND
  
 Use, reproduction and disclosure by the US Government is
 subject to restrictions as set forth in subparagraphs (a)
 and (c) of the Commercial Computer Software - Restricted
 Rights clause in FAR 52.227-19.
  
 Gaussian, Inc.
 340 Quinnipiac St., Bldg. 40, Wallingford CT 06492
  
  
 ---------------------------------------------------------------
 Warning -- This program may not be used in any manner that
 competes with the business of Gaussian, Inc. or will provide
 assistance to any competitor of Gaussian, Inc.  The licensee
 of this program is prohibited from giving any competitor of
 Gaussian, Inc. access to this program.  By using this program,
 the user acknowledges that Gaussian, Inc. is engaged in the
 business of creating and licensing software in the field of
 computational chemistry and represents and warrants to the
 licensee that it is not a competitor of Gaussian, Inc. and that
 it will not use this program in any manner prohibited above.
 ---------------------------------------------------------------
  

 Cite this work as:
 Gaussian 09, Revision D.01,
 M. J. Frisch, G. W. Trucks, H. B. Schlegel, G. E. Scuseria, 
 M. A. Robb, J. R. Cheeseman, G. Scalmani, V. Barone, B. Mennucci, 
 G. A. Petersson, H. Nakatsuji, M. Caricato, X. Li, H. P. Hratchian, 
 A. F. Izmaylov, J. Bloino, G. Zheng, J. L. Sonnenberg, M. Hada, 
 M. Ehara, K. Toyota, R. Fukuda, J. Hasegawa, M. Ishida, T. Nakajima, 
 Y. Honda, O. Kitao, H. Nakai, T. Vreven, J. A. Montgomery, Jr., 
 J. E. Peralta, F. Ogliaro, M. Bearpark, J. J. Heyd, E. Brothers, 
 K. N. Kudin, V. N. Staroverov, T. Keith, R. Kobayashi, J. Normand, 
 K. Raghavachari, A. Rendell, J. C. Burant, S. S. Iyengar, J. Tomasi, 
 M. Cossi, N. Rega, J. M. Millam, M. Klene, J. E. Knox, J. B. Cross, 
 V. Bakken, C. Adamo, J. Jaramillo, R. Gomperts, R. E. Stratmann, 
 O. Yazyev, A. J. Austin, R. Cammi, C. Pomelli, J. W. Ochterski, 
 R. L. Martin, K. Morokuma, V. G. Zakrzewski, G. A. Voth, 
 P. Salvador, J. J. Dannenberg, S. Dapprich, A. D. Daniels, 
 O. Farkas, J. B. Foresman, J. V. Ortiz, J. Cioslowski, 
 and D. J. Fox, Gaussian, Inc., Wallingford CT, 2013.
 
 ******************************************
 Gaussian 09:  ES64L-G09RevD.01 24-Apr-2013
                28-Jul-2021 
 ******************************************
 %mem=2gb
 %nproc=4
 Will use up to    4 processors via shared memory.
 %chk=conf-801.chk
 ----------------------------------------------------------------------
 # B3LYP/6-311++G(d,p) opt=calcfc freq=noraman nosymm integral(ultrafin
 egrid)
 ----------------------------------------------------------------------
 1/10=4,14=-1,18=20,19=15,26=4,38=1/1,3;
 2/9=110,12=2,15=1,17=6,18=5,40=1/2;
 3/5=4,6=6,7=1111,11=2,16=1,25=1,30=1,71=2,74=-5,75=-5,140=1/1,2,3;
 4//1;
 5/5=2,38=5/2;
 8/6=4,10=90,11=11/1;
 11/6=1,8=1,9=11,15=111,16=1,31=1/1,2,10;
 10/6=1,13=1,31=1/2;
 6/7=2,8=2,9=2,10=2,28=1/1;
 7/10=1,18=20,25=1,30=1/1,2,3,16;
 1/10=4,14=-1,18=20,19=15,26=4/3(2);
 2/9=110,15=1/2;
 99//99;
 2/9=110,15=1/2;
 3/5=4,6=6,7=1111,11=2,16=1,25=1,30=1,71=1,74=-5,75=-5/1,2,3;
 4/5=5,16=3,69=1/1;
 5/5=2,38=5/2;
 7/30=1/1,2,3,16;
 1/14=-1,18=20,19=15,26=4/3(-5);
 2/9=110,15=1/2;
 6/7=2,8=2,9=2,10=2,19=2,28=1/1;
 99/9=1/99;
 ------------------------------------------------------------
 Candidate Structure: Conf:801 OPT and FREQ calc in gas phase
 ------------------------------------------------------------
 Symbolic Z-matrix:
 Charge =  0 Multiplicity = 1
 O                     1.45238   0.72653  -1.1041 
 C                     1.69694   0.02758  -0.12947 
 N                     0.73044  -0.2788    0.77507 
 C                    -0.61161   0.25591   0.65774 
 C                    -1.22657   0.19322   2.04948 
 O                    -2.2089    1.07001   2.31815 
 O                    -0.86618  -0.60134   2.87563 
 C                    -1.43329  -0.55971  -0.37094 
 C                    -2.78158   0.01959  -0.64015 
 C                    -3.23941   0.85888  -1.61989 
 N                    -4.56772   1.18088  -1.41296 
 C                    -4.90354   0.54226  -0.31618 
 N                    -3.86834  -0.18116   0.18419 
 C                     3.06094  -0.5785    0.15252 
 C                     4.15686  -0.01984  -0.74222 
 N                     5.42262  -0.68134  -0.41472 
 H                     0.92504  -0.80626   1.61402 
 H                    -0.55424   1.28912   0.30078 
 H                    -2.408     1.63003   1.55666 
 H                    -1.51389  -1.59175  -0.02627 
 H                    -0.85985  -0.56242  -1.29566 
 H                    -2.6889    1.25435  -2.46035 
 H                    -5.86438   0.56402   0.16666 
 H                    -3.86647  -0.69349   1.05495 
 H                     3.00019  -1.66478   0.01086 
 H                     3.32333  -0.41997   1.20247 
 H                     4.26651   1.05048  -0.55305 
 H                     3.8512   -0.13073  -1.7896 
 H                     5.39439  -1.64588  -0.72628 
 H                     6.18179  -0.24698  -0.92563 
 

 GradGradGradGradGradGradGradGradGradGradGradGradGradGradGradGradGradGrad
 Berny optimization.
 Initialization pass.
                           ----------------------------
                           !    Initial Parameters    !
                           ! (Angstroms and Degrees)  !
 --------------------------                            --------------------------
 ! Name  Definition              Value          Derivative Info.                !
 --------------------------------------------------------------------------------
 ! R1    R(1,2)                  1.224          calculate D2E/DX2 analytically  !
 ! R2    R(2,3)                  1.3587         calculate D2E/DX2 analytically  !
 ! R3    R(2,14)                 1.519          calculate D2E/DX2 analytically  !
 ! R4    R(3,4)                  1.4494         calculate D2E/DX2 analytically  !
 ! R5    R(3,17)                 1.0099         calculate D2E/DX2 analytically  !
 ! R6    R(4,5)                  1.5228         calculate D2E/DX2 analytically  !
 ! R7    R(4,8)                  1.5487         calculate D2E/DX2 analytically  !
 ! R8    R(4,18)                 1.0946         calculate D2E/DX2 analytically  !
 ! R9    R(5,6)                  1.3438         calculate D2E/DX2 analytically  !
 ! R10   R(5,7)                  1.2016         calculate D2E/DX2 analytically  !
 ! R11   R(6,19)                 0.966          calculate D2E/DX2 analytically  !
 ! R12   R(8,9)                  1.492          calculate D2E/DX2 analytically  !
 ! R13   R(8,20)                 1.0911         calculate D2E/DX2 analytically  !
 ! R14   R(8,21)                 1.0881         calculate D2E/DX2 analytically  !
 ! R15   R(9,10)                 1.3689         calculate D2E/DX2 analytically  !
 ! R16   R(9,13)                 1.3787         calculate D2E/DX2 analytically  !
 ! R17   R(10,11)                1.3824         calculate D2E/DX2 analytically  !
 ! R18   R(10,22)                1.0797         calculate D2E/DX2 analytically  !
 ! R19   R(11,12)                1.3128         calculate D2E/DX2 analytically  !
 ! R20   R(12,13)                1.3584         calculate D2E/DX2 analytically  !
 ! R21   R(12,23)                1.0756         calculate D2E/DX2 analytically  !
 ! R22   R(13,24)                1.0103         calculate D2E/DX2 analytically  !
 ! R23   R(14,15)                1.5211         calculate D2E/DX2 analytically  !
 ! R24   R(14,25)                1.0972         calculate D2E/DX2 analytically  !
 ! R25   R(14,26)                1.0938         calculate D2E/DX2 analytically  !
 ! R26   R(15,16)                1.4653         calculate D2E/DX2 analytically  !
 ! R27   R(15,27)                1.0924         calculate D2E/DX2 analytically  !
 ! R28   R(15,28)                1.0967         calculate D2E/DX2 analytically  !
 ! R29   R(16,29)                1.014          calculate D2E/DX2 analytically  !
 ! R30   R(16,30)                1.0129         calculate D2E/DX2 analytically  !
 ! A1    A(1,2,3)              121.1123         calculate D2E/DX2 analytically  !
 ! A2    A(1,2,14)             123.7151         calculate D2E/DX2 analytically  !
 ! A3    A(3,2,14)             115.1624         calculate D2E/DX2 analytically  !
 ! A4    A(2,3,4)              121.4368         calculate D2E/DX2 analytically  !
 ! A5    A(2,3,17)             122.2572         calculate D2E/DX2 analytically  !
 ! A6    A(4,3,17)             115.9985         calculate D2E/DX2 analytically  !
 ! A7    A(3,4,5)              106.5436         calculate D2E/DX2 analytically  !
 ! A8    A(3,4,8)              110.5325         calculate D2E/DX2 analytically  !
 ! A9    A(3,4,18)             109.0312         calculate D2E/DX2 analytically  !
 ! A10   A(5,4,8)              111.7829         calculate D2E/DX2 analytically  !
 ! A11   A(5,4,18)             110.9798         calculate D2E/DX2 analytically  !
 ! A12   A(8,4,18)             107.9569         calculate D2E/DX2 analytically  !
 ! A13   A(4,5,6)              116.8108         calculate D2E/DX2 analytically  !
 ! A14   A(4,5,7)              122.3082         calculate D2E/DX2 analytically  !
 ! A15   A(6,5,7)              120.8798         calculate D2E/DX2 analytically  !
 ! A16   A(5,6,19)             111.7964         calculate D2E/DX2 analytically  !
 ! A17   A(4,8,9)              113.2552         calculate D2E/DX2 analytically  !
 ! A18   A(4,8,20)             109.1183         calculate D2E/DX2 analytically  !
 ! A19   A(4,8,21)             106.6295         calculate D2E/DX2 analytically  !
 ! A20   A(9,8,20)             110.9481         calculate D2E/DX2 analytically  !
 ! A21   A(9,8,21)             108.8976         calculate D2E/DX2 analytically  !
 ! A22   A(20,8,21)            107.7613         calculate D2E/DX2 analytically  !
 ! A23   A(8,9,10)             132.0246         calculate D2E/DX2 analytically  !
 ! A24   A(8,9,13)             123.2236         calculate D2E/DX2 analytically  !
 ! A25   A(10,9,13)            104.6885         calculate D2E/DX2 analytically  !
 ! A26   A(9,10,11)            110.9196         calculate D2E/DX2 analytically  !
 ! A27   A(9,10,22)            127.6719         calculate D2E/DX2 analytically  !
 ! A28   A(11,10,22)           121.4077         calculate D2E/DX2 analytically  !
 ! A29   A(10,11,12)           104.9241         calculate D2E/DX2 analytically  !
 ! A30   A(11,12,13)           111.8297         calculate D2E/DX2 analytically  !
 ! A31   A(11,12,23)           126.4208         calculate D2E/DX2 analytically  !
 ! A32   A(13,12,23)           121.7484         calculate D2E/DX2 analytically  !
 ! A33   A(9,13,12)            107.632          calculate D2E/DX2 analytically  !
 ! A34   A(9,13,24)            125.9936         calculate D2E/DX2 analytically  !
 ! A35   A(12,13,24)           126.0816         calculate D2E/DX2 analytically  !
 ! A36   A(2,14,15)            113.0307         calculate D2E/DX2 analytically  !
 ! A37   A(2,14,25)            108.745          calculate D2E/DX2 analytically  !
 ! A38   A(2,14,26)            109.6202         calculate D2E/DX2 analytically  !
 ! A39   A(15,14,25)           109.1217         calculate D2E/DX2 analytically  !
 ! A40   A(15,14,26)           109.7901         calculate D2E/DX2 analytically  !
 ! A41   A(25,14,26)           106.3037         calculate D2E/DX2 analytically  !
 ! A42   A(14,15,16)           108.9717         calculate D2E/DX2 analytically  !
 ! A43   A(14,15,27)           109.2867         calculate D2E/DX2 analytically  !
 ! A44   A(14,15,28)           108.8947         calculate D2E/DX2 analytically  !
 ! A45   A(16,15,27)           108.4764         calculate D2E/DX2 analytically  !
 ! A46   A(16,15,28)           114.1156         calculate D2E/DX2 analytically  !
 ! A47   A(27,15,28)           107.0034         calculate D2E/DX2 analytically  !
 ! A48   A(15,16,29)           109.6769         calculate D2E/DX2 analytically  !
 ! A49   A(15,16,30)           109.9444         calculate D2E/DX2 analytically  !
 ! A50   A(29,16,30)           105.889          calculate D2E/DX2 analytically  !
 ! D1    D(1,2,3,4)             -2.8051         calculate D2E/DX2 analytically  !
 ! D2    D(1,2,3,17)          -176.181          calculate D2E/DX2 analytically  !
 ! D3    D(14,2,3,4)           178.3159         calculate D2E/DX2 analytically  !
 ! D4    D(14,2,3,17)            4.94           calculate D2E/DX2 analytically  !
 ! D5    D(1,2,14,15)           11.0544         calculate D2E/DX2 analytically  !
 ! D6    D(1,2,14,25)         -110.2876         calculate D2E/DX2 analytically  !
 ! D7    D(1,2,14,26)          133.8825         calculate D2E/DX2 analytically  !
 ! D8    D(3,2,14,15)         -170.0994         calculate D2E/DX2 analytically  !
 ! D9    D(3,2,14,25)           68.5585         calculate D2E/DX2 analytically  !
 ! D10   D(3,2,14,26)          -47.2714         calculate D2E/DX2 analytically  !
 ! D11   D(2,3,4,5)           -157.6449         calculate D2E/DX2 analytically  !
 ! D12   D(2,3,4,8)             80.7119         calculate D2E/DX2 analytically  !
 ! D13   D(2,3,4,18)           -37.8064         calculate D2E/DX2 analytically  !
 ! D14   D(17,3,4,5)            16.1243         calculate D2E/DX2 analytically  !
 ! D15   D(17,3,4,8)          -105.5189         calculate D2E/DX2 analytically  !
 ! D16   D(17,3,4,18)          135.9628         calculate D2E/DX2 analytically  !
 ! D17   D(3,4,5,6)            154.6107         calculate D2E/DX2 analytically  !
 ! D18   D(3,4,5,7)            -25.785          calculate D2E/DX2 analytically  !
 ! D19   D(8,4,5,6)            -84.5438         calculate D2E/DX2 analytically  !
 ! D20   D(8,4,5,7)             95.0605         calculate D2E/DX2 analytically  !
 ! D21   D(18,4,5,6)            36.0416         calculate D2E/DX2 analytically  !
 ! D22   D(18,4,5,7)          -144.3541         calculate D2E/DX2 analytically  !
 ! D23   D(3,4,8,9)           -174.2995         calculate D2E/DX2 analytically  !
 ! D24   D(3,4,8,20)            61.5881         calculate D2E/DX2 analytically  !
 ! D25   D(3,4,8,21)           -54.5467         calculate D2E/DX2 analytically  !
 ! D26   D(5,4,8,9)             67.2034         calculate D2E/DX2 analytically  !
 ! D27   D(5,4,8,20)           -56.909          calculate D2E/DX2 analytically  !
 ! D28   D(5,4,8,21)          -173.0438         calculate D2E/DX2 analytically  !
 ! D29   D(18,4,8,9)           -55.1288         calculate D2E/DX2 analytically  !
 ! D30   D(18,4,8,20)         -179.2412         calculate D2E/DX2 analytically  !
 ! D31   D(18,4,8,21)           64.624          calculate D2E/DX2 analytically  !
 ! D32   D(4,5,6,19)             1.0735         calculate D2E/DX2 analytically  !
 ! D33   D(7,5,6,19)          -178.5368         calculate D2E/DX2 analytically  !
 ! D34   D(4,8,9,10)            95.5167         calculate D2E/DX2 analytically  !
 ! D35   D(4,8,9,13)           -81.125          calculate D2E/DX2 analytically  !
 ! D36   D(20,8,9,10)         -141.3747         calculate D2E/DX2 analytically  !
 ! D37   D(20,8,9,13)           41.9836         calculate D2E/DX2 analytically  !
 ! D38   D(21,8,9,10)          -22.9305         calculate D2E/DX2 analytically  !
 ! D39   D(21,8,9,13)          160.4278         calculate D2E/DX2 analytically  !
 ! D40   D(8,9,10,11)         -176.7469         calculate D2E/DX2 analytically  !
 ! D41   D(8,9,10,22)            2.9376         calculate D2E/DX2 analytically  !
 ! D42   D(13,9,10,11)           0.3493         calculate D2E/DX2 analytically  !
 ! D43   D(13,9,10,22)        -179.9662         calculate D2E/DX2 analytically  !
 ! D44   D(8,9,13,12)          176.736          calculate D2E/DX2 analytically  !
 ! D45   D(8,9,13,24)            2.6631         calculate D2E/DX2 analytically  !
 ! D46   D(10,9,13,12)          -0.6855         calculate D2E/DX2 analytically  !
 ! D47   D(10,9,13,24)        -174.7585         calculate D2E/DX2 analytically  !
 ! D48   D(9,10,11,12)           0.1325         calculate D2E/DX2 analytically  !
 ! D49   D(22,10,11,12)       -179.575          calculate D2E/DX2 analytically  !
 ! D50   D(10,11,12,13)         -0.588          calculate D2E/DX2 analytically  !
 ! D51   D(10,11,12,23)        179.0302         calculate D2E/DX2 analytically  !
 ! D52   D(11,12,13,9)           0.8276         calculate D2E/DX2 analytically  !
 ! D53   D(11,12,13,24)        174.8939         calculate D2E/DX2 analytically  !
 ! D54   D(23,12,13,9)        -178.8111         calculate D2E/DX2 analytically  !
 ! D55   D(23,12,13,24)         -4.7448         calculate D2E/DX2 analytically  !
 ! D56   D(2,14,15,16)        -178.8788         calculate D2E/DX2 analytically  !
 ! D57   D(2,14,15,27)          62.7396         calculate D2E/DX2 analytically  !
 ! D58   D(2,14,15,28)         -53.8268         calculate D2E/DX2 analytically  !
 ! D59   D(25,14,15,16)        -57.7498         calculate D2E/DX2 analytically  !
 ! D60   D(25,14,15,27)       -176.1314         calculate D2E/DX2 analytically  !
 ! D61   D(25,14,15,28)         67.3022         calculate D2E/DX2 analytically  !
 ! D62   D(26,14,15,16)         58.3877         calculate D2E/DX2 analytically  !
 ! D63   D(26,14,15,27)        -59.9939         calculate D2E/DX2 analytically  !
 ! D64   D(26,14,15,28)       -176.5603         calculate D2E/DX2 analytically  !
 ! D65   D(14,15,16,29)         70.4382         calculate D2E/DX2 analytically  !
 ! D66   D(14,15,16,30)       -173.5175         calculate D2E/DX2 analytically  !
 ! D67   D(27,15,16,29)       -170.6726         calculate D2E/DX2 analytically  !
 ! D68   D(27,15,16,30)        -54.6283         calculate D2E/DX2 analytically  !
 ! D69   D(28,15,16,29)        -51.5041         calculate D2E/DX2 analytically  !
 ! D70   D(28,15,16,30)         64.5402         calculate D2E/DX2 analytically  !
 --------------------------------------------------------------------------------
 Trust Radius=3.00D-01 FncErr=1.00D-07 GrdErr=1.00D-06
 Number of steps in this run=    160 maximum allowed number of steps=    180.
 GradGradGradGradGradGradGradGradGradGradGradGradGradGradGradGradGradGrad

                          Input orientation:                          
 ---------------------------------------------------------------------
 Center     Atomic      Atomic             Coordinates (Angstroms)
 Number     Number       Type             X           Y           Z
 ---------------------------------------------------------------------
      1          8           0        1.452382    0.726529   -1.104099
      2          6           0        1.696936    0.027577   -0.129466
      3          7           0        0.730439   -0.278799    0.775067
      4          6           0       -0.611610    0.255908    0.657735
      5          6           0       -1.226575    0.193217    2.049478
      6          8           0       -2.208901    1.070011    2.318149
      7          8           0       -0.866180   -0.601341    2.875628
      8          6           0       -1.433292   -0.559713   -0.370938
      9          6           0       -2.781575    0.019587   -0.640150
     10          6           0       -3.239411    0.858884   -1.619887
     11          7           0       -4.567718    1.180882   -1.412963
     12          6           0       -4.903535    0.542259   -0.316184
     13          7           0       -3.868338   -0.181161    0.184191
     14          6           0        3.060940   -0.578503    0.152524
     15          6           0        4.156864   -0.019838   -0.742224
     16          7           0        5.422616   -0.681338   -0.414722
     17          1           0        0.925044   -0.806256    1.614021
     18          1           0       -0.554239    1.289122    0.300784
     19          1           0       -2.407996    1.630028    1.556665
     20          1           0       -1.513893   -1.591752   -0.026266
     21          1           0       -0.859855   -0.562423   -1.295661
     22          1           0       -2.688899    1.254352   -2.460354
     23          1           0       -5.864385    0.564021    0.166660
     24          1           0       -3.866466   -0.693494    1.054952
     25          1           0        3.000194   -1.664783    0.010861
     26          1           0        3.323332   -0.419967    1.202473
     27          1           0        4.266509    1.050482   -0.553047
     28          1           0        3.851201   -0.130731   -1.789602
     29          1           0        5.394392   -1.645877   -0.726281
     30          1           0        6.181787   -0.246984   -0.925632
 ---------------------------------------------------------------------
                    Distance matrix (angstroms):
                    1          2          3          4          5
     1  O    0.000000
     2  C    1.224030   0.000000
     3  N    2.250145   1.358736   0.000000
     4  C    2.754198   2.449735   1.449404   0.000000
     5  C    4.172084   3.649952   2.382609   1.522846   0.000000
     6  O    5.023421   4.725786   3.583310   2.443579   1.343844
     7  O    4.793453   3.999461   2.658116   2.391386   1.201553
     8  C    3.243310   3.193986   2.464543   1.548732   2.543236
     9  C    4.317570   4.507541   3.798173   2.539509   3.111635
    10  C    4.721915   5.223021   4.773870   3.529374   4.237790
    11  N    6.045117   6.497951   5.915117   4.560062   4.911947
    12  C    6.407219   6.623140   5.797122   4.410345   4.386140
    13  N    5.549203   5.578013   4.637609   3.319873   3.255513
    14  C    2.422740   1.518999   2.430765   3.799881   4.751501
    15  C    2.828823   2.535541   3.756278   4.977375   6.067982
    16  N    4.268499   3.803238   4.857382   6.200038   7.144849
    17  H    3.164758   2.081068   1.009914   2.098566   2.412060
    18  H    2.513312   2.616180   2.081758   1.094640   2.170478
    19  H    4.774777   4.718194   3.755568   2.433780   1.924331
    20  H    3.915985   3.597540   2.720846   2.166984   2.752704
    21  H    2.654154   2.871461   2.626288   2.132381   3.448975
    22  H    4.389560   5.116010   4.950795   3.877435   4.858290
    23  H    7.428077   7.586108   6.676242   5.284670   5.019141
    24  H    5.913385   5.733606   4.624051   3.413684   2.957087
    25  H    3.058959   2.140621   2.767084   4.141573   5.047147
    26  H    3.183579   2.149307   2.631672   4.029554   4.668518
    27  H    2.885812   2.797938   4.004331   5.088554   6.138567
    28  H    2.638018   2.724329   4.042104   5.104471   6.373953
    29  H    4.616329   4.102172   5.086788   6.450143   7.411094
    30  H    4.831858   4.563240   5.710569   6.993583   7.995554
                    6          7          8          9         10
     6  O    0.000000
     7  O    2.215198   0.000000
     8  C    3.238635   3.295988   0.000000
     9  C    3.191062   4.051541   1.491956   0.000000
    10  C    4.076107   5.289058   2.614260   1.368911   0.000000
    11  N    4.415598   5.938831   3.733646   2.266308   1.382354
    12  C    3.805166   5.272165   3.641419   2.209266   2.137570
    13  N    2.978748   4.053805   2.526048   1.378728   2.175302
    14  C    5.931168   4.778920   4.524653   5.926299   6.700891
    15  C    7.146791   6.217553   5.628425   6.939302   7.499822
    16  N    8.293121   7.098010   6.857126   8.237164   8.880057
    17  H    3.719918   2.200482   3.092345   4.416145   5.529334
    18  H    2.618335   3.209514   2.154562   2.730953   3.329299
    19  H    0.965979   3.015936   3.075820   2.749378   3.372891
    20  H    3.614457   3.133917   1.091054   2.140160   3.394504
    21  H    4.188602   4.171475   1.088094   2.112212   2.790613
    22  H    4.806087   5.936211   3.038591   2.201448   1.079742
    23  H    4.271708   5.803329   4.602866   3.232811   3.188916
    24  H    2.730044   3.510709   2.823366   2.135145   3.155604
    25  H    6.319601   4.928148   4.585057   6.057208   6.925381
    26  H    5.836983   4.514903   5.012047   6.392054   7.257462
    27  H    7.083437   6.389743   5.925674   7.123610   7.583777
    28  H    7.418911   6.651279   5.488396   6.733317   7.161349
    29  H    8.628712   7.297915   6.922665   8.344317   9.034097
    30  H    9.091768   8.015546   7.641657   8.971869   9.511252
                   11         12         13         14         15
    11  N    0.000000
    12  C    1.312836   0.000000
    13  N    2.212509   1.358435   0.000000
    14  C    7.983897   8.056591   6.940733   0.000000
    15  C    8.832325   9.087811   8.080108   1.521095   0.000000
    16  N   10.211323  10.398860   9.323663   2.431020   1.465253
    17  H    6.578890   6.286217   5.040999   2.598056   4.076151
    18  H    4.365394   4.455877   3.627476   4.071796   4.999574
    19  H    3.699300   3.304319   2.701239   6.062877   7.148730
    20  H    4.351583   4.015934   2.752720   4.689108   5.927984
    21  H    4.098917   4.304770   3.374358   4.179728   5.076235
    22  H    2.152299   3.163726   3.231933   6.576255   7.172169
    23  H    2.134730   1.075567   2.130682   8.998165  10.079305
    24  H    3.177364   2.117217   1.010303   6.986884   8.249696
    25  H    8.209652   8.212608   7.029076   1.097161   2.147293
    26  H    8.465925   8.421018   7.267327   1.093790   2.153305
    27  H    8.876938   9.187171   8.260520   2.145885   1.092427
    28  H    8.528797   8.903330   7.968041   2.144030   1.096690
    29  H   10.378138  10.535816   9.421917   2.712303   2.043460
    30  H   10.854868  11.130082  10.111432   3.318436   2.045861
                   16         17         18         19         20
    16  N    0.000000
    17  H    4.935540   0.000000
    18  H    6.333834   2.881576   0.000000
    19  H    8.399242   4.128914   2.264922   0.000000
    20  H    7.006776   3.042361   3.054068   3.699319   0.000000
    21  H    6.345048   3.422217   2.463789   3.916547   1.760297
    22  H    8.586511   5.822991   3.490253   4.044315   3.925013
    23  H   11.370370   7.075935   5.361102   3.874933   4.859152
    24  H    9.404634   4.825334   3.933241   2.788836   2.740529
    25  H    2.648852   2.759246   4.630724   6.518728   4.514830
    26  H    2.662823   2.463813   4.332388   6.097217   5.126560
    27  H    2.086844   4.394206   4.901590   7.023943   6.377455
    28  H    2.159353   4.539094   5.078740   7.312682   5.833366
    29  H    1.014003   5.114396   6.712324   8.764740   6.943871
    30  H    1.012933   5.864808   7.016963   9.136157   7.863889
                   21         22         23         24         25
    21  H    0.000000
    22  H    2.828883   0.000000
    23  H    5.334096   4.178693   0.000000
    24  H    3.818674   4.187857   2.522317   0.000000
    25  H    4.221632   6.855219   9.141805   7.013170   0.000000
    26  H    4.874424   7.236474   9.298133   7.196511   1.753261
    27  H    5.425176   7.215059  10.168069   8.471859   3.048641
    28  H    4.756509   6.718725   9.934900   8.244427   2.513801
    29  H    6.372886   8.761160  11.508303   9.478572   2.505179
    30  H    7.058410   9.126798  12.122751  10.251317   3.606898
                   26         27         28         29         30
    26  H    0.000000
    27  H    2.476621   0.000000
    28  H    3.052018   1.759777   0.000000
    29  H    3.084192   2.927880   2.409928   0.000000
    30  H    3.567846   2.343188   2.488291   1.617601   0.000000
 Symmetry turned off by external request.
 Stoichiometry    C9H14N4O3
 Framework group  C1[X(C9H14N4O3)]
 Deg. of freedom    84
 Full point group                 C1      NOp   1
 Rotational constants (GHZ):      1.0925978      0.2321516      0.2014001
 Standard basis: 6-311++G(d,p) (5D, 7F)
   450 basis functions,   702 primitive gaussians,   466 cartesian basis functions
    60 alpha electrons       60 beta electrons
       nuclear repulsion energy      1103.5276556170 Hartrees.
 NAtoms=   30 NActive=   30 NUniq=   30 SFac= 1.00D+00 NAtFMM=   60 NAOKFM=F Big=F
 Integral buffers will be    131072 words long.
 Raffenetti 2 integral format.
 Two-electron integral symmetry is turned off.
 One-electron integrals computed using PRISM.
 NBasis=   450 RedAO= T EigKep=  1.47D-06  NBF=   450
 NBsUse=   450 1.00D-06 EigRej= -1.00D+00 NBFU=   450
 ExpMin= 3.60D-02 ExpMax= 8.59D+03 ExpMxC= 1.30D+03 IAcc=3 IRadAn=         5 AccDes= 0.00D+00
 Harris functional with IExCor=  402 and IRadAn=       5 diagonalized for initial guess.
 HarFok:  IExCor=  402 AccDes= 0.00D+00 IRadAn=         5 IDoV= 1 UseB2=F ITyADJ=14
 ICtDFT=  3500011 ScaDFX=  1.000000  1.000000  1.000000  1.000000
 FoFCou: FMM=F IPFlag=           0 FMFlag=      100000 FMFlg1=           0
         NFxFlg=           0 DoJE=T BraDBF=F KetDBF=T FulRan=T
         wScrn=  0.000000 ICntrl=     500 IOpCl=  0 I1Cent=   200000004 NGrid=           0
         NMat0=    1 NMatS0=      1 NMatT0=    0 NMatD0=    1 NMtDS0=    0 NMtDT0=    0
 Symmetry not used in FoFCou.
 Requested convergence on RMS density matrix=1.00D-08 within 128 cycles.
 Requested convergence on MAX density matrix=1.00D-06.
 Requested convergence on             energy=1.00D-06.
 No special actions if energy rises.
 SCF Done:  E(RB3LYP) =  -796.324462868     A.U. after   15 cycles
            NFock= 15  Conv=0.37D-08     -V/T= 2.0036
 DoSCS=F DFT=T ScalE2(SS,OS)=  1.000000  1.000000
 Range of M.O.s used for correlation:     1   450
 NBasis=   450 NAE=    60 NBE=    60 NFC=     0 NFV=     0
 NROrb=    450 NOA=    60 NOB=    60 NVA=   390 NVB=   390

 **** Warning!!: The largest alpha MO coefficient is  0.23487822D+03

 Symmetrizing basis deriv contribution to polar:
 IMax=3 JMax=2 DiffMx= 0.00D+00
 G2DrvN: will do    31 centers at a time, making    1 passes.
 Calling FoFCou, ICntrl=  3107 FMM=F I1Cent=   0 AccDes= 0.00D+00.
 End of G2Drv F.D. properties file   721 does not exist.
 End of G2Drv F.D. properties file   722 does not exist.
 End of G2Drv F.D. properties file   788 does not exist.
          IDoAtm=111111111111111111111111111111
          Differentiating once with respect to nuclear coordinates.
          There are    93 degrees of freedom in the 1st order CPHF.  IDoFFX=6 NUNeed=     0.
     87 vectors produced by pass  0 Test12= 2.52D-14 1.08D-09 XBig12= 2.38D-01 1.25D-01.
 AX will form    87 AO Fock derivatives at one time.
     87 vectors produced by pass  1 Test12= 2.52D-14 1.08D-09 XBig12= 1.38D-02 2.36D-02.
     87 vectors produced by pass  2 Test12= 2.52D-14 1.08D-09 XBig12= 1.76D-04 2.42D-03.
     87 vectors produced by pass  3 Test12= 2.52D-14 1.08D-09 XBig12= 6.66D-07 1.36D-04.
     87 vectors produced by pass  4 Test12= 2.52D-14 1.08D-09 XBig12= 1.68D-09 4.71D-06.
     84 vectors produced by pass  5 Test12= 2.52D-14 1.08D-09 XBig12= 2.32D-12 1.49D-07.
     32 vectors produced by pass  6 Test12= 2.52D-14 1.08D-09 XBig12= 5.28D-15 6.43D-09.
     12 vectors produced by pass  7 Test12= 2.52D-14 1.08D-09 XBig12= 5.59D-16 2.43D-09.
      4 vectors produced by pass  8 Test12= 2.52D-14 1.08D-09 XBig12= 4.41D-16 1.96D-09.
      4 vectors produced by pass  9 Test12= 2.52D-14 1.08D-09 XBig12= 1.29D-15 3.89D-09.
      4 vectors produced by pass 10 Test12= 2.52D-14 1.08D-09 XBig12= 1.07D-14 8.60D-09.
      4 vectors produced by pass 11 Test12= 2.52D-14 1.08D-09 XBig12= 4.14D-15 5.32D-09.
      4 vectors produced by pass 12 Test12= 2.52D-14 1.08D-09 XBig12= 4.60D-15 6.91D-09.
      4 vectors produced by pass 13 Test12= 2.52D-14 1.08D-09 XBig12= 5.25D-15 6.63D-09.
      4 vectors produced by pass 14 Test12= 2.52D-14 1.08D-09 XBig12= 9.84D-16 2.62D-09.
      4 vectors produced by pass 15 Test12= 2.52D-14 1.08D-09 XBig12= 5.00D-15 6.13D-09.
      4 vectors produced by pass 16 Test12= 2.52D-14 1.08D-09 XBig12= 2.41D-15 3.73D-09.
      4 vectors produced by pass 17 Test12= 2.52D-14 1.08D-09 XBig12= 3.30D-15 5.46D-09.
      4 vectors produced by pass 18 Test12= 2.52D-14 1.08D-09 XBig12= 1.32D-15 2.85D-09.
      4 vectors produced by pass 19 Test12= 2.52D-14 1.08D-09 XBig12= 3.15D-15 4.84D-09.
      4 vectors produced by pass 20 Test12= 2.52D-14 1.08D-09 XBig12= 8.47D-15 7.42D-09.
      3 vectors produced by pass 21 Test12= 2.52D-14 1.08D-09 XBig12= 9.15D-16 2.07D-09.
      3 vectors produced by pass 22 Test12= 2.52D-14 1.08D-09 XBig12= 2.05D-15 3.77D-09.
      3 vectors produced by pass 23 Test12= 2.52D-14 1.08D-09 XBig12= 6.96D-15 8.32D-09.
      3 vectors produced by pass 24 Test12= 2.52D-14 1.08D-09 XBig12= 2.66D-15 4.68D-09.
      3 vectors produced by pass 25 Test12= 2.52D-14 1.08D-09 XBig12= 7.41D-15 5.76D-09.
      3 vectors produced by pass 26 Test12= 2.52D-14 1.08D-09 XBig12= 2.90D-15 3.45D-09.
      3 vectors produced by pass 27 Test12= 2.52D-14 1.08D-09 XBig12= 5.02D-15 6.21D-09.
      3 vectors produced by pass 28 Test12= 2.52D-14 1.08D-09 XBig12= 2.08D-15 3.02D-09.
      3 vectors produced by pass 29 Test12= 2.52D-14 1.08D-09 XBig12= 2.09D-15 3.56D-09.
      3 vectors produced by pass 30 Test12= 2.52D-14 1.08D-09 XBig12= 3.01D-15 3.98D-09.
      3 vectors produced by pass 31 Test12= 2.52D-14 1.08D-09 XBig12= 4.56D-15 4.71D-09.
      3 vectors produced by pass 32 Test12= 2.52D-14 1.08D-09 XBig12= 5.60D-15 6.14D-09.
      3 vectors produced by pass 33 Test12= 2.52D-14 1.08D-09 XBig12= 6.51D-16 2.03D-09.
      2 vectors produced by pass 34 Test12= 2.52D-14 1.08D-09 XBig12= 7.57D-16 2.09D-09.
 InvSVY:  IOpt=1 It=  1 EMax= 4.44D-16
 Solved reduced A of dimension   656 with    93 vectors.
 End of Minotr F.D. properties file   721 does not exist.
 End of Minotr F.D. properties file   722 does not exist.
 End of Minotr F.D. properties file   788 does not exist.

 **********************************************************************

            Population analysis using the SCF density.

 **********************************************************************

 Alpha  occ. eigenvalues --  -19.20550 -19.14613 -19.10362 -14.38774 -14.35595
 Alpha  occ. eigenvalues --  -14.30886 -14.30224 -10.33934 -10.28868 -10.25684
 Alpha  occ. eigenvalues --  -10.23985 -10.22397 -10.21280 -10.20055 -10.19784
 Alpha  occ. eigenvalues --  -10.18938  -1.14634  -1.06658  -1.05817  -1.03955
 Alpha  occ. eigenvalues --   -0.95145  -0.89612  -0.89245  -0.82864  -0.77987
 Alpha  occ. eigenvalues --   -0.75145  -0.69858  -0.66402  -0.63620  -0.63372
 Alpha  occ. eigenvalues --   -0.61668  -0.60613  -0.57495  -0.55452  -0.51869
 Alpha  occ. eigenvalues --   -0.51038  -0.50465  -0.50052  -0.48291  -0.47239
 Alpha  occ. eigenvalues --   -0.46857  -0.45446  -0.44618  -0.44150  -0.43406
 Alpha  occ. eigenvalues --   -0.42567  -0.42005  -0.40709  -0.40438  -0.39296
 Alpha  occ. eigenvalues --   -0.37897  -0.36123  -0.35818  -0.31890  -0.30338
 Alpha  occ. eigenvalues --   -0.29010  -0.28296  -0.27757  -0.25223  -0.24858
 Alpha virt. eigenvalues --   -0.03913  -0.02534  -0.01602  -0.00816  -0.00395
 Alpha virt. eigenvalues --   -0.00241  -0.00036   0.01131   0.01619   0.01803
 Alpha virt. eigenvalues --    0.02742   0.02952   0.03201   0.03769   0.04299
 Alpha virt. eigenvalues --    0.04847   0.05219   0.05778   0.06507   0.06643
 Alpha virt. eigenvalues --    0.07343   0.07646   0.07966   0.08731   0.08950
 Alpha virt. eigenvalues --    0.09666   0.09894   0.10238   0.10687   0.11035
 Alpha virt. eigenvalues --    0.11290   0.11536   0.11916   0.12392   0.12736
 Alpha virt. eigenvalues --    0.13132   0.13399   0.13705   0.13950   0.14160
 Alpha virt. eigenvalues --    0.14447   0.15033   0.15135   0.15599   0.15705
 Alpha virt. eigenvalues --    0.16308   0.16440   0.16815   0.17259   0.17576
 Alpha virt. eigenvalues --    0.17892   0.18059   0.18779   0.19166   0.19317
 Alpha virt. eigenvalues --    0.19455   0.20341   0.20427   0.20918   0.21261
 Alpha virt. eigenvalues --    0.21629   0.21884   0.22684   0.23108   0.23497
 Alpha virt. eigenvalues --    0.23817   0.24146   0.24576   0.24651   0.25243
 Alpha virt. eigenvalues --    0.25782   0.26150   0.26548   0.26981   0.27518
 Alpha virt. eigenvalues --    0.27866   0.28157   0.28777   0.29054   0.29232
 Alpha virt. eigenvalues --    0.29879   0.30115   0.30492   0.30904   0.31251
 Alpha virt. eigenvalues --    0.31529   0.31608   0.32174   0.32926   0.33026
 Alpha virt. eigenvalues --    0.33653   0.34635   0.34753   0.35157   0.35695
 Alpha virt. eigenvalues --    0.36129   0.36517   0.36715   0.37205   0.37972
 Alpha virt. eigenvalues --    0.38637   0.39877   0.40498   0.41291   0.42682
 Alpha virt. eigenvalues --    0.42834   0.44727   0.45179   0.46516   0.46930
 Alpha virt. eigenvalues --    0.47885   0.48909   0.49100   0.50389   0.51809
 Alpha virt. eigenvalues --    0.53182   0.54962   0.55262   0.56612   0.57384
 Alpha virt. eigenvalues --    0.58924   0.59724   0.60079   0.60509   0.60844
 Alpha virt. eigenvalues --    0.62226   0.62878   0.63475   0.63776   0.65643
 Alpha virt. eigenvalues --    0.66095   0.66365   0.66966   0.67342   0.69288
 Alpha virt. eigenvalues --    0.69897   0.70222   0.70610   0.71072   0.71892
 Alpha virt. eigenvalues --    0.72674   0.73178   0.74466   0.74600   0.74762
 Alpha virt. eigenvalues --    0.75788   0.76178   0.77249   0.78938   0.80613
 Alpha virt. eigenvalues --    0.81502   0.82987   0.83991   0.86396   0.86807
 Alpha virt. eigenvalues --    0.87981   0.88875   0.89838   0.90442   0.90599
 Alpha virt. eigenvalues --    0.91096   0.92024   0.94047   0.94907   0.95623
 Alpha virt. eigenvalues --    0.97615   0.98574   0.99518   1.00610   1.03083
 Alpha virt. eigenvalues --    1.03620   1.04627   1.05901   1.07034   1.08779
 Alpha virt. eigenvalues --    1.10772   1.11059   1.11458   1.14731   1.16266
 Alpha virt. eigenvalues --    1.16874   1.18146   1.18895   1.19347   1.20561
 Alpha virt. eigenvalues --    1.21973   1.23610   1.24013   1.25182   1.25597
 Alpha virt. eigenvalues --    1.27379   1.28696   1.29992   1.30692   1.32043
 Alpha virt. eigenvalues --    1.32448   1.35647   1.38025   1.38487   1.40742
 Alpha virt. eigenvalues --    1.41714   1.44231   1.44817   1.45998   1.48572
 Alpha virt. eigenvalues --    1.50862   1.51838   1.52662   1.54175   1.55155
 Alpha virt. eigenvalues --    1.57058   1.58153   1.58339   1.59815   1.60655
 Alpha virt. eigenvalues --    1.62800   1.63784   1.65338   1.65942   1.66525
 Alpha virt. eigenvalues --    1.66927   1.66960   1.67953   1.68684   1.69483
 Alpha virt. eigenvalues --    1.71948   1.72536   1.73987   1.74414   1.75726
 Alpha virt. eigenvalues --    1.76985   1.78176   1.79168   1.79737   1.80550
 Alpha virt. eigenvalues --    1.81781   1.83489   1.83817   1.85454   1.86718
 Alpha virt. eigenvalues --    1.88874   1.90920   1.92769   1.94198   1.96617
 Alpha virt. eigenvalues --    1.97848   1.99538   2.00312   2.02502   2.04304
 Alpha virt. eigenvalues --    2.05810   2.08506   2.10493   2.11132   2.13241
 Alpha virt. eigenvalues --    2.14023   2.16701   2.18343   2.19840   2.22071
 Alpha virt. eigenvalues --    2.22367   2.24001   2.26035   2.26779   2.31013
 Alpha virt. eigenvalues --    2.31783   2.32896   2.36765   2.37727   2.39526
 Alpha virt. eigenvalues --    2.43851   2.44864   2.47415   2.49390   2.50298
 Alpha virt. eigenvalues --    2.52841   2.53918   2.54003   2.55461   2.57927
 Alpha virt. eigenvalues --    2.59116   2.60311   2.61855   2.62148   2.63167
 Alpha virt. eigenvalues --    2.64727   2.65865   2.68478   2.68880   2.70283
 Alpha virt. eigenvalues --    2.70395   2.72813   2.73535   2.77427   2.78432
 Alpha virt. eigenvalues --    2.79187   2.79963   2.80346   2.81257   2.83428
 Alpha virt. eigenvalues --    2.84169   2.85669   2.88631   2.88978   2.89297
 Alpha virt. eigenvalues --    2.90015   2.90441   2.92305   2.92957   2.93476
 Alpha virt. eigenvalues --    2.94574   2.96448   2.97297   2.98966   2.99913
 Alpha virt. eigenvalues --    3.02819   3.04679   3.05940   3.07832   3.09232
 Alpha virt. eigenvalues --    3.12083   3.14712   3.16936   3.18289   3.20364
 Alpha virt. eigenvalues --    3.27994   3.32201   3.33239   3.35787   3.36247
 Alpha virt. eigenvalues --    3.41021   3.44274   3.50638   3.52844   3.55331
 Alpha virt. eigenvalues --    3.60020   3.61767   3.64670   3.66525   3.70240
 Alpha virt. eigenvalues --    3.72124   3.79229   3.81408   3.83788   3.84967
 Alpha virt. eigenvalues --    3.88486   3.89944   3.91891   3.92138   3.92887
 Alpha virt. eigenvalues --    4.04090   4.07470   4.09790   4.13359   4.21448
 Alpha virt. eigenvalues --    4.30076   4.32240   4.49690   4.72515   4.76579
 Alpha virt. eigenvalues --    4.82967   4.85593   4.91256   4.97273   5.01391
 Alpha virt. eigenvalues --    5.06356   5.10341   5.19175   5.26471   5.29571
 Alpha virt. eigenvalues --    5.37213   5.58295   5.78990   5.87012  23.74930
 Alpha virt. eigenvalues --   23.79021  23.82503  23.86125  23.87483  23.92188
 Alpha virt. eigenvalues --   23.92473  23.95247  24.13619  35.54031  35.59618
 Alpha virt. eigenvalues --   35.61533  35.69071  49.85634  49.99681  50.02280
          Condensed to atoms (all electrons):
               1          2          3          4          5          6
     1  O    8.040806   0.274365  -0.139295   0.031197   0.051502  -0.000981
     2  C    0.274365   9.207220  -0.784471  -0.485862  -0.136097   0.054164
     3  N   -0.139295  -0.784471   8.045010  -0.732799  -0.313448  -0.012554
     4  C    0.031197  -0.485862  -0.732799  11.544512  -1.408747  -0.082052
     5  C    0.051502  -0.136097  -0.313448  -1.408747   7.733247   0.253542
     6  O   -0.000981   0.054164  -0.012554  -0.082052   0.253542   7.879956
     7  O    0.000170   0.089990   0.028471  -0.129547   0.368561  -0.125534
     8  C   -0.048247   0.353955   0.132662  -1.231848  -0.126913   0.226761
     9  C    0.013043  -0.943163   0.596246  -1.953329   0.270219  -0.230939
    10  C   -0.008168  -0.152735  -0.009317   0.501399  -0.068758  -0.068472
    11  N    0.000116   0.003853  -0.000773   0.007660  -0.007300  -0.008739
    12  C    0.000145   0.012125   0.022242   0.010059  -0.058754  -0.034045
    13  N   -0.000283   0.031527   0.016692  -0.050497   0.036767   0.007435
    14  C    0.137394  -1.679869  -0.000042  -0.493794   0.011167  -0.010585
    15  C   -0.022102   0.201658   0.012611  -0.181747   0.010542  -0.000577
    16  N   -0.001854   0.040936  -0.003815   0.013878  -0.000288  -0.000004
    17  H   -0.000601   0.169075   0.219815   0.043152  -0.061655   0.017740
    18  H   -0.017935   0.111159  -0.113165   0.712581  -0.174431   0.035630
    19  H    0.002778   0.002611   0.008153  -0.020917  -0.027644   0.176762
    20  H    0.000383   0.006007  -0.014418   0.072384  -0.054030  -0.002848
    21  H    0.006168   0.067450  -0.059799  -0.149149   0.049931  -0.002931
    22  H    0.000311  -0.002755  -0.001236   0.007503   0.000916  -0.000825
    23  H   -0.000009   0.000018   0.000451   0.001198  -0.001656  -0.001681
    24  H    0.000015   0.013304   0.002666  -0.000803  -0.042112   0.007271
    25  H    0.002730  -0.112869   0.034539   0.024338   0.004947   0.000109
    26  H    0.005383  -0.130354   0.030113   0.027755  -0.014518  -0.000925
    27  H   -0.011171   0.014339  -0.009309   0.012656   0.002519   0.000103
    28  H   -0.003050  -0.060359  -0.009111  -0.012309  -0.001113   0.000017
    29  H    0.000831  -0.001557   0.000067  -0.001499  -0.000389   0.000000
    30  H   -0.000272   0.014211   0.000515  -0.000106   0.000066  -0.000002
               7          8          9         10         11         12
     1  O    0.000170  -0.048247   0.013043  -0.008168   0.000116   0.000145
     2  C    0.089990   0.353955  -0.943163  -0.152735   0.003853   0.012125
     3  N    0.028471   0.132662   0.596246  -0.009317  -0.000773   0.022242
     4  C   -0.129547  -1.231848  -1.953329   0.501399   0.007660   0.010059
     5  C    0.368561  -0.126913   0.270219  -0.068758  -0.007300  -0.058754
     6  O   -0.125534   0.226761  -0.230939  -0.068472  -0.008739  -0.034045
     7  O    7.967218  -0.031488   0.032981  -0.001100   0.000572   0.003233
     8  C   -0.031488  18.614152  -8.074115  -2.917153  -0.235522  -0.508109
     9  C    0.032981  -8.074115  15.559276   0.407074  -0.218591   0.252674
    10  C   -0.001100  -2.917153   0.407074   7.710373   0.726772  -0.254531
    11  N    0.000572  -0.235522  -0.218591   0.726772   6.593153   0.362152
    12  C    0.003233  -0.508109   0.252674  -0.254531   0.362152   5.526075
    13  N   -0.001353  -0.318016  -0.137827   0.124859   0.023283   0.193824
    14  C   -0.012108  -0.147702   0.424402   0.031659   0.000515   0.005909
    15  C    0.000312   0.014950   0.013068  -0.006599   0.000021   0.000608
    16  N   -0.000047  -0.000985  -0.002904  -0.000124   0.000000  -0.000004
    17  H    0.040988   0.024991  -0.084904  -0.007435  -0.000145  -0.001617
    18  H   -0.014152   0.040351  -0.256057   0.001723  -0.004930  -0.010428
    19  H    0.025687  -0.117563   0.158644   0.022573   0.007409   0.017810
    20  H    0.002105   0.360837  -0.108749   0.033990   0.003660  -0.007499
    21  H   -0.002926   0.482673  -0.001315  -0.051873   0.000009  -0.005166
    22  H    0.000071  -0.060198  -0.093309   0.486985  -0.065647   0.025068
    23  H    0.000159  -0.011677   0.069952  -0.012974  -0.066017   0.456025
    24  H   -0.002966   0.082894  -0.057899  -0.058811   0.006698  -0.026652
    25  H    0.000636   0.013845  -0.009955  -0.001607  -0.000009  -0.000029
    26  H   -0.003464  -0.006750   0.008847   0.002342  -0.000005   0.000102
    27  H   -0.000005  -0.000538  -0.004070  -0.000685   0.000005  -0.000064
    28  H   -0.000008   0.001948  -0.002876   0.000674  -0.000013  -0.000061
    29  H    0.000001  -0.000296   0.000409   0.000031   0.000000   0.000002
    30  H   -0.000001   0.000210  -0.000170  -0.000031   0.000000   0.000001
              13         14         15         16         17         18
     1  O   -0.000283   0.137394  -0.022102  -0.001854  -0.000601  -0.017935
     2  C    0.031527  -1.679869   0.201658   0.040936   0.169075   0.111159
     3  N    0.016692  -0.000042   0.012611  -0.003815   0.219815  -0.113165
     4  C   -0.050497  -0.493794  -0.181747   0.013878   0.043152   0.712581
     5  C    0.036767   0.011167   0.010542  -0.000288  -0.061655  -0.174431
     6  O    0.007435  -0.010585  -0.000577  -0.000004   0.017740   0.035630
     7  O   -0.001353  -0.012108   0.000312  -0.000047   0.040988  -0.014152
     8  C   -0.318016  -0.147702   0.014950  -0.000985   0.024991   0.040351
     9  C   -0.137827   0.424402   0.013068  -0.002904  -0.084904  -0.256057
    10  C    0.124859   0.031659  -0.006599  -0.000124  -0.007435   0.001723
    11  N    0.023283   0.000515   0.000021   0.000000  -0.000145  -0.004930
    12  C    0.193824   0.005909   0.000608  -0.000004  -0.001617  -0.010428
    13  N    6.987453  -0.003726   0.000721   0.000007  -0.000444  -0.016730
    14  C   -0.003726   7.579429  -0.313680  -0.131573  -0.033159  -0.057673
    15  C    0.000721  -0.313680   6.173380   0.167656  -0.037930  -0.007873
    16  N    0.000007  -0.131573   0.167656   6.630827  -0.003241   0.000057
    17  H   -0.000444  -0.033159  -0.037930  -0.003241   0.419320   0.014115
    18  H   -0.016730  -0.057673  -0.007873   0.000057   0.014115   0.505509
    19  H   -0.001578   0.006677   0.000740   0.000012  -0.004755  -0.040841
    20  H    0.006292  -0.011001   0.000448   0.000307  -0.004341   0.008165
    21  H   -0.003710  -0.000838  -0.002697  -0.001827   0.004786  -0.013895
    22  H    0.016547   0.000638  -0.000071  -0.000001  -0.000220  -0.002436
    23  H   -0.119246   0.000190   0.000006   0.000000  -0.000044   0.000319
    24  H    0.364486  -0.001645   0.000052  -0.000002   0.002332  -0.000224
    25  H    0.000149   0.395041  -0.024631   0.000977  -0.009141  -0.002569
    26  H    0.000012   0.507435  -0.108139   0.011360  -0.002980   0.002857
    27  H   -0.000021  -0.038955   0.407956  -0.050536   0.001489  -0.000866
    28  H    0.000060   0.103846   0.336525  -0.120775   0.004851   0.001869
    29  H   -0.000004   0.030214  -0.083316   0.391792   0.001042   0.000123
    30  H    0.000003  -0.031320  -0.025378   0.404879  -0.000797  -0.000144
              19         20         21         22         23         24
     1  O    0.002778   0.000383   0.006168   0.000311  -0.000009   0.000015
     2  C    0.002611   0.006007   0.067450  -0.002755   0.000018   0.013304
     3  N    0.008153  -0.014418  -0.059799  -0.001236   0.000451   0.002666
     4  C   -0.020917   0.072384  -0.149149   0.007503   0.001198  -0.000803
     5  C   -0.027644  -0.054030   0.049931   0.000916  -0.001656  -0.042112
     6  O    0.176762  -0.002848  -0.002931  -0.000825  -0.001681   0.007271
     7  O    0.025687   0.002105  -0.002926   0.000071   0.000159  -0.002966
     8  C   -0.117563   0.360837   0.482673  -0.060198  -0.011677   0.082894
     9  C    0.158644  -0.108749  -0.001315  -0.093309   0.069952  -0.057899
    10  C    0.022573   0.033990  -0.051873   0.486985  -0.012974  -0.058811
    11  N    0.007409   0.003660   0.000009  -0.065647  -0.066017   0.006698
    12  C    0.017810  -0.007499  -0.005166   0.025068   0.456025  -0.026652
    13  N   -0.001578   0.006292  -0.003710   0.016547  -0.119246   0.364486
    14  C    0.006677  -0.011001  -0.000838   0.000638   0.000190  -0.001645
    15  C    0.000740   0.000448  -0.002697  -0.000071   0.000006   0.000052
    16  N    0.000012   0.000307  -0.001827  -0.000001   0.000000  -0.000002
    17  H   -0.004755  -0.004341   0.004786  -0.000220  -0.000044   0.002332
    18  H   -0.040841   0.008165  -0.013895  -0.002436   0.000319  -0.000224
    19  H    0.504225   0.003401   0.000771   0.000800  -0.000929  -0.001850
    20  H    0.003401   0.542135  -0.024206   0.001000  -0.001211  -0.005112
    21  H    0.000771  -0.024206   0.463215   0.000282   0.000200   0.001237
    22  H    0.000800   0.001000   0.000282   0.528211  -0.001988   0.000864
    23  H   -0.000929  -0.001211   0.000200  -0.001988   0.531676  -0.004058
    24  H   -0.001850  -0.005112   0.001237   0.000864  -0.004058   0.380096
    25  H    0.000132  -0.000660  -0.001980   0.000000  -0.000001  -0.000017
    26  H   -0.000070   0.001011  -0.003315   0.000038   0.000007  -0.000168
    27  H    0.000033  -0.000041   0.001044   0.000013  -0.000002   0.000006
    28  H   -0.000067  -0.000052   0.000802  -0.000036  -0.000001   0.000012
    29  H   -0.000008  -0.000051   0.000101   0.000001   0.000000   0.000000
    30  H    0.000005   0.000016  -0.000162  -0.000001   0.000000   0.000000
              25         26         27         28         29         30
     1  O    0.002730   0.005383  -0.011171  -0.003050   0.000831  -0.000272
     2  C   -0.112869  -0.130354   0.014339  -0.060359  -0.001557   0.014211
     3  N    0.034539   0.030113  -0.009309  -0.009111   0.000067   0.000515
     4  C    0.024338   0.027755   0.012656  -0.012309  -0.001499  -0.000106
     5  C    0.004947  -0.014518   0.002519  -0.001113  -0.000389   0.000066
     6  O    0.000109  -0.000925   0.000103   0.000017   0.000000  -0.000002
     7  O    0.000636  -0.003464  -0.000005  -0.000008   0.000001  -0.000001
     8  C    0.013845  -0.006750  -0.000538   0.001948  -0.000296   0.000210
     9  C   -0.009955   0.008847  -0.004070  -0.002876   0.000409  -0.000170
    10  C   -0.001607   0.002342  -0.000685   0.000674   0.000031  -0.000031
    11  N   -0.000009  -0.000005   0.000005  -0.000013   0.000000   0.000000
    12  C   -0.000029   0.000102  -0.000064  -0.000061   0.000002   0.000001
    13  N    0.000149   0.000012  -0.000021   0.000060  -0.000004   0.000003
    14  C    0.395041   0.507435  -0.038955   0.103846   0.030214  -0.031320
    15  C   -0.024631  -0.108139   0.407956   0.336525  -0.083316  -0.025378
    16  N    0.000977   0.011360  -0.050536  -0.120775   0.391792   0.404879
    17  H   -0.009141  -0.002980   0.001489   0.004851   0.001042  -0.000797
    18  H   -0.002569   0.002857  -0.000866   0.001869   0.000123  -0.000144
    19  H    0.000132  -0.000070   0.000033  -0.000067  -0.000008   0.000005
    20  H   -0.000660   0.001011  -0.000041  -0.000052  -0.000051   0.000016
    21  H   -0.001980  -0.003315   0.001044   0.000802   0.000101  -0.000162
    22  H    0.000000   0.000038   0.000013  -0.000036   0.000001  -0.000001
    23  H   -0.000001   0.000007  -0.000002  -0.000001   0.000000   0.000000
    24  H   -0.000017  -0.000168   0.000006   0.000012   0.000000   0.000000
    25  H    0.607289  -0.068008   0.014904  -0.046057   0.009495   0.001088
    26  H   -0.068008   0.561784  -0.019399   0.020323  -0.002525   0.001775
    27  H    0.014904  -0.019399   0.572718  -0.064233   0.012493  -0.015491
    28  H   -0.046057   0.020323  -0.064233   0.688924  -0.007480   0.002337
    29  H    0.009495  -0.002525   0.012493  -0.007480   0.511245  -0.061778
    30  H    0.001088   0.001775  -0.015491   0.002337  -0.061778   0.470458
 Mulliken charges:
               1
     1  O   -0.313367
     2  C   -0.177875
     3  N    0.053302
     4  C   -0.075266
     5  C   -0.296073
     6  O   -0.075795
     7  O   -0.236455
     8  C   -0.513108
     9  C    0.373336
    10  C   -0.430079
    11  N   -0.128187
    12  C    0.018904
    13  N   -0.156682
    14  C   -0.266847
    15  C   -0.526515
    16  N   -0.344710
    17  H    0.289715
    18  H    0.299892
    19  H    0.276998
    20  H    0.192080
    21  H    0.247118
    22  H    0.159476
    23  H    0.161293
    24  H    0.340386
    25  H    0.167316
    26  H    0.179475
    27  H    0.175110
    28  H    0.165413
    29  H    0.201056
    30  H    0.240088
 Sum of Mulliken charges =   0.00000
 Mulliken charges with hydrogens summed into heavy atoms:
               1
     1  O   -0.313367
     2  C   -0.177875
     3  N    0.343017
     4  C    0.224626
     5  C   -0.296073
     6  O    0.201203
     7  O   -0.236455
     8  C   -0.073911
     9  C    0.373336
    10  C   -0.270603
    11  N   -0.128187
    12  C    0.180198
    13  N    0.183703
    14  C    0.079944
    15  C   -0.185991
    16  N    0.096435
 APT charges:
               1
     1  O   -0.398311
     2  C   -0.033242
     3  N   -0.375913
     4  C   -0.003639
     5  C   -0.888979
     6  O   -0.003309
     7  O    0.019798
     8  C   -0.652896
     9  C    0.336761
    10  C   -0.878986
    11  N   -0.107783
    12  C   -0.484954
    13  N   -0.588540
    14  C   -0.980177
    15  C   -0.239140
    16  N   -1.814529
    17  H    0.583972
    18  H    0.365765
    19  H    0.438183
    20  H    0.390299
    21  H    0.278864
    22  H    0.318170
    23  H    1.116416
    24  H    0.523025
    25  H    0.379115
    26  H    0.439179
    27  H    0.356526
    28  H    0.271200
    29  H    0.534202
    30  H    1.098921
 Sum of APT charges =   0.00000
 APT charges with hydrogens summed into heavy atoms:
               1
     1  O   -0.398311
     2  C   -0.033242
     3  N    0.208059
     4  C    0.362126
     5  C   -0.888979
     6  O    0.434874
     7  O    0.019798
     8  C    0.016268
     9  C    0.336761
    10  C   -0.560816
    11  N   -0.107783
    12  C    0.631462
    13  N   -0.065515
    14  C   -0.161882
    15  C    0.388586
    16  N   -0.181406
 Electronic spatial extent (au):  <R**2>=           5334.5877
 Charge=              0.0000 electrons
 Dipole moment (field-independent basis, Debye):
    X=              0.7920    Y=             -2.1687    Z=              0.5478  Tot=              2.3729
 Quadrupole moment (field-independent basis, Debye-Ang):
   XX=            -95.3222   YY=            -94.2683   ZZ=           -110.9271
   XY=              3.7382   XZ=            -15.3450   YZ=              6.9623
 Traceless Quadrupole moment (field-independent basis, Debye-Ang):
   XX=              4.8503   YY=              5.9043   ZZ=            -10.7546
   XY=              3.7382   XZ=            -15.3450   YZ=              6.9623
 Octapole moment (field-independent basis, Debye-Ang**2):
  XXX=            165.8238  YYY=            -35.6855  ZZZ=            -71.6553  XYY=             61.3706
  XXY=            -54.5510  XXZ=             13.0206  XZZ=             76.0187  YZZ=            -11.6457
  YYZ=             -4.4547  XYZ=             -3.5761
 Hexadecapole moment (field-independent basis, Debye-Ang**3):
 XXXX=          -5584.0096 YYYY=           -352.1224 ZZZZ=          -1197.5687 XXXY=            512.2997
 XXXZ=           -637.5022 YYYX=            306.6745 YYYZ=             68.7829 ZZZX=             96.1253
 ZZZY=             60.7263 XXYY=          -1030.0832 XXZZ=          -1227.0451 YYZZ=           -247.9217
 XXYZ=            117.9214 YYXZ=            -24.1236 ZZXY=            123.3403
 N-N= 1.103527655617D+03 E-N=-4.067087323626D+03  KE= 7.934399922043D+02
  Exact polarizability:   0.000   0.000   0.000   0.000   0.000   0.000
 Approx polarizability: 215.952 -21.626 189.614  -3.228 -37.695 212.355
 Calling FoFJK, ICntrl=    100147 FMM=F ISym2X=0 I1Cent= 0 IOpClX= 0 NMat=1 NMatS=1 NMatT=0.
 -------------------------------------------------------------------
 Center     Atomic                   Forces (Hartrees/Bohr)
 Number     Number              X              Y              Z
 -------------------------------------------------------------------
      1        8           0.001505268    0.001252135   -0.001439876
      2        6           0.001193939   -0.000696873   -0.003955861
      3        7          -0.002291799    0.001049120    0.003715583
      4        6           0.006968885   -0.001923100    0.000027776
      5        6           0.003408437    0.002503525   -0.001360824
      6        8          -0.003860874    0.000794551    0.003975438
      7        8          -0.002006346   -0.001535695    0.004058217
      8        6          -0.006778277    0.001914529   -0.002178410
      9        6           0.006112492   -0.002862836   -0.001204601
     10        6          -0.005100387    0.004970788   -0.003441470
     11        7           0.003356883   -0.001237052    0.000673362
     12        6          -0.005031820    0.002864144   -0.002952610
     13        7          -0.000113322   -0.003732624    0.006226414
     14        6          -0.000871415    0.000237747    0.001201347
     15        6          -0.001129135    0.001355880   -0.000587634
     16        7           0.001820393    0.000303582   -0.001397212
     17        1           0.001689458   -0.001110403    0.000309506
     18        1           0.000543134   -0.000289198    0.000340502
     19        1           0.000919809    0.000502162   -0.001488627
     20        1           0.000941995   -0.002317812    0.001094951
     21        1           0.001098770    0.000249126   -0.000932290
     22        1          -0.000134065   -0.000632389    0.000011500
     23        1          -0.003340465    0.000304124   -0.000005170
     24        1          -0.001473828   -0.000682709   -0.001669103
     25        1          -0.001769573   -0.000293758    0.000403959
     26        1           0.000676948   -0.000537089    0.000573449
     27        1           0.000381872    0.000234941   -0.000477725
     28        1           0.000373437    0.000834499   -0.000320689
     29        1           0.000672438   -0.002759007    0.000730934
     30        1           0.002237145    0.001239692    0.000069166
 -------------------------------------------------------------------
 Cartesian Forces:  Max     0.006968885 RMS     0.002377411
 FormGI is forming the generalized inverse of G from B-inverse, IUseBI=4.
 GSVD:  received Info=                   1 from GESDD.

 GradGradGradGradGradGradGradGradGradGradGradGradGradGradGradGradGradGrad
 Berny optimization.
 Internal  Forces:  Max     0.012125622 RMS     0.002422027
 Search for a local minimum.
 Step number   1 out of a maximum of  160
 All quantities printed in internal units (Hartrees-Bohrs-Radians)
 Mixed Optimization -- RFO/linear search
 Second derivative matrix not updated -- analytic derivatives used.
 ITU=  0
     Eigenvalues ---   -0.00060   0.00049   0.00124   0.00210   0.00252
     Eigenvalues ---    0.00309   0.00421   0.00519   0.00681   0.01060
     Eigenvalues ---    0.01547   0.01930   0.02030   0.02549   0.03294
     Eigenvalues ---    0.03452   0.04170   0.04215   0.04320   0.04384
     Eigenvalues ---    0.04508   0.04561   0.05111   0.05121   0.05249
     Eigenvalues ---    0.05613   0.05880   0.06098   0.07685   0.07689
     Eigenvalues ---    0.08256   0.10341   0.10695   0.10837   0.10887
     Eigenvalues ---    0.11661   0.11805   0.13514   0.15099   0.15658
     Eigenvalues ---    0.16406   0.16687   0.16861   0.18549   0.19113
     Eigenvalues ---    0.19892   0.21353   0.22060   0.22994   0.23154
     Eigenvalues ---    0.23394   0.24450   0.24526   0.25015   0.29885
     Eigenvalues ---    0.30418   0.31677   0.32426   0.32687   0.32942
     Eigenvalues ---    0.33592   0.33619   0.33798   0.34084   0.34703
     Eigenvalues ---    0.34807   0.36829   0.36980   0.37420   0.37645
     Eigenvalues ---    0.40206   0.41228   0.43069   0.44822   0.44942
     Eigenvalues ---    0.44956   0.45457   0.46565   0.46763   0.47361
     Eigenvalues ---    0.51916   0.57488   0.80290   0.89085
 RFO step:  Lambda=-4.13178158D-03 EMin=-5.97238070D-04
 Linear search not attempted -- first point.
 Iteration  1 RMS(Cart)=  0.15105956 RMS(Int)=  0.02244792
 Iteration  2 RMS(Cart)=  0.05353332 RMS(Int)=  0.00143957
 Iteration  3 RMS(Cart)=  0.00199124 RMS(Int)=  0.00011330
 Iteration  4 RMS(Cart)=  0.00000201 RMS(Int)=  0.00011330
 Iteration  5 RMS(Cart)=  0.00000000 RMS(Int)=  0.00011330
 Variable       Old X    -DE/DX   Delta X   Delta X   Delta X     New X
                                 (Linear)    (Quad)   (Total)
    R1        2.31308   0.00156   0.00000  -0.00046  -0.00046   2.31262
    R2        2.56764   0.00735   0.00000   0.01542   0.01542   2.58306
    R3        2.87049   0.00194   0.00000   0.00539   0.00539   2.87588
    R4        2.73898   0.00365   0.00000  -0.00302  -0.00302   2.73595
    R5        1.90846   0.00116   0.00000   0.00226   0.00226   1.91072
    R6        2.87776   0.00527   0.00000   0.00831   0.00831   2.88608
    R7        2.92668   0.00907   0.00000   0.02788   0.02788   2.95456
    R8        2.06857  -0.00036   0.00000  -0.00051  -0.00051   2.06806
    R9        2.53950   0.00349   0.00000   0.00780   0.00780   2.54730
   R10        2.27061   0.00320   0.00000   0.00322   0.00322   2.27383
   R11        1.82544   0.00128   0.00000   0.00388   0.00388   1.82931
   R12        2.81939   0.00521   0.00000   0.00459   0.00459   2.82398
   R13        2.06179   0.00247   0.00000   0.00645   0.00645   2.06824
   R14        2.05620   0.00137   0.00000   0.00533   0.00533   2.06153
   R15        2.58687   0.00583   0.00000   0.01383   0.01386   2.60072
   R16        2.60542   0.00829   0.00000   0.01512   0.01521   2.62063
   R17        2.61227  -0.00195   0.00000  -0.01175  -0.01183   2.60044
   R18        2.04042  -0.00031   0.00000  -0.00020  -0.00020   2.04022
   R19        2.48090  -0.00045   0.00000  -0.00042  -0.00049   2.48041
   R20        2.56707   0.00747   0.00000   0.01306   0.01309   2.58016
   R21        2.03253   0.00299   0.00000   0.00711   0.00711   2.03964
   R22        1.90920  -0.00109   0.00000  -0.00213  -0.00213   1.90707
   R23        2.87445   0.00475   0.00000   0.01439   0.01439   2.88884
   R24        2.07333   0.00034   0.00000   0.00226   0.00226   2.07560
   R25        2.06696   0.00064   0.00000  -0.00008  -0.00008   2.06689
   R26        2.76893   0.00450   0.00000   0.00817   0.00817   2.77709
   R27        2.06439   0.00019   0.00000   0.00268   0.00268   2.06707
   R28        2.07244   0.00012   0.00000  -0.00201  -0.00201   2.07044
   R29        1.91619   0.00238   0.00000   0.00373   0.00373   1.91991
   R30        1.91417   0.00217   0.00000   0.00304   0.00304   1.91721
    A1        2.11381   0.00240   0.00000   0.00704   0.00703   2.12084
    A2        2.15924  -0.00165   0.00000  -0.00357  -0.00358   2.15566
    A3        2.00996  -0.00075   0.00000  -0.00363  -0.00365   2.00632
    A4        2.11947   0.00107   0.00000   0.00505   0.00501   2.12449
    A5        2.13379  -0.00211   0.00000  -0.01516  -0.01520   2.11859
    A6        2.02456   0.00106   0.00000   0.01162   0.01159   2.03614
    A7        1.85954   0.00172   0.00000   0.02471   0.02468   1.88422
    A8        1.92916  -0.00026   0.00000   0.01442   0.01433   1.94349
    A9        1.90295  -0.00103   0.00000  -0.00769  -0.00752   1.89543
   A10        1.95098   0.00082   0.00000  -0.00631  -0.00671   1.94427
   A11        1.93696  -0.00133   0.00000  -0.01637  -0.01644   1.92053
   A12        1.88420   0.00002   0.00000  -0.00851  -0.00861   1.87559
   A13        2.03873  -0.00056   0.00000  -0.00982  -0.00989   2.02884
   A14        2.13468   0.00413   0.00000   0.01447   0.01439   2.14908
   A15        2.10975  -0.00357   0.00000  -0.00478  -0.00485   2.10490
   A16        1.95122  -0.00219   0.00000  -0.01357  -0.01357   1.93765
   A17        1.97668   0.01213   0.00000   0.03323   0.03323   2.00990
   A18        1.90447  -0.00301   0.00000  -0.01061  -0.01080   1.89367
   A19        1.86104  -0.00506   0.00000  -0.02099  -0.02114   1.83990
   A20        1.93641  -0.00320   0.00000  -0.00227  -0.00226   1.93415
   A21        1.90062  -0.00290   0.00000   0.00334   0.00352   1.90414
   A22        1.88079   0.00156   0.00000  -0.00502  -0.00525   1.87554
   A23        2.30426  -0.00174   0.00000   0.00247   0.00211   2.30637
   A24        2.15066   0.00487   0.00000   0.00679   0.00643   2.15709
   A25        1.82716  -0.00308   0.00000  -0.00747  -0.00747   1.81969
   A26        1.93591   0.00169   0.00000   0.00354   0.00356   1.93947
   A27        2.22830  -0.00106   0.00000  -0.00548  -0.00558   2.22271
   A28        2.11896  -0.00063   0.00000   0.00204   0.00194   2.12090
   A29        1.83127   0.00329   0.00000   0.00878   0.00875   1.84002
   A30        1.95180  -0.00143   0.00000  -0.00470  -0.00464   1.94716
   A31        2.20646  -0.00064   0.00000  -0.00678  -0.00683   2.19963
   A32        2.12491   0.00207   0.00000   0.01154   0.01149   2.13640
   A33        1.87853  -0.00046   0.00000   0.00000  -0.00011   1.87843
   A34        2.19900   0.00125   0.00000   0.00368   0.00322   2.20222
   A35        2.20054  -0.00065   0.00000   0.00093   0.00046   2.20100
   A36        1.97276   0.00103   0.00000   0.00121   0.00110   1.97385
   A37        1.89796  -0.00171   0.00000  -0.03010  -0.03005   1.86791
   A38        1.91323   0.00032   0.00000   0.02273   0.02273   1.93597
   A39        1.90453   0.00125   0.00000   0.00585   0.00572   1.91026
   A40        1.91620  -0.00083   0.00000  -0.00041  -0.00056   1.91564
   A41        1.85535  -0.00013   0.00000   0.00027   0.00041   1.85576
   A42        1.90191   0.00235   0.00000   0.01054   0.01051   1.91242
   A43        1.90741  -0.00032   0.00000  -0.00245  -0.00241   1.90500
   A44        1.90057  -0.00023   0.00000   0.00262   0.00255   1.90312
   A45        1.89327  -0.00115   0.00000  -0.01238  -0.01237   1.88090
   A46        1.99169  -0.00061   0.00000   0.00414   0.00407   1.99576
   A47        1.86756  -0.00010   0.00000  -0.00311  -0.00311   1.86446
   A48        1.91422   0.00226   0.00000   0.01751   0.01733   1.93156
   A49        1.91889   0.00116   0.00000   0.01012   0.00994   1.92883
   A50        1.84811  -0.00033   0.00000   0.01385   0.01350   1.86161
    D1       -0.04896   0.00050   0.00000   0.02876   0.02867  -0.02029
    D2       -3.07494   0.00017   0.00000   0.01179   0.01185  -3.06309
    D3        3.11220   0.00007   0.00000   0.03760   0.03755  -3.13344
    D4        0.08622  -0.00027   0.00000   0.02064   0.02073   0.10695
    D5        0.19294   0.00020   0.00000   0.29665   0.29664   0.48958
    D6       -1.92488  -0.00085   0.00000   0.30964   0.30950  -1.61539
    D7        2.33669   0.00008   0.00000   0.31369   0.31381   2.65050
    D8       -2.96879   0.00070   0.00000   0.28768   0.28769  -2.68110
    D9        1.19657  -0.00035   0.00000   0.30066   0.30055   1.49712
   D10       -0.82504   0.00058   0.00000   0.30472   0.30486  -0.52018
   D11       -2.75142   0.00112   0.00000   0.00608   0.00618  -2.74524
   D12        1.40869  -0.00080   0.00000  -0.01000  -0.01022   1.39847
   D13       -0.65985  -0.00004   0.00000  -0.00348  -0.00352  -0.66337
   D14        0.28142   0.00123   0.00000   0.02037   0.02057   0.30200
   D15       -1.84165  -0.00069   0.00000   0.00428   0.00418  -1.83748
   D16        2.37300   0.00007   0.00000   0.01081   0.01087   2.38387
   D17        2.69847  -0.00069   0.00000   0.06013   0.06013   2.75859
   D18       -0.45003  -0.00141   0.00000   0.03789   0.03782  -0.41221
   D19       -1.47557   0.00058   0.00000   0.09000   0.08997  -1.38560
   D20        1.65912  -0.00014   0.00000   0.06775   0.06766   1.72678
   D21        0.62904   0.00025   0.00000   0.06354   0.06367   0.69271
   D22       -2.51945  -0.00048   0.00000   0.04130   0.04136  -2.47809
   D23       -3.04210   0.00171   0.00000  -0.05034  -0.05030  -3.09240
   D24        1.07491  -0.00047   0.00000  -0.06298  -0.06290   1.01201
   D25       -0.95202   0.00190   0.00000  -0.04058  -0.04074  -0.99276
   D26        1.17292  -0.00080   0.00000  -0.08676  -0.08667   1.08625
   D27       -0.99325  -0.00298   0.00000  -0.09940  -0.09927  -1.09252
   D28       -3.02018  -0.00061   0.00000  -0.07701  -0.07711  -3.09730
   D29       -0.96218   0.00033   0.00000  -0.05650  -0.05647  -1.01865
   D30       -3.12835  -0.00186   0.00000  -0.06914  -0.06907   3.08576
   D31        1.12790   0.00052   0.00000  -0.04674  -0.04692   1.08099
   D32        0.01874  -0.00076   0.00000   0.00020   0.00030   0.01904
   D33       -3.11606  -0.00008   0.00000   0.02202   0.02192  -3.09413
   D34        1.66708  -0.00186   0.00000  -0.12128  -0.12119   1.54589
   D35       -1.41590  -0.00319   0.00000  -0.16834  -0.16838  -1.58428
   D36       -2.46745   0.00069   0.00000  -0.11245  -0.11233  -2.57978
   D37        0.73275  -0.00064   0.00000  -0.15952  -0.15952   0.57324
   D38       -0.40021  -0.00111   0.00000  -0.11789  -0.11792  -0.51814
   D39        2.79999  -0.00244   0.00000  -0.16496  -0.16511   2.63488
   D40       -3.08482  -0.00127   0.00000  -0.04360  -0.04352  -3.12833
   D41        0.05127  -0.00067   0.00000  -0.02285  -0.02279   0.02848
   D42        0.00610   0.00009   0.00000  -0.00259  -0.00265   0.00344
   D43       -3.14100   0.00069   0.00000   0.01816   0.01807  -3.12293
   D44        3.08463   0.00122   0.00000   0.04393   0.04392   3.12855
   D45        0.04648  -0.00009   0.00000  -0.00264  -0.00271   0.04377
   D46       -0.01197   0.00023   0.00000   0.00763   0.00766  -0.00430
   D47       -3.05011  -0.00108   0.00000  -0.03894  -0.03898  -3.08909
   D48        0.00231  -0.00035   0.00000  -0.00353  -0.00351  -0.00119
   D49       -3.13417  -0.00091   0.00000  -0.02275  -0.02280   3.12621
   D50       -0.01026   0.00050   0.00000   0.00858   0.00858  -0.00168
   D51        3.12467   0.00093   0.00000   0.01748   0.01739  -3.14112
   D52        0.01444  -0.00048   0.00000  -0.01055  -0.01055   0.00389
   D53        3.05247   0.00098   0.00000   0.03628   0.03625   3.08873
   D54       -3.12084  -0.00087   0.00000  -0.01889  -0.01892  -3.13976
   D55       -0.08281   0.00059   0.00000   0.02794   0.02789  -0.05493
   D56       -3.12202  -0.00004   0.00000   0.02049   0.02049  -3.10154
   D57        1.09501   0.00018   0.00000   0.03072   0.03072   1.12574
   D58       -0.93946   0.00060   0.00000   0.03433   0.03436  -0.90510
   D59       -1.00792  -0.00065   0.00000  -0.01288  -0.01291  -1.02083
   D60       -3.07407  -0.00043   0.00000  -0.00265  -0.00267  -3.07674
   D61        1.17464  -0.00001   0.00000   0.00097   0.00096   1.17560
   D62        1.01906  -0.00056   0.00000  -0.00945  -0.00945   1.00961
   D63       -1.04709  -0.00035   0.00000   0.00078   0.00079  -1.04630
   D64       -3.08156   0.00008   0.00000   0.00440   0.00442  -3.07714
   D65        1.22938  -0.00054   0.00000  -0.00512  -0.00518   1.22420
   D66       -3.02845   0.00103   0.00000   0.02758   0.02771  -3.00074
   D67       -2.97880  -0.00025   0.00000  -0.00918  -0.00929  -2.98809
   D68       -0.95344   0.00132   0.00000   0.02352   0.02360  -0.92985
   D69       -0.89892  -0.00157   0.00000  -0.01916  -0.01927  -0.91818
   D70        1.12644   0.00001   0.00000   0.01354   0.01362   1.14006
         Item               Value     Threshold  Converged?
 Maximum Force            0.012126     0.000450     NO 
 RMS     Force            0.002422     0.000300     NO 
 Maximum Displacement     0.738081     0.001800     NO 
 RMS     Displacement     0.182632     0.001200     NO 
 Predicted change in Energy=-2.762737D-03
 GradGradGradGradGradGradGradGradGradGradGradGradGradGradGradGradGradGrad

                          Input orientation:                          
 ---------------------------------------------------------------------
 Center     Atomic      Atomic             Coordinates (Angstroms)
 Number     Number       Type             X           Y           Z
 ---------------------------------------------------------------------
      1          8           0        1.482375    0.615230   -1.234168
      2          6           0        1.715251   -0.041145   -0.227890
      3          7           0        0.760882   -0.244428    0.729325
      4          6           0       -0.565167    0.325435    0.615368
      5          6           0       -1.163672    0.409512    2.017937
      6          8           0       -2.160805    1.300472    2.188082
      7          8           0       -0.805024   -0.289833    2.929045
      8          6           0       -1.468153   -0.520517   -0.340390
      9          6           0       -2.838369    0.029206   -0.571676
     10          6           0       -3.332036    0.919452   -1.497852
     11          7           0       -4.677135    1.138544   -1.307207
     12          6           0       -5.009977    0.393380   -0.279200
     13          7           0       -3.938951   -0.301763    0.204426
     14          6           0        3.050191   -0.720191    0.042040
     15          6           0        4.229258   -0.010811   -0.623938
     16          7           0        5.466558   -0.758496   -0.359918
     17          1           0        0.973793   -0.729488    1.590559
     18          1           0       -0.478595    1.327440    0.183933
     19          1           0       -2.363898    1.756836    1.358885
     20          1           0       -1.519433   -1.543454    0.045392
     21          1           0       -0.932509   -0.555320   -1.290109
     22          1           0       -2.789451    1.401251   -2.297282
     23          1           0       -5.995071    0.313551    0.154585
     24          1           0       -3.937679   -0.905117    1.013377
     25          1           0        2.973778   -1.745091   -0.345431
     26          1           0        3.232198   -0.810543    1.116747
     27          1           0        4.341721    0.985661   -0.187023
     28          1           0        4.006103    0.132361   -1.687001
     29          1           0        5.469627   -1.637930   -0.868634
     30          1           0        6.273958   -0.234302   -0.680268
 ---------------------------------------------------------------------
                    Distance matrix (angstroms):
                    1          2          3          4          5
     1  O    0.000000
     2  C    1.223788   0.000000
     3  N    2.261608   1.366896   0.000000
     4  C    2.774381   2.458815   1.447804   0.000000
     5  C    4.197627   3.678999   2.406672   1.527245   0.000000
     6  O    5.045207   4.760322   3.612609   2.443396   1.347973
     7  O    4.835668   4.047206   2.700536   2.406073   1.203258
     8  C    3.285479   3.221260   2.487793   1.563487   2.553306
     9  C    4.410346   4.567121   3.836938   2.581525   3.107304
    10  C    4.831214   5.292510   4.802803   3.531872   4.162045
    11  N    6.182131   6.589324   5.969263   4.611477   4.892084
    12  C    6.565959   6.739446   5.892940   4.534447   4.480085
    13  N    5.683415   5.676691   4.729402   3.456106   3.390709
    14  C    2.422830   1.521851   2.437138   3.806947   4.789263
    15  C    2.882651   2.545193   3.730353   4.963411   6.019957
    16  N    4.304086   3.821561   4.857376   6.205465   7.139916
    17  H    3.169544   2.080945   1.011108   2.105293   2.459417
    18  H    2.522629   2.618317   2.074734   1.094369   2.162289
    19  H    4.777134   4.731813   3.763729   2.416022   1.920983
    20  H    3.912550   3.576982   2.712024   2.174452   2.798495
    21  H    2.684210   2.898848   2.653741   2.131082   3.453622
    22  H    4.471749   5.162871   4.947068   3.819470   4.716760
    23  H    7.611297   7.727947   6.803276   5.449433   5.179161
    24  H    6.061345   5.851736   4.753281   3.611995   3.229939
    25  H    2.930061   2.121588   2.881666   4.211216   5.229371
    26  H    3.259066   2.168213   2.564758   3.995223   4.650199
    27  H    3.067506   2.820345   3.895538   5.015703   5.958452
    28  H    2.609104   2.721601   4.063503   5.121981   6.366314
    29  H    4.594402   4.129844   5.164068   6.517346   7.518309
    30  H    4.897732   4.585167   5.690435   6.983237   7.938082
                    6          7          8          9         10
     6  O    0.000000
     7  O    2.217259   0.000000
     8  C    3.192012   3.343974   0.000000
     9  C    3.113113   4.060951   1.494383   0.000000
    10  C    3.886267   5.238853   2.624365   1.376244   0.000000
    11  N    4.309893   5.914332   3.739623   2.269955   1.376095
    12  C    3.876607   5.333033   3.658343   2.221271   2.139475
    13  N    3.108674   4.152733   2.539591   1.386778   2.181161
    14  C    5.986906   4.835565   4.538893   5.967695   6.767017
    15  C    7.103508   6.168107   5.727189   7.067934   7.668265
    16  N    8.301103   7.097159   6.938821   8.344887   9.029156
    17  H    3.781993   2.269148   3.120149   4.447860   5.549545
    18  H    2.616709   3.202775   2.160807   2.797301   3.337212
    19  H    0.968031   3.014025   2.979301   2.633798   3.130408
    20  H    3.618064   3.224500   1.094467   2.143274   3.425352
    21  H    4.129223   4.229420   1.090913   2.118990   2.824152
    22  H    4.530325   5.840566   3.044413   2.205135   1.079637
[...]
 .00001188,0.00001488,0.00003559,-0.00000969,0.00000302,-0.00001775,0.0
 0005487,0.00004412,-0.00004105,-0.00007339,-0.00001971,-0.00032490,-0.
 00033286,0.00020904,-0.00019420,0.00012254,0.00029010,0.00033164,0.000
 05436,0.00004257,0.00023277,0.00060605,0.00080695,0.00021325,-0.000185
 40,-0.00073950,0.03248939,0.31408009,-0.00006054,-0.00001021,-0.000097
 51,0.00003999,-0.00001916,0.00008797,-0.00015981,0.00001185,-0.0002101
 4,-0.00001207,-0.00003385,0.00025007,-0.00084721,0.00007801,0.00073259
 ,0.00064870,0.00016005,-0.00037522,0.00022723,0.00010716,-0.00034988,-
 0.00025701,-0.00139157,-0.00105873,-0.00318094,0.00101230,-0.00737288,
 0.00054393,0.00130867,0.00122121,-0.00017217,0.00313048,0.00440082,0.0
 0271983,-0.00127248,-0.00760966,0.02893248,0.21119681,-0.15553072,-0.0
 0000361,0.00001674,0.00001971,0.00001858,0.00000880,0.00000041,-0.0000
 1660,-0.00000063,-0.00001312,-0.00008221,-0.00000302,0.00009632,-0.000
 02982,-0.00006139,-0.00006414,-0.00002743,-0.00013297,0.00055685,0.000
 29916,0.00005862,0.00041414,0.00019994,0.00015812,-0.00003667,0.000095
 79,0.00094548,0.00134732,-0.00023222,-0.00063458,-0.00073676,-0.028645
 81,-0.21462791,0.16433452,-0.00000070,-0.00336841,-0.00091677,-0.00267
 888,0.02873968,0.01804560,-0.00348917,-0.00030471,-0.00106502,-0.00084
 285,-0.00143054,0.00003805,0.00003903,-0.00017428,-0.00030474,-0.00011
 278,0.00013701,0.00008837,-0.00004467,0.00001346,0.00015701,-0.0003429
 5,0.00032372,0.00013789,-0.00005907,-0.00013584,-0.00008181,0.00001646
 ,-0.00001377,0.00000700,-0.00004442,-0.00000426,0.00000529,-0.00004146
 ,0.00002383,0.00000153,-0.00001411,0.00000754,-0.00003688,-0.04387271,
 0.01624168,0.00636393,-0.00104537,-0.02374605,-0.01380558,0.00249327,0
 .00008387,-0.00036942,0.00015667,0.00075683,-0.00021638,0.00009421,-0.
 00001133,-0.00003043,0.00004089,-0.00001957,0.00001012,-0.00003697,-0.
 00001331,0.00005132,0.00000113,0.00008758,-0.00000325,0.00000078,-0.00
 000675,0.00000681,-0.00000230,0.00000670,0.00000444,0.00000375,0.00001
 643,0.00000284,0.05262510,0.00048437,0.00227631,0.00140332,0.00109364,
 -0.01244795,-0.00863815,0.00120280,-0.00024605,0.00101529,0.00009815,0
 .00022819,-0.00017543,0.00000150,0.00003424,0.00010736,0.00006957,-0.0
 0004926,-0.00004067,0.00002416,-0.00000038,-0.00004404,0.00009568,-0.0
 0009065,-0.00003660,0.00000661,0.00004471,0.00001448,-0.00000048,0.000
 00888,0.00000309,0.00001483,0.00000095,0.00000409,0.00001311,-0.000003
 50,-0.00000369,0.00001036,-0.00000457,0.00001534,0.01367214,-0.2264617
 8,-0.11371533,-0.00140738,-0.02108480,-0.01111023,0.00159887,0.0020377
 2,0.00068867,-0.00005824,-0.00002229,0.00010471,-0.00001523,-0.0000128
 5,0.00001033,-0.00002883,0.00000231,-0.00001480,0.00000701,0.00001183,
 -0.00001798,0.00000549,-0.00003812,-0.00002058,-0.00000081,-0.00000108
 ,-0.00000795,0.00000086,-0.00000289,-0.00000241,-0.00000427,-0.0000082
 1,-0.00000356,-0.01237427,0.24892193,-0.00092053,-0.00037339,-0.000456
 83,0.00118624,0.00551319,0.00157813,0.00060891,-0.00021168,0.00034702,
 0.00004168,0.00026034,0.00010949,-0.00012345,0.00004628,-0.00004610,0.
 00009336,-0.00005494,-0.00000077,0.00011377,-0.00000346,0.00004427,0.0
 0008044,-0.00014336,0.00000738,0.00002317,0.00004929,0.00002274,-0.000
 00577,0.00001244,0.00000011,0.00001000,0.00000771,-0.00000238,0.000014
 16,-0.00001090,0.00000155,0.00000308,0.00000264,0.00001475,0.00551551,
 -0.11384566,-0.11826208,0.00052885,0.00952516,0.00545446,-0.00097535,0
 .00028199,0.00013472,-0.00061141,-0.00049691,0.00025370,-0.00002231,-0
 .00001962,0.00001262,-0.00001773,-0.00000230,-0.00002089,0.00001180,-0
 .00000126,-0.00001823,0.00002158,0.00000283,0.00001335,0.00000040,-0.0
 0000164,-0.00000276,0.00000046,-0.00000324,-0.00000276,-0.00000023,-0.
 00001023,-0.00000160,-0.00860916,0.12460871,0.12496811,-0.00716208,0.0
 0493918,-0.00218062,0.00266171,0.00306392,-0.03023589,-0.00005596,-0.0
 0049310,0.00138384,0.00033785,-0.00019417,0.00004063,-0.00011747,0.000
 09963,-0.00015288,0.00012249,-0.00010017,0.00001496,0.00013405,-0.0000
 8767,0.00015234,0.00006073,-0.00006495,-0.00002526,0.00004068,0.000033
 76,0.00002426,0.00001916,0.00002662,-0.00001218,-0.00000701,-0.0000106
 7,0.00001671,-0.00001181,0.00000178,-0.00000997,-0.00000613,-0.0000121
 1,0.00002284,-0.05269812,0.00817263,-0.02682304,0.00165525,-0.00665234
 ,0.02580979,0.00202891,0.00061328,-0.00066742,-0.00183942,0.00096598,0
 .00048432,0.00020266,-0.00008333,-0.00011661,-0.00001372,0.00000393,-0
 .00003339,-0.00003270,-0.00000545,0.00003260,0.00008466,0.00008472,0.0
 0000367,0.00001007,-0.00001613,0.00000111,-0.00000103,-0.00000314,-0.0
 0000186,-0.00000510,0.00000301,-0.00000625,-0.00008043,-0.00084373,0.0
 0255201,0.05768318,0.00386719,0.00031947,0.00136495,-0.00170632,-0.005
 12438,0.01319774,-0.00082144,0.00001467,-0.00041971,-0.00002862,-0.000
 13393,-0.00005932,0.00015855,-0.00007000,0.00008982,-0.00011322,0.0000
 7805,-0.00001069,-0.00014856,-0.00001187,-0.00008356,-0.00005921,0.000
 09311,-0.00001891,-0.00002863,-0.00004059,-0.00002345,-0.00000233,-0.0
 0001804,0.00000618,-0.00000901,-0.00000098,-0.00000650,-0.00000856,0.0
 0000683,0.00000285,0.00000196,0.00000468,-0.00001691,0.00790716,-0.060
 11076,0.05366070,0.00160353,-0.00614670,0.02163089,0.00114114,0.000890
 99,-0.00145534,0.00094669,0.00055436,-0.00032704,-0.00002936,0.0000361
 4,0.00002757,0.00002259,0.00000388,0.00002944,-0.00000046,-0.00000180,
 -0.00000611,-0.00003942,-0.00004168,-0.00000205,-0.00000247,0.00000507
 ,0.00000478,0.00000003,0.00000288,0.00000217,0.00000310,0.00000715,0.0
 0000109,-0.00343338,0.00695801,-0.02628056,-0.00711852,0.06421398,-0.0
 0155423,0.00052572,0.00195804,0.00315340,-0.00038257,-0.00654713,0.001
 02242,-0.00086181,0.00080176,-0.00036849,0.00022270,0.00056615,-0.0002
 2717,0.00010672,-0.00021758,0.00007407,-0.00005253,0.00005402,0.000112
 38,-0.00007190,0.00014207,0.00006063,-0.00004026,-0.00004533,0.0000176
 7,0.00003152,0.00003059,0.00001341,0.00001926,-0.00001029,0.00000181,-
 0.00000895,0.00001671,-0.00000551,0.00000250,-0.00000802,-0.00000924,-
 0.00001291,0.00002141,-0.02992082,0.05582842,-0.29157784,-0.00110499,0
 .00303994,-0.00993696,-0.00031888,-0.00120180,0.00129257,-0.00020105,0
 .00003104,0.00121261,0.00010686,-0.00011405,0.00004133,-0.00000102,0.0
 0000135,-0.00002033,-0.00002644,-0.00001145,0.00001005,0.00004096,0.00
 003284,0.00001691,0.00000526,-0.00000934,-0.00000430,-0.00000109,-0.00
 000285,-0.00000270,-0.00000476,0.00000374,-0.00000715,-0.00183636,0.00
 370952,-0.01593770,0.02946765,-0.06239025,0.31613811,-0.00033907,0.000
 80949,-0.00030919,0.00206247,-0.00158649,-0.00026162,-0.00011863,0.000
 39090,0.00031211,-0.00005348,-0.00008220,0.00003494,-0.00005318,-0.000
 00168,-0.00002184,0.00001823,0.00000319,0.00000942,0.00003218,0.000021
 23,0.00001411,-0.00000837,-0.00000947,-0.00000802,0.00000404,0.0000041
 3,0.00000952,-0.00000403,0.00000169,0.00000658,-0.00000127,0.00000634,
 -0.00000057,0.00000322,-0.00000264,-0.00000086,0.00000183,0.00000729,-
 0.00000089,-0.00170326,-0.02150709,-0.01435318,-0.04798771,-0.00314180
 ,-0.00233527,-0.00606232,0.03197858,0.01756671,-0.00005073,-0.00015243
 ,-0.00000719,-0.00002497,-0.00000609,-0.00002660,-0.00001347,-0.000009
 29,-0.00001055,0.00000871,0.00000298,-0.00000822,0.00001069,-0.0000098
 4,0.00001057,-0.00000171,-0.00000181,-0.00000471,0.00000006,-0.0000004
 1,-0.00000122,0.00000081,-0.00000468,-0.00000130,-0.00380794,-0.003213
 50,0.00180006,0.00094652,0.00093809,0.00008298,0.06062029,-0.00052042,
 0.00048268,-0.00040802,0.00155432,-0.00071202,0.00014233,-0.00052771,0
 .00043245,0.00035537,-0.00003454,-0.00013850,0.00007112,-0.00008997,0.
 00000945,-0.00014525,0.00002423,0.00000272,0.00004504,0.00006854,0.000
 02864,0.00010025,-0.00003418,0.00000791,-0.00000804,0.00000251,-0.0000
 0695,0.00001103,-0.00000003,0.00000432,0.00000837,-0.00000855,0.000007
 66,0.00000259,-0.00000322,-0.00000110,-0.00000207,0.00000032,0.0000121
 7,0.00000076,-0.00282895,-0.01648796,-0.01035824,0.00284023,-0.2184804
 6,-0.11608258,0.00407307,-0.01504570,-0.00780178,-0.00010713,-0.000165
 99,-0.00007155,-0.00002117,0.00000115,-0.00003501,-0.00001017,-0.00001
 722,-0.00001961,0.00000810,0.00000133,-0.00000445,0.00001570,0.0000037
 7,0.00001348,-0.00000050,-0.00000457,-0.00000478,-0.00000042,-0.000000
 67,-0.00000181,0.00000220,-0.00000566,-0.00000569,-0.00301789,-0.00117
 734,0.00142540,0.00062063,0.00048359,0.00019163,-0.00457918,0.24229220
 ,-0.00057944,0.00050614,0.00006062,-0.00017569,-0.00055035,0.00048518,
 -0.00048685,0.00010337,0.00003974,0.00004293,-0.00005098,0.00004675,0.
 00005272,-0.00006311,0.00000399,-0.00005579,0.00005908,0.00001226,-0.0
 0004024,0.00003635,-0.00001163,-0.00001763,0.00002425,-0.00001229,0.00
 000147,-0.00001751,0.00000414,-0.00000204,-0.00000404,0.00001128,-0.00
 000979,0.00001021,-0.00000242,-0.00000397,-0.00000145,0.00000098,0.000
 00236,0.00001415,-0.00001237,0.00002620,0.00966768,0.00564004,0.000475
 51,-0.12086033,-0.13524025,0.00081598,0.00558032,0.00445507,0.00009021
 ,-0.00001967,-0.00003037,-0.00004737,0.00000834,-0.00002280,0.00000022
 ,-0.00001550,0.00000276,0.00000475,0.00000517,0.00000584,0.00000656,0.
 00000634,0.00000190,-0.00000152,-0.00000612,-0.00000373,-0.00000013,0.
 00000048,-0.00000063,0.00000373,-0.00000134,-0.00000072,0.00194458,0.0
 0191968,0.00061850,-0.00068460,0.00004242,0.00099774,-0.00107160,0.128
 53138,0.13883831,-0.00043492,0.00066836,-0.00162380,0.00117222,-0.0010
 6351,0.00326880,-0.00013782,0.00030215,-0.00074177,0.00003936,0.000100
 92,-0.00006528,0.00008090,-0.00004260,0.00003726,-0.00006269,0.0000388
 5,-0.00000326,-0.00005418,0.00002972,-0.00004473,-0.00001547,0.0000017
 1,0.00001247,-0.00000162,-0.00001007,-0.00000833,-0.00000541,-0.000007
 56,0.00000514,-0.00000706,0.00000396,-0.00000712,0.00000059,0.00000095
 ,0.00000369,0.00000242,0.00000634,-0.00001120,0.00118735,-0.00698912,0
 .02473638,-0.05159801,0.00735910,-0.02995407,-0.01583116,0.01470122,-0
 .03045039,0.00036688,-0.00022052,-0.00015688,-0.00009415,0.00004044,0.
 00003023,0.00001154,-0.00000152,0.00001079,0.00001355,0.00000146,-0.00
 000914,-0.00001770,-0.00001946,0.00000044,-0.00000138,0.00000299,0.000
 00319,-0.00000029,0.00000096,0.00000044,0.00000338,0.00000009,0.000002
 44,0.00117815,0.00045611,-0.00075749,-0.00417551,-0.00320425,0.0014931
 1,0.00118586,-0.00050923,-0.00009464,0.06513697,0.00065457,0.00008052,
 -0.00137517,0.00099331,-0.00062170,0.00155875,-0.00011148,0.00041709,-
 0.00013102,0.00000305,0.00010741,-0.00002384,0.00000795,-0.00001023,0.
 00000480,-0.00002481,0.00001403,0.00000311,-0.00000878,0.00002677,-0.0
 0001641,0.00000357,-0.00000094,0.00001397,-0.00000360,-0.00000331,-0.0
 0000777,-0.00000272,-0.00000285,-0.00000200,0.00000118,0.00000013,-0.0
 0000447,0.00000191,-0.00000099,0.00000292,0.00000064,-0.00000114,-0.00
 000281,-0.00152139,-0.00599928,0.02153922,0.00603062,-0.06847488,0.054
 42599,0.01012371,-0.00434836,0.01477683,0.00011809,-0.00017649,-0.0001
 2724,-0.00005552,0.00002169,0.00000674,0.00000442,-0.00000031,0.000005
 57,0.00000675,-0.00000011,-0.00000392,-0.00001698,-0.00001019,0.000000
 75,0.00000060,0.00000390,0.00000269,0.00000006,0.00000052,0.00000079,0
 .00000020,0.00000026,0.00000290,0.00113695,0.00077939,0.00001721,-0.00
 288252,-0.00186568,0.00139023,-0.00307136,0.00752733,-0.02604191,-0.01
 060538,0.07203468,-0.00139336,-0.00149876,0.00223917,-0.00134657,0.001
 93352,-0.00338431,0.00015005,-0.00017922,0.00061710,-0.00002713,-0.000
 00657,-0.00004000,-0.00005993,0.00002672,-0.00012324,0.00005055,-0.000
 04182,0.00002196,0.00005712,-0.00002182,0.00011135,-0.00000199,-0.0000
 1404,-0.00001100,0.00001137,0.00001087,0.00000408,0.00001439,0.0000149
 1,-0.00000883,-0.00000596,-0.00001042,0.00001266,-0.00000731,0.0000049
 7,-0.00000491,-0.00000811,-0.00001529,0.00001446,0.00133515,0.00243954
 ,-0.01038974,-0.02643917,0.05584172,-0.27778462,-0.00561056,0.00274582
 ,0.00365978,-0.00008122,0.00005253,0.00015812,0.00003834,-0.00002915,-
 0.00000403,-0.00000187,0.00000243,-0.00001984,-0.00001373,-0.00000322,
 0.00001082,0.00002513,0.00002767,0.00000127,0.00000509,-0.00000439,-0.
 00000089,-0.00000102,-0.00000165,-0.00000071,-0.00000131,0.00000336,-0
 .00000523,0.00001307,0.00011571,0.00104353,0.00108627,0.00129751,0.000
 98201,-0.00136647,0.00340140,-0.01741225,0.03487544,-0.06644383,0.2987
 1971,0.00020603,-0.00026587,0.00014768,-0.00048301,-0.00007338,-0.0006
 2893,0.00039258,-0.00015004,-0.00004948,-0.00002562,0.00012546,-0.0000
 5536,-0.00003883,0.00005744,0.00006915,0.00005361,-0.00004643,-0.00002
 638,0.00002190,-0.00003130,-0.00003958,0.00002487,-0.00002112,0.000003
 93,-0.00000806,0.00001942,0.00000653,-0.00000485,0.00000222,-0.0000084
 0,0.00002317,-0.00000731,0.00000174,0.00000901,-0.00000074,-0.00000049
 ,-0.00000168,-0.00001314,0.00000432,0.00122353,0.00115139,0.00077536,-
 0.00430437,0.02811027,0.02442813,-0.06767230,0.03002483,0.02888737,-0.
 00001745,0.00003272,0.00005459,0.00000947,-0.00000368,0.00002121,-0.00
 001003,0.00001163,0.00000030,-0.00000462,-0.00000140,0.00000056,-0.000
 01072,-0.00000381,-0.00000757,-0.00000176,0.00000650,-0.00000042,0.000
 00060,-0.00000038,-0.00000007,-0.00000771,-0.00000091,0.00000447,-0.00
 055152,-0.00113738,-0.00032213,-0.00005606,-0.00004121,-0.00009379,-0.
 00586272,0.00293565,-0.00091853,0.00128970,-0.00034714,-0.00047138,0.0
 7111232,0.00001044,-0.00014162,0.00036267,-0.00020574,0.00009849,-0.00
 039075,-0.00005284,-0.00005944,0.00012493,0.00001564,0.00000543,0.0000
 0041,-0.00002026,0.00001877,-0.00002697,0.00001350,-0.00001309,0.00000
 683,0.00000977,-0.00001451,0.00002462,-0.00000186,0.00000138,-0.000002
 25,-0.00000018,0.00000546,-0.00000062,0.00000532,0.00000415,-0.0000038
 5,0.00000128,-0.00000761,0.00000682,-0.00000317,0.00000546,-0.00000358
 ,-0.00000424,-0.00001078,0.00000241,0.00008507,0.00153147,0.00057541,0
 .00330787,-0.01458958,-0.01226957,0.02671925,-0.24170781,-0.17501089,-
 0.00001214,0.00003229,0.00000689,0.00000081,-0.00000093,0.00000028,0.0
 0000028,0.00000293,-0.00000433,-0.00000470,-0.00000119,0.00000540,0.00
 000363,0.00000770,-0.00000401,0.00000019,-0.00000037,-0.00000131,-0.00
 000050,-0.00000007,0.,-0.00000130,0.00000309,-0.00000007,0.00033933,0.
 00013147,-0.00057184,-0.00011663,-0.00000958,0.00017397,0.00329897,0.0
 0031133,0.00155751,-0.00149676,0.00051473,0.00039036,-0.03624007,0.273
 42018,0.00001183,0.00008087,-0.00041531,0.00024666,0.00008334,0.000632
 93,-0.00001757,0.00011414,-0.00014316,-0.00001894,-0.00004007,0.000001
 35,0.00000824,-0.00002209,0.00001884,-0.00001007,0.00001597,-0.0000036
 9,-0.00000104,0.00002330,-0.00002127,-0.00000699,-0.00000092,0.0000028
 3,0.00000033,-0.00000698,0.00000272,-0.00000694,-0.00000459,0.00000485
 ,-0.00000002,0.00000880,-0.00000738,0.00000383,-0.00000595,0.00000308,
 0.00000369,0.00001175,-0.00000470,0.00049173,-0.00025348,-0.00007563,-
 0.00541567,0.01041572,0.00128260,0.03318557,-0.22517296,-0.19006889,0.
 00001619,-0.00005456,-0.00002020,-0.00000730,0.00000356,-0.00000193,-0
 .00000322,-0.00000575,0.00000281,0.00000712,0.00000243,-0.00000489,-0.
 00000411,-0.00000714,0.00000566,-0.00000089,0.00000099,0.00000054,0.00
 000046,0.00000040,0.00000009,0.00000100,-0.00000409,0.00000095,0.00053
 205,0.00007192,0.00016682,0.00013698,-0.00017727,-0.00026320,-0.000767
 66,0.00092938,0.00107235,0.00018506,0.00109061,0.00162791,-0.02987248,
 0.20414913,0.18639332,-0.00004937,0.00049051,-0.00055295,-0.00002558,-
 0.00210766,0.00147216,-0.00071536,0.00037819,-0.00009715,0.00009187,0.
 00000918,0.00020073,-0.00000586,-0.00002034,-0.00012776,-0.00006853,0.
 00005265,0.00005162,-0.00001218,0.00002213,0.00006050,-0.00000200,0.00
 001514,0.00000475,0.00001136,-0.00001743,-0.00000211,0.00000046,-0.000
 00814,0.00000577,-0.00001790,0.00000505,-0.00000358,-0.00001127,0.0000
 0329,0.00000145,0.00000124,0.00000911,-0.00001344,-0.00548409,0.004871
 29,-0.00191016,-0.02357498,-0.02333534,0.00714867,-0.26049309,-0.17415
 784,0.03427901,-0.00001320,-0.00003482,-0.00007741,-0.00002912,0.00000
 971,-0.00001032,0.00001713,-0.00001362,0.00000715,-0.00000035,-0.00000
 082,0.00000269,0.00001008,0.00000697,0.00000594,0.00000092,-0.00000341
 ,0.00000343,-0.00000057,0.00000129,0.00000050,0.00000534,0.00000336,-0
 .00000038,0.00041888,0.00022889,-0.00023990,0.00027461,0.00020492,0.00
 002122,0.00119794,0.00014777,0.00072264,0.00076851,-0.00043589,-0.0008
 2487,0.00469451,0.00434905,0.00130217,0.28301060,-0.00003234,-0.000085
 15,-0.00006167,0.00047700,0.00092705,-0.00009132,0.00017747,-0.0001685
 7,-0.00006335,-0.00002837,-0.00006501,-0.00006459,0.00001222,0.0000004
 4,0.00004891,0.00001687,-0.00001758,-0.00002117,-0.00000415,-0.0000071
 2,-0.00002639,-0.00000676,0.00000379,-0.00000330,-0.00000379,0.0000017
 8,-0.00000369,0.,0.00000148,-0.00000285,0.00000249,-0.00000269,-0.0000
 0023,0.00000242,-0.00000055,-0.00000072,-0.00000111,-0.00000225,0.0000
 0673,0.00259130,-0.00094710,0.00061387,0.01826091,0.01179961,0.0000022
 1,-0.18729981,-0.21641558,0.01158495,0.00002148,0.00003127,0.00002538,
 0.00001826,-0.00000452,0.00000161,-0.00000176,0.00000714,0.00000069,0.
 00000044,-0.00000039,-0.00000137,-0.00000412,-0.00000273,-0.00000151,0
 .00000040,0.00000159,0.00000062,0.00000012,-0.00000006,0.00000036,-0.0
 0000085,0.00000031,0.,0.00013976,0.00021578,0.00027779,0.00005557,-0.0
 0009688,-0.00015043,-0.00008290,0.00063545,-0.00044057,0.00045466,-0.0
 0001199,-0.00003886,-0.02409222,-0.01953776,0.00875353,0.18932682,0.22
 374023,0.00034593,-0.00032751,0.00026810,-0.00060489,0.00102512,0.0004
 9045,0.00045671,-0.00024265,-0.00039005,-0.00014456,-0.00000944,-0.000
 10334,-0.00002579,0.00004593,0.00021352,0.00007051,-0.00005409,-0.0000
 7350,0.00000510,-0.00003504,-0.00014458,0.00002320,-0.00000932,-0.0000
 0424,-0.00001915,0.00001928,0.00000272,-0.00001330,-0.00000192,-0.0000
 0518,0.00003452,-0.00000431,-0.00000511,0.00001843,-0.00000553,0.00000
 168,0.00000642,-0.00000849,0.00000647,0.00244289,0.00000884,-0.0001052
 7,-0.00958236,-0.00140951,-0.00366456,0.07077559,0.04139641,-0.0245213
 1,0.00001744,0.00003866,0.00009613,0.00002774,-0.00001177,0.00001737,-
 0.00002056,0.00001779,0.00000981,-0.00000062,0.00000429,-0.00000161,-0
 .00001882,-0.00001615,-0.00000939,-0.00000388,0.00000914,-0.00000157,0
 .00000182,0.00000024,0.00000091,-0.00001075,-0.00000316,0.00000722,-0.
 00013411,0.00003921,-0.00003915,-0.00028004,-0.00008045,0.00029645,0.0
 0071000,-0.00028064,0.00045202,-0.00073680,-0.00066269,-0.00003433,-0.
 02191034,-0.01909760,-0.00018942,-0.04143034,-0.02034463,0.02742976\\0
 .00000212,-0.00000095,0.00000133,-0.00000320,-0.00000357,0.00000026,-0
 .00000209,0.00000124,0.00000100,0.00000113,0.00000439,0.00000094,-0.00
 000174,-0.00000117,-0.00000037,0.00000408,0.00000596,-0.00000372,0.000
 00063,-0.00000006,0.00000097,-0.00000192,0.00000073,0.00000158,-0.0000
 0334,-0.00000297,-0.00000601,-0.00000265,0.00000003,-0.00000067,0.0000
 0347,0.00000082,-0.00000004,0.00000004,0.00000093,0.00000039,0.0000017
 4,-0.00000238,0.00000116,0.00000350,0.00000058,-0.00000393,0.00000143,
 0.00000064,0.00000423,-0.00000058,-0.00000021,-0.00000009,0.00000054,0
 .00000025,0.00000115,-0.00000066,0.00000050,-0.00000005,-0.00000225,-0
 .00000248,0.00000352,0.00000028,-0.00000115,-0.00000042,-0.00000078,-0
 .00000128,0.00000107,0.00000001,-0.00000092,-0.00000077,-0.00000047,-0
 .00000075,-0.00000051,0.00000037,0.00000049,0.00000036,0.00000015,0.00
 000122,0.00000136,-0.00000139,0.00000127,0.00000100,-0.00000010,-0.000
 00078,-0.00000120,0.00000087,-0.00000020,-0.00000233,0.00000035,-0.000
 00044,0.00000020,0.00000045,0.00000029,-0.00000041\\\@


 MARY HAD A LITTLE LAMB
      HIS FEET WERE BLACK AS SOOT,
           AND EVERYWHERE THAT MARY WENT
                HIS SOOTY FOOT HE PUT.

                    -- NONAME
 Job cpu time:       0 days  4 hours 33 minutes 43.7 seconds.
 File lengths (MBytes):  RWF=    542 Int=      0 D2E=      0 Chk=     17 Scr=      1
 Normal termination of Gaussian 09 at Thu Jul 29 01:53:01 2021.
