 Entering Gaussian System, Link 0=g09
 Input=opt_freq-conf-118.com
 Output=opt_freq-conf-118.log
 Initial command:
 /aerosol/software/g09/l1.exe "/scratch/nicole/10568/Gau-91608.inp" -scrdir="/scratch/nicole/10568/"
 Entering Link 1 = /aerosol/software/g09/l1.exe PID=     91613.
  
 Copyright (c) 1988,1990,1992,1993,1995,1998,2003,2009,2013,
            Gaussian, Inc.  All Rights Reserved.
  
 This is part of the Gaussian(R) 09 program.  It is based on
 the Gaussian(R) 03 system (copyright 2003, Gaussian, Inc.),
 the Gaussian(R) 98 system (copyright 1998, Gaussian, Inc.),
 the Gaussian(R) 94 system (copyright 1995, Gaussian, Inc.),
 the Gaussian 92(TM) system (copyright 1992, Gaussian, Inc.),
 the Gaussian 90(TM) system (copyright 1990, Gaussian, Inc.),
 the Gaussian 88(TM) system (copyright 1988, Gaussian, Inc.),
 the Gaussian 86(TM) system (copyright 1986, Carnegie Mellon
 University), and the Gaussian 82(TM) system (copyright 1983,
 Carnegie Mellon University). Gaussian is a federally registered
 trademark of Gaussian, Inc.
  
 This software contains proprietary and confidential information,
 including trade secrets, belonging to Gaussian, Inc.
  
 This software is provided under written license and may be
 used, copied, transmitted, or stored only in accord with that
 written license.
  
 The following legend is applicable only to US Government
 contracts under FAR:
  
                    RESTRICTED RIGHTS LEGEND
  
 Use, reproduction and disclosure by the US Government is
 subject to restrictions as set forth in subparagraphs (a)
 and (c) of the Commercial Computer Software - Restricted
 Rights clause in FAR 52.227-19.
  
 Gaussian, Inc.
 340 Quinnipiac St., Bldg. 40, Wallingford CT 06492
  
  
 ---------------------------------------------------------------
 Warning -- This program may not be used in any manner that
 competes with the business of Gaussian, Inc. or will provide
 assistance to any competitor of Gaussian, Inc.  The licensee
 of this program is prohibited from giving any competitor of
 Gaussian, Inc. access to this program.  By using this program,
 the user acknowledges that Gaussian, Inc. is engaged in the
 business of creating and licensing software in the field of
 computational chemistry and represents and warrants to the
 licensee that it is not a competitor of Gaussian, Inc. and that
 it will not use this program in any manner prohibited above.
 ---------------------------------------------------------------
  

 Cite this work as:
 Gaussian 09, Revision D.01,
 M. J. Frisch, G. W. Trucks, H. B. Schlegel, G. E. Scuseria, 
 M. A. Robb, J. R. Cheeseman, G. Scalmani, V. Barone, B. Mennucci, 
 G. A. Petersson, H. Nakatsuji, M. Caricato, X. Li, H. P. Hratchian, 
 A. F. Izmaylov, J. Bloino, G. Zheng, J. L. Sonnenberg, M. Hada, 
 M. Ehara, K. Toyota, R. Fukuda, J. Hasegawa, M. Ishida, T. Nakajima, 
 Y. Honda, O. Kitao, H. Nakai, T. Vreven, J. A. Montgomery, Jr., 
 J. E. Peralta, F. Ogliaro, M. Bearpark, J. J. Heyd, E. Brothers, 
 K. N. Kudin, V. N. Staroverov, T. Keith, R. Kobayashi, J. Normand, 
 K. Raghavachari, A. Rendell, J. C. Burant, S. S. Iyengar, J. Tomasi, 
 M. Cossi, N. Rega, J. M. Millam, M. Klene, J. E. Knox, J. B. Cross, 
 V. Bakken, C. Adamo, J. Jaramillo, R. Gomperts, R. E. Stratmann, 
 O. Yazyev, A. J. Austin, R. Cammi, C. Pomelli, J. W. Ochterski, 
 R. L. Martin, K. Morokuma, V. G. Zakrzewski, G. A. Voth, 
 P. Salvador, J. J. Dannenberg, S. Dapprich, A. D. Daniels, 
 O. Farkas, J. B. Foresman, J. V. Ortiz, J. Cioslowski, 
 and D. J. Fox, Gaussian, Inc., Wallingford CT, 2013.
 
 ******************************************
 Gaussian 09:  ES64L-G09RevD.01 24-Apr-2013
                28-Jul-2021 
 ******************************************
 %mem=2gb
 %nproc=4
 Will use up to    4 processors via shared memory.
 %chk=conf-118.chk
 ----------------------------------------------------------------------
 # B3LYP/6-311++G(d,p) opt=calcfc freq=noraman nosymm integral(ultrafin
 egrid)
 ----------------------------------------------------------------------
 1/10=4,14=-1,18=20,19=15,26=4,38=1/1,3;
 2/9=110,12=2,15=1,17=6,18=5,40=1/2;
 3/5=4,6=6,7=1111,11=2,16=1,25=1,30=1,71=2,74=-5,75=-5,140=1/1,2,3;
 4//1;
 5/5=2,38=5/2;
 8/6=4,10=90,11=11/1;
 11/6=1,8=1,9=11,15=111,16=1,31=1/1,2,10;
 10/6=1,13=1,31=1/2;
 6/7=2,8=2,9=2,10=2,28=1/1;
 7/10=1,18=20,25=1,30=1/1,2,3,16;
 1/10=4,14=-1,18=20,19=15,26=4/3(2);
 2/9=110,15=1/2;
 99//99;
 2/9=110,15=1/2;
 3/5=4,6=6,7=1111,11=2,16=1,25=1,30=1,71=1,74=-5,75=-5/1,2,3;
 4/5=5,16=3,69=1/1;
 5/5=2,38=5/2;
 7/30=1/1,2,3,16;
 1/14=-1,18=20,19=15,26=4/3(-5);
 2/9=110,15=1/2;
 6/7=2,8=2,9=2,10=2,19=2,28=1/1;
 99/9=1/99;
 ------------------------------------------------------------
 Candidate Structure: Conf:118 OPT and FREQ calc in gas phase
 ------------------------------------------------------------
 Symbolic Z-matrix:
 Charge =  0 Multiplicity = 1
 O                    -1.09191  -1.49774   1.89457 
 C                    -1.1329   -0.84889   0.84816 
 N                     0.0024   -0.36345   0.30113 
 C                     1.31616  -0.70184   0.84222 
 C                     1.64724   0.13858   2.0826 
 O                     0.82949  -0.05171   3.11585 
 O                     2.58036   0.90366   2.13873 
 C                     2.38232  -0.62065  -0.26115 
 C                     2.39816   0.65456  -1.03751 
 C                     2.19552   0.92086  -2.36066 
 N                     2.29483   2.27751  -2.60422 
 C                     2.56319   2.81405  -1.43534 
 N                     2.63864   1.87574  -0.46004 
 C                    -2.41621  -0.54902   0.10388 
 C                    -3.64785  -1.14676   0.78295 
 N                    -4.91229  -0.89688   0.0982 
 H                    -0.03659   0.23313  -0.50776 
 H                     1.26051  -1.73828   1.18222 
 H                     0.12995  -0.69885   2.87109 
 H                     2.19392  -1.44042  -0.95928 
 H                     3.35377  -0.80864   0.20316 
 H                     1.97224   0.21971  -3.15329 
 H                     2.71402   3.8582   -1.22877 
 H                     2.81452   2.00188   0.52833 
 H                    -2.32914  -0.93079  -0.9212 
 H                    -2.52727   0.53913   0.01542 
 H                    -3.51243  -2.2239    0.87785 
 H                    -3.72173  -0.75134   1.79546 
 H                    -5.07644   0.09998   0.0138 
 H                    -4.88239  -1.26779  -0.84492 
 

 GradGradGradGradGradGradGradGradGradGradGradGradGradGradGradGradGradGrad
 Berny optimization.
 Initialization pass.
                           ----------------------------
                           !    Initial Parameters    !
                           ! (Angstroms and Degrees)  !
 --------------------------                            --------------------------
 ! Name  Definition              Value          Derivative Info.                !
 --------------------------------------------------------------------------------
 ! R1    R(1,2)                  1.2319         calculate D2E/DX2 analytically  !
 ! R2    R(2,3)                  1.3505         calculate D2E/DX2 analytically  !
 ! R3    R(2,14)                 1.5135         calculate D2E/DX2 analytically  !
 ! R4    R(3,4)                  1.4606         calculate D2E/DX2 analytically  !
 ! R5    R(3,17)                 1.0058         calculate D2E/DX2 analytically  !
 ! R6    R(4,5)                  1.5344         calculate D2E/DX2 analytically  !
 ! R7    R(4,8)                  1.5365         calculate D2E/DX2 analytically  !
 ! R8    R(4,18)                 1.0922         calculate D2E/DX2 analytically  !
 ! R9    R(5,6)                  1.3314         calculate D2E/DX2 analytically  !
 ! R10   R(5,7)                  1.208          calculate D2E/DX2 analytically  !
 ! R11   R(6,19)                 0.9839         calculate D2E/DX2 analytically  !
 ! R12   R(8,9)                  1.493          calculate D2E/DX2 analytically  !
 ! R13   R(8,20)                 1.0931         calculate D2E/DX2 analytically  !
 ! R14   R(8,21)                 1.093          calculate D2E/DX2 analytically  !
 ! R15   R(9,10)                 1.3648         calculate D2E/DX2 analytically  !
 ! R16   R(9,13)                 1.3721         calculate D2E/DX2 analytically  !
 ! R17   R(10,11)                1.3819         calculate D2E/DX2 analytically  !
 ! R18   R(10,22)                1.0815         calculate D2E/DX2 analytically  !
 ! R19   R(11,12)                1.3138         calculate D2E/DX2 analytically  !
 ! R20   R(12,13)                1.3555         calculate D2E/DX2 analytically  !
 ! R21   R(12,23)                1.075          calculate D2E/DX2 analytically  !
 ! R22   R(13,24)                1.0118         calculate D2E/DX2 analytically  !
 ! R23   R(14,15)                1.5282         calculate D2E/DX2 analytically  !
 ! R24   R(14,25)                1.0973         calculate D2E/DX2 analytically  !
 ! R25   R(14,26)                1.0974         calculate D2E/DX2 analytically  !
 ! R26   R(15,16)                1.4595         calculate D2E/DX2 analytically  !
 ! R27   R(15,27)                1.0898         calculate D2E/DX2 analytically  !
 ! R28   R(15,28)                1.0895         calculate D2E/DX2 analytically  !
 ! R29   R(16,29)                1.0138         calculate D2E/DX2 analytically  !
 ! R30   R(16,30)                1.0139         calculate D2E/DX2 analytically  !
 ! A1    A(1,2,3)              120.3589         calculate D2E/DX2 analytically  !
 ! A2    A(1,2,14)             123.3848         calculate D2E/DX2 analytically  !
 ! A3    A(3,2,14)             116.2562         calculate D2E/DX2 analytically  !
 ! A4    A(2,3,4)              121.5221         calculate D2E/DX2 analytically  !
 ! A5    A(2,3,17)             120.421          calculate D2E/DX2 analytically  !
 ! A6    A(4,3,17)             118.0478         calculate D2E/DX2 analytically  !
 ! A7    A(3,4,5)              111.5098         calculate D2E/DX2 analytically  !
 ! A8    A(3,4,8)              110.2353         calculate D2E/DX2 analytically  !
 ! A9    A(3,4,18)             106.8192         calculate D2E/DX2 analytically  !
 ! A10   A(5,4,8)              113.6936         calculate D2E/DX2 analytically  !
 ! A11   A(5,4,18)             106.2061         calculate D2E/DX2 analytically  !
 ! A12   A(8,4,18)             108.0019         calculate D2E/DX2 analytically  !
 ! A13   A(4,5,6)              114.6171         calculate D2E/DX2 analytically  !
 ! A14   A(4,5,7)              123.4447         calculate D2E/DX2 analytically  !
 ! A15   A(6,5,7)              121.9325         calculate D2E/DX2 analytically  !
 ! A16   A(5,6,19)             109.7335         calculate D2E/DX2 analytically  !
 ! A17   A(4,8,9)              115.2081         calculate D2E/DX2 analytically  !
 ! A18   A(4,8,20)             107.4225         calculate D2E/DX2 analytically  !
 ! A19   A(4,8,21)             107.613          calculate D2E/DX2 analytically  !
 ! A20   A(9,8,20)             108.0754         calculate D2E/DX2 analytically  !
 ! A21   A(9,8,21)             111.0            calculate D2E/DX2 analytically  !
 ! A22   A(20,8,21)            107.1877         calculate D2E/DX2 analytically  !
 ! A23   A(8,9,10)             132.0047         calculate D2E/DX2 analytically  !
 ! A24   A(8,9,13)             122.9011         calculate D2E/DX2 analytically  !
 ! A25   A(10,9,13)            105.0931         calculate D2E/DX2 analytically  !
 ! A26   A(9,10,11)            110.5946         calculate D2E/DX2 analytically  !
 ! A27   A(9,10,22)            127.9267         calculate D2E/DX2 analytically  !
 ! A28   A(11,10,22)           121.474          calculate D2E/DX2 analytically  !
 ! A29   A(10,11,12)           104.9978         calculate D2E/DX2 analytically  !
 ! A30   A(11,12,13)           111.6429         calculate D2E/DX2 analytically  !
 ! A31   A(11,12,23)           126.6024         calculate D2E/DX2 analytically  !
 ! A32   A(13,12,23)           121.7547         calculate D2E/DX2 analytically  !
 ! A33   A(9,13,12)            107.669          calculate D2E/DX2 analytically  !
 ! A34   A(9,13,24)            123.5427         calculate D2E/DX2 analytically  !
 ! A35   A(12,13,24)           128.7737         calculate D2E/DX2 analytically  !
 ! A36   A(2,14,15)            112.7895         calculate D2E/DX2 analytically  !
 ! A37   A(2,14,25)            108.8547         calculate D2E/DX2 analytically  !
 ! A38   A(2,14,26)            108.779          calculate D2E/DX2 analytically  !
 ! A39   A(15,14,25)           110.0579         calculate D2E/DX2 analytically  !
 ! A40   A(15,14,26)           110.0054         calculate D2E/DX2 analytically  !
 ! A41   A(25,14,26)           106.1236         calculate D2E/DX2 analytically  !
 ! A42   A(14,15,16)           115.0106         calculate D2E/DX2 analytically  !
 ! A43   A(14,15,27)           108.9749         calculate D2E/DX2 analytically  !
 ! A44   A(14,15,28)           109.0053         calculate D2E/DX2 analytically  !
 ! A45   A(16,15,27)           108.5268         calculate D2E/DX2 analytically  !
 ! A46   A(16,15,28)           108.3686         calculate D2E/DX2 analytically  !
 ! A47   A(27,15,28)           106.6325         calculate D2E/DX2 analytically  !
 ! A48   A(15,16,29)           110.3457         calculate D2E/DX2 analytically  !
 ! A49   A(15,16,30)           110.3798         calculate D2E/DX2 analytically  !
 ! A50   A(29,16,30)           106.6816         calculate D2E/DX2 analytically  !
 ! D1    D(1,2,3,4)              6.4647         calculate D2E/DX2 analytically  !
 ! D2    D(1,2,3,17)          -174.6497         calculate D2E/DX2 analytically  !
 ! D3    D(14,2,3,4)          -173.4245         calculate D2E/DX2 analytically  !
 ! D4    D(14,2,3,17)            5.4611         calculate D2E/DX2 analytically  !
 ! D5    D(1,2,14,15)           -0.4965         calculate D2E/DX2 analytically  !
 ! D6    D(1,2,14,25)         -122.9478         calculate D2E/DX2 analytically  !
 ! D7    D(1,2,14,26)          121.8338         calculate D2E/DX2 analytically  !
 ! D8    D(3,2,14,15)          179.389          calculate D2E/DX2 analytically  !
 ! D9    D(3,2,14,25)           56.9378         calculate D2E/DX2 analytically  !
 ! D10   D(3,2,14,26)          -58.2807         calculate D2E/DX2 analytically  !
 ! D11   D(2,3,4,5)            -79.7678         calculate D2E/DX2 analytically  !
 ! D12   D(2,3,4,8)            152.9589         calculate D2E/DX2 analytically  !
 ! D13   D(2,3,4,18)            35.86           calculate D2E/DX2 analytically  !
 ! D14   D(17,3,4,5)           101.3211         calculate D2E/DX2 analytically  !
 ! D15   D(17,3,4,8)           -25.9523         calculate D2E/DX2 analytically  !
 ! D16   D(17,3,4,18)         -143.0511         calculate D2E/DX2 analytically  !
 ! D17   D(3,4,5,6)             62.9539         calculate D2E/DX2 analytically  !
 ! D18   D(3,4,5,7)           -117.8971         calculate D2E/DX2 analytically  !
 ! D19   D(8,4,5,6)           -171.6701         calculate D2E/DX2 analytically  !
 ! D20   D(8,4,5,7)              7.4788         calculate D2E/DX2 analytically  !
 ! D21   D(18,4,5,6)           -53.0496         calculate D2E/DX2 analytically  !
 ! D22   D(18,4,5,7)           126.0994         calculate D2E/DX2 analytically  !
 ! D23   D(3,4,8,9)             51.5157         calculate D2E/DX2 analytically  !
 ! D24   D(3,4,8,20)           -68.9577         calculate D2E/DX2 analytically  !
 ! D25   D(3,4,8,21)           175.919          calculate D2E/DX2 analytically  !
 ! D26   D(5,4,8,9)            -74.5362         calculate D2E/DX2 analytically  !
 ! D27   D(5,4,8,20)           164.9904         calculate D2E/DX2 analytically  !
 ! D28   D(5,4,8,21)            49.8671         calculate D2E/DX2 analytically  !
 ! D29   D(18,4,8,9)           167.8781         calculate D2E/DX2 analytically  !
 ! D30   D(18,4,8,20)           47.4047         calculate D2E/DX2 analytically  !
 ! D31   D(18,4,8,21)          -67.7186         calculate D2E/DX2 analytically  !
 ! D32   D(4,5,6,19)            -1.5849         calculate D2E/DX2 analytically  !
 ! D33   D(7,5,6,19)           179.2519         calculate D2E/DX2 analytically  !
 ! D34   D(4,8,9,10)          -118.2744         calculate D2E/DX2 analytically  !
 ! D35   D(4,8,9,13)            61.288          calculate D2E/DX2 analytically  !
 ! D36   D(20,8,9,10)            1.8412         calculate D2E/DX2 analytically  !
 ! D37   D(20,8,9,13)         -178.5964         calculate D2E/DX2 analytically  !
 ! D38   D(21,8,9,10)          119.1149         calculate D2E/DX2 analytically  !
 ! D39   D(21,8,9,13)          -61.3227         calculate D2E/DX2 analytically  !
 ! D40   D(8,9,10,11)          179.0972         calculate D2E/DX2 analytically  !
 ! D41   D(8,9,10,22)           -0.1142         calculate D2E/DX2 analytically  !
 ! D42   D(13,9,10,11)          -0.5223         calculate D2E/DX2 analytically  !
 ! D43   D(13,9,10,22)        -179.7337         calculate D2E/DX2 analytically  !
 ! D44   D(8,9,13,12)         -179.2098         calculate D2E/DX2 analytically  !
 ! D45   D(8,9,13,24)           -0.4902         calculate D2E/DX2 analytically  !
 ! D46   D(10,9,13,12)           0.4534         calculate D2E/DX2 analytically  !
 ! D47   D(10,9,13,24)         179.173          calculate D2E/DX2 analytically  !
 ! D48   D(9,10,11,12)           0.3856         calculate D2E/DX2 analytically  !
 ! D49   D(22,10,11,12)        179.6563         calculate D2E/DX2 analytically  !
 ! D50   D(10,11,12,13)         -0.0869         calculate D2E/DX2 analytically  !
 ! D51   D(10,11,12,23)        179.8016         calculate D2E/DX2 analytically  !
 ! D52   D(11,12,13,9)          -0.2354         calculate D2E/DX2 analytically  !
 ! D53   D(11,12,13,24)       -178.8665         calculate D2E/DX2 analytically  !
 ! D54   D(23,12,13,9)         179.87           calculate D2E/DX2 analytically  !
 ! D55   D(23,12,13,24)          1.2388         calculate D2E/DX2 analytically  !
 ! D56   D(2,14,15,16)        -179.4662         calculate D2E/DX2 analytically  !
 ! D57   D(2,14,15,27)         -57.3806         calculate D2E/DX2 analytically  !
 ! D58   D(2,14,15,28)          58.6314         calculate D2E/DX2 analytically  !
 ! D59   D(25,14,15,16)        -57.6922         calculate D2E/DX2 analytically  !
 ! D60   D(25,14,15,27)         64.3934         calculate D2E/DX2 analytically  !
 ! D61   D(25,14,15,28)       -179.5946         calculate D2E/DX2 analytically  !
 ! D62   D(26,14,15,16)         58.8948         calculate D2E/DX2 analytically  !
 ! D63   D(26,14,15,27)       -179.0196         calculate D2E/DX2 analytically  !
 ! D64   D(26,14,15,28)        -63.0076         calculate D2E/DX2 analytically  !
 ! D65   D(14,15,16,29)        -58.9619         calculate D2E/DX2 analytically  !
 ! D66   D(14,15,16,30)         58.7065         calculate D2E/DX2 analytically  !
 ! D67   D(27,15,16,29)        178.711          calculate D2E/DX2 analytically  !
 ! D68   D(27,15,16,30)        -63.6206         calculate D2E/DX2 analytically  !
 ! D69   D(28,15,16,29)         63.2841         calculate D2E/DX2 analytically  !
 ! D70   D(28,15,16,30)       -179.0475         calculate D2E/DX2 analytically  !
 --------------------------------------------------------------------------------
 Trust Radius=3.00D-01 FncErr=1.00D-07 GrdErr=1.00D-06
 Number of steps in this run=    160 maximum allowed number of steps=    180.
 GradGradGradGradGradGradGradGradGradGradGradGradGradGradGradGradGradGrad

                          Input orientation:                          
 ---------------------------------------------------------------------
 Center     Atomic      Atomic             Coordinates (Angstroms)
 Number     Number       Type             X           Y           Z
 ---------------------------------------------------------------------
      1          8           0       -1.091914   -1.497744    1.894566
      2          6           0       -1.132901   -0.848885    0.848165
      3          7           0        0.002404   -0.363454    0.301131
      4          6           0        1.316159   -0.701839    0.842219
      5          6           0        1.647238    0.138577    2.082596
      6          8           0        0.829491   -0.051707    3.115846
      7          8           0        2.580358    0.903658    2.138729
      8          6           0        2.382319   -0.620651   -0.261154
      9          6           0        2.398160    0.654561   -1.037507
     10          6           0        2.195523    0.920864   -2.360663
     11          7           0        2.294832    2.277508   -2.604224
     12          6           0        2.563187    2.814045   -1.435339
     13          7           0        2.638639    1.875738   -0.460036
     14          6           0       -2.416206   -0.549018    0.103885
     15          6           0       -3.647851   -1.146761    0.782954
     16          7           0       -4.912292   -0.896875    0.098203
     17          1           0       -0.036590    0.233126   -0.507759
     18          1           0        1.260513   -1.738284    1.182224
     19          1           0        0.129951   -0.698845    2.871087
     20          1           0        2.193921   -1.440421   -0.959280
     21          1           0        3.353770   -0.808644    0.203161
     22          1           0        1.972239    0.219708   -3.153286
     23          1           0        2.714018    3.858200   -1.228767
     24          1           0        2.814521    2.001875    0.528325
     25          1           0       -2.329135   -0.930794   -0.921196
     26          1           0       -2.527269    0.539126    0.015416
     27          1           0       -3.512426   -2.223902    0.877853
     28          1           0       -3.721732   -0.751344    1.795461
     29          1           0       -5.076436    0.099980    0.013796
     30          1           0       -4.882394   -1.267793   -0.844918
 ---------------------------------------------------------------------
                    Distance matrix (angstroms):
                    1          2          3          4          5
     1  O    0.000000
     2  C    1.231931   0.000000
     3  N    2.241246   1.350484   0.000000
     4  C    2.745854   2.453478   1.460558   0.000000
     5  C    3.196225   3.198137   2.476112   1.534421   0.000000
     6  O    2.697099   3.103040   2.950234   2.414311   1.331362
     7  O    4.394534   4.304098   3.410013   2.420074   1.207979
     8  C    4.181712   3.693163   2.458924   1.536464   2.570979
     9  C    5.040842   4.276038   2.927106   2.558107   3.250410
    10  C    5.896091   4.950455   3.680271   3.696607   4.544793
    11  N    6.779505   5.782964   4.546536   4.659643   5.192367
    12  C    6.560454   5.682651   4.435024   4.370788   4.513641
    13  N    5.553517   4.833164   3.541622   3.176274   3.235055
    14  C    2.420820   1.513520   2.433724   3.807760   4.571615
    15  C    2.809214   2.533368   3.764318   4.984261   5.601708
    16  N    4.264183   3.853381   4.947723   6.275763   6.930903
    17  H    3.143372   2.052115   1.005849   2.127564   3.090980
    18  H    2.469656   2.575083   2.061387   1.092208   2.117271
    19  H    1.756356   2.389461   2.594885   2.350193   1.903984
    20  H    4.352521   3.832038   2.747952   2.135736   3.470606
    21  H    4.806227   4.532976   3.382225   2.138145   2.709568
    22  H    6.149756   5.176427   4.019120   4.152559   5.246587
    23  H    7.275058   6.424102   5.245551   5.199706   5.093009
    24  H    5.419795   4.879679   3.681630   3.107038   2.692617
    25  H    3.127405   2.137363   2.692960   4.055887   5.096849
    26  H    3.120944   2.136424   2.701024   4.122564   4.675488
    27  H    2.723948   2.748398   4.018446   5.062922   5.801280
    28  H    2.735485   2.758429   4.031460   5.127520   5.449793
    29  H    4.686836   4.141012   5.108028   6.495726   7.034857
    30  H    4.682456   4.135301   5.098286   6.448937   7.292758
                    6          7          8          9         10
     6  O    0.000000
     7  O    2.221040   0.000000
     8  C    3.760200   2.849943   0.000000
     9  C    4.495540   3.191194   1.493030   0.000000
    10  C    5.727486   4.515853   2.611341   1.364816   0.000000
    11  N    6.347572   4.946169   3.727862   2.258149   1.381906
    12  C    5.650799   4.052633   3.634358   2.202017   2.139050
    13  N    4.446908   2.775232   2.517381   1.372069   2.172675
    14  C    4.455758   5.587174   4.812922   5.092101   5.431629
    15  C    5.166055   6.695740   6.142467   6.566055   6.949995
    16  N    6.541296   7.971542   7.308679   7.559068   7.737651
    17  H    3.736542   3.781790   2.576989   2.527103   2.981370
    18  H    2.601772   3.104312   2.142637   3.456465   4.527401
    19  H    0.983896   3.018089   3.858784   4.717371   5.853312
    20  H    4.516287   3.904062   1.093113   2.106367   2.745823
    21  H    3.927936   2.697512   1.092999   2.143226   3.302413
    22  H    6.378210   5.370570   3.039539   2.201597   1.081539
    23  H    6.141212   4.481876   4.594171   3.224849   3.190292
    24  H    3.853934   1.963240   2.772674   2.107235   3.146108
    25  H    5.200713   6.068895   4.767562   4.987404   5.096395
    26  H    4.607558   5.543392   5.052290   5.038038   5.300589
    27  H    5.345960   6.963725   6.214159   6.847567   7.277240
    28  H    4.790254   6.524815   6.442529   6.888784   7.421830
    29  H    6.672758   7.986722   7.498529   7.568512   7.693718
    30  H    7.056355   8.325264   7.316805   7.532530   7.562051
                   11         12         13         14         15
    11  N    0.000000
    12  C    1.313841   0.000000
    13  N    2.208430   1.355481   0.000000
    14  C    6.125110   6.202722   5.634616   0.000000
    15  C    7.649449   7.693231   7.085229   1.528196   0.000000
    16  N    8.326011   8.485604   8.063224   2.520216   1.459499
    17  H    3.743019   3.778941   3.139634   2.578454   4.075688
    18  H    5.615477   5.410388   4.202071   4.011910   4.959975
    19  H    6.597304   6.066823   4.900854   3.763346   4.339668
    20  H    4.066819   4.296914   3.382887   4.814373   6.103107
    21  H    4.304311   4.053835   2.856072   5.776667   7.033718
    22  H    2.154083   3.167199   3.231117   5.518926   6.996187
    23  H    2.136863   1.075026   2.127624   6.893383   8.340865
    24  H    3.187305   2.139805   1.011782   5.835041   7.193121
    25  H    5.874254   6.182474   5.724340   1.097325   2.165589
    26  H    5.756487   5.761310   5.357163   1.097369   2.164955
    27  H    8.130916   8.224649   7.512163   2.146150   1.089760
    28  H    8.045508   7.915193   7.241764   2.146338   1.089488
    29  H    8.119805   8.235896   7.930965   2.739734   2.046172
    30  H    8.196151   8.511562   8.160628   2.738421   2.046635
                   16         17         18         19         20
    16  N    0.000000
    17  H    5.041484   0.000000
    18  H    6.323495   2.902581   0.000000
    19  H    5.757805   3.508976   2.282731   0.000000
    20  H    7.204997   2.824856   2.354997   4.413799   0.000000
    21  H    8.267200   3.617352   2.490888   4.186036   1.759449
    22  H    7.695175   3.321805   4.810087   6.366384   2.760224
    23  H    9.084724   4.607262   6.264678   6.652283   5.330901
    24  H    8.263861   3.511521   4.102599   4.470944   3.800989
    25  H    2.777233   2.604112   4.238158   4.525739   4.551836
    26  H    2.785191   2.563363   4.571141   4.092462   5.211361
    27  H    2.080500   4.476420   4.807225   4.423312   6.045767
    28  H    2.078292   4.455813   5.115943   3.999398   6.561888
    29  H    1.013799   5.068510   6.700847   5.992387   7.495185
    30  H    1.013879   5.084117   6.485828   6.265461   7.079344
                   21         22         23         24         25
    21  H    0.000000
    22  H    3.772515   0.000000
    23  H    4.923326   4.182419   0.000000
    24  H    2.880198   4.176101   2.558010   0.000000
    25  H    5.794352   4.980734   6.961498   6.095806   0.000000
    26  H    6.036419   5.512557   6.327348   5.562143   1.754184
    27  H    7.042927   7.232072   8.955357   7.616404   2.511748
    28  H    7.252685   7.606204   8.474239   7.204752   3.058063
    29  H    8.481146   7.728426   8.738384   8.133212   3.079669
    30  H    8.315269   7.384255   9.172166   8.474611   2.576532
                   26         27         28         29         30
    26  H    0.000000
    27  H    3.057557   0.000000
    28  H    2.502122   1.747638   0.000000
    29  H    2.586716   2.931407   2.394641   0.000000
    30  H    3.090590   2.399770   2.930095   1.626606   0.000000
 Symmetry turned off by external request.
 Stoichiometry    C9H14N4O3
 Framework group  C1[X(C9H14N4O3)]
 Deg. of freedom    84
 Full point group                 C1      NOp   1
 Rotational constants (GHZ):      0.7486288      0.3003188      0.2383304
 Standard basis: 6-311++G(d,p) (5D, 7F)
   450 basis functions,   702 primitive gaussians,   466 cartesian basis functions
    60 alpha electrons       60 beta electrons
       nuclear repulsion energy      1127.6577624082 Hartrees.
 NAtoms=   30 NActive=   30 NUniq=   30 SFac= 1.00D+00 NAtFMM=   60 NAOKFM=F Big=F
 Integral buffers will be    131072 words long.
 Raffenetti 2 integral format.
 Two-electron integral symmetry is turned off.
 One-electron integrals computed using PRISM.
 NBasis=   450 RedAO= T EigKep=  2.93D-06  NBF=   450
 NBsUse=   450 1.00D-06 EigRej= -1.00D+00 NBFU=   450
 ExpMin= 3.60D-02 ExpMax= 8.59D+03 ExpMxC= 1.30D+03 IAcc=3 IRadAn=         5 AccDes= 0.00D+00
 Harris functional with IExCor=  402 and IRadAn=       5 diagonalized for initial guess.
 HarFok:  IExCor=  402 AccDes= 0.00D+00 IRadAn=         5 IDoV= 1 UseB2=F ITyADJ=14
 ICtDFT=  3500011 ScaDFX=  1.000000  1.000000  1.000000  1.000000
 FoFCou: FMM=F IPFlag=           0 FMFlag=      100000 FMFlg1=           0
         NFxFlg=           0 DoJE=T BraDBF=F KetDBF=T FulRan=T
         wScrn=  0.000000 ICntrl=     500 IOpCl=  0 I1Cent=   200000004 NGrid=           0
         NMat0=    1 NMatS0=      1 NMatT0=    0 NMatD0=    1 NMtDS0=    0 NMtDT0=    0
 Symmetry not used in FoFCou.
 Requested convergence on RMS density matrix=1.00D-08 within 128 cycles.
 Requested convergence on MAX density matrix=1.00D-06.
 Requested convergence on             energy=1.00D-06.
 No special actions if energy rises.
 EnCoef did     2 forward-backward iterations
 SCF Done:  E(RB3LYP) =  -796.338200277     A.U. after   15 cycles
            NFock= 15  Conv=0.35D-08     -V/T= 2.0036
 DoSCS=F DFT=T ScalE2(SS,OS)=  1.000000  1.000000
 Range of M.O.s used for correlation:     1   450
 NBasis=   450 NAE=    60 NBE=    60 NFC=     0 NFV=     0
 NROrb=    450 NOA=    60 NOB=    60 NVA=   390 NVB=   390

 **** Warning!!: The largest alpha MO coefficient is  0.11761904D+03

 Symmetrizing basis deriv contribution to polar:
 IMax=3 JMax=2 DiffMx= 0.00D+00
 G2DrvN: will do    31 centers at a time, making    1 passes.
 Calling FoFCou, ICntrl=  3107 FMM=F I1Cent=   0 AccDes= 0.00D+00.
 End of G2Drv F.D. properties file   721 does not exist.
 End of G2Drv F.D. properties file   722 does not exist.
 End of G2Drv F.D. properties file   788 does not exist.
          IDoAtm=111111111111111111111111111111
          Differentiating once with respect to nuclear coordinates.
          There are    93 degrees of freedom in the 1st order CPHF.  IDoFFX=6 NUNeed=     0.
     87 vectors produced by pass  0 Test12= 2.52D-14 1.08D-09 XBig12= 1.91D-01 8.36D-02.
 AX will form    87 AO Fock derivatives at one time.
     87 vectors produced by pass  1 Test12= 2.52D-14 1.08D-09 XBig12= 1.61D-02 2.01D-02.
     87 vectors produced by pass  2 Test12= 2.52D-14 1.08D-09 XBig12= 1.88D-04 1.81D-03.
     87 vectors produced by pass  3 Test12= 2.52D-14 1.08D-09 XBig12= 6.92D-07 9.25D-05.
     87 vectors produced by pass  4 Test12= 2.52D-14 1.08D-09 XBig12= 1.54D-09 4.19D-06.
     82 vectors produced by pass  5 Test12= 2.52D-14 1.08D-09 XBig12= 2.98D-12 1.31D-07.
     34 vectors produced by pass  6 Test12= 2.52D-14 1.08D-09 XBig12= 5.32D-15 5.67D-09.
      7 vectors produced by pass  7 Test12= 2.52D-14 1.08D-09 XBig12= 3.35D-16 1.52D-09.
      7 vectors produced by pass  8 Test12= 2.52D-14 1.08D-09 XBig12= 6.42D-16 1.99D-09.
      7 vectors produced by pass  9 Test12= 2.52D-14 1.08D-09 XBig12= 1.38D-14 1.17D-08.
      6 vectors produced by pass 10 Test12= 2.52D-14 1.08D-09 XBig12= 2.12D-15 8.46D-09.
      6 vectors produced by pass 11 Test12= 2.52D-14 1.08D-09 XBig12= 1.05D-14 8.36D-09.
      1 vectors produced by pass 12 Test12= 2.52D-14 1.08D-09 XBig12= 6.61D-16 4.32D-09.
 InvSVY:  IOpt=1 It=  1 EMax= 5.55D-16
 Solved reduced A of dimension   585 with    93 vectors.
 End of Minotr F.D. properties file   721 does not exist.
 End of Minotr F.D. properties file   722 does not exist.
 End of Minotr F.D. properties file   788 does not exist.

 **********************************************************************

            Population analysis using the SCF density.

 **********************************************************************

 Alpha  occ. eigenvalues --  -19.17901 -19.13674 -19.13534 -14.38122 -14.36955
 Alpha  occ. eigenvalues --  -14.31105 -14.30088 -10.32995 -10.31550 -10.26175
 Alpha  occ. eigenvalues --  -10.23095 -10.21718 -10.21589 -10.21176 -10.20913
 Alpha  occ. eigenvalues --  -10.19357  -1.13033  -1.08903  -1.04919  -1.02971
 Alpha  occ. eigenvalues --   -0.97337  -0.90668  -0.88187  -0.83252  -0.78899
 Alpha  occ. eigenvalues --   -0.75738  -0.69518  -0.66474  -0.63729  -0.62618
 Alpha  occ. eigenvalues --   -0.61967  -0.60581  -0.57658  -0.56326  -0.53492
 Alpha  occ. eigenvalues --   -0.52962  -0.51729  -0.49103  -0.47615  -0.47242
 Alpha  occ. eigenvalues --   -0.46549  -0.46293  -0.45354  -0.44462  -0.43748
 Alpha  occ. eigenvalues --   -0.42186  -0.42014  -0.41629  -0.40639  -0.40334
 Alpha  occ. eigenvalues --   -0.39222  -0.36992  -0.34578  -0.33114  -0.31022
 Alpha  occ. eigenvalues --   -0.29474  -0.29076  -0.28022  -0.26191  -0.24569
 Alpha virt. eigenvalues --   -0.03884  -0.02969  -0.02453  -0.01383  -0.00686
 Alpha virt. eigenvalues --    0.00074   0.00546   0.00707   0.01219   0.01966
 Alpha virt. eigenvalues --    0.02580   0.03130   0.03700   0.03764   0.04478
 Alpha virt. eigenvalues --    0.04885   0.04983   0.05975   0.06153   0.06595
 Alpha virt. eigenvalues --    0.07595   0.07826   0.08034   0.08272   0.09177
 Alpha virt. eigenvalues --    0.09337   0.09914   0.10522   0.10729   0.11073
 Alpha virt. eigenvalues --    0.11122   0.11804   0.11936   0.12345   0.12792
 Alpha virt. eigenvalues --    0.12883   0.12993   0.13616   0.14009   0.14291
 Alpha virt. eigenvalues --    0.14486   0.14964   0.15052   0.15135   0.15432
 Alpha virt. eigenvalues --    0.15777   0.16366   0.16736   0.16879   0.17327
 Alpha virt. eigenvalues --    0.17826   0.18111   0.18634   0.18694   0.19118
 Alpha virt. eigenvalues --    0.19756   0.19997   0.20723   0.21091   0.21628
 Alpha virt. eigenvalues --    0.21814   0.22167   0.22438   0.22618   0.23243
 Alpha virt. eigenvalues --    0.23592   0.23921   0.24164   0.24571   0.24906
 Alpha virt. eigenvalues --    0.25528   0.26063   0.26513   0.26874   0.27351
 Alpha virt. eigenvalues --    0.27976   0.28147   0.28533   0.28735   0.29292
 Alpha virt. eigenvalues --    0.29544   0.29839   0.29912   0.30689   0.30968
 Alpha virt. eigenvalues --    0.31195   0.31508   0.31806   0.32713   0.32970
 Alpha virt. eigenvalues --    0.33036   0.34289   0.34435   0.34729   0.35109
 Alpha virt. eigenvalues --    0.35604   0.36175   0.37293   0.37544   0.39001
 Alpha virt. eigenvalues --    0.39963   0.40301   0.40689   0.40973   0.41634
 Alpha virt. eigenvalues --    0.43446   0.44610   0.45495   0.46110   0.46954
 Alpha virt. eigenvalues --    0.48634   0.48815   0.49117   0.50709   0.51701
 Alpha virt. eigenvalues --    0.53793   0.54471   0.55077   0.56587   0.58185
 Alpha virt. eigenvalues --    0.58662   0.59298   0.60021   0.61221   0.61404
 Alpha virt. eigenvalues --    0.62858   0.63035   0.64043   0.64840   0.65654
 Alpha virt. eigenvalues --    0.66606   0.66901   0.67345   0.67573   0.68636
 Alpha virt. eigenvalues --    0.69343   0.69764   0.69863   0.70530   0.71282
 Alpha virt. eigenvalues --    0.71810   0.73082   0.73470   0.74610   0.75201
 Alpha virt. eigenvalues --    0.75864   0.76443   0.77606   0.78924   0.80016
 Alpha virt. eigenvalues --    0.82005   0.82555   0.83870   0.84402   0.85980
 Alpha virt. eigenvalues --    0.86740   0.88256   0.88953   0.89778   0.91152
 Alpha virt. eigenvalues --    0.92402   0.93060   0.93731   0.94656   0.96108
 Alpha virt. eigenvalues --    0.97749   0.98949   0.99417   1.00754   1.03145
 Alpha virt. eigenvalues --    1.03347   1.03714   1.06634   1.07799   1.09484
 Alpha virt. eigenvalues --    1.11085   1.12830   1.14242   1.15333   1.15781
 Alpha virt. eigenvalues --    1.18352   1.19050   1.19792   1.20160   1.21294
 Alpha virt. eigenvalues --    1.22258   1.23383   1.24467   1.24746   1.26683
 Alpha virt. eigenvalues --    1.27453   1.28330   1.29265   1.29865   1.31400
 Alpha virt. eigenvalues --    1.32487   1.36097   1.36482   1.37905   1.39646
 Alpha virt. eigenvalues --    1.41821   1.44436   1.46146   1.46697   1.48244
 Alpha virt. eigenvalues --    1.48673   1.51574   1.52059   1.52767   1.53690
 Alpha virt. eigenvalues --    1.55532   1.56046   1.58483   1.58786   1.61499
 Alpha virt. eigenvalues --    1.63083   1.63198   1.63808   1.64400   1.66589
 Alpha virt. eigenvalues --    1.66906   1.67802   1.68880   1.70237   1.70436
 Alpha virt. eigenvalues --    1.71601   1.72374   1.73172   1.74531   1.75008
 Alpha virt. eigenvalues --    1.76282   1.76924   1.78937   1.80280   1.80784
 Alpha virt. eigenvalues --    1.81725   1.83206   1.83998   1.85160   1.86626
 Alpha virt. eigenvalues --    1.87143   1.88063   1.91736   1.93711   1.95690
 Alpha virt. eigenvalues --    1.98210   1.98649   1.99688   2.01646   2.05752
 Alpha virt. eigenvalues --    2.07096   2.08730   2.09856   2.12871   2.15085
 Alpha virt. eigenvalues --    2.16065   2.17552   2.19949   2.20357   2.23528
 Alpha virt. eigenvalues --    2.25045   2.25408   2.26982   2.27068   2.30175
 Alpha virt. eigenvalues --    2.32484   2.34166   2.35865   2.36692   2.40517
 Alpha virt. eigenvalues --    2.42613   2.45387   2.46605   2.48626   2.50432
 Alpha virt. eigenvalues --    2.51946   2.52266   2.55029   2.56053   2.56860
 Alpha virt. eigenvalues --    2.58840   2.59838   2.60929   2.61280   2.63406
 Alpha virt. eigenvalues --    2.63943   2.64954   2.68202   2.69779   2.71194
 Alpha virt. eigenvalues --    2.71924   2.72450   2.74327   2.77790   2.77957
 Alpha virt. eigenvalues --    2.79327   2.79979   2.80480   2.82321   2.83898
 Alpha virt. eigenvalues --    2.85001   2.87107   2.88046   2.88653   2.90973
 Alpha virt. eigenvalues --    2.91705   2.92283   2.93409   2.93793   2.94675
 Alpha virt. eigenvalues --    2.95883   2.98331   2.99205   3.00394   3.03416
 Alpha virt. eigenvalues --    3.04310   3.08631   3.09779   3.10071   3.12592
 Alpha virt. eigenvalues --    3.13906   3.17309   3.19208   3.20573   3.21449
 Alpha virt. eigenvalues --    3.27863   3.32613   3.33914   3.34947   3.37652
 Alpha virt. eigenvalues --    3.43287   3.46590   3.52589   3.54999   3.55220
 Alpha virt. eigenvalues --    3.59592   3.62218   3.66002   3.67644   3.69752
 Alpha virt. eigenvalues --    3.72765   3.77551   3.81991   3.83385   3.85951
 Alpha virt. eigenvalues --    3.87406   3.89953   3.91793   3.93285   3.93861
 Alpha virt. eigenvalues --    4.04705   4.05679   4.07556   4.12981   4.24085
 Alpha virt. eigenvalues --    4.26065   4.32083   4.51034   4.71759   4.77732
 Alpha virt. eigenvalues --    4.82362   4.84957   4.94341   4.96678   5.01060
 Alpha virt. eigenvalues --    5.08112   5.09494   5.22748   5.28781   5.29764
 Alpha virt. eigenvalues --    5.40476   5.60250   5.78253   5.94297  23.74930
 Alpha virt. eigenvalues --   23.79158  23.82627  23.84248  23.86693  23.90432
 Alpha virt. eigenvalues --   23.92540  23.96721  24.15151  35.55568  35.58860
 Alpha virt. eigenvalues --   35.60890  35.70671  49.87238  50.00067  50.00760
          Condensed to atoms (all electrons):
               1          2          3          4          5          6
     1  O    8.029284   0.222197  -0.148200   0.051937  -0.065022  -0.034111
     2  C    0.222197  10.168525  -0.173457  -0.709885  -0.136281   0.036866
     3  N   -0.148200  -0.173457   7.612889  -0.465511   0.365636   0.011160
     4  C    0.051937  -0.709885  -0.465511  10.867061  -1.092558  -0.204402
     5  C   -0.065022  -0.136281   0.365636  -1.092558   6.463909   0.292050
     6  O   -0.034111   0.036866   0.011160  -0.204402   0.292050   7.895971
     7  O   -0.000034  -0.004231  -0.022640   0.083706   0.341281  -0.111007
     8  C    0.015525  -0.124673  -0.163127  -1.286713  -0.256636   0.070304
     9  C    0.001586  -0.219674  -0.241743  -0.859638   0.120410  -0.063676
    10  C   -0.000347   0.141320   0.088325   0.203059   0.044399  -0.001882
    11  N    0.000042  -0.003085  -0.006151   0.020535  -0.003999   0.000146
    12  C    0.000277  -0.010866  -0.018723  -0.024784  -0.017063   0.002075
    13  N    0.000303   0.007384   0.013240  -0.145855   0.047360   0.007532
    14  C    0.257675  -3.546544  -0.092069  -0.909953   0.162620  -0.000762
    15  C   -0.080708   0.592452  -0.013444  -0.221078  -0.002523   0.003514
    16  N    0.008888  -0.035019  -0.004187   0.024063  -0.001081   0.000134
    17  H    0.008531   0.009651   0.325335  -0.015122   0.024860  -0.001295
    18  H    0.003715   0.009365  -0.052170   0.534064  -0.114187   0.023552
    19  H    0.056437   0.022747  -0.054515   0.153171  -0.133155   0.203568
    20  H    0.001485  -0.001370  -0.010295   0.002233  -0.000117   0.003369
    21  H    0.000041   0.000915   0.033590  -0.252604   0.025189  -0.002463
    22  H   -0.000114   0.002166   0.001189  -0.015363   0.002790  -0.000312
    23  H    0.000009   0.000758   0.000301  -0.003394   0.000214  -0.000015
    24  H   -0.000112  -0.009152  -0.003333   0.037787  -0.015092  -0.000551
    25  H    0.004516  -0.096116   0.028840   0.073937  -0.001027  -0.000456
    26  H    0.001235  -0.109151   0.039036  -0.044377   0.012467   0.001086
    27  H   -0.009916  -0.056548  -0.003296  -0.017478  -0.000073  -0.000293
    28  H   -0.010606  -0.000420  -0.005748   0.027176  -0.002214  -0.000335
    29  H    0.000630   0.001801  -0.000225   0.000777   0.000045  -0.000011
    30  H    0.000159   0.006703   0.000176  -0.000655   0.000219   0.000032
               7          8          9         10         11         12
     1  O   -0.000034   0.015525   0.001586  -0.000347   0.000042   0.000277
     2  C   -0.004231  -0.124673  -0.219674   0.141320  -0.003085  -0.010866
     3  N   -0.022640  -0.163127  -0.241743   0.088325  -0.006151  -0.018723
     4  C    0.083706  -1.286713  -0.859638   0.203059   0.020535  -0.024784
     5  C    0.341281  -0.256636   0.120410   0.044399  -0.003999  -0.017063
     6  O   -0.111007   0.070304  -0.063676  -0.001882   0.000146   0.002075
     7  O    8.020441   0.013769  -0.045436  -0.001874   0.000522   0.009779
     8  C    0.013769  11.260055  -2.177567  -0.633107  -0.082021   0.112026
     9  C   -0.045436  -2.177567  10.710062  -1.183940  -0.141471  -0.125330
    10  C   -0.001874  -0.633107  -1.183940   7.194548   0.501119  -0.366633
    11  N    0.000522  -0.082021  -0.141471   0.501119   6.555809   0.362770
    12  C    0.009779   0.112026  -0.125330  -0.366633   0.362770   5.438830
    13  N   -0.010262  -0.304561   0.094656   0.017972   0.045242   0.186526
    14  C   -0.020716  -0.258801  -0.000257   0.102576  -0.004390  -0.032306
    15  C    0.000481   0.026997  -0.014448   0.013543  -0.000870   0.000303
    16  N   -0.000006  -0.001629  -0.000132  -0.000747   0.000036   0.000045
    17  H   -0.005539  -0.067918   0.035309  -0.091411   0.011600  -0.006269
    18  H    0.005127   0.034795  -0.190292   0.004097  -0.000976  -0.004100
    19  H    0.016677   0.043861   0.042327  -0.005221   0.000132   0.003381
    20  H    0.001632   0.347312  -0.099408   0.013823  -0.001326   0.012972
    21  H   -0.010814   0.542038   0.004168  -0.051103   0.002148  -0.013638
    22  H   -0.000029  -0.027912  -0.086152   0.476073  -0.075361   0.020155
    23  H   -0.000499   0.020187   0.052716  -0.004323  -0.072693   0.448790
    24  H    0.036383  -0.056333  -0.005133  -0.003167   0.011478  -0.043609
    25  H   -0.000189   0.009995  -0.001258  -0.008998  -0.000284   0.002001
    26  H   -0.000197  -0.006321  -0.000556   0.010767  -0.000195  -0.004687
    27  H    0.000092  -0.004337   0.001829   0.000696  -0.000006  -0.000193
    28  H   -0.000165   0.004498  -0.000257  -0.001004   0.000005   0.000226
    29  H   -0.000003  -0.000362  -0.000001  -0.000080   0.000005   0.000025
    30  H   -0.000002   0.000075  -0.000243   0.000098   0.000006  -0.000012
              13         14         15         16         17         18
     1  O    0.000303   0.257675  -0.080708   0.008888   0.008531   0.003715
     2  C    0.007384  -3.546544   0.592452  -0.035019   0.009651   0.009365
     3  N    0.013240  -0.092069  -0.013444  -0.004187   0.325335  -0.052170
     4  C   -0.145855  -0.909953  -0.221078   0.024063  -0.015122   0.534064
     5  C    0.047360   0.162620  -0.002523  -0.001081   0.024860  -0.114187
     6  O    0.007532  -0.000762   0.003514   0.000134  -0.001295   0.023552
     7  O   -0.010262  -0.020716   0.000481  -0.000006  -0.005539   0.005127
     8  C   -0.304561  -0.258801   0.026997  -0.001629  -0.067918   0.034795
     9  C    0.094656  -0.000257  -0.014448  -0.000132   0.035309  -0.190292
    10  C    0.017972   0.102576   0.013543  -0.000747  -0.091411   0.004097
    11  N    0.045242  -0.004390  -0.000870   0.000036   0.011600  -0.000976
    12  C    0.186526  -0.032306   0.000303   0.000045  -0.006269  -0.004100
    13  N    6.939108  -0.032877  -0.001414   0.000080   0.045194  -0.001160
    14  C   -0.032877  10.597562  -1.139686   0.160353   0.024016  -0.001116
    15  C   -0.001414  -1.139686   7.347135  -0.157671  -0.107177   0.002285
    16  N    0.000080   0.160353  -0.157671   6.571684   0.011466   0.000552
    17  H    0.045194   0.024016  -0.107177   0.011466   0.475094  -0.006983
    18  H   -0.001160  -0.001116   0.002285   0.000552  -0.006983   0.489104
    19  H    0.000478  -0.054274   0.000803  -0.000080   0.002568  -0.029627
    20  H    0.017445   0.008975  -0.002098   0.000148   0.002363  -0.014454
    21  H    0.007473   0.009122   0.000960  -0.000073   0.003102  -0.008590
    22  H    0.017324   0.001070   0.000344  -0.000042  -0.002248  -0.000232
    23  H   -0.117228  -0.000393   0.000194  -0.000006  -0.003704  -0.000156
    24  H    0.346275   0.000395  -0.001033   0.000067   0.004070   0.001087
    25  H   -0.000537   0.385601  -0.070601  -0.000849  -0.009147   0.003890
    26  H   -0.002924   0.474557  -0.020645  -0.012829  -0.005852  -0.001660
    27  H   -0.000193   0.097434   0.314171  -0.024605   0.005075  -0.002107
    28  H    0.000326   0.019239   0.279047  -0.017832   0.002116   0.001143
    29  H    0.000007   0.003001  -0.052433   0.402786   0.000810   0.000015
    30  H    0.000021   0.001269  -0.060739   0.406044   0.000791   0.000016
              19         20         21         22         23         24
     1  O    0.056437   0.001485   0.000041  -0.000114   0.000009  -0.000112
     2  C    0.022747  -0.001370   0.000915   0.002166   0.000758  -0.009152
     3  N   -0.054515  -0.010295   0.033590   0.001189   0.000301  -0.003333
     4  C    0.153171   0.002233  -0.252604  -0.015363  -0.003394   0.037787
     5  C   -0.133155  -0.000117   0.025189   0.002790   0.000214  -0.015092
     6  O    0.203568   0.003369  -0.002463  -0.000312  -0.000015  -0.000551
     7  O    0.016677   0.001632  -0.010814  -0.000029  -0.000499   0.036383
     8  C    0.043861   0.347312   0.542038  -0.027912   0.020187  -0.056333
     9  C    0.042327  -0.099408   0.004168  -0.086152   0.052716  -0.005133
    10  C   -0.005221   0.013823  -0.051103   0.476073  -0.004323  -0.003167
    11  N    0.000132  -0.001326   0.002148  -0.075361  -0.072693   0.011478
    12  C    0.003381   0.012972  -0.013638   0.020155   0.448790  -0.043609
    13  N    0.000478   0.017445   0.007473   0.017324  -0.117228   0.346275
    14  C   -0.054274   0.008975   0.009122   0.001070  -0.000393   0.000395
    15  C    0.000803  -0.002098   0.000960   0.000344   0.000194  -0.001033
    16  N   -0.000080   0.000148  -0.000073  -0.000042  -0.000006   0.000067
    17  H    0.002568   0.002363   0.003102  -0.002248  -0.003704   0.004070
    18  H   -0.029627  -0.014454  -0.008590  -0.000232  -0.000156   0.001087
    19  H    0.446382   0.001151  -0.003076  -0.000106   0.000226  -0.000872
    20  H    0.001151   0.544455  -0.020992  -0.000269   0.000829   0.000196
    21  H   -0.003076  -0.020992   0.515773   0.001394  -0.001807   0.001566
    22  H   -0.000106  -0.000269   0.001394   0.556461  -0.001758   0.002049
    23  H    0.000226   0.000829  -0.001807  -0.001758   0.535563  -0.008809
    24  H   -0.000872   0.000196   0.001566   0.002049  -0.008809   0.344030
    25  H   -0.002895   0.000520  -0.000373  -0.001049   0.000155   0.000061
    26  H    0.001027  -0.000710   0.000527   0.000573  -0.000230  -0.000022
    27  H    0.002059  -0.000201   0.000033   0.000066  -0.000006  -0.000042
    28  H   -0.003039   0.000206  -0.000063  -0.000035   0.000010   0.000045
    29  H    0.000006   0.000017  -0.000011  -0.000008   0.000002   0.000001
    30  H   -0.000121  -0.000021   0.000006  -0.000002  -0.000002   0.000003
              25         26         27         28         29         30
     1  O    0.004516   0.001235  -0.009916  -0.010606   0.000630   0.000159
     2  C   -0.096116  -0.109151  -0.056548  -0.000420   0.001801   0.006703
     3  N    0.028840   0.039036  -0.003296  -0.005748  -0.000225   0.000176
     4  C    0.073937  -0.044377  -0.017478   0.027176   0.000777  -0.000655
     5  C   -0.001027   0.012467  -0.000073  -0.002214   0.000045   0.000219
     6  O   -0.000456   0.001086  -0.000293  -0.000335  -0.000011   0.000032
     7  O   -0.000189  -0.000197   0.000092  -0.000165  -0.000003  -0.000002
     8  C    0.009995  -0.006321  -0.004337   0.004498  -0.000362   0.000075
     9  C   -0.001258  -0.000556   0.001829  -0.000257  -0.000001  -0.000243
    10  C   -0.008998   0.010767   0.000696  -0.001004  -0.000080   0.000098
    11  N   -0.000284  -0.000195  -0.000006   0.000005   0.000005   0.000006
    12  C    0.002001  -0.004687  -0.000193   0.000226   0.000025  -0.000012
    13  N   -0.000537  -0.002924  -0.000193   0.000326   0.000007   0.000021
    14  C    0.385601   0.474557   0.097434   0.019239   0.003001   0.001269
    15  C   -0.070601  -0.020645   0.314171   0.279047  -0.052433  -0.060739
    16  N   -0.000849  -0.012829  -0.024605  -0.017832   0.402786   0.406044
    17  H   -0.009147  -0.005852   0.005075   0.002116   0.000810   0.000791
    18  H    0.003890  -0.001660  -0.002107   0.001143   0.000015   0.000016
    19  H   -0.002895   0.001027   0.002059  -0.003039   0.000006  -0.000121
    20  H    0.000520  -0.000710  -0.000201   0.000206   0.000017  -0.000021
    21  H   -0.000373   0.000527   0.000033  -0.000063  -0.000011   0.000006
    22  H   -0.001049   0.000573   0.000066  -0.000035  -0.000008  -0.000002
    23  H    0.000155  -0.000230  -0.000006   0.000010   0.000002  -0.000002
    24  H    0.000061  -0.000022  -0.000042   0.000045   0.000001   0.000003
    25  H    0.618487  -0.094705  -0.038344   0.025127  -0.007572   0.015982
    26  H   -0.094705   0.612301   0.023464  -0.037364   0.014988  -0.007373
    27  H   -0.038344   0.023464   0.587676  -0.056460   0.018729  -0.028290
    28  H    0.025127  -0.037364  -0.056460   0.587734  -0.026797   0.019527
    29  H   -0.007572   0.014988   0.018729  -0.026797   0.488221  -0.074255
    30  H    0.015982  -0.007373  -0.028290   0.019527  -0.074255   0.492267
 Mulliken charges:
               1
     1  O   -0.315302
     2  C    0.013622
     3  N   -0.040884
     4  C    0.189863
     5  C   -0.062420
     6  O   -0.129789
     7  O   -0.296249
     8  C   -1.049418
     9  C    0.393550
    10  C   -0.458578
    11  N   -0.118770
    12  C    0.068035
    13  N   -0.176937
    14  C   -0.211322
    15  C   -0.635660
    16  N   -0.329556
    17  H    0.330711
    18  H    0.315003
    19  H    0.289981
    20  H    0.192131
    21  H    0.217561
    22  H    0.129339
    23  H    0.155071
    24  H    0.361765
    25  H    0.165288
    26  H    0.157771
    27  H    0.191062
    28  H    0.195919
    29  H    0.229893
    30  H    0.228321
 Sum of Mulliken charges =   0.00000
 Mulliken charges with hydrogens summed into heavy atoms:
               1
     1  O   -0.315302
     2  C    0.013622
     3  N    0.289827
     4  C    0.504866
     5  C   -0.062420
     6  O    0.160191
     7  O   -0.296249
     8  C   -0.639726
     9  C    0.393550
    10  C   -0.329239
    11  N   -0.118770
    12  C    0.223105
    13  N    0.184828
    14  C    0.111737
    15  C   -0.248680
    16  N    0.128658
 APT charges:
               1
     1  O   -0.174188
     2  C   -0.052259
     3  N   -0.341162
     4  C    0.013670
     5  C   -0.549074
     6  O    0.043511
     7  O    0.108290
     8  C   -1.742026
     9  C    0.576604
    10  C   -0.971260
    11  N   -0.113934
    12  C   -0.423210
    13  N   -0.443286
    14  C   -0.115068
    15  C   -1.470227
    16  N   -0.342228
    17  H    0.373564
    18  H    0.549229
    19  H    0.260652
    20  H    0.317952
    21  H    0.674745
    22  H    0.437190
    23  H    0.840915
    24  H    0.494474
    25  H    0.300724
    26  H    0.269380
    27  H    0.430270
    28  H    0.407867
    29  H    0.302561
    30  H    0.336323
 Sum of APT charges =   0.00000
 APT charges with hydrogens summed into heavy atoms:
               1
     1  O   -0.174188
     2  C   -0.052259
     3  N    0.032402
     4  C    0.562899
     5  C   -0.549074
     6  O    0.304163
     7  O    0.108290
     8  C   -0.749329
     9  C    0.576604
    10  C   -0.534070
    11  N   -0.113934
    12  C    0.417705
    13  N    0.051188
    14  C    0.455036
    15  C   -0.632090
    16  N    0.296657
 Electronic spatial extent (au):  <R**2>=           4684.5253
 Charge=              0.0000 electrons
 Dipole moment (field-independent basis, Debye):
    X=             -1.2154    Y=             -1.4492    Z=             -1.6755  Tot=              2.5268
 Quadrupole moment (field-independent basis, Debye-Ang):
   XX=           -106.1038   YY=            -95.6345   ZZ=           -117.6852
   XY=            -11.5220   XZ=              8.2892   YZ=             10.0739
 Traceless Quadrupole moment (field-independent basis, Debye-Ang):
   XX=              0.3707   YY=             10.8400   ZZ=            -11.2107
   XY=            -11.5220   XZ=              8.2892   YZ=             10.0739
 Octapole moment (field-independent basis, Debye-Ang**2):
  XXX=            -56.0944  YYY=            -28.3538  ZZZ=            -70.7426  XYY=            -22.2857
  XXY=              6.0786  XXZ=            -43.7878  XZZ=            -81.0106  YZZ=            -57.0459
  YYZ=             -8.2231  XYZ=             -0.9970
 Hexadecapole moment (field-independent basis, Debye-Ang**3):
 XXXX=          -4193.3329 YYYY=           -968.5303 ZZZZ=          -1777.0191 XXXY=           -827.8995
 XXXZ=            411.1920 YYYX=           -550.5682 YYYZ=            350.2287 ZZZX=            266.5713
 ZZZY=            393.2621 XXYY=           -765.2598 XXZZ=           -962.3002 YYZZ=           -536.0806
 XXYZ=            171.7691 YYXZ=            140.1084 ZZXY=           -307.4913
 N-N= 1.127657762408D+03 E-N=-4.115029559939D+03  KE= 7.934924720361D+02
  Exact polarizability:   0.000   0.000   0.000   0.000   0.000   0.000
 Approx polarizability: 189.856  20.391 208.422   1.166 -15.776 220.148
 Calling FoFJK, ICntrl=    100147 FMM=F ISym2X=0 I1Cent= 0 IOpClX= 0 NMat=1 NMatS=1 NMatT=0.
 -------------------------------------------------------------------
 Center     Atomic                   Forces (Hartrees/Bohr)
 Number     Number              X              Y              Z
 -------------------------------------------------------------------
      1        8          -0.003400201   -0.002242312    0.005118195
      2        6          -0.000072478    0.001468938   -0.002678683
      3        7           0.001717401   -0.001497931    0.003525204
      4        6           0.001339941   -0.002372905   -0.006282503
      5        6          -0.001749863    0.000303151    0.003701478
      6        8           0.004017425    0.002448592    0.000605510
      7        8           0.001471853    0.001770790    0.003567331
      8        6           0.001671308   -0.001603818   -0.000763555
      9        6           0.000881682   -0.007136211    0.007759131
     10        6          -0.004382517    0.005512069   -0.010612136
     11        7          -0.000127793   -0.002043570   -0.002730861
     12        6           0.000248839   -0.000176083   -0.003327917
     13        7           0.001465505    0.003984536    0.004603417
     14        6          -0.000054469    0.000378132   -0.002230564
     15        6          -0.001961949   -0.001023951    0.001599314
     16        7           0.001240450    0.000810048   -0.001290131
     17        1           0.001317653    0.002732015   -0.005012809
     18        1          -0.000364978   -0.001826267    0.000792012
     19        1          -0.003458168   -0.002554312    0.000546533
     20        1           0.000771459    0.000257446   -0.000123613
     21        1           0.000748203   -0.000107845   -0.000049014
     22        1           0.000952115    0.000777623    0.000560275
     23        1           0.000134654    0.003559199   -0.001092702
     24        1           0.001562974    0.000038473    0.001641420
     25        1           0.000530759    0.000200761    0.000354692
     26        1           0.000802897   -0.000000495    0.000134854
     27        1          -0.000568738   -0.001417678    0.001153452
     28        1          -0.000518087   -0.000614927    0.001980717
     29        1          -0.002327942    0.001652019    0.000176256
     30        1          -0.001887935   -0.001275486   -0.001625304
 -------------------------------------------------------------------
 Cartesian Forces:  Max     0.010612136 RMS     0.002660856
 FormGI is forming the generalized inverse of G from B-inverse, IUseBI=4.
 GSVD:  received Info=                   1 from GESDD.

 GradGradGradGradGradGradGradGradGradGradGradGradGradGradGradGradGradGrad
 Berny optimization.
 Internal  Forces:  Max     0.011635938 RMS     0.002729132
 Search for a local minimum.
 Step number   1 out of a maximum of  160
 All quantities printed in internal units (Hartrees-Bohrs-Radians)
 Mixed Optimization -- RFO/linear search
 Second derivative matrix not updated -- analytic derivatives used.
 ITU=  0
     Eigenvalues ---   -0.00112   0.00231   0.00276   0.00344   0.00407
     Eigenvalues ---    0.00502   0.00707   0.00930   0.01110   0.01724
     Eigenvalues ---    0.02108   0.02135   0.02672   0.03018   0.03386
     Eigenvalues ---    0.03898   0.04047   0.04203   0.04376   0.04381
     Eigenvalues ---    0.04670   0.04957   0.05140   0.05431   0.05740
     Eigenvalues ---    0.06203   0.06665   0.07461   0.07690   0.08302
     Eigenvalues ---    0.08766   0.10348   0.10783   0.10798   0.11646
     Eigenvalues ---    0.11900   0.12265   0.13680   0.14674   0.16048
     Eigenvalues ---    0.18155   0.18314   0.18556   0.19481   0.20483
     Eigenvalues ---    0.21048   0.21891   0.22633   0.23155   0.23781
     Eigenvalues ---    0.25027   0.25597   0.27398   0.28662   0.29333
     Eigenvalues ---    0.30844   0.32164   0.32600   0.33048   0.33285
     Eigenvalues ---    0.33572   0.33746   0.33978   0.34193   0.34444
     Eigenvalues ---    0.36452   0.36623   0.37677   0.37776   0.39008
     Eigenvalues ---    0.41587   0.44168   0.45050   0.45107   0.45269
     Eigenvalues ---    0.45964   0.47484   0.47708   0.49316   0.57895
     Eigenvalues ---    0.58921   0.68883   0.79612   0.86146
 RFO step:  Lambda=-3.76256098D-03 EMin=-1.11932148D-03
 Linear search not attempted -- first point.
 Iteration  1 RMS(Cart)=  0.13798357 RMS(Int)=  0.02674726
 Iteration  2 RMS(Cart)=  0.06496788 RMS(Int)=  0.00266828
 Iteration  3 RMS(Cart)=  0.00363667 RMS(Int)=  0.00013143
 Iteration  4 RMS(Cart)=  0.00000862 RMS(Int)=  0.00013135
 Iteration  5 RMS(Cart)=  0.00000000 RMS(Int)=  0.00013135
 Variable       Old X    -DE/DX   Delta X   Delta X   Delta X     New X
                                 (Linear)    (Quad)   (Total)
    R1        2.32801   0.00542   0.00000   0.00645   0.00645   2.33446
    R2        2.55205   0.00874   0.00000   0.01069   0.01069   2.56274
    R3        2.86014   0.00364   0.00000   0.01001   0.01001   2.87015
    R4        2.76005   0.00402   0.00000   0.00758   0.00758   2.76763
    R5        1.90078   0.00560   0.00000   0.01291   0.01291   1.91369
    R6        2.89964   0.00795   0.00000   0.02665   0.02665   2.92628
    R7        2.90350   0.00586   0.00000   0.01056   0.01056   2.91406
    R8        2.06397   0.00200   0.00000   0.00693   0.00693   2.07090
    R9        2.51591   0.00057   0.00000  -0.00448  -0.00448   2.51143
   R10        2.28275   0.00242   0.00000   0.00343   0.00343   2.28618
   R11        1.85929   0.00400   0.00000   0.01254   0.01254   1.87183
   R12        2.82142   0.00553   0.00000   0.00621   0.00621   2.82762
   R13        2.06569  -0.00025   0.00000  -0.00041  -0.00041   2.06528
   R14        2.06547   0.00066   0.00000   0.00041   0.00041   2.06587
   R15        2.57913   0.01164   0.00000   0.02307   0.02311   2.60223
   R16        2.59284   0.00773   0.00000   0.01530   0.01533   2.60816
   R17        2.61142  -0.00259   0.00000  -0.01184  -0.01184   2.59958
   R18        2.04381  -0.00111   0.00000  -0.00227  -0.00227   2.04154
   R19        2.48280   0.00152   0.00000   0.00234   0.00230   2.48510
   R20        2.56149   0.00746   0.00000   0.01308   0.01306   2.57455
   R21        2.03150   0.00327   0.00000   0.00822   0.00822   2.03973
   R22        1.91199   0.00188   0.00000   0.00401   0.00401   1.91600
   R23        2.88787   0.00647   0.00000   0.01881   0.01881   2.90668
   R24        2.07364  -0.00036   0.00000   0.00016   0.00016   2.07381
   R25        2.07373  -0.00009   0.00000  -0.00174  -0.00174   2.07199
   R26        2.75805   0.00407   0.00000   0.00338   0.00338   2.76144
   R27        2.05935   0.00143   0.00000   0.00208   0.00208   2.06143
   R28        2.05883   0.00165   0.00000   0.00662   0.00662   2.06545
   R29        1.91580   0.00199   0.00000   0.00181   0.00181   1.91762
   R30        1.91595   0.00192   0.00000   0.00161   0.00161   1.91757
    A1        2.10066   0.00412   0.00000   0.01086   0.01084   2.11150
    A2        2.15347  -0.00397   0.00000  -0.01154  -0.01156   2.14192
    A3        2.02905  -0.00015   0.00000   0.00065   0.00063   2.02969
    A4        2.12096   0.00658   0.00000   0.02646   0.02642   2.14738
    A5        2.10174  -0.00185   0.00000  -0.00159  -0.00162   2.10012
    A6        2.06032  -0.00473   0.00000  -0.02512  -0.02516   2.03517
    A7        1.94621  -0.00021   0.00000   0.00338   0.00334   1.94955
    A8        1.92397  -0.00281   0.00000  -0.00601  -0.00602   1.91795
    A9        1.86435   0.00093   0.00000   0.00551   0.00552   1.86987
   A10        1.98433   0.00440   0.00000  -0.00673  -0.00674   1.97759
   A11        1.85365  -0.00226   0.00000  -0.00424  -0.00423   1.84942
   A12        1.88499  -0.00019   0.00000   0.00933   0.00933   1.89432
   A13        2.00045   0.00086   0.00000   0.00653   0.00651   2.00695
   A14        2.15452   0.00344   0.00000  -0.00184  -0.00186   2.15266
   A15        2.12812  -0.00432   0.00000  -0.00483  -0.00485   2.12327
   A16        1.91521   0.00308   0.00000   0.01477   0.01477   1.92998
   A17        2.01076   0.00642   0.00000   0.00211   0.00210   2.01286
   A18        1.87488  -0.00265   0.00000   0.00073   0.00073   1.87560
   A19        1.87820  -0.00035   0.00000   0.00682   0.00681   1.88501
   A20        1.88627  -0.00275   0.00000  -0.00638  -0.00638   1.87989
   A21        1.93732  -0.00156   0.00000  -0.00165  -0.00167   1.93564
   A22        1.87078   0.00053   0.00000  -0.00187  -0.00189   1.86889
   A23        2.30392  -0.00423   0.00000  -0.00789  -0.00798   2.29594
   A24        2.14503   0.00774   0.00000   0.01574   0.01565   2.16068
   A25        1.83422  -0.00351   0.00000  -0.00776  -0.00770   1.82652
   A26        1.93024   0.00243   0.00000   0.00568   0.00559   1.93583
   A27        2.23274  -0.00102   0.00000  -0.00518  -0.00539   2.22735
   A28        2.12012  -0.00140   0.00000  -0.00009  -0.00029   2.11983
   A29        1.83256   0.00085   0.00000   0.00262   0.00264   1.83519
   A30        1.94854   0.00185   0.00000   0.00349   0.00348   1.95201
   A31        2.20963  -0.00274   0.00000  -0.01474  -0.01474   2.19489
   A32        2.12502   0.00090   0.00000   0.01126   0.01126   2.13628
   A33        1.87918  -0.00161   0.00000  -0.00396  -0.00396   1.87522
   A34        2.15623   0.00075   0.00000  -0.00179  -0.00185   2.15437
   A35        2.24752   0.00088   0.00000   0.00541   0.00535   2.25287
   A36        1.96855   0.00332   0.00000   0.01475   0.01468   1.98323
   A37        1.89987  -0.00133   0.00000  -0.02094  -0.02090   1.87897
   A38        1.89855  -0.00165   0.00000   0.00542   0.00527   1.90382
   A39        1.92087  -0.00049   0.00000  -0.00293  -0.00286   1.91801
   A40        1.91996  -0.00042   0.00000   0.00441   0.00427   1.92423
   A41        1.85221   0.00038   0.00000  -0.00185  -0.00184   1.85037
   A42        2.00731   0.00039   0.00000   0.00149   0.00149   2.00880
   A43        1.90197   0.00057   0.00000   0.00467   0.00467   1.90664
   A44        1.90250   0.00052   0.00000   0.00619   0.00620   1.90870
   A45        1.89415  -0.00052   0.00000   0.00061   0.00060   1.89475
   A46        1.89139  -0.00035   0.00000  -0.00382  -0.00383   1.88756
   A47        1.86109  -0.00072   0.00000  -0.01023  -0.01024   1.85085
   A48        1.92590   0.00263   0.00000   0.02689   0.02631   1.95220
   A49        1.92649   0.00260   0.00000   0.02435   0.02376   1.95025
   A50        1.86195  -0.00097   0.00000   0.01700   0.01593   1.87787
    D1        0.11283   0.00103   0.00000   0.03865   0.03866   0.15149
    D2       -3.04821   0.00079   0.00000   0.02256   0.02246  -3.02575
    D3       -3.02683   0.00061   0.00000   0.04998   0.05008  -2.97675
    D4        0.09531   0.00038   0.00000   0.03389   0.03388   0.12919
    D5       -0.00867  -0.00012   0.00000   0.29993   0.29984   0.29117
    D6       -2.14584  -0.00077   0.00000   0.30874   0.30873  -1.83711
    D7        2.12640   0.00038   0.00000   0.31926   0.31925   2.44566
    D8        3.13093   0.00032   0.00000   0.28825   0.28823  -2.86403
    D9        0.99375  -0.00034   0.00000   0.29706   0.29712   1.29087
   D10       -1.01719   0.00082   0.00000   0.30758   0.30764  -0.70955
   D11       -1.39221   0.00257   0.00000   0.04582   0.04584  -1.34637
   D12        2.66964  -0.00089   0.00000   0.05678   0.05682   2.72645
   D13        0.62588   0.00029   0.00000   0.04572   0.04577   0.67164
   D14        1.76839   0.00277   0.00000   0.06130   0.06125   1.82964
   D15       -0.45295  -0.00069   0.00000   0.07226   0.07223  -0.38073
   D16       -2.49671   0.00049   0.00000   0.06121   0.06118  -2.43553
   D17        1.09875   0.00056   0.00000  -0.00686  -0.00686   1.09189
   D18       -2.05769  -0.00028   0.00000  -0.01802  -0.01802  -2.07571
   D19       -2.99621   0.00009   0.00000  -0.01757  -0.01758  -3.01379
   D20        0.13053  -0.00075   0.00000  -0.02873  -0.02874   0.10179
   D21       -0.92589   0.00087   0.00000  -0.01271  -0.01270  -0.93859
   D22        2.20085   0.00004   0.00000  -0.02386  -0.02386   2.17699
   D23        0.89912  -0.00127   0.00000  -0.00537  -0.00536   0.89376
   D24       -1.20354   0.00006   0.00000   0.00090   0.00092  -1.20262
   D25        3.07037   0.00094   0.00000  -0.00067  -0.00065   3.06971
   D26       -1.30090  -0.00212   0.00000   0.00021   0.00018  -1.30072
   D27        2.87963  -0.00079   0.00000   0.00647   0.00645   2.88608
   D28        0.87034   0.00009   0.00000   0.00490   0.00489   0.87523
   D29        2.93003  -0.00180   0.00000   0.00329   0.00329   2.93332
   D30        0.82737  -0.00046   0.00000   0.00956   0.00957   0.83693
   D31       -1.18191   0.00041   0.00000   0.00799   0.00800  -1.17391
   D32       -0.02766  -0.00030   0.00000  -0.04058  -0.04058  -0.06824
   D33        3.12854   0.00045   0.00000  -0.02964  -0.02965   3.09888
   D34       -2.06428   0.00260   0.00000   0.09626   0.09624  -1.96804
   D35        1.06968   0.00319   0.00000   0.11609   0.11611   1.18579
   D36        0.03214   0.00135   0.00000   0.09389   0.09386   0.12599
   D37       -3.11709   0.00195   0.00000   0.11371   0.11373  -3.00336
   D38        2.07895  -0.00053   0.00000   0.08686   0.08685   2.16580
   D39       -1.07028   0.00007   0.00000   0.10669   0.10672  -0.96356
   D40        3.12584   0.00082   0.00000   0.02423   0.02411  -3.13324
   D41       -0.00199  -0.00003   0.00000  -0.00978  -0.00985  -0.01184
   D42       -0.00912   0.00026   0.00000   0.00691   0.00695  -0.00216
   D43       -3.13695  -0.00059   0.00000  -0.02710  -0.02700   3.11924
   D44       -3.12780  -0.00073   0.00000  -0.02131  -0.02140   3.13398
   D45       -0.00856   0.00009   0.00000  -0.03634  -0.03637  -0.04493
   D46        0.00791  -0.00029   0.00000  -0.00608  -0.00606   0.00186
   D47        3.12716   0.00054   0.00000  -0.02111  -0.02103   3.10613
   D48        0.00673  -0.00016   0.00000  -0.00506  -0.00512   0.00161
   D49        3.13559   0.00064   0.00000   0.02634   0.02635  -3.12124
   D50       -0.00152  -0.00001   0.00000   0.00111   0.00114  -0.00037
   D51        3.13813  -0.00016   0.00000   0.00657   0.00654  -3.13852
   D52       -0.00411   0.00017   0.00000   0.00313   0.00314  -0.00097
   D53       -3.12181  -0.00071   0.00000   0.01933   0.01937  -3.10244
   D54        3.13932   0.00031   0.00000  -0.00198  -0.00201   3.13731
   D55        0.02162  -0.00057   0.00000   0.01422   0.01422   0.03584
   D56       -3.13228  -0.00009   0.00000   0.02021   0.02024  -3.11204
   D57       -1.00148  -0.00006   0.00000   0.02564   0.02567  -0.97581
   D58        1.02331  -0.00031   0.00000   0.01943   0.01945   1.04276
   D59       -1.00692   0.00014   0.00000   0.00135   0.00135  -1.00557
   D60        1.12388   0.00017   0.00000   0.00677   0.00678   1.13066
   D61       -3.13452  -0.00008   0.00000   0.00057   0.00057  -3.13395
   D62        1.02791   0.00005   0.00000  -0.00003  -0.00006   1.02784
   D63       -3.12448   0.00009   0.00000   0.00539   0.00536  -3.11912
   D64       -1.09969  -0.00016   0.00000  -0.00082  -0.00085  -1.10054
   D65       -1.02908  -0.00104   0.00000  -0.01049  -0.01076  -1.03984
   D66        1.02462   0.00098   0.00000   0.04187   0.04215   1.06677
   D67        3.11909  -0.00166   0.00000  -0.01808  -0.01835   3.10075
   D68       -1.11039   0.00037   0.00000   0.03428   0.03457  -1.07582
   D69        1.10452  -0.00035   0.00000  -0.00432  -0.00461   1.09991
   D70       -3.12497   0.00167   0.00000   0.04804   0.04831  -3.07666
         Item               Value     Threshold  Converged?
 Maximum Force            0.011636     0.000450     NO 
 RMS     Force            0.002729     0.000300     NO 
 Maximum Displacement     0.939399     0.001800     NO 
 RMS     Displacement     0.192499     0.001200     NO 
 Predicted change in Energy=-2.501728D-03
 GradGradGradGradGradGradGradGradGradGradGradGradGradGradGradGradGradGrad

                          Input orientation:                          
 ---------------------------------------------------------------------
 Center     Atomic      Atomic             Coordinates (Angstroms)
 Number     Number       Type             X           Y           Z
 ---------------------------------------------------------------------
      1          8           0       -1.105313   -1.555146    1.904432
      2          6           0       -1.117189   -0.949046    0.828059
      3          7           0        0.027132   -0.458378    0.290569
      4          6           0        1.355455   -0.760138    0.828580
      5          6           0        1.655585    0.060903    2.106756
      6          8           0        0.845587   -0.180655    3.132314
      7          8           0        2.571349    0.846804    2.192403
      8          6           0        2.419994   -0.584796   -0.273210
      9          6           0        2.374504    0.719257   -1.005557
     10          6           0        2.060807    1.022829   -2.311576
     11          7           0        2.166454    2.375186   -2.540388
     12          6           0        2.541618    2.890103   -1.389958
     13          7           0        2.682830    1.934742   -0.428991
     14          6           0       -2.387362   -0.724721    0.026096
     15          6           0       -3.675596   -0.944830    0.837211
     16          7           0       -4.917530   -0.775155    0.086095
     17          1           0       -0.005212    0.121982   -0.538684
     18          1           0        1.346514   -1.810688    1.140359
     19          1           0        0.133716   -0.817986    2.871158
     20          1           0        2.269167   -1.382456   -1.004928
     21          1           0        3.402812   -0.744664    0.178041
     22          1           0        1.782331    0.337829   -3.099200
     23          1           0        2.721016    3.936620   -1.195859
     24          1           0        2.928594    2.043006    0.548699
     25          1           0       -2.364657   -1.408884   -0.831644
     26          1           0       -2.371821    0.287900   -0.394095
     27          1           0       -3.663441   -1.947768    1.266101
     28          1           0       -3.692920   -0.254236    1.684211
     29          1           0       -4.998377    0.158015   -0.304280
     30          1           0       -4.985951   -1.435624   -0.681228
 ---------------------------------------------------------------------
                    Distance matrix (angstroms):
                    1          2          3          4          5
     1  O    0.000000
     2  C    1.235345   0.000000
     3  N    2.256077   1.356142   0.000000
     4  C    2.800870   2.479849   1.464567   0.000000
     5  C    3.205481   3.216106   2.494003   1.548522   0.000000
     6  O    2.683828   3.122900   2.970272   2.429600   1.328990
     7  O    4.401151   4.323403   3.434168   2.433243   1.209793
     8  C    4.255760   3.722517   2.461629   1.542053   2.581760
     9  C    5.074453   4.282208   2.928639   2.567320   3.261406
    10  C    5.868985   4.883161   3.619525   3.679276   4.539952
    11  N    6.775573   5.760145   4.540936   4.673106   5.216593
    12  C    6.626715   5.748524   4.512110   4.433188   4.584369
    13  N    5.654574   4.933209   3.646577   3.256653   3.316100
    14  C    2.421033   1.518818   2.443495   3.828043   4.614301
    15  C    2.849175   2.558427   3.774340   5.034447   5.571780
    16  N    4.295083   3.875996   4.959016   6.316791   6.927331
    17  H    3.160980   2.061936   1.012682   2.121075   3.124153
    18  H    2.580806   2.628648   2.071631   1.095875   2.128920
    19  H    1.735845   2.399207   2.607704   2.380781   1.916466
    20  H    4.458847   3.874932   2.749355   2.141005   3.484588
    21  H    4.894945   4.571072   3.389666   2.148281   2.724276
    22  H    6.079323   5.048428   3.899385   4.100635   5.214857
    23  H    7.376455   6.534354   5.364931   5.293642   5.202268
    24  H    5.572891   5.039719   3.839536   3.226564   2.824327
    25  H    3.015535   2.126557   2.807753   4.125100   5.191996
    26  H    3.206882   2.144248   2.603973   4.060284   4.746134
    27  H    2.665640   2.769969   4.097594   5.176022   5.747478
    28  H    2.904578   2.801811   3.977775   5.145302   5.374417
    29  H    4.792627   4.191825   5.097992   6.519015   7.077975
    30  H    4.664684   4.181151   5.199077   6.553566   7.356796
                    6          7          8          9         10
     6  O    0.000000
     7  O    2.217512   0.000000
     8  C    3.773549   2.855106   0.000000
     9  C    4.502155   3.206550   1.496314   0.000000
    10  C    5.706230   4.536238   2.620765   1.377043   0.000000
    11  N    6.360547   4.989910   3.737094   2.267398   1.375640
    12  C    5.723375   4.124229   3.651964   2.210941   2.137118
    13  N    4.531364   2.840377   2.537996   1.380180   2.182344
    14  C    4.516255   5.634837   4.818696   5.081806   5.320231
    15  C    5.127626   6.638585   6.206357   6.539777   6.833217
    16  N    6.545716   7.946734   7.348782   7.523213   7.594654
    17  H    3.780433   3.823985   2.540007   2.497550   2.867596
    18  H    2.622178   3.109546   2.157162   3.473088   4.522708
    19  H    0.990532   3.028909   3.894675   4.734255   5.827779
    20  H    4.537365   3.909456   1.092897   2.104352   2.745203
    21  H    3.947813   2.698472   1.093214   2.145084   3.335146
    22  H    6.322822   5.374259   3.040406   2.208958   1.080336
    23  H    6.261171   4.587992   4.624402   3.241559   3.189181
    24  H    3.994827   2.064045   2.799919   2.115428   3.158320
    25  H    5.246635   6.212660   4.887111   5.197969   5.261954
    26  H    4.796543   5.606895   4.872136   4.804952   4.885187
    27  H    5.190065   6.894945   6.421476   6.980705   7.375041
    28  H    4.764500   6.380565   6.427167   6.707919   7.120574
    29  H    6.787989   8.000537   7.455532   7.427392   7.389805
    30  H    7.079893   8.401191   7.465816   7.676262   7.639295
                   11         12         13         14         15
    11  N    0.000000
    12  C    1.315058   0.000000
    13  N    2.217800   1.362392   0.000000
    14  C    6.077295   6.274314   5.743405   0.000000
    15  C    7.520653   7.636802   7.093996   1.538148   0.000000
    16  N    8.185713   8.441075   8.085439   2.531382   1.461289
    17  H    3.714819   3.856618   3.244025   2.590468   4.062375
    18  H    5.633981   5.470669   4.275143   4.045088   5.105212
    19  H    6.604030   6.140442   4.996647   3.802488   4.320172
    20  H    4.060550   4.298516   3.392142   4.814446   6.239006
    21  H    4.318785   4.051149   2.840085   5.792202   7.111851
    22  H    2.147241   3.164195   3.238989   5.318161   6.850512
    23  H    2.133864   1.079377   2.144075   7.022592   8.299311
    24  H    3.199010   2.150748   1.013903   6.016046   7.254358
    25  H    6.145727   6.547102   6.067874   1.097412   2.172322
    26  H    5.436845   5.648460   5.316278   1.096451   2.176135
    27  H    8.195424   8.304361   7.630359   2.159128   1.090862
    28  H    7.687220   7.629341   7.064519   2.162217   1.092991
    29  H    7.826291   8.092869   7.885001   2.775927   2.066160
    30  H    8.314785   8.710827   8.380525   2.785382   2.064841
                   16         17         18         19         20
    16  N    0.000000
    17  H    5.032502   0.000000
    18  H    6.435996   2.895093   0.000000
[...]
 5,-0.00270805,0.00130807,-0.00344649,-0.00618722,-0.00509503,0.0000820
 5,-0.00056438,0.00073796,0.00001636,-0.00079856,-0.00527281,0.00029120
 ,-0.00065283,0.00166971,-0.00071696,0.00264530,0.00261792,-0.00018184,
 -0.00285640,-0.00824776,-0.09667546,-0.04590900,-0.41330407,-0.0001013
 0,0.00004784,0.00009855,0.00007618,-0.00000348,-0.00003155,-0.00009003
 ,0.00001615,-0.00003250,-0.00053724,-0.00040929,0.00036373,0.00009766,
 -0.00008339,-0.00048541,0.00072232,0.00104054,0.00084660,0.00006218,0.
 00036240,-0.00030381,-0.00017814,0.00007788,0.00017900,-0.00039005,0.0
 0010524,0.00042804,0.00024917,0.00013503,0.00020302,0.09774284,0.04928
 600,0.42352648,0.00123862,0.00265603,0.00221036,-0.01149191,-0.0300458
 4,-0.00839944,-0.00335750,0.00227609,-0.00174101,-0.00064749,0.0006249
 1,0.00101930,0.00009852,0.00016069,0.00059292,0.00032988,0.00023927,-0
 .00011503,-0.00003434,-0.00008749,-0.00012959,-0.00031672,0.00011292,-
 0.00038485,-0.00002170,0.00001458,0.00001119,-0.00002579,-0.00000535,-
 0.00006438,0.00000322,-0.00005338,0.00002730,0.00001368,-0.00001656,0.
 00002104,0.00000700,0.00005091,0.00004423,-0.06524661,-0.07309004,-0.0
 2466593,0.00488796,0.02469893,0.00825089,0.00329914,-0.00052113,-0.000
 05318,0.00033806,-0.00035432,-0.00073037,-0.00028608,-0.00005032,-0.00
 008100,-0.00030888,-0.00026343,-0.00012567,-0.00000608,0.00000622,0.00
 002563,-0.00010831,-0.00004928,0.00013928,-0.00000516,-0.00000139,0.00
 000665,-0.00000036,-0.00000151,0.00000259,0.00001122,0.00002399,-0.000
 00695,0.07659104,0.00061783,0.00035610,0.00027082,-0.00016686,0.002960
 20,0.00198124,0.00005703,-0.00001362,-0.00050878,0.00026853,-0.0000999
 8,-0.00025609,-0.00013751,-0.00004392,0.00012482,0.00014839,0.00008045
 ,-0.00002010,0.00003474,0.00002955,-0.00004618,0.00004428,-0.00003567,
 0.00001573,-0.00000618,-0.00000376,0.00002256,-0.00002661,-0.00002334,
 -0.00001737,-0.00001975,0.00002139,0.00001125,0.00000405,0.00001751,-0
 .00000342,-0.00001419,0.00000096,0.00000493,-0.07203366,-0.26154124,-0
 .06099274,-0.00324252,-0.01452240,-0.00577881,-0.00088980,0.00223393,0
 .00132735,0.00044375,0.00002142,-0.00011220,-0.00007510,-0.00000541,-0
 .00002301,-0.00018770,-0.00008269,-0.00014090,-0.00000350,0.00000364,0
 .00000644,0.00001086,0.00000802,-0.00000925,0.00000570,-0.00000393,-0.
 00000225,0.00000656,0.00000264,-0.00000209,0.00001772,-0.00000429,0.00
 000678,0.07643818,0.28424590,-0.00004056,0.00273819,0.00047385,-0.0040
 9059,-0.01746847,-0.00462183,-0.00103095,0.00074174,-0.00086322,-0.000
 15848,-0.00018292,0.00047074,0.00011803,0.00011331,0.00012407,0.000029
 71,0.00009757,-0.00001289,-0.00007106,-0.00009164,-0.00003959,-0.00015
 099,0.00011194,-0.00015201,0.00000193,0.00000720,-0.00003493,0.0000213
 4,0.00002839,-0.00000278,0.00002661,-0.00004736,0.00000737,-0.00000718
 ,-0.00002130,-0.00000640,0.00000995,0.00001420,0.00003446,-0.02412771,
 -0.06110226,-0.06472796,-0.00349361,-0.02015103,-0.00740003,-0.0015997
 3,0.00199329,0.00047622,-0.00042237,0.00014835,0.00009025,-0.00000292,
 -0.00003915,0.00004027,-0.00002584,-0.00013420,-0.00001660,0.00001217,
 -0.00000353,0.00000320,-0.00004248,-0.00002663,0.00005554,-0.00000819,
 0.00000679,0.00000221,-0.00000202,-0.00000140,0.00000132,-0.00000035,0
 .00001752,-0.00001846,0.02326507,0.07011651,0.06845026,-0.00636377,0.0
 0079170,-0.00647542,0.00885042,0.01703190,-0.02170517,-0.00037548,-0.0
 0038861,0.00068988,0.00047363,0.00008370,0.00005364,0.00044688,0.00012
 867,-0.00046208,-0.00067061,-0.00061126,0.00007681,-0.00021214,-0.0001
 3778,0.00012458,0.00004633,-0.00000876,0.00007066,-0.00000568,-0.00000
 456,-0.00010975,0.00008136,-0.00000588,0.00002160,0.00001518,-0.000030
 23,0.00000098,-0.00000603,0.00002324,0.00003113,0.00000318,0.00002666,
 0.00004216,-0.05607419,-0.02457467,0.03255365,-0.00487341,-0.01325670,
 0.02119793,0.00252722,-0.00068362,-0.00070728,-0.00158790,-0.00035272,
 -0.00068291,0.00011837,0.00000323,-0.00000960,0.00071248,0.00087509,0.
 00052029,-0.00001507,0.00000722,0.00000947,0.00002876,0.00000078,-0.00
 002167,-0.00004042,0.00000517,0.00003162,0.00000012,0.00000002,0.00000
 368,-0.00000081,0.00002253,-0.00004291,-0.00181343,-0.00489207,0.00878
 656,0.06203915,0.00155452,0.00237284,0.00120915,-0.00339288,-0.0048448
 4,0.00076403,-0.00017032,0.00017454,-0.00101283,0.00025904,-0.00000651
 ,-0.00021347,-0.00038886,-0.00012903,0.00025867,0.00048218,0.00030544,
 -0.00003946,0.00018121,0.00012906,-0.00007786,0.00000926,0.00001510,0.
 00008769,0.00005317,0.00002813,0.00003063,-0.00001906,0.00003679,0.000
 06846,-0.00001384,0.00000875,-0.00004002,-0.00000269,-0.00002459,-0.00
 000842,-0.00001266,-0.00004233,-0.00008525,-0.02041836,-0.12388261,0.1
 1554176,0.00329257,0.00796948,-0.01271166,-0.00173549,0.00046901,-0.00
 057524,0.00014229,0.00094197,0.00001924,-0.00003034,0.00004072,-0.0000
 2062,-0.00046572,-0.00036794,-0.00034364,0.00001843,-0.00001863,-0.000
 01407,0.00000426,0.00000744,-0.00002017,0.00004483,-0.00000626,-0.0000
 3439,-0.00000650,-0.00000351,-0.00000324,-0.00001372,-0.00002575,0.000
 04150,-0.00354554,-0.01489395,0.02425354,0.02249658,0.13113745,-0.0048
 1851,0.00061857,-0.00145131,0.00847897,0.00925866,-0.01428319,0.000920
 60,-0.00077666,0.00114017,-0.00035909,-0.00024048,0.00028579,0.0005169
 3,0.00020952,-0.00048922,-0.00057164,-0.00044158,0.00015417,-0.0002260
 6,-0.00016902,0.00013681,-0.00003057,0.00003773,-0.00003991,-0.0000070
 5,-0.00001107,-0.00007135,0.00005617,0.00002603,0.00001254,0.00005985,
 -0.00004284,0.00001467,-0.00002059,-0.00001672,-0.00001757,0.00002488,
 0.00001063,0.00005524,0.02814556,0.11490883,-0.22092711,0.00248657,0.0
 1024559,-0.01642078,-0.00096782,-0.00075316,0.00218751,-0.00137955,-0.
 00035516,0.00062538,0.00017586,-0.00006729,0.00008922,0.00050684,0.000
 59960,0.00037287,-0.00000974,0.00000467,0.00000587,0.00000639,-0.00000
 516,0.00000797,-0.00002058,0.00000810,0.00001943,-0.00000900,-0.000002
 70,0.00000342,-0.00002080,0.00002799,-0.00005716,-0.00096092,-0.004444
 06,0.00782771,-0.03478079,-0.12617835,0.24098199,0.00072670,0.00071212
 ,-0.00205235,0.00032600,-0.00228618,0.00375135,0.00006701,0.00046821,-
 0.00070086,0.00001331,-0.00003330,-0.00008057,-0.00032349,-0.00012495,
 0.00028001,0.00032923,0.00015084,-0.00014503,0.00013017,0.00009618,-0.
 00007382,-0.00001005,0.00000559,0.00000032,0.00002086,0.00000468,0.000
 03989,-0.00002777,0.00000128,0.00000231,-0.00002144,0.00002014,-0.0000
 1344,0.00000556,-0.00000127,0.00000047,-0.00000825,-0.00001631,-0.0000
 4007,-0.00557418,-0.01161432,0.02022669,-0.05179471,-0.02413867,0.0317
 5919,-0.00250557,0.02256164,-0.03027786,0.00034639,0.00015745,0.000072
 46,-0.00004756,0.00001762,-0.00000860,-0.00032945,-0.00013617,-0.00012
 062,0.00000889,-0.00000429,-0.00000701,-0.00000700,0.00000436,-0.00000
 009,0.00001902,-0.00000410,-0.00001284,0.00000169,0.00000046,-0.000002
 32,0.00000133,-0.00001877,0.00003200,0.00110881,0.00013084,-0.00071394
 ,-0.00339266,0.00253235,0.00230157,0.06556897,0.00014825,-0.00059318,-
 0.00045178,-0.00024273,0.00048435,0.00024787,0.00008388,0.00019308,0.0
 0018766,-0.00000522,0.00003582,0.00004536,-0.00011003,-0.00010867,0.00
 012257,0.00010221,-0.00004439,-0.00012598,0.00006546,0.00007321,-0.000
 02567,-0.00001449,-0.00001466,0.00000188,0.00001491,0.00000188,-0.0000
 1224,0.00001214,-0.00001102,0.00000100,-0.00001419,0.00000947,-0.00001
 048,0.00000137,0.00000704,0.00001691,-0.00000916,0.00000507,-0.0000094
 2,0.00388093,0.00735620,-0.01335382,-0.02104888,-0.13092629,0.11998183
 ,0.00146548,-0.00030208,0.00175432,-0.00013160,-0.00011794,-0.00009592
 ,-0.00000448,-0.00001072,0.00000357,-0.00004494,0.00013471,0.00010977,
 -0.00000127,0.00000420,-0.00000379,-0.00000109,0.00000549,0.00000089,-
 0.00000648,0.00000115,0.00000676,0.00000556,0.00000198,0.00000004,0.00
 000326,-0.00001201,0.00001737,-0.00081570,0.00111189,0.00004457,0.0027
 9342,-0.00019685,-0.00208851,0.01695740,0.13623720,-0.00138693,-0.0005
 8499,0.00148707,-0.00078781,0.00123146,-0.00248599,0.00014926,0.000000
 81,0.00039729,-0.00001759,0.00007909,0.00009594,0.00011786,0.00000204,
 -0.00011315,-0.00010133,-0.00005980,0.00003038,-0.00002542,0.00000471,
 0.00004060,0.00000657,-0.00001384,0.00000368,-0.00000637,-0.00000851,-
 0.00002076,0.00001802,-0.00000131,-0.00000412,0.00001275,-0.00000445,0
 .00000745,-0.00000382,0.00000239,-0.00000316,0.00000396,0.00001051,0.0
 0002376,0.00736047,0.00919028,-0.01677288,0.02788047,0.11667016,-0.226
 61109,-0.00410397,0.01026390,-0.01277539,-0.00011453,-0.00019326,0.000
 00784,0.00003033,-0.00001066,0.00000013,0.00008205,0.00007728,0.000089
 53,-0.00000643,0.00000449,0.00000091,0.00000548,0.00000081,-0.00000016
 ,-0.00001444,0.00000367,0.00000908,0.00000010,0.00000108,0.00000079,-0
 .00000056,0.00000248,-0.00001106,-0.00067743,0.00008496,0.00055537,0.0
 0222239,-0.00180786,-0.00096266,-0.02784346,-0.12909881,0.24879656,-0.
 00009403,-0.00016895,-0.00062190,0.00208631,0.00080906,0.00111041,-0.0
 0004457,-0.00046674,-0.00015413,-0.00006898,0.00002289,0.00005819,-0.0
 0004083,0.00001760,0.00000929,-0.00000068,-0.00004696,-0.00001779,0.00
 001982,0.00000960,0.00000648,-0.00001577,0.00000703,0.00000047,0.00000
 732,0.00001594,0.00000436,-0.00000033,0.00000384,0.00000810,-0.0000008
 0,-0.00000023,-0.00000830,-0.00000115,-0.00001544,0.00000817,0.0000082
 3,-0.00000588,-0.00001672,0.00432408,0.02304098,0.00713206,-0.06483998
 ,-0.06131418,-0.01795349,-0.01904022,-0.03071178,-0.00988061,-0.000044
 47,0.00010422,0.00010885,0.00002550,0.00000700,0.00001046,0.00001885,0
 .00006020,0.00001697,0.00000450,-0.00000157,-0.00000528,-0.00000227,0.
 00000004,0.00000191,0.00000219,0.00000036,-0.00000359,-0.00000043,-0.0
 0000097,-0.00000008,-0.00001208,-0.00000511,0.00000458,-0.00350300,0.0
 0235957,0.00296123,0.00087077,-0.00074332,-0.00048093,-0.00097114,-0.0
 0376494,-0.00065867,0.08457163,0.00071848,0.00010526,0.00100291,-0.001
 51210,-0.00043390,-0.00157372,0.00084005,0.00050955,0.00028932,0.00004
 916,-0.00003732,-0.00004112,0.00026764,-0.00005848,-0.00029624,-0.0002
 0233,0.00018594,0.00020303,-0.00007299,0.00003306,0.00008033,0.0000293
 5,-0.00000804,0.00002788,-0.00000756,-0.00003537,-0.00002089,0.0000051
 4,-0.00001260,-0.00000634,-0.00000386,0.00001438,0.00002509,-0.0000061
 3,0.00003665,-0.00002654,-0.00001529,0.00000637,0.00005066,-0.00092295
 ,-0.01230281,-0.00307256,-0.06728438,-0.26785972,-0.06184687,-0.000180
 82,0.00562705,0.00060584,0.00002799,-0.00018636,-0.00011359,0.00001168
 ,0.00000303,-0.00000377,0.00002510,-0.00031028,-0.00013056,-0.00000934
 ,0.00000404,0.00001317,0.00001251,0.00000215,-0.00001353,-0.00000527,0
 .00000272,0.00000810,0.00000841,0.00000513,-0.00000321,0.00003166,0.00
 000172,-0.00002422,0.00200400,0.00055961,-0.00128741,0.00018261,0.0009
 2557,-0.00027655,-0.00481537,-0.01553218,-0.00470467,0.06989711,0.2861
 5927,0.00000383,-0.00022036,0.00038363,-0.00155942,-0.00027867,-0.0005
 7177,0.00038199,0.00049427,0.00006977,0.00002609,0.00001059,-0.0000600
 4,-0.00014198,-0.00012747,0.00011346,0.00014084,0.00003360,-0.00008446
 ,0.00007705,0.00009425,-0.00002818,0.00001211,-0.00003523,0.00001682,0
 .00001037,-0.00000665,0.00001953,-0.00001161,-0.00002488,-0.00000513,-
 0.00003455,0.00003104,-0.00001187,0.00000781,0.00002100,0.00001957,-0.
 00001812,-0.00000157,-0.00002307,-0.00095542,-0.01935590,-0.00561589,-
 0.01787774,-0.05816347,-0.06822191,-0.01069491,-0.01509083,-0.00383945
 ,0.00012774,-0.00016210,-0.00005441,-0.00000377,0.00000369,-0.00001602
 ,-0.00009487,0.00000327,-0.00000063,-0.00000327,0.00000468,0.00000096,
 0.00000216,0.00001178,-0.00000898,0.00000523,-0.00000188,0.00000242,0.
 00001065,0.00000404,-0.00000132,0.00001228,-0.00001738,0.00002681,0.00
 277756,-0.00167646,-0.00122183,-0.00098492,0.00027408,0.00040711,0.007
 90558,0.02392180,0.00908538,0.02300754,0.07087182,0.07147901,0.0000612
 8,-0.00022372,0.00106308,-0.00091265,-0.00002515,-0.00108141,0.0003555
 2,0.00008752,0.00012355,-0.00012416,0.00005070,-0.00000117,-0.00003643
 ,-0.00014130,-0.00012956,0.00006329,0.00008447,0.00008972,0.00007853,0
 .00011859,0.00006782,-0.00000295,-0.00000886,0.00004183,0.00001418,-0.
 00000172,-0.00004418,0.00004761,-0.00000402,0.00001294,0.00002663,0.00
 002017,-0.00001104,-0.00001136,-0.00000751,0.00000129,0.00001485,0.000
 00840,0.00000252,0.00236153,0.00052665,-0.00179878,-0.00157149,0.02345
 933,-0.03038873,-0.04218682,-0.04414401,0.01500408,-0.00014534,-0.0000
 4471,0.00004036,0.00002045,-0.00001491,0.00001700,-0.00009619,-0.00009
 378,-0.00011997,-0.00001148,0.00000487,0.00000096,0.00001593,0.0000095
 2,-0.00000743,-0.00002601,0.00000380,0.00001878,-0.00000199,0.00000039
 ,0.00000248,-0.00002034,-0.00001826,-0.00000375,-0.00013308,0.00004699
 ,0.00021377,-0.00065254,-0.00018614,0.00085487,-0.00492877,0.00017420,
 -0.00246605,0.00097958,-0.00056006,0.00060287,0.04858552,-0.00044795,0
 .00015098,-0.00067896,0.00097851,0.00040772,0.00068507,-0.00056048,-0.
 00034180,-0.00008374,0.00011963,-0.00008140,0.00001379,0.00009539,0.00
 024518,0.00008445,-0.00013520,-0.00015665,-0.00006314,-0.00011751,-0.0
 0019760,-0.00005543,-0.00000265,0.00003409,-0.00005082,-0.00003080,0.0
 0000347,0.00002806,-0.00002932,0.00003558,-0.00000692,0.00002168,-0.00
 005080,0.00001418,0.00000218,-0.00001331,-0.00002198,0.00000752,-0.000
 00576,0.00001257,-0.00196460,0.00004127,-0.00010566,0.00257311,-0.0006
 3704,0.00178482,-0.02611376,-0.15984315,0.16479620,0.00005661,0.000135
 40,-0.00002475,-0.00000853,0.00001080,-0.00000746,0.00017606,0.0001547
 9,0.00016118,0.00001251,-0.00000923,-0.00000272,-0.00001642,-0.0000160
 7,0.00001595,0.00001399,-0.00000336,-0.00001586,-0.00001201,-0.0000052
 3,0.00000002,-0.00000056,0.00003228,-0.00001391,0.00013443,-0.00032174
 ,0.00002923,0.00060645,-0.00000317,-0.00007778,-0.00037830,0.00177697,
 -0.00097931,0.00011570,0.00041795,-0.00061635,0.02639304,0.17804018,-0
 .00018616,-0.00003749,0.00022850,0.00063001,0.00010280,-0.00035635,-0.
 00018670,-0.00018467,0.00007067,0.00006621,-0.00000986,0.00000880,0.00
 006674,0.00012157,0.00000937,-0.00007573,-0.00006530,-0.00000383,-0.00
 005884,-0.00009488,-0.00001924,0.00000389,0.00001345,-0.00001767,-0.00
 001357,0.00000289,0.00001484,-0.00001486,0.00001286,0.00000035,0.00000
 542,-0.00002274,0.00000076,0.00000305,-0.00000501,-0.00000217,0.000003
 30,-0.00000290,-0.00000510,0.00039570,-0.00069708,0.00226942,0.0071216
 8,0.00688134,-0.01577350,-0.00686090,0.20205174,-0.30027817,0.00001660
 ,0.00006448,0.00001041,-0.00000101,0.00000224,-0.00000350,0.00009467,0
 .00004822,0.00005028,0.00000471,-0.00000425,-0.00000117,-0.00000531,-0
 .00000642,0.00000506,0.00000845,-0.00000330,-0.00000700,-0.00000656,-0
 .00000311,0.00000077,-0.00000205,0.00001596,-0.00000563,-0.00002052,-0
 .00001812,-0.00000329,-0.00056850,0.00050620,0.00042525,-0.00447753,-0
 .00085582,-0.00058006,0.00009611,-0.00028812,-0.00015677,0.00280338,-0
 .19640124,0.30715224,0.00030212,-0.00008397,0.00064877,-0.00044474,0.0
 0052566,-0.00096203,0.00066603,0.00012784,0.00027373,-0.00006195,0.000
 03404,-0.00009395,-0.00005209,-0.00018003,-0.00015572,0.00007338,0.000
 10931,0.00010472,0.00008855,0.00014196,0.00007364,0.00002389,-0.000021
 59,0.00006587,0.00001801,-0.00001092,-0.00003136,0.00003890,-0.0000126
 9,0.00001287,0.00001573,0.00003288,-0.00001062,-0.00000872,0.00000772,
 -0.00000061,0.00001110,0.00000323,-0.00000180,0.00156892,-0.00185875,0
 .00028951,-0.01697959,-0.03210500,-0.00948650,-0.07859656,-0.10950601,
 -0.04713535,-0.00008013,-0.00009089,0.00003690,0.00001265,-0.00000589,
 0.00000970,-0.00012520,-0.00013488,-0.00015774,-0.00001358,0.00000563,
 0.00000216,0.00002510,0.00001447,-0.00001909,-0.00002013,0.00000248,0.
 00001559,-0.00000162,0.00000223,0.00000136,-0.00001402,-0.00002083,0.0
 0000042,-0.00062069,0.00106042,0.00054259,-0.00012973,0.00007474,0.000
 12857,0.00126811,0.00050673,0.00032510,-0.00423807,0.00148756,-0.00273
 112,-0.00176334,-0.00148872,0.00115835,0.09903767,-0.00004308,-0.00007
 846,0.00006773,0.00035628,-0.00005651,-0.00016532,0.00002986,-0.000008
 74,0.00006748,0.00000846,0.00003356,0.00001111,0.00002919,0.00000374,-
 0.00001609,-0.00002142,0.00000029,0.00000927,-0.00001069,-0.00000335,0
 .00000441,0.00000385,-0.00000040,0.00000046,-0.00000030,-0.00000030,-0
 .00000111,-0.00000356,-0.00000150,-0.00000340,-0.00000190,-0.00000179,
 0.00000608,-0.00000024,0.00000151,-0.00000274,-0.00000427,0.00000065,0
 .00000848,0.00094686,0.00146111,0.00133429,0.00678374,0.00385404,-0.00
 098070,-0.14381471,-0.35681792,-0.06098236,0.00000319,-0.00001121,-0.0
 0000901,0.00000199,-0.00000393,-0.00000244,0.00000824,0.00000146,0.000
 00261,-0.00000080,0.00000045,-0.00000063,-0.00000019,0.00000001,0.0000
 0046,0.00000017,0.00000106,-0.00000066,0.00000220,0.00000066,-0.000000
 71,0.00000453,0.00000101,-0.00000251,-0.00053985,-0.00005729,0.0000949
 5,-0.00013212,-0.00011631,-0.00000886,-0.00024916,0.00043031,-0.000162
 64,0.00077494,0.00217760,-0.00000066,-0.00551449,-0.01980035,-0.011123
 44,0.14138325,0.36899060,-0.00008936,0.00023734,-0.00036482,0.00051261
 ,-0.00037296,0.00050471,-0.00016003,0.00002943,-0.00014237,0.00006200,
 -0.00003729,0.00002615,0.00006030,0.00007962,0.00005926,-0.00006627,-0
 .00000940,-0.00004805,-0.00006104,-0.00006792,-0.00003919,-0.00000645,
 0.00001335,-0.00002447,-0.00001338,-0.00000405,0.00001438,-0.00002040,
 0.00001102,-0.00000448,-0.00000911,-0.00001781,0.00000946,0.00000298,0
 .00000357,-0.00000811,-0.00001214,-0.00000320,0.00000701,0.00023365,0.
 00122433,0.00055755,-0.00168229,-0.01897711,-0.00510737,-0.06641423,-0
 .08601530,-0.06671357,0.00006381,0.00003881,-0.00004397,-0.00001406,0.
 00000441,-0.00000238,0.00006694,-0.00000063,0.00007933,0.00000787,-0.0
 0000345,0.00000089,-0.00001134,-0.00000768,0.00000584,0.00001276,-0.00
 000187,-0.00000801,0.00000270,-0.00000038,-0.00000192,0.00001656,0.000
 01081,-0.00000274,-0.00023773,0.00007845,0.00050896,0.00011397,0.00013
 160,-0.00003287,0.00019858,-0.00033194,-0.00029130,-0.00474369,0.00055
 177,-0.00170273,0.01509076,0.03158053,0.00696674,0.05709603,0.07185596
 ,0.06579811\\0.00000105,0.00000046,-0.00000159,0.00000076,-0.00000202,
 0.00000081,0.00000032,0.00000107,0.00000011,-0.00000007,-0.00000004,0.
 00000097,-0.00000024,-0.00000133,-0.00000099,-0.00000051,-0.00000138,-
 0.00000018,-0.00000047,-0.00000180,0.00000267,-0.00000122,0.00000130,0
 .00000011,0.00000103,0.00000216,-0.00000087,0.00000058,0.00000055,0.00
 000145,-0.00000039,0.00000111,0.00000070,-0.00000028,-0.00000022,0.000
 00186,-0.00000120,0.00000176,-0.00000186,-0.00000161,-0.00000035,0.000
 00012,0.00000144,0.00000080,-0.00000118,-0.00000057,-0.00000131,0.0000
 0007,0.00000015,-0.00000008,-0.00000011,0.00000039,0.,-0.00000057,0.00
 000087,-0.00000015,-0.00000049,0.00000006,0.00000077,-0.00000033,0.000
 00007,0.00000043,-0.00000010,-0.00000015,0.00000120,0.00000018,-0.0000
 0056,0.00000030,0.00000147,-0.00000008,0.00000045,-0.00000005,0.000000
 47,-0.00000037,-0.00000146,0.00000027,0.00000024,-0.00000024,-0.000000
 63,-0.00000096,-0.00000022,-0.00000016,-0.00000152,0.00000022,0.000000
 35,-0.00000050,0.00000015,0.00000036,-0.00000058,-0.00000067\\\@


 THE ENLIGHTENED ONE, BECAUSE HE SAW MANKIND DROWNING  
 IN THE GREAT SEA OF BIRTH, DEATH, AND SORROW, LONGED TO SAVE 
 THEM, FOR THIS HE WAS MOVED TO PITY.                         
 BECAUSE HE SAW MEN OF THE WORLD STRAYING IN FALSE PATHS, AND 
 NONE TO GUIDE THEM, FOR THIS HE WAS MOVED TO PITY.           
                     ..................                       
 BECAUSE HE SAW THE MEN OF THE WORLD PLOUGHING THEIR FIELDS,  
 SOWING THE SEED, TRAFFICKING, HUCKSTERING, BUYING, SELLING,  
 AND AT THE END WINNOWING NOTHING BUT BITTERNESS,             
 FOR THIS HE WAS MOVED TO PITY......                   
                   BUDAH'S PITY - UPSAKA SILA SUTRA           
 Job cpu time:       0 days  4 hours 44 minutes 50.4 seconds.
 File lengths (MBytes):  RWF=    542 Int=      0 D2E=      0 Chk=     17 Scr=      1
 Normal termination of Gaussian 09 at Thu Jul 29 01:28:31 2021.
