 Entering Gaussian System, Link 0=g09
 Input=opt_freq-conf-150.com
 Output=opt_freq-conf-150.log
 Initial command:
 /aerosol/software/g09/l1.exe "/scratch/nicole/10558/Gau-102613.inp" -scrdir="/scratch/nicole/10558/"
 Entering Link 1 = /aerosol/software/g09/l1.exe PID=    102620.
  
 Copyright (c) 1988,1990,1992,1993,1995,1998,2003,2009,2013,
            Gaussian, Inc.  All Rights Reserved.
  
 This is part of the Gaussian(R) 09 program.  It is based on
 the Gaussian(R) 03 system (copyright 2003, Gaussian, Inc.),
 the Gaussian(R) 98 system (copyright 1998, Gaussian, Inc.),
 the Gaussian(R) 94 system (copyright 1995, Gaussian, Inc.),
 the Gaussian 92(TM) system (copyright 1992, Gaussian, Inc.),
 the Gaussian 90(TM) system (copyright 1990, Gaussian, Inc.),
 the Gaussian 88(TM) system (copyright 1988, Gaussian, Inc.),
 the Gaussian 86(TM) system (copyright 1986, Carnegie Mellon
 University), and the Gaussian 82(TM) system (copyright 1983,
 Carnegie Mellon University). Gaussian is a federally registered
 trademark of Gaussian, Inc.
  
 This software contains proprietary and confidential information,
 including trade secrets, belonging to Gaussian, Inc.
  
 This software is provided under written license and may be
 used, copied, transmitted, or stored only in accord with that
 written license.
  
 The following legend is applicable only to US Government
 contracts under FAR:
  
                    RESTRICTED RIGHTS LEGEND
  
 Use, reproduction and disclosure by the US Government is
 subject to restrictions as set forth in subparagraphs (a)
 and (c) of the Commercial Computer Software - Restricted
 Rights clause in FAR 52.227-19.
  
 Gaussian, Inc.
 340 Quinnipiac St., Bldg. 40, Wallingford CT 06492
  
  
 ---------------------------------------------------------------
 Warning -- This program may not be used in any manner that
 competes with the business of Gaussian, Inc. or will provide
 assistance to any competitor of Gaussian, Inc.  The licensee
 of this program is prohibited from giving any competitor of
 Gaussian, Inc. access to this program.  By using this program,
 the user acknowledges that Gaussian, Inc. is engaged in the
 business of creating and licensing software in the field of
 computational chemistry and represents and warrants to the
 licensee that it is not a competitor of Gaussian, Inc. and that
 it will not use this program in any manner prohibited above.
 ---------------------------------------------------------------
  

 Cite this work as:
 Gaussian 09, Revision D.01,
 M. J. Frisch, G. W. Trucks, H. B. Schlegel, G. E. Scuseria, 
 M. A. Robb, J. R. Cheeseman, G. Scalmani, V. Barone, B. Mennucci, 
 G. A. Petersson, H. Nakatsuji, M. Caricato, X. Li, H. P. Hratchian, 
 A. F. Izmaylov, J. Bloino, G. Zheng, J. L. Sonnenberg, M. Hada, 
 M. Ehara, K. Toyota, R. Fukuda, J. Hasegawa, M. Ishida, T. Nakajima, 
 Y. Honda, O. Kitao, H. Nakai, T. Vreven, J. A. Montgomery, Jr., 
 J. E. Peralta, F. Ogliaro, M. Bearpark, J. J. Heyd, E. Brothers, 
 K. N. Kudin, V. N. Staroverov, T. Keith, R. Kobayashi, J. Normand, 
 K. Raghavachari, A. Rendell, J. C. Burant, S. S. Iyengar, J. Tomasi, 
 M. Cossi, N. Rega, J. M. Millam, M. Klene, J. E. Knox, J. B. Cross, 
 V. Bakken, C. Adamo, J. Jaramillo, R. Gomperts, R. E. Stratmann, 
 O. Yazyev, A. J. Austin, R. Cammi, C. Pomelli, J. W. Ochterski, 
 R. L. Martin, K. Morokuma, V. G. Zakrzewski, G. A. Voth, 
 P. Salvador, J. J. Dannenberg, S. Dapprich, A. D. Daniels, 
 O. Farkas, J. B. Foresman, J. V. Ortiz, J. Cioslowski, 
 and D. J. Fox, Gaussian, Inc., Wallingford CT, 2013.
 
 ******************************************
 Gaussian 09:  ES64L-G09RevD.01 24-Apr-2013
                28-Jul-2021 
 ******************************************
 %mem=2gb
 %nproc=4
 Will use up to    4 processors via shared memory.
 %chk=conf-150.chk
 ----------------------------------------------------------------------
 # B3LYP/6-311++G(d,p) opt=calcfc freq=noraman nosymm integral(ultrafin
 egrid)
 ----------------------------------------------------------------------
 1/10=4,14=-1,18=20,19=15,26=4,38=1/1,3;
 2/9=110,12=2,15=1,17=6,18=5,40=1/2;
 3/5=4,6=6,7=1111,11=2,16=1,25=1,30=1,71=2,74=-5,75=-5,140=1/1,2,3;
 4//1;
 5/5=2,38=5/2;
 8/6=4,10=90,11=11/1;
 11/6=1,8=1,9=11,15=111,16=1,31=1/1,2,10;
 10/6=1,13=1,31=1/2;
 6/7=2,8=2,9=2,10=2,28=1/1;
 7/10=1,18=20,25=1,30=1/1,2,3,16;
 1/10=4,14=-1,18=20,19=15,26=4/3(2);
 2/9=110,15=1/2;
 99//99;
 2/9=110,15=1/2;
 3/5=4,6=6,7=1111,11=2,16=1,25=1,30=1,71=1,74=-5,75=-5/1,2,3;
 4/5=5,16=3,69=1/1;
 5/5=2,38=5/2;
 7/30=1/1,2,3,16;
 1/14=-1,18=20,19=15,26=4/3(-5);
 2/9=110,15=1/2;
 6/7=2,8=2,9=2,10=2,19=2,28=1/1;
 99/9=1/99;
 ------------------------------------------------------------
 Candidate Structure: Conf:150 OPT and FREQ calc in gas phase
 ------------------------------------------------------------
 Symbolic Z-matrix:
 Charge =  0 Multiplicity = 1
 O                    -1.06735  -1.81842  -0.60329 
 C                    -1.26017  -0.71113  -0.11548 
 N                    -0.37381  -0.15491   0.75102 
 C                     0.74849  -0.91195   1.26099 
 C                     1.24686  -0.18699   2.48905 
 O                     2.24552  -0.85447   3.09518 
 O                     0.81057   0.86267   2.89123 
 C                     1.87855  -1.12462   0.22713 
 C                     2.46418   0.14329  -0.29805 
 C                     3.69731   0.71644  -0.1525 
 N                     3.75634   1.9277   -0.81778 
 C                     2.56761   2.08131  -1.35632 
 N                     1.75201   1.03     -1.0682 
 C                    -2.47144   0.14825  -0.43245 
 C                    -3.42446  -0.50714  -1.41911 
 N                    -4.55073   0.39607  -1.66837 
 H                    -0.59336   0.68832   1.26101 
 H                     0.41775  -1.90971   1.56604 
 H                     2.49526  -0.33255   3.86831 
 H                     1.46214  -1.72179  -0.58553 
 H                     2.6673   -1.71113   0.6993 
 H                     4.54572   0.32738   0.3952 
 H                     2.23723   2.91305  -1.95358 
 H                     0.78257   0.92701  -1.32349 
 H                    -2.13351   1.11041  -0.83235 
 H                    -3.0062    0.37498   0.49757 
 H                    -2.89971  -0.67889  -2.36095 
 H                    -3.71838  -1.49025  -1.03227 
 H                    -5.14058   0.44323  -0.845 
 H                    -5.13542   0.02345  -2.40678 
 

 GradGradGradGradGradGradGradGradGradGradGradGradGradGradGradGradGradGrad
 Berny optimization.
 Initialization pass.
                           ----------------------------
                           !    Initial Parameters    !
                           ! (Angstroms and Degrees)  !
 --------------------------                            --------------------------
 ! Name  Definition              Value          Derivative Info.                !
 --------------------------------------------------------------------------------
 ! R1    R(1,2)                  1.2252         calculate D2E/DX2 analytically  !
 ! R2    R(2,3)                  1.3586         calculate D2E/DX2 analytically  !
 ! R3    R(2,14)                 1.5186         calculate D2E/DX2 analytically  !
 ! R4    R(3,4)                  1.4466         calculate D2E/DX2 analytically  !
 ! R5    R(3,17)                 1.0096         calculate D2E/DX2 analytically  !
 ! R6    R(4,5)                  1.5107         calculate D2E/DX2 analytically  !
 ! R7    R(4,8)                  1.5463         calculate D2E/DX2 analytically  !
 ! R8    R(4,18)                 1.0945         calculate D2E/DX2 analytically  !
 ! R9    R(5,6)                  1.3454         calculate D2E/DX2 analytically  !
 ! R10   R(5,7)                  1.2058         calculate D2E/DX2 analytically  !
 ! R11   R(6,19)                 0.9657         calculate D2E/DX2 analytically  !
 ! R12   R(8,9)                  1.4921         calculate D2E/DX2 analytically  !
 ! R13   R(8,20)                 1.0911         calculate D2E/DX2 analytically  !
 ! R14   R(8,21)                 1.0904         calculate D2E/DX2 analytically  !
 ! R15   R(9,10)                 1.3676         calculate D2E/DX2 analytically  !
 ! R16   R(9,13)                 1.3735         calculate D2E/DX2 analytically  !
 ! R17   R(10,11)                1.3832         calculate D2E/DX2 analytically  !
 ! R18   R(10,22)                1.0822         calculate D2E/DX2 analytically  !
 ! R19   R(11,12)                1.314          calculate D2E/DX2 analytically  !
 ! R20   R(12,13)                1.3614         calculate D2E/DX2 analytically  !
 ! R21   R(12,23)                1.0759         calculate D2E/DX2 analytically  !
 ! R22   R(13,24)                1.0078         calculate D2E/DX2 analytically  !
 ! R23   R(14,15)                1.5203         calculate D2E/DX2 analytically  !
 ! R24   R(14,25)                1.0954         calculate D2E/DX2 analytically  !
 ! R25   R(14,26)                1.0965         calculate D2E/DX2 analytically  !
 ! R26   R(15,16)                1.4651         calculate D2E/DX2 analytically  !
 ! R27   R(15,27)                1.0918         calculate D2E/DX2 analytically  !
 ! R28   R(15,28)                1.0966         calculate D2E/DX2 analytically  !
 ! R29   R(16,29)                1.0139         calculate D2E/DX2 analytically  !
 ! R30   R(16,30)                1.0129         calculate D2E/DX2 analytically  !
 ! A1    A(1,2,3)              121.4156         calculate D2E/DX2 analytically  !
 ! A2    A(1,2,14)             123.6309         calculate D2E/DX2 analytically  !
 ! A3    A(3,2,14)             114.9485         calculate D2E/DX2 analytically  !
 ! A4    A(2,3,4)              121.1124         calculate D2E/DX2 analytically  !
 ! A5    A(2,3,17)             121.4815         calculate D2E/DX2 analytically  !
 ! A6    A(4,3,17)             115.3222         calculate D2E/DX2 analytically  !
 ! A7    A(3,4,5)              106.9408         calculate D2E/DX2 analytically  !
 ! A8    A(3,4,8)              113.7809         calculate D2E/DX2 analytically  !
 ! A9    A(3,4,18)             109.9301         calculate D2E/DX2 analytically  !
 ! A10   A(5,4,8)              111.6184         calculate D2E/DX2 analytically  !
 ! A11   A(5,4,18)             108.0944         calculate D2E/DX2 analytically  !
 ! A12   A(8,4,18)             106.3679         calculate D2E/DX2 analytically  !
 ! A13   A(4,5,6)              111.9023         calculate D2E/DX2 analytically  !
 ! A14   A(4,5,7)              124.7182         calculate D2E/DX2 analytically  !
 ! A15   A(6,5,7)              123.3794         calculate D2E/DX2 analytically  !
 ! A16   A(5,6,19)             106.5298         calculate D2E/DX2 analytically  !
 ! A17   A(4,8,9)              113.9092         calculate D2E/DX2 analytically  !
 ! A18   A(4,8,20)             107.1182         calculate D2E/DX2 analytically  !
 ! A19   A(4,8,21)             108.2449         calculate D2E/DX2 analytically  !
 ! A20   A(9,8,20)             110.654          calculate D2E/DX2 analytically  !
 ! A21   A(9,8,21)             109.0            calculate D2E/DX2 analytically  !
 ! A22   A(20,8,21)            107.7091         calculate D2E/DX2 analytically  !
 ! A23   A(8,9,10)             132.265          calculate D2E/DX2 analytically  !
 ! A24   A(8,9,13)             122.849          calculate D2E/DX2 analytically  !
 ! A25   A(10,9,13)            104.8708         calculate D2E/DX2 analytically  !
 ! A26   A(9,10,11)            110.7501         calculate D2E/DX2 analytically  !
 ! A27   A(9,10,22)            127.5957         calculate D2E/DX2 analytically  !
 ! A28   A(11,10,22)           121.654          calculate D2E/DX2 analytically  !
 ! A29   A(10,11,12)           105.1223         calculate D2E/DX2 analytically  !
 ! A30   A(11,12,13)           111.404          calculate D2E/DX2 analytically  !
 ! A31   A(11,12,23)           126.5587         calculate D2E/DX2 analytically  !
 ! A32   A(13,12,23)           122.0373         calculate D2E/DX2 analytically  !
 ! A33   A(9,13,12)            107.8523         calculate D2E/DX2 analytically  !
 ! A34   A(9,13,24)            125.0893         calculate D2E/DX2 analytically  !
 ! A35   A(12,13,24)           126.9841         calculate D2E/DX2 analytically  !
 ! A36   A(2,14,15)            113.0481         calculate D2E/DX2 analytically  !
 ! A37   A(2,14,25)            109.0995         calculate D2E/DX2 analytically  !
 ! A38   A(2,14,26)            109.2064         calculate D2E/DX2 analytically  !
 ! A39   A(15,14,25)           109.58           calculate D2E/DX2 analytically  !
 ! A40   A(15,14,26)           109.5044         calculate D2E/DX2 analytically  !
 ! A41   A(25,14,26)           106.1692         calculate D2E/DX2 analytically  !
 ! A42   A(14,15,16)           109.06           calculate D2E/DX2 analytically  !
 ! A43   A(14,15,27)           109.0502         calculate D2E/DX2 analytically  !
 ! A44   A(14,15,28)           108.9996         calculate D2E/DX2 analytically  !
 ! A45   A(16,15,27)           108.6456         calculate D2E/DX2 analytically  !
 ! A46   A(16,15,28)           113.9951         calculate D2E/DX2 analytically  !
 ! A47   A(27,15,28)           106.9842         calculate D2E/DX2 analytically  !
 ! A48   A(15,16,29)           109.7385         calculate D2E/DX2 analytically  !
 ! A49   A(15,16,30)           109.9378         calculate D2E/DX2 analytically  !
 ! A50   A(29,16,30)           105.8604         calculate D2E/DX2 analytically  !
 ! D1    D(1,2,3,4)             -7.7326         calculate D2E/DX2 analytically  !
 ! D2    D(1,2,3,17)          -170.55           calculate D2E/DX2 analytically  !
 ! D3    D(14,2,3,4)           173.0511         calculate D2E/DX2 analytically  !
 ! D4    D(14,2,3,17)           10.2337         calculate D2E/DX2 analytically  !
 ! D5    D(1,2,14,15)            0.0395         calculate D2E/DX2 analytically  !
 ! D6    D(1,2,14,25)         -122.151          calculate D2E/DX2 analytically  !
 ! D7    D(1,2,14,26)          122.2102         calculate D2E/DX2 analytically  !
 ! D8    D(3,2,14,15)          179.2362         calculate D2E/DX2 analytically  !
 ! D9    D(3,2,14,25)           57.0457         calculate D2E/DX2 analytically  !
 ! D10   D(3,2,14,26)          -58.593          calculate D2E/DX2 analytically  !
 ! D11   D(2,3,4,5)           -162.1572         calculate D2E/DX2 analytically  !
 ! D12   D(2,3,4,8)             74.1256         calculate D2E/DX2 analytically  !
 ! D13   D(2,3,4,18)           -45.0406         calculate D2E/DX2 analytically  !
 ! D14   D(17,3,4,5)             1.6593         calculate D2E/DX2 analytically  !
 ! D15   D(17,3,4,8)          -122.0579         calculate D2E/DX2 analytically  !
 ! D16   D(17,3,4,18)          118.7759         calculate D2E/DX2 analytically  !
 ! D17   D(3,4,5,6)            176.1661         calculate D2E/DX2 analytically  !
 ! D18   D(3,4,5,7)             -3.71           calculate D2E/DX2 analytically  !
 ! D19   D(8,4,5,6)            -58.7944         calculate D2E/DX2 analytically  !
 ! D20   D(8,4,5,7)            121.3295         calculate D2E/DX2 analytically  !
 ! D21   D(18,4,5,6)            57.8457         calculate D2E/DX2 analytically  !
 ! D22   D(18,4,5,7)          -122.0304         calculate D2E/DX2 analytically  !
 ! D23   D(3,4,8,9)             59.2523         calculate D2E/DX2 analytically  !
 ! D24   D(3,4,8,20)           -63.4489         calculate D2E/DX2 analytically  !
 ! D25   D(3,4,8,21)          -179.34           calculate D2E/DX2 analytically  !
 ! D26   D(5,4,8,9)            -61.8885         calculate D2E/DX2 analytically  !
 ! D27   D(5,4,8,20)           175.4103         calculate D2E/DX2 analytically  !
 ! D28   D(5,4,8,21)            59.5192         calculate D2E/DX2 analytically  !
 ! D29   D(18,4,8,9)          -179.5724         calculate D2E/DX2 analytically  !
 ! D30   D(18,4,8,20)           57.7264         calculate D2E/DX2 analytically  !
 ! D31   D(18,4,8,21)          -58.1646         calculate D2E/DX2 analytically  !
 ! D32   D(4,5,6,19)          -179.3425         calculate D2E/DX2 analytically  !
 ! D33   D(7,5,6,19)             0.5355         calculate D2E/DX2 analytically  !
 ! D34   D(4,8,9,10)           112.3787         calculate D2E/DX2 analytically  !
 ! D35   D(4,8,9,13)           -65.9767         calculate D2E/DX2 analytically  !
 ! D36   D(20,8,9,10)         -126.8774         calculate D2E/DX2 analytically  !
 ! D37   D(20,8,9,13)           54.7673         calculate D2E/DX2 analytically  !
 ! D38   D(21,8,9,10)           -8.6089         calculate D2E/DX2 analytically  !
 ! D39   D(21,8,9,13)          173.0358         calculate D2E/DX2 analytically  !
 ! D40   D(8,9,10,11)         -178.7634         calculate D2E/DX2 analytically  !
 ! D41   D(8,9,10,22)            1.0879         calculate D2E/DX2 analytically  !
 ! D42   D(13,9,10,11)          -0.1929         calculate D2E/DX2 analytically  !
 ! D43   D(13,9,10,22)         179.6584         calculate D2E/DX2 analytically  !
 ! D44   D(8,9,13,12)          178.9476         calculate D2E/DX2 analytically  !
 ! D45   D(8,9,13,24)            1.9019         calculate D2E/DX2 analytically  !
 ! D46   D(10,9,13,12)           0.2068         calculate D2E/DX2 analytically  !
 ! D47   D(10,9,13,24)        -176.8389         calculate D2E/DX2 analytically  !
 ! D48   D(9,10,11,12)           0.1026         calculate D2E/DX2 analytically  !
 ! D49   D(22,10,11,12)       -179.759          calculate D2E/DX2 analytically  !
 ! D50   D(10,11,12,13)          0.0338         calculate D2E/DX2 analytically  !
 ! D51   D(10,11,12,23)        179.9779         calculate D2E/DX2 analytically  !
 ! D52   D(11,12,13,9)          -0.1556         calculate D2E/DX2 analytically  !
 ! D53   D(11,12,13,24)        176.8181         calculate D2E/DX2 analytically  !
 ! D54   D(23,12,13,9)         179.8974         calculate D2E/DX2 analytically  !
 ! D55   D(23,12,13,24)         -3.1289         calculate D2E/DX2 analytically  !
 ! D56   D(2,14,15,16)        -179.6173         calculate D2E/DX2 analytically  !
 ! D57   D(2,14,15,27)         -61.1172         calculate D2E/DX2 analytically  !
 ! D58   D(2,14,15,28)          55.3532         calculate D2E/DX2 analytically  !
 ! D59   D(25,14,15,16)        -57.6961         calculate D2E/DX2 analytically  !
 ! D60   D(25,14,15,27)         60.804          calculate D2E/DX2 analytically  !
 ! D61   D(25,14,15,28)        177.2744         calculate D2E/DX2 analytically  !
 ! D62   D(26,14,15,16)         58.3789         calculate D2E/DX2 analytically  !
 ! D63   D(26,14,15,27)        176.879          calculate D2E/DX2 analytically  !
 ! D64   D(26,14,15,28)        -66.6506         calculate D2E/DX2 analytically  !
 ! D65   D(14,15,16,29)        -70.7929         calculate D2E/DX2 analytically  !
 ! D66   D(14,15,16,30)        173.1656         calculate D2E/DX2 analytically  !
 ! D67   D(27,15,16,29)        170.4539         calculate D2E/DX2 analytically  !
 ! D68   D(27,15,16,30)         54.4125         calculate D2E/DX2 analytically  !
 ! D69   D(28,15,16,29)         51.2678         calculate D2E/DX2 analytically  !
 ! D70   D(28,15,16,30)        -64.7736         calculate D2E/DX2 analytically  !
 --------------------------------------------------------------------------------
 Trust Radius=3.00D-01 FncErr=1.00D-07 GrdErr=1.00D-06
 Number of steps in this run=    160 maximum allowed number of steps=    180.
 GradGradGradGradGradGradGradGradGradGradGradGradGradGradGradGradGradGrad

                          Input orientation:                          
 ---------------------------------------------------------------------
 Center     Atomic      Atomic             Coordinates (Angstroms)
 Number     Number       Type             X           Y           Z
 ---------------------------------------------------------------------
      1          8           0       -1.067352   -1.818420   -0.603290
      2          6           0       -1.260171   -0.711133   -0.115475
      3          7           0       -0.373807   -0.154908    0.751020
      4          6           0        0.748491   -0.911949    1.260987
      5          6           0        1.246864   -0.186995    2.489052
      6          8           0        2.245519   -0.854468    3.095176
      7          8           0        0.810575    0.862669    2.891227
      8          6           0        1.878554   -1.124616    0.227129
      9          6           0        2.464176    0.143289   -0.298052
     10          6           0        3.697311    0.716443   -0.152500
     11          7           0        3.756344    1.927702   -0.817782
     12          6           0        2.567610    2.081312   -1.356324
     13          7           0        1.752005    1.029997   -1.068196
     14          6           0       -2.471439    0.148251   -0.432449
     15          6           0       -3.424457   -0.507137   -1.419106
     16          7           0       -4.550733    0.396069   -1.668368
     17          1           0       -0.593358    0.688317    1.261006
     18          1           0        0.417752   -1.909712    1.566043
     19          1           0        2.495261   -0.332548    3.868311
     20          1           0        1.462143   -1.721790   -0.585530
     21          1           0        2.667299   -1.711131    0.699298
     22          1           0        4.545724    0.327378    0.395204
     23          1           0        2.237229    2.913050   -1.953578
     24          1           0        0.782573    0.927013   -1.323490
     25          1           0       -2.133510    1.110413   -0.832347
     26          1           0       -3.006197    0.374981    0.497574
     27          1           0       -2.899706   -0.678894   -2.360952
     28          1           0       -3.718382   -1.490250   -1.032268
     29          1           0       -5.140584    0.443227   -0.844998
     30          1           0       -5.135425    0.023449   -2.406784
 ---------------------------------------------------------------------
                    Distance matrix (angstroms):
                    1          2          3          4          5
     1  O    0.000000
     2  C    1.225245   0.000000
     3  N    2.254425   1.358618   0.000000
     4  C    2.755813   2.443297   1.446626   0.000000
     5  C    4.192818   3.652877   2.376627   1.510655   0.000000
     6  O    5.057961   4.755911   3.584036   2.368258   1.345444
     7  O    4.788162   3.975563   2.649285   2.410561   1.205772
     8  C    3.138364   3.184328   2.507573   1.546328   2.528727
     9  C    4.051316   3.825458   3.040332   2.547097   3.059230
    10  C    5.415788   5.159067   4.260235   3.653101   3.714659
    11  N    6.111258   5.711576   4.884316   4.629478   4.658818
    12  C    5.384043   4.897894   4.253647   4.372541   4.655803
    13  N    4.034649   3.607273   3.038523   3.194258   3.793448
    14  C    2.422486   1.518612   2.427460   3.789419   4.740604
    15  C    2.817971   2.534798   3.760316   4.975969   6.098969
    16  N    4.262898   3.803310   4.858367   6.194660   7.157949
    17  H    3.159747   2.073114   1.009612   2.088398   2.379219
    18  H    2.630566   2.660737   2.090493   1.094522   2.122999
    19  H    5.907219   5.487909   4.240354   3.191402   1.866021
    20  H    2.531403   2.941662   2.759021   2.138871   3.443109
    21  H    3.956750   4.133869   3.416552   2.153140   2.746607
    22  H    6.091639   5.920111   4.955905   4.087113   3.940972
    23  H    5.927085   5.361449   4.852291   5.213481   5.507092
    24  H    3.387966   2.883683   2.609859   3.172139   3.999007
    25  H    3.125256   2.143515   2.684147   4.096086   4.913439
    26  H    3.127623   2.145711   2.697127   4.041864   4.729728
    27  H    2.783058   2.780517   4.042165   5.146075   6.399886
    28  H    2.705490   2.736847   4.018637   5.054345   6.225097
    29  H    4.665264   4.113679   5.062333   6.399444   7.232743
    30  H    4.816045   4.561502   5.716340   6.996283   8.046559
                    6          7          8          9         10
     6  O    0.000000
     7  O    2.247047   0.000000
     8  C    2.904020   3.491031   0.000000
     9  C    3.543632   3.663796   1.492096   0.000000
    10  C    3.888812   4.197487   2.615624   1.367594   0.000000
    11  N    5.033319   4.854749   3.732904   2.263613   1.383197
    12  C    5.342134   4.755413   3.641441   2.210559   2.142028
    13  N    4.596567   4.073244   2.517188   1.373520   2.172793
    14  C    5.974886   4.725339   4.580139   4.937446   6.201184
    15  C    7.255894   6.196033   5.586886   6.029578   7.336281
    16  N    8.393107   7.053456   6.873218   7.151966   8.392302
    17  H    3.715317   2.158482   3.235116   3.475087   4.517591
    18  H    2.606246   3.097824   2.131434   3.446377   4.539338
    19  H    0.965665   2.285039   3.777023   4.193562   4.325763
    20  H    3.861803   4.380846   1.091069   2.136641   3.335937
    21  H    2.579148   3.856997   1.090441   2.115382   2.771209
    22  H    3.738657   4.524158   3.041435   2.201667   1.082199
    23  H    6.299538   5.450829   4.602920   3.234787   3.193870
    24  H    4.983824   4.215301   2.795492   2.119796   3.148215
    25  H    6.201781   4.753316   4.713226   4.728585   5.883526
    26  H    5.986618   4.531574   5.116906   5.532782   6.743605
    27  H    7.501566   6.612714   5.452394   5.805408   7.095411
    28  H    7.280668   6.437507   5.748519   6.436734   7.786912
    29  H    8.471334   7.039290   7.271581   7.630301   8.869194
    30  H    9.247737   8.008004   7.579674   7.887651   9.142170
                   11         12         13         14         15
    11  N    0.000000
    12  C    1.314044   0.000000
    13  N    2.210420   1.361430   0.000000
    14  C    6.488467   5.475608   4.361092   0.000000
    15  C    7.606177   6.527547   5.411255   1.520286   0.000000
    16  N    8.489813   7.321764   6.362907   2.431538   1.465063
    17  H    4.977684   4.333886   3.323049   2.585855   4.077650
    18  H    5.617344   5.393551   4.166693   4.071438   5.063685
    19  H    5.353365   5.755759   5.174751   6.587549   7.939163
    20  H    4.316954   4.034819   2.808793   4.358160   5.103831
    21  H    4.090067   4.314874   3.387562   5.580751   6.561001
    22  H    2.157659   3.171289   3.231111   7.068074   8.216564
    23  H    2.137441   1.075942   2.136641   5.668289   6.636115
    24  H    3.178118   2.125992   1.007760   3.462516   4.445788
    25  H    5.946305   4.828843   3.893497   1.095386   2.151116
    26  H    7.062086   6.116848   5.051848   1.096501   2.150984
    27  H    7.312914   6.206412   5.121517   2.141660   1.091760
    28  H    8.221917   7.237041   6.023128   2.144607   1.096607
    29  H    9.019963   7.896901   6.921121   2.716900   2.043987
    30  H    9.231178   8.042078   7.088135   3.318192   2.045591
                   16         17         18         19         20
    16  N    0.000000
    17  H    4.932288   0.000000
    18  H    6.361123   2.804486   0.000000
    19  H    8.990647   4.168905   3.479069   0.000000
    20  H    6.466262   3.666524   2.399028   4.778496   0.000000
    21  H    7.883281   4.087145   2.418914   3.460164   1.761618
    22  H    9.327839   5.223988   4.838966   4.086854   3.830065
    23  H    7.245203   4.826511   6.241575   6.670447   4.894289
    24  H    5.370754   2.937649   4.065650   5.610222   2.832413
    25  H    2.655596   2.632938   4.624107   6.753061   4.583777
    26  H    2.660327   2.550059   4.252631   6.490647   5.053279
    27  H    2.088327   4.506339   5.285994   8.247989   4.823430
    28  H    2.157691   4.446464   4.902528   7.997832   5.204904
    29  H    1.013946   5.017230   6.499580   9.006844   6.953462
    30  H    1.012901   5.875807   7.096354   9.885895   7.063337
                   21         22         23         24         25
    21  H    0.000000
    22  H    2.788632   0.000000
    23  H    5.348435   4.187079   0.000000
    24  H    3.821475   4.180285   2.541137   0.000000
    25  H    5.775363   6.836095   4.859014   2.962836   0.000000
    26  H    6.048232   7.552765   6.320083   4.239787   1.752465
    27  H    6.436007   8.002712   6.281410   4.149029   2.474936
    28  H    6.619972   8.581195   7.463723   5.117281   3.052088
    29  H    8.245554   9.766069   7.858823   5.962113   3.080227
    30  H    8.575489  10.083063   7.931659   6.083802   3.559753
                   26         27         28         29         30
    26  H    0.000000
    27  H    3.048469   0.000000
    28  H    2.515295   1.758957   0.000000
    29  H    2.522453   2.928960   2.407501   0.000000
    30  H    3.618353   2.343891   2.487687   1.617224   0.000000
 Symmetry turned off by external request.
 Stoichiometry    C9H14N4O3
 Framework group  C1[X(C9H14N4O3)]
 Deg. of freedom    84
 Full point group                 C1      NOp   1
 Rotational constants (GHZ):      0.7284732      0.3114858      0.2544644
 Standard basis: 6-311++G(d,p) (5D, 7F)
   450 basis functions,   702 primitive gaussians,   466 cartesian basis functions
    60 alpha electrons       60 beta electrons
       nuclear repulsion energy      1129.0975961519 Hartrees.
 NAtoms=   30 NActive=   30 NUniq=   30 SFac= 1.00D+00 NAtFMM=   60 NAOKFM=F Big=F
 Integral buffers will be    131072 words long.
 Raffenetti 2 integral format.
 Two-electron integral symmetry is turned off.
 One-electron integrals computed using PRISM.
 NBasis=   450 RedAO= T EigKep=  2.43D-06  NBF=   450
 NBsUse=   450 1.00D-06 EigRej= -1.00D+00 NBFU=   450
 ExpMin= 3.60D-02 ExpMax= 8.59D+03 ExpMxC= 1.30D+03 IAcc=3 IRadAn=         5 AccDes= 0.00D+00
 Harris functional with IExCor=  402 and IRadAn=       5 diagonalized for initial guess.
 HarFok:  IExCor=  402 AccDes= 0.00D+00 IRadAn=         5 IDoV= 1 UseB2=F ITyADJ=14
 ICtDFT=  3500011 ScaDFX=  1.000000  1.000000  1.000000  1.000000
 FoFCou: FMM=F IPFlag=           0 FMFlag=      100000 FMFlg1=           0
         NFxFlg=           0 DoJE=T BraDBF=F KetDBF=T FulRan=T
         wScrn=  0.000000 ICntrl=     500 IOpCl=  0 I1Cent=   200000004 NGrid=           0
         NMat0=    1 NMatS0=      1 NMatT0=    0 NMatD0=    1 NMtDS0=    0 NMtDT0=    0
 Symmetry not used in FoFCou.
 Requested convergence on RMS density matrix=1.00D-08 within 128 cycles.
 Requested convergence on MAX density matrix=1.00D-06.
 Requested convergence on             energy=1.00D-06.
 No special actions if energy rises.
 SCF Done:  E(RB3LYP) =  -796.332394762     A.U. after   15 cycles
            NFock= 15  Conv=0.60D-08     -V/T= 2.0037
 DoSCS=F DFT=T ScalE2(SS,OS)=  1.000000  1.000000
 Range of M.O.s used for correlation:     1   450
 NBasis=   450 NAE=    60 NBE=    60 NFC=     0 NFV=     0
 NROrb=    450 NOA=    60 NOB=    60 NVA=   390 NVB=   390

 **** Warning!!: The largest alpha MO coefficient is  0.13708049D+03

 Symmetrizing basis deriv contribution to polar:
 IMax=3 JMax=2 DiffMx= 0.00D+00
 G2DrvN: will do    31 centers at a time, making    1 passes.
 Calling FoFCou, ICntrl=  3107 FMM=F I1Cent=   0 AccDes= 0.00D+00.
 End of G2Drv F.D. properties file   721 does not exist.
 End of G2Drv F.D. properties file   722 does not exist.
 End of G2Drv F.D. properties file   788 does not exist.
          IDoAtm=111111111111111111111111111111
          Differentiating once with respect to nuclear coordinates.
          There are    93 degrees of freedom in the 1st order CPHF.  IDoFFX=6 NUNeed=     0.
     87 vectors produced by pass  0 Test12= 2.52D-14 1.08D-09 XBig12= 1.97D-01 9.22D-02.
 AX will form    87 AO Fock derivatives at one time.
     87 vectors produced by pass  1 Test12= 2.52D-14 1.08D-09 XBig12= 3.26D-02 4.71D-02.
     87 vectors produced by pass  2 Test12= 2.52D-14 1.08D-09 XBig12= 3.17D-04 2.95D-03.
     87 vectors produced by pass  3 Test12= 2.52D-14 1.08D-09 XBig12= 1.66D-06 1.10D-04.
     87 vectors produced by pass  4 Test12= 2.52D-14 1.08D-09 XBig12= 4.17D-09 5.96D-06.
     85 vectors produced by pass  5 Test12= 2.52D-14 1.08D-09 XBig12= 6.85D-12 2.57D-07.
     32 vectors produced by pass  6 Test12= 2.52D-14 1.08D-09 XBig12= 9.50D-15 1.00D-08.
      7 vectors produced by pass  7 Test12= 2.52D-14 1.08D-09 XBig12= 5.52D-16 2.71D-09.
      5 vectors produced by pass  8 Test12= 2.52D-14 1.08D-09 XBig12= 3.68D-16 3.94D-09.
      5 vectors produced by pass  9 Test12= 2.52D-14 1.08D-09 XBig12= 9.92D-15 9.92D-09.
      5 vectors produced by pass 10 Test12= 2.52D-14 1.08D-09 XBig12= 1.23D-15 3.34D-09.
      5 vectors produced by pass 11 Test12= 2.52D-14 1.08D-09 XBig12= 1.87D-14 1.15D-08.
      5 vectors produced by pass 12 Test12= 2.52D-14 1.08D-09 XBig12= 1.83D-15 4.90D-09.
      5 vectors produced by pass 13 Test12= 2.52D-14 1.08D-09 XBig12= 7.59D-15 7.96D-09.
      1 vectors produced by pass 14 Test12= 2.52D-14 1.08D-09 XBig12= 3.66D-16 1.71D-09.
 InvSVY:  IOpt=1 It=  1 EMax= 5.00D-16
 Solved reduced A of dimension   590 with    93 vectors.
 End of Minotr F.D. properties file   721 does not exist.
 End of Minotr F.D. properties file   722 does not exist.
 End of Minotr F.D. properties file   788 does not exist.

 **********************************************************************

            Population analysis using the SCF density.

 **********************************************************************

 Alpha  occ. eigenvalues --  -19.20284 -19.14920 -19.10909 -14.37163 -14.35840
 Alpha  occ. eigenvalues --  -14.30644 -14.29486 -10.33812 -10.29309 -10.25199
 Alpha  occ. eigenvalues --  -10.22600 -10.20906 -10.20531 -10.20108 -10.19543
 Alpha  occ. eigenvalues --  -10.18385  -1.14865  -1.06517  -1.05856  -1.02389
 Alpha  occ. eigenvalues --   -0.95500  -0.90054  -0.87669  -0.82498  -0.77840
 Alpha  occ. eigenvalues --   -0.75359  -0.69602  -0.66507  -0.62307  -0.61999
 Alpha  occ. eigenvalues --   -0.60991  -0.59825  -0.54861  -0.54562  -0.52399
 Alpha  occ. eigenvalues --   -0.51530  -0.50929  -0.50187  -0.48134  -0.47311
 Alpha  occ. eigenvalues --   -0.46268  -0.45293  -0.45164  -0.43560  -0.42775
 Alpha  occ. eigenvalues --   -0.41529  -0.41373  -0.40855  -0.39799  -0.39529
 Alpha  occ. eigenvalues --   -0.38154  -0.36359  -0.36006  -0.31961  -0.29274
 Alpha  occ. eigenvalues --   -0.28600  -0.28027  -0.27419  -0.25733  -0.23407
 Alpha virt. eigenvalues --   -0.03405  -0.02403  -0.01753  -0.01098  -0.00684
 Alpha virt. eigenvalues --    0.00312   0.00484   0.01423   0.01701   0.02518
 Alpha virt. eigenvalues --    0.02814   0.03011   0.03630   0.04132   0.04782
 Alpha virt. eigenvalues --    0.05029   0.05670   0.06502   0.06863   0.07236
 Alpha virt. eigenvalues --    0.07389   0.08066   0.08226   0.08573   0.08846
 Alpha virt. eigenvalues --    0.09637   0.09653   0.10266   0.11028   0.11346
 Alpha virt. eigenvalues --    0.11986   0.12168   0.12604   0.12642   0.12890
 Alpha virt. eigenvalues --    0.13079   0.13646   0.14021   0.14427   0.14612
 Alpha virt. eigenvalues --    0.14716   0.15163   0.15663   0.15851   0.15893
 Alpha virt. eigenvalues --    0.16110   0.16699   0.17063   0.17414   0.17929
 Alpha virt. eigenvalues --    0.18254   0.18555   0.18693   0.19452   0.19530
 Alpha virt. eigenvalues --    0.20169   0.20555   0.20985   0.21523   0.21560
 Alpha virt. eigenvalues --    0.21889   0.22076   0.22794   0.23090   0.23682
 Alpha virt. eigenvalues --    0.24081   0.24185   0.24339   0.24603   0.25666
 Alpha virt. eigenvalues --    0.26315   0.26928   0.27190   0.27475   0.27846
 Alpha virt. eigenvalues --    0.27903   0.28174   0.28578   0.29122   0.29367
 Alpha virt. eigenvalues --    0.30048   0.30557   0.30851   0.31304   0.31763
 Alpha virt. eigenvalues --    0.32104   0.32298   0.32626   0.33161   0.33721
 Alpha virt. eigenvalues --    0.33997   0.34749   0.35155   0.35839   0.36282
 Alpha virt. eigenvalues --    0.36657   0.36820   0.37820   0.38024   0.38590
 Alpha virt. eigenvalues --    0.39464   0.39822   0.41347   0.42041   0.42803
 Alpha virt. eigenvalues --    0.44987   0.45570   0.46750   0.47309   0.48144
 Alpha virt. eigenvalues --    0.48514   0.49193   0.50281   0.52435   0.52851
 Alpha virt. eigenvalues --    0.54098   0.55223   0.55930   0.57351   0.58063
 Alpha virt. eigenvalues --    0.58391   0.59423   0.61359   0.61641   0.61691
 Alpha virt. eigenvalues --    0.63236   0.63460   0.64136   0.64812   0.65097
 Alpha virt. eigenvalues --    0.65628   0.67185   0.68024   0.68372   0.68808
 Alpha virt. eigenvalues --    0.69398   0.70146   0.71210   0.71566   0.72036
 Alpha virt. eigenvalues --    0.72600   0.74510   0.74733   0.75129   0.76025
 Alpha virt. eigenvalues --    0.76429   0.77295   0.77388   0.79037   0.81683
 Alpha virt. eigenvalues --    0.81863   0.83070   0.83526   0.85145   0.86789
 Alpha virt. eigenvalues --    0.88043   0.89038   0.89569   0.90428   0.91698
 Alpha virt. eigenvalues --    0.91999   0.93658   0.95336   0.96544   0.98075
 Alpha virt. eigenvalues --    0.99482   0.99902   1.00872   1.02075   1.03114
 Alpha virt. eigenvalues --    1.04396   1.06032   1.06681   1.09667   1.11375
 Alpha virt. eigenvalues --    1.12252   1.12777   1.14663   1.15439   1.17580
 Alpha virt. eigenvalues --    1.18546   1.19439   1.20363   1.20653   1.21369
 Alpha virt. eigenvalues --    1.23548   1.24105   1.24780   1.25912   1.26138
 Alpha virt. eigenvalues --    1.27960   1.29185   1.30115   1.31177   1.32218
 Alpha virt. eigenvalues --    1.34602   1.35460   1.38731   1.40389   1.41086
 Alpha virt. eigenvalues --    1.41997   1.44965   1.47215   1.47595   1.49285
 Alpha virt. eigenvalues --    1.50099   1.53413   1.54172   1.54543   1.56332
 Alpha virt. eigenvalues --    1.56997   1.58030   1.58930   1.59415   1.62283
 Alpha virt. eigenvalues --    1.62777   1.63126   1.64778   1.66051   1.66838
 Alpha virt. eigenvalues --    1.67277   1.68055   1.69274   1.69502   1.71168
 Alpha virt. eigenvalues --    1.71467   1.73363   1.73789   1.74572   1.75886
 Alpha virt. eigenvalues --    1.76336   1.77858   1.78775   1.80739   1.81686
 Alpha virt. eigenvalues --    1.82403   1.83225   1.84607   1.86061   1.89657
 Alpha virt. eigenvalues --    1.90727   1.93418   1.93938   1.94939   1.97344
 Alpha virt. eigenvalues --    1.97737   1.99844   2.02252   2.03230   2.05458
 Alpha virt. eigenvalues --    2.06137   2.08485   2.09918   2.11702   2.12648
 Alpha virt. eigenvalues --    2.13542   2.15845   2.17755   2.20465   2.22421
 Alpha virt. eigenvalues --    2.24763   2.26104   2.26331   2.27231   2.31971
 Alpha virt. eigenvalues --    2.32663   2.34816   2.36567   2.40070   2.42082
 Alpha virt. eigenvalues --    2.44399   2.44906   2.46658   2.50651   2.51388
 Alpha virt. eigenvalues --    2.51910   2.53998   2.55742   2.56094   2.57845
 Alpha virt. eigenvalues --    2.59167   2.60552   2.61050   2.62931   2.63914
 Alpha virt. eigenvalues --    2.64456   2.64954   2.67523   2.69029   2.69623
 Alpha virt. eigenvalues --    2.72190   2.73023   2.75074   2.76602   2.78629
 Alpha virt. eigenvalues --    2.79230   2.79772   2.81731   2.82751   2.83442
 Alpha virt. eigenvalues --    2.85383   2.87042   2.87953   2.89821   2.91273
 Alpha virt. eigenvalues --    2.91644   2.93004   2.93677   2.94396   2.95686
 Alpha virt. eigenvalues --    2.96798   2.97402   2.99171   2.99979   3.01242
 Alpha virt. eigenvalues --    3.03258   3.04523   3.05906   3.09119   3.10445
 Alpha virt. eigenvalues --    3.11676   3.14733   3.15193   3.19986   3.23033
 Alpha virt. eigenvalues --    3.27054   3.32380   3.33658   3.35640   3.35820
 Alpha virt. eigenvalues --    3.41226   3.45874   3.53190   3.55086   3.58635
 Alpha virt. eigenvalues --    3.60337   3.62444   3.65654   3.68038   3.71127
 Alpha virt. eigenvalues --    3.75685   3.78437   3.79589   3.81213   3.85206
 Alpha virt. eigenvalues --    3.87090   3.89817   3.92451   3.94539   3.96705
 Alpha virt. eigenvalues --    4.06026   4.06716   4.08113   4.13126   4.22519
 Alpha virt. eigenvalues --    4.32239   4.33061   4.51541   4.72111   4.77719
 Alpha virt. eigenvalues --    4.83396   4.85970   4.94726   4.97454   4.98837
 Alpha virt. eigenvalues --    5.06204   5.12025   5.20311   5.28879   5.29321
 Alpha virt. eigenvalues --    5.42236   5.61148   5.79002   5.84746  23.76078
 Alpha virt. eigenvalues --   23.79377  23.83179  23.85931  23.87319  23.92413
 Alpha virt. eigenvalues --   23.93755  23.96771  24.15552  35.55430  35.59583
 Alpha virt. eigenvalues --   35.60846  35.70465  49.86771  49.98857  50.01886
          Condensed to atoms (all electrons):
               1          2          3          4          5          6
     1  O    7.983874   0.419345  -0.176084   0.000660   0.019059   0.000443
     2  C    0.419345   8.598598  -0.751878  -0.715572   0.466284   0.023194
     3  N   -0.176084  -0.751878   8.239007  -0.871769   0.118596   0.029767
     4  C    0.000660  -0.715572  -0.871769  13.878850  -4.202698  -0.164960
     5  C    0.019059   0.466284   0.118596  -4.202698   8.620941   0.207312
     6  O    0.000443   0.023194   0.029767  -0.164960   0.207312   7.949025
     7  O   -0.000129   0.076578   0.033213  -0.209009   0.569284  -0.147317
     8  C    0.015026   0.077574   0.084849  -1.632112  -0.018657  -0.076467
     9  C   -0.083094  -0.362439   0.529909  -0.669589   0.260694   0.040464
    10  C   -0.013783  -0.222552   0.074635   0.167613   0.071422   0.014724
    11  N   -0.000187   0.001154  -0.001375  -0.014401   0.021406   0.000229
    12  C    0.003508  -0.033547  -0.020211   0.100385   0.001416   0.000522
    13  N    0.015073   0.132121  -0.075164  -0.173998   0.127773   0.004426
    14  C    0.104059  -1.647133  -0.271806   0.096501  -0.174554  -0.001012
    15  C    0.016872   0.359585   0.006609  -0.058077   0.003477  -0.000701
    16  N    0.001422   0.014098  -0.003456   0.006431   0.001007  -0.000001
    17  H    0.001627   0.098852   0.222377  -0.008691   0.007198   0.008138
    18  H    0.002217   0.011379  -0.042644   0.437913  -0.073363   0.004681
    19  H    0.000000  -0.000527   0.000683  -0.125647   0.140091   0.231505
    20  H   -0.004803   0.048149  -0.033334  -0.120309   0.020555  -0.000163
    21  H    0.005696   0.009661  -0.006996   0.016929  -0.047966  -0.010500
    22  H   -0.000213  -0.003248   0.003197  -0.009427  -0.009549   0.000640
    23  H    0.000186  -0.001323  -0.002595   0.011803  -0.004584  -0.000227
    24  H   -0.011028   0.021265   0.039971  -0.077629   0.026800   0.000814
    25  H    0.006409  -0.101118   0.021550  -0.008222  -0.000754   0.000067
    26  H    0.002394  -0.104448   0.042842   0.052339  -0.013577  -0.000477
    27  H   -0.010048  -0.007262  -0.008507   0.006521   0.001420   0.000005
    28  H   -0.011165  -0.048595  -0.015893  -0.010092   0.000502   0.000022
    29  H    0.000221  -0.002400  -0.001224  -0.002733   0.000534   0.000005
    30  H    0.000256   0.010193   0.001075   0.000565  -0.000100  -0.000003
               7          8          9         10         11         12
     1  O   -0.000129   0.015026  -0.083094  -0.013783  -0.000187   0.003508
     2  C    0.076578   0.077574  -0.362439  -0.222552   0.001154  -0.033547
     3  N    0.033213   0.084849   0.529909   0.074635  -0.001375  -0.020211
     4  C   -0.209009  -1.632112  -0.669589   0.167613  -0.014401   0.100385
     5  C    0.569284  -0.018657   0.260694   0.071422   0.021406   0.001416
     6  O   -0.147317  -0.076467   0.040464   0.014724   0.000229   0.000522
     7  O    7.924694   0.022914   0.013575  -0.035542  -0.000826  -0.004687
     8  C    0.022914  12.626567  -3.043812  -1.569568  -0.017830  -0.083486
     9  C    0.013575  -3.043812   9.898416  -0.419315  -0.166298  -0.091137
    10  C   -0.035542  -1.569568  -0.419315   7.606273   0.467324  -0.190578
    11  N   -0.000826  -0.017830  -0.166298   0.467324   6.546928   0.365689
    12  C   -0.004687  -0.083486  -0.091137  -0.190578   0.365689   5.340120
    13  N    0.000189  -0.259414  -0.106482   0.031694   0.052947   0.162666
    14  C   -0.012059  -0.112921   0.030337  -0.016917  -0.000326   0.020182
    15  C   -0.001319  -0.014263  -0.018357   0.003189   0.000208   0.000041
    16  N   -0.000056   0.000611   0.000138   0.000093  -0.000002   0.000247
    17  H    0.033937  -0.026323  -0.004903   0.004092  -0.000070  -0.011382
    18  H   -0.004157   0.012015  -0.055679  -0.006624  -0.000228  -0.001123
    19  H   -0.004173  -0.031907   0.015539   0.015287   0.000011   0.000008
    20  H    0.001367   0.559443  -0.142301  -0.043598   0.001925  -0.004696
    21  H   -0.000270   0.464662  -0.116128  -0.030762  -0.004180  -0.000348
    22  H   -0.000410  -0.036368  -0.095905   0.485591  -0.076122   0.029547
    23  H   -0.000170   0.008785   0.083913  -0.024365  -0.068637   0.440165
    24  H    0.001812  -0.160939   0.069415   0.031069   0.018558  -0.073393
    25  H    0.000912   0.018524   0.000112  -0.002827  -0.000043  -0.001459
    26  H   -0.003599  -0.001326   0.000126   0.002541  -0.000074   0.004155
    27  H   -0.000045   0.001250  -0.003795  -0.000858  -0.000047   0.002016
    28  H    0.000126  -0.000082  -0.001560  -0.000705   0.000010  -0.000793
    29  H    0.000026  -0.000575   0.000459  -0.000003   0.000000  -0.000062
    30  H   -0.000007  -0.000017  -0.000001   0.000069  -0.000001   0.000059
              13         14         15         16         17         18
     1  O    0.015073   0.104059   0.016872   0.001422   0.001627   0.002217
     2  C    0.132121  -1.647133   0.359585   0.014098   0.098852   0.011379
     3  N   -0.075164  -0.271806   0.006609  -0.003456   0.222377  -0.042644
     4  C   -0.173998   0.096501  -0.058077   0.006431  -0.008691   0.437913
     5  C    0.127773  -0.174554   0.003477   0.001007   0.007198  -0.073363
     6  O    0.004426  -0.001012  -0.000701  -0.000001   0.008138   0.004681
     7  O    0.000189  -0.012059  -0.001319  -0.000056   0.033937  -0.004157
     8  C   -0.259414  -0.112921  -0.014263   0.000611  -0.026323   0.012015
     9  C   -0.106482   0.030337  -0.018357   0.000138  -0.004903  -0.055679
    10  C    0.031694  -0.016917   0.003189   0.000093   0.004092  -0.006624
    11  N    0.052947  -0.000326   0.000208  -0.000002  -0.000070  -0.000228
    12  C    0.162666   0.020182   0.000041   0.000247  -0.011382  -0.001123
    13  N    6.985951  -0.032097   0.005566   0.000317   0.000758  -0.002744
    14  C   -0.032097   7.816130  -0.505284  -0.067332  -0.015785  -0.013923
    15  C    0.005566  -0.505284   6.226402   0.134565  -0.030941   0.001762
    16  N    0.000317  -0.067332   0.134565   6.608691  -0.003124  -0.000495
    17  H    0.000758  -0.015785  -0.030941  -0.003124   0.411929   0.002757
    18  H   -0.002744  -0.013923   0.001762  -0.000495   0.002757   0.469068
    19  H    0.000624  -0.001920  -0.000037  -0.000004   0.002479   0.000064
    20  H    0.027570  -0.004172  -0.001536   0.000011   0.004226  -0.016611
    21  H    0.006787   0.000494  -0.001051   0.000117  -0.000924  -0.004640
    22  H    0.019061  -0.000265  -0.000022  -0.000006   0.000409   0.000052
    23  H   -0.127087   0.002744  -0.000095   0.000027  -0.000881   0.000215
    24  H    0.366479  -0.017048   0.014834  -0.001776   0.006251  -0.000878
    25  H    0.001624   0.513473  -0.128202   0.010507  -0.000625  -0.000938
    26  H    0.000140   0.363558  -0.030477   0.005030  -0.017272   0.003408
    27  H    0.000790  -0.026373   0.394615  -0.042361  -0.000859   0.000513
    28  H    0.000115   0.093965   0.361518  -0.133245   0.006918  -0.000846
    29  H   -0.000102   0.023507  -0.080414   0.397424   0.000575  -0.000036
    30  H    0.000024  -0.021549  -0.026879   0.398632  -0.000642  -0.000026
              19         20         21         22         23         24
     1  O    0.000000  -0.004803   0.005696  -0.000213   0.000186  -0.011028
     2  C   -0.000527   0.048149   0.009661  -0.003248  -0.001323   0.021265
     3  N    0.000683  -0.033334  -0.006996   0.003197  -0.002595   0.039971
     4  C   -0.125647  -0.120309   0.016929  -0.009427   0.011803  -0.077629
     5  C    0.140091   0.020555  -0.047966  -0.009549  -0.004584   0.026800
     6  O    0.231505  -0.000163  -0.010500   0.000640  -0.000227   0.000814
     7  O   -0.004173   0.001367  -0.000270  -0.000410  -0.000170   0.001812
     8  C   -0.031907   0.559443   0.464662  -0.036368   0.008785  -0.160939
     9  C    0.015539  -0.142301  -0.116128  -0.095905   0.083913   0.069415
    10  C    0.015287  -0.043598  -0.030762   0.485591  -0.024365   0.031069
    11  N    0.000011   0.001925  -0.004180  -0.076122  -0.068637   0.018558
    12  C    0.000008  -0.004696  -0.000348   0.029547   0.440165  -0.073393
    13  N    0.000624   0.027570   0.006787   0.019061  -0.127087   0.366479
    14  C   -0.001920  -0.004172   0.000494  -0.000265   0.002744  -0.017048
    15  C   -0.000037  -0.001536  -0.001051  -0.000022  -0.000095   0.014834
    16  N   -0.000004   0.000011   0.000117  -0.000006   0.000027  -0.001776
    17  H    0.002479   0.004226  -0.000924   0.000409  -0.000881   0.006251
    18  H    0.000064  -0.016611  -0.004640   0.000052   0.000215  -0.000878
    19  H    0.458557  -0.000915   0.000748  -0.000673  -0.000040   0.000412
    20  H   -0.000915   0.477646   0.001208   0.000549  -0.000983   0.002434
    21  H    0.000748   0.001208   0.489441  -0.002017   0.000802  -0.002180
    22  H   -0.000673   0.000549  -0.002017   0.554549  -0.001400   0.003127
    23  H   -0.000040  -0.000983   0.000802  -0.001400   0.539314  -0.013797
    24  H    0.000412   0.002434  -0.002180   0.003127  -0.013797   0.435360
    25  H    0.000012  -0.000984   0.000396  -0.000121   0.000124  -0.003243
    26  H   -0.000237  -0.001154  -0.000297  -0.000011   0.000399  -0.010656
    27  H    0.000001   0.000328   0.000093  -0.000031   0.000206  -0.007494
    28  H    0.000015   0.000610   0.000080  -0.000003  -0.000050   0.003765
    29  H    0.000004  -0.000009  -0.000018   0.000001  -0.000009   0.000292
    30  H   -0.000001  -0.000006   0.000004   0.000000   0.000005  -0.000333
              25         26         27         28         29         30
     1  O    0.006409   0.002394  -0.010048  -0.011165   0.000221   0.000256
     2  C   -0.101118  -0.104448  -0.007262  -0.048595  -0.002400   0.010193
     3  N    0.021550   0.042842  -0.008507  -0.015893  -0.001224   0.001075
     4  C   -0.008222   0.052339   0.006521  -0.010092  -0.002733   0.000565
     5  C   -0.000754  -0.013577   0.001420   0.000502   0.000534  -0.000100
     6  O    0.000067  -0.000477   0.000005   0.000022   0.000005  -0.000003
     7  O    0.000912  -0.003599  -0.000045   0.000126   0.000026  -0.000007
     8  C    0.018524  -0.001326   0.001250  -0.000082  -0.000575  -0.000017
     9  C    0.000112   0.000126  -0.003795  -0.001560   0.000459  -0.000001
    10  C   -0.002827   0.002541  -0.000858  -0.000705  -0.000003   0.000069
    11  N   -0.000043  -0.000074  -0.000047   0.000010   0.000000  -0.000001
    12  C   -0.001459   0.004155   0.002016  -0.000793  -0.000062   0.000059
    13  N    0.001624   0.000140   0.000790   0.000115  -0.000102   0.000024
    14  C    0.513473   0.363558  -0.026373   0.093965   0.023507  -0.021549
    15  C   -0.128202  -0.030477   0.394615   0.361518  -0.080414  -0.026879
    16  N    0.010507   0.005030  -0.042361  -0.133245   0.397424   0.398632
    17  H   -0.000625  -0.017272  -0.000859   0.006918   0.000575  -0.000642
    18  H   -0.000938   0.003408   0.000513  -0.000846  -0.000036  -0.000026
    19  H    0.000012  -0.000237   0.000001   0.000015   0.000004  -0.000001
    20  H   -0.000984  -0.001154   0.000328   0.000610  -0.000009  -0.000006
    21  H    0.000396  -0.000297   0.000093   0.000080  -0.000018   0.000004
    22  H   -0.000121  -0.000011  -0.000031  -0.000003   0.000001   0.000000
    23  H    0.000124   0.000399   0.000206  -0.000050  -0.000009   0.000005
    24  H   -0.003243  -0.010656  -0.007494   0.003765   0.000292  -0.000333
    25  H    0.554785  -0.066280  -0.014278   0.015699  -0.002106   0.001706
    26  H   -0.066280   0.639949   0.023323  -0.056032   0.008825   0.001802
    27  H   -0.014278   0.023323   0.579433  -0.070697   0.012831  -0.014242
    28  H    0.015699  -0.056032  -0.070697   0.703299  -0.007391   0.000426
    29  H   -0.002106   0.008825   0.012831  -0.007391   0.508619  -0.060227
    30  H    0.001706   0.001802  -0.014242   0.000426  -0.060227   0.468615
 Mulliken charges:
               1
     1  O   -0.287814
     2  C   -0.365988
     3  N   -0.165344
     4  C    0.298426
     5  C   -0.139969
     6  O   -0.114156
     7  O   -0.254852
     8  C   -0.806154
     9  C    0.437699
    10  C   -0.397621
    11  N   -0.125742
    12  C    0.046175
    13  N   -0.165605
    14  C   -0.122473
    15  C   -0.631589
    16  N   -0.327510
    17  H    0.309897
    18  H    0.278909
    19  H    0.300039
    20  H    0.229553
    21  H    0.231158
    22  H    0.139066
    23  H    0.157554
    24  H    0.337738
    25  H    0.185298
    26  H    0.155088
    27  H    0.183552
    28  H    0.170078
    29  H    0.203986
    30  H    0.240601
 Sum of Mulliken charges =   0.00000
 Mulliken charges with hydrogens summed into heavy atoms:
               1
     1  O   -0.287814
     2  C   -0.365988
     3  N    0.144553
     4  C    0.577335
     5  C   -0.139969
     6  O    0.185883
     7  O   -0.254852
     8  C   -0.345443
     9  C    0.437699
    10  C   -0.258555
    11  N   -0.125742
    12  C    0.203729
    13  N    0.172133
    14  C    0.217913
    15  C   -0.277959
    16  N    0.117077
 APT charges:
               1
     1  O   -0.264499
     2  C   -0.446006
     3  N   -0.328227
     4  C   -0.282554
     5  C   -0.238962
     6  O   -0.510107
     7  O   -0.179783
     8  C   -1.271674
     9  C    0.520416
    10  C   -0.749089
    11  N    0.105310
    12  C   -0.351033
    13  N   -0.577449
    14  C   -0.705672
    15  C   -0.387129
    16  N   -1.975684
    17  H    0.481452
    18  H    0.502995
    19  H    1.010015
    20  H    0.277491
    21  H    0.654867
    22  H    0.758899
    23  H    0.639573
    24  H    0.135280
    25  H    0.264985
    26  H    0.439038
    27  H    0.274566
    28  H    0.445613
    29  H    0.680917
    30  H    1.076449
 Sum of APT charges =   0.00000
 APT charges with hydrogens summed into heavy atoms:
               1
     1  O   -0.264499
     2  C   -0.446006
     3  N    0.153226
     4  C    0.220441
     5  C   -0.238962
     6  O    0.499908
     7  O   -0.179783
     8  C   -0.339316
     9  C    0.520416
    10  C    0.009810
    11  N    0.105310
    12  C    0.288541
    13  N   -0.442169
    14  C   -0.001650
    15  C    0.333051
    16  N   -0.218319
 Electronic spatial extent (au):  <R**2>=           4496.5259
 Charge=              0.0000 electrons
 Dipole moment (field-independent basis, Debye):
    X=             -3.5034    Y=             -1.4390    Z=              1.8080  Tot=              4.1968
 Quadrupole moment (field-independent basis, Debye-Ang):
   XX=            -98.7598   YY=           -106.8511   ZZ=            -88.6389
   XY=             -9.1620   XZ=              8.2599   YZ=             -4.3585
 Traceless Quadrupole moment (field-independent basis, Debye-Ang):
   XX=             -0.6765   YY=             -8.7678   ZZ=              9.4443
   XY=             -9.1620   XZ=              8.2599   YZ=             -4.3585
 Octapole moment (field-independent basis, Debye-Ang**2):
  XXX=           -242.7753  YYY=            -14.7795  ZZZ=            -12.9965  XYY=            -48.0880
  XXY=            -75.5526  XXZ=             25.9582  XZZ=            -20.9664  YZZ=            -16.2490
  YYZ=            -14.8255  XYZ=             -6.3437
 Hexadecapole moment (field-independent basis, Debye-Ang**3):
 XXXX=          -3651.6377 YYYY=           -814.8258 ZZZZ=          -1208.3068 XXXY=           -399.2427
 XXXZ=           -119.0609 YYYX=           -319.1480 YYYZ=             93.9016 ZZZX=           -194.6228
 ZZZY=             92.1393 XXYY=           -929.8539 XXZZ=           -762.2721 YYZZ=           -384.6128
 XXYZ=            140.3417 YYXZ=           -154.3219 ZZXY=            -57.4697
 N-N= 1.129097596152D+03 E-N=-4.118650526879D+03  KE= 7.934346049234D+02
  Exact polarizability:   0.000   0.000   0.000   0.000   0.000   0.000
 Approx polarizability: 211.967   0.461 221.798  17.740  -2.019 183.111
 Calling FoFJK, ICntrl=    100147 FMM=F ISym2X=0 I1Cent= 0 IOpClX= 0 NMat=1 NMatS=1 NMatT=0.
 -------------------------------------------------------------------
 Center     Atomic                   Forces (Hartrees/Bohr)
 Number     Number              X              Y              Z
 -------------------------------------------------------------------
      1        8          -0.001919440    0.001345058   -0.000840600
      2        6          -0.003898550   -0.005202840   -0.000824381
      3        7           0.001587611   -0.000763293    0.000867689
      4        6           0.000811958   -0.002705089    0.000940077
      5        6           0.002372984   -0.000594419    0.001970562
      6        8          -0.002088643   -0.000430224   -0.001017962
      7        8          -0.000735646    0.001150497    0.002076338
      8        6           0.003674676    0.001709568   -0.003555456
      9        6          -0.001074978   -0.006849113    0.005593957
     10        6           0.006057187    0.006039235   -0.000696008
     11        7          -0.000586030   -0.002409165    0.000378791
     12        6           0.004594661    0.000684186    0.001749351
     13        7          -0.005530126    0.001387337   -0.004779732
     14        6           0.000804144    0.000779337   -0.000237821
     15        6           0.001142697   -0.000760388   -0.000599856
     16        7          -0.001623309   -0.000851936   -0.001128253
     17        1          -0.001475424    0.002773691   -0.000034002
     18        1          -0.001506329   -0.000578050    0.000975467
     19        1           0.003070645    0.001336487    0.003315666
     20        1          -0.000932903   -0.001350995    0.000303484
     21        1           0.000224344   -0.000408313   -0.000339453
     22        1          -0.001198520    0.000829496   -0.001562264
     23        1           0.000329611    0.002519391   -0.001186127
     24        1           0.000971984    0.000514870   -0.000903484
     25        1          -0.001057167    0.000827035    0.000226340
     26        1           0.001182807    0.000316399    0.001173137
     27        1          -0.000678726   -0.000674030   -0.000564808
     28        1           0.000013868   -0.000860020   -0.000701770
     29        1          -0.001495633    0.001891313    0.001748652
     30        1          -0.001037751    0.000333975   -0.002347535
 -------------------------------------------------------------------
 Cartesian Forces:  Max     0.006849113 RMS     0.002201033
 FormGI is forming the generalized inverse of G from B-inverse, IUseBI=4.

 GradGradGradGradGradGradGradGradGradGradGradGradGradGradGradGradGradGrad
 Berny optimization.
 Internal  Forces:  Max     0.009371524 RMS     0.002418586
 Search for a local minimum.
 Step number   1 out of a maximum of  160
 All quantities printed in internal units (Hartrees-Bohrs-Radians)
 Mixed Optimization -- RFO/linear search
 Second derivative matrix not updated -- analytic derivatives used.
 ITU=  0
     Eigenvalues ---   -0.00076  -0.00057   0.00214   0.00254   0.00339
     Eigenvalues ---    0.00398   0.00457   0.00598   0.00854   0.00996
     Eigenvalues ---    0.01783   0.01952   0.02001   0.02470   0.03300
     Eigenvalues ---    0.03463   0.04199   0.04223   0.04300   0.04326
     Eigenvalues ---    0.04539   0.04603   0.05108   0.05113   0.05277
     Eigenvalues ---    0.05512   0.05911   0.06102   0.07665   0.07978
     Eigenvalues ---    0.08278   0.10100   0.10694   0.10732   0.10822
     Eigenvalues ---    0.11581   0.11827   0.13495   0.15120   0.15425
     Eigenvalues ---    0.16179   0.16872   0.17770   0.19039   0.19614
     Eigenvalues ---    0.21278   0.21520   0.22155   0.23048   0.23373
     Eigenvalues ---    0.24363   0.24707   0.25053   0.25708   0.27913
     Eigenvalues ---    0.30009   0.31709   0.32408   0.32659   0.33001
     Eigenvalues ---    0.33451   0.33629   0.33774   0.34263   0.34694
     Eigenvalues ---    0.35381   0.36357   0.37127   0.37239   0.37553
     Eigenvalues ---    0.38916   0.41062   0.41691   0.44363   0.44971
     Eigenvalues ---    0.45417   0.45572   0.46606   0.47275   0.47809
     Eigenvalues ---    0.52649   0.57470   0.79568   0.87068
 RFO step:  Lambda=-3.55632211D-03 EMin=-7.62497442D-04
 Linear search not attempted -- first point.
 Iteration  1 RMS(Cart)=  0.32205951 RMS(Int)=  0.02860781
 Iteration  2 RMS(Cart)=  0.06515371 RMS(Int)=  0.00169251
 Iteration  3 RMS(Cart)=  0.00269800 RMS(Int)=  0.00101372
 Iteration  4 RMS(Cart)=  0.00000521 RMS(Int)=  0.00101371
 Iteration  5 RMS(Cart)=  0.00000000 RMS(Int)=  0.00101371
 Variable       Old X    -DE/DX   Delta X   Delta X   Delta X     New X
                                 (Linear)    (Quad)   (Total)
    R1        2.31538  -0.00118   0.00000  -0.01201  -0.01201   2.30337
    R2        2.56742   0.00937   0.00000   0.03644   0.03644   2.60385
    R3        2.86976   0.00326   0.00000   0.00784   0.00784   2.87760
    R4        2.73373   0.00726   0.00000   0.02289   0.02289   2.75661
    R5        1.90789   0.00262   0.00000   0.00673   0.00673   1.91462
    R6        2.85472   0.00672   0.00000   0.01596   0.01596   2.87068
    R7        2.92214   0.00775   0.00000   0.00693   0.00693   2.92907
    R8        2.06835   0.00125   0.00000   0.00170   0.00170   2.07005
    R9        2.54252   0.00131   0.00000  -0.00312  -0.00312   2.53940
   R10        2.27858   0.00196   0.00000   0.00269   0.00269   2.28127
   R11        1.82484   0.00417   0.00000   0.00725   0.00725   1.83209
   R12        2.81965   0.00421   0.00000   0.00532   0.00532   2.82497
   R13        2.06182   0.00087   0.00000   0.00628   0.00628   2.06810
   R14        2.06063   0.00023   0.00000   0.00191   0.00191   2.06254
   R15        2.58438   0.00674   0.00000   0.01243   0.01239   2.59677
   R16        2.59558   0.00779   0.00000   0.01912   0.01935   2.61493
   R17        2.61386  -0.00333   0.00000  -0.01162  -0.01186   2.60200
   R18        2.04506  -0.00203   0.00000  -0.00505  -0.00505   2.04001
   R19        2.48318  -0.00189   0.00000  -0.00500  -0.00511   2.47807
   R20        2.57273   0.00511   0.00000   0.01131   0.01147   2.58420
   R21        2.03324   0.00251   0.00000   0.00661   0.00661   2.03985
   R22        1.90439  -0.00076   0.00000  -0.00001  -0.00001   1.90438
   R23        2.87292   0.00504   0.00000   0.01277   0.01277   2.88569
   R24        2.06998   0.00032   0.00000   0.00080   0.00080   2.07078
   R25        2.07209   0.00048   0.00000   0.00178   0.00178   2.07387
   R26        2.76857   0.00433   0.00000   0.00692   0.00692   2.77549
   R27        2.06313   0.00027   0.00000  -0.00065  -0.00065   2.06248
   R28        2.07229   0.00052   0.00000   0.00274   0.00274   2.07503
   R29        1.91608   0.00238   0.00000   0.00329   0.00329   1.91937
   R30        1.91411   0.00219   0.00000   0.00271   0.00271   1.91681
    A1        2.11910   0.00246   0.00000   0.00258   0.00255   2.12165
    A2        2.15777  -0.00258   0.00000  -0.00204  -0.00207   2.15570
    A3        2.00623   0.00011   0.00000  -0.00071  -0.00074   2.00549
    A4        2.11381   0.00409   0.00000  -0.02069  -0.02708   2.08673
    A5        2.12025  -0.00373   0.00000  -0.03382  -0.04005   2.08021
    A6        2.01275  -0.00038   0.00000   0.00155  -0.00582   2.00693
    A7        1.86647   0.00166   0.00000   0.01999   0.02013   1.88660
    A8        1.98585   0.00276   0.00000  -0.02041  -0.02057   1.96528
    A9        1.91864  -0.00256   0.00000  -0.02246  -0.02248   1.89617
   A10        1.94811  -0.00255   0.00000   0.01109   0.01114   1.95925
   A11        1.88660  -0.00029   0.00000  -0.00049  -0.00049   1.88611
   A12        1.85647   0.00076   0.00000   0.01191   0.01160   1.86807
   A13        1.95306   0.00065   0.00000  -0.00351  -0.00351   1.94955
   A14        2.17674   0.00090   0.00000   0.00005   0.00005   2.17679
   A15        2.15338  -0.00155   0.00000   0.00345   0.00345   2.15682
   A16        1.85929   0.00366   0.00000   0.02071   0.02071   1.88001
   A17        1.98809   0.00857   0.00000   0.02227   0.02218   2.01027
   A18        1.86956  -0.00289   0.00000  -0.01915  -0.01948   1.85008
   A19        1.88923  -0.00267   0.00000   0.00501   0.00509   1.89432
   A20        1.93128  -0.00047   0.00000   0.02468   0.02473   1.95601
   A21        1.90241  -0.00369   0.00000  -0.02243  -0.02237   1.88003
   A22        1.87988   0.00083   0.00000  -0.01225  -0.01218   1.86770
   A23        2.30846  -0.00263   0.00000  -0.01856  -0.01899   2.28947
   A24        2.14412   0.00645   0.00000   0.02737   0.02692   2.17104
   A25        1.83034  -0.00380   0.00000  -0.00798  -0.00775   1.82259
   A26        1.93295   0.00246   0.00000   0.00671   0.00671   1.93966
   A27        2.22697  -0.00079   0.00000  -0.00414  -0.00417   2.22279
   A28        2.12326  -0.00166   0.00000  -0.00254  -0.00257   2.12069
   A29        1.83473   0.00160   0.00000   0.00347   0.00335   1.83808
   A30        1.94437   0.00110   0.00000   0.00343   0.00372   1.94809
   A31        2.20887  -0.00183   0.00000  -0.00949  -0.00963   2.19923
   A32        2.12995   0.00073   0.00000   0.00605   0.00591   2.13586
   A33        1.88238  -0.00136   0.00000  -0.00560  -0.00610   1.87627
   A34        2.18322   0.00155   0.00000  -0.00461  -0.00602   2.17720
   A35        2.21629  -0.00018   0.00000   0.00601   0.00454   2.22084
   A36        1.97306   0.00115   0.00000   0.00136   0.00133   1.97439
   A37        1.90415   0.00049   0.00000   0.00286   0.00284   1.90699
   A38        1.90601  -0.00154   0.00000  -0.00253  -0.00258   1.90343
   A39        1.91253  -0.00092   0.00000  -0.01209  -0.01207   1.90046
   A40        1.91121   0.00104   0.00000   0.01368   0.01369   1.92490
   A41        1.85300  -0.00031   0.00000  -0.00362  -0.00357   1.84943
   A42        1.90346   0.00192   0.00000   0.00837   0.00834   1.91180
   A43        1.90329   0.00020   0.00000  -0.00217  -0.00215   1.90113
   A44        1.90240  -0.00030   0.00000   0.00575   0.00572   1.90812
   A45        1.89622  -0.00127   0.00000  -0.00631  -0.00631   1.88992
   A46        1.98959  -0.00031   0.00000   0.00063   0.00055   1.99014
   A47        1.86723  -0.00028   0.00000  -0.00680  -0.00680   1.86043
   A48        1.91530   0.00232   0.00000   0.02254   0.02228   1.93757
   A49        1.91878   0.00118   0.00000   0.01174   0.01148   1.93025
   A50        1.84761  -0.00032   0.00000   0.01583   0.01531   1.86292
    D1       -0.13496  -0.00016   0.00000  -0.05343  -0.05170  -0.18666
    D2       -2.97666   0.00000   0.00000   0.15943   0.15767  -2.81899
    D3        3.02031   0.00004   0.00000  -0.03984  -0.03808   2.98223
    D4        0.17861   0.00020   0.00000   0.17302   0.17129   0.34990
    D5        0.00069  -0.00024   0.00000   0.10932   0.10932   0.11001
    D6       -2.13194  -0.00018   0.00000   0.12182   0.12182  -2.01012
    D7        2.13297   0.00077   0.00000   0.12596   0.12594   2.25891
    D8        3.12826  -0.00040   0.00000   0.09543   0.09545  -3.05948
    D9        0.99564  -0.00035   0.00000   0.10793   0.10795   1.10358
   D10       -1.02264   0.00060   0.00000   0.11207   0.11207  -0.91058
   D11       -2.83018   0.00164   0.00000   0.20833   0.20854  -2.62164
   D12        1.29374   0.00186   0.00000   0.19299   0.19338   1.48712
   D13       -0.78611   0.00088   0.00000   0.20716   0.20713  -0.57898
   D14        0.02896   0.00088   0.00000   0.00233   0.00216   0.03112
   D15       -2.13031   0.00110   0.00000  -0.01301  -0.01299  -2.14330
   D16        2.07303   0.00012   0.00000   0.00116   0.00076   2.07379
   D17        3.07468  -0.00163   0.00000   0.00976   0.00970   3.08438
   D18       -0.06475  -0.00137   0.00000   0.01323   0.01317  -0.05158
   D19       -1.02616   0.00134   0.00000   0.00526   0.00537  -1.02078
   D20        2.11760   0.00160   0.00000   0.00874   0.00885   2.12644
   D21        1.00960   0.00064   0.00000   0.02569   0.02564   1.03523
   D22       -2.12983   0.00091   0.00000   0.02916   0.02911  -2.10072
   D23        1.03415   0.00315   0.00000   0.18959   0.18950   1.22365
   D24       -1.10739   0.00027   0.00000   0.15756   0.15766  -0.94973
   D25       -3.13007   0.00214   0.00000   0.17921   0.17922  -2.95085
   D26       -1.08016   0.00088   0.00000   0.16984   0.16983  -0.91033
   D27        3.06149  -0.00200   0.00000   0.13782   0.13799  -3.08371
   D28        1.03881  -0.00013   0.00000   0.15946   0.15955   1.19836
   D29       -3.13413   0.00215   0.00000   0.15728   0.15710  -2.97703
   D30        1.00752  -0.00073   0.00000   0.12526   0.12526   1.13277
   D31       -1.01516   0.00114   0.00000   0.14690   0.14682  -0.86834
   D32       -3.13012  -0.00065   0.00000  -0.04533  -0.04532   3.10774
   D33        0.00935  -0.00091   0.00000  -0.04875  -0.04876  -0.03941
   D34        1.96138  -0.00087   0.00000   0.26382   0.26365   2.22503
   D35       -1.15151  -0.00188   0.00000   0.21906   0.21875  -0.93276
   D36       -2.21443   0.00103   0.00000   0.27284   0.27313  -1.94129
   D37        0.95587   0.00003   0.00000   0.22807   0.22823   1.18410
   D38       -0.15025  -0.00050   0.00000   0.25876   0.25883   0.10858
   D39        3.02004  -0.00151   0.00000   0.21399   0.21393  -3.04921
   D40       -3.12001  -0.00072   0.00000  -0.03541  -0.03482   3.12835
   D41        0.01899  -0.00028   0.00000  -0.02291  -0.02248  -0.00349
   D42       -0.00337   0.00028   0.00000   0.00399   0.00392   0.00056
   D43        3.13563   0.00072   0.00000   0.01649   0.01627  -3.13129
   D44        3.12322   0.00030   0.00000   0.02269   0.02340  -3.13656
   D45        0.03319   0.00021   0.00000   0.10588   0.10602   0.13921
   D46        0.00361  -0.00044   0.00000  -0.01125  -0.01116  -0.00755
   D47       -3.08642  -0.00053   0.00000   0.07193   0.07145  -3.01497
   D48        0.00179  -0.00002   0.00000   0.00499   0.00509   0.00688
   D49       -3.13739  -0.00043   0.00000  -0.00664  -0.00642   3.13938
   D50        0.00059  -0.00026   0.00000  -0.01234  -0.01247  -0.01188
   D51        3.14121   0.00013   0.00000  -0.01272  -0.01281   3.12840
   D52       -0.00272   0.00044   0.00000   0.01531   0.01533   0.01262
   D53        3.08606   0.00060   0.00000  -0.07032  -0.07037   3.01568
   D54        3.13980   0.00008   0.00000   0.01568   0.01567  -3.12771
   D55       -0.05461   0.00024   0.00000  -0.06995  -0.07004  -0.12465
   D56       -3.13491   0.00011   0.00000   0.04008   0.04011  -3.09481
   D57       -1.06670  -0.00018   0.00000   0.03606   0.03608  -1.03062
   D58        0.96610  -0.00057   0.00000   0.02993   0.02992   0.99602
   D59       -1.00699   0.00086   0.00000   0.03594   0.03598  -0.97101
   D60        1.06123   0.00056   0.00000   0.03193   0.03195   1.09318
   D61        3.09402   0.00017   0.00000   0.02580   0.02579   3.11982
   D62        1.01890   0.00055   0.00000   0.03250   0.03249   1.05139
   D63        3.08712   0.00025   0.00000   0.02849   0.02846   3.11558
   D64       -1.16327  -0.00014   0.00000   0.02236   0.02231  -1.14097
   D65       -1.23557   0.00077   0.00000  -0.00528  -0.00515  -1.24072
   D66        3.02231  -0.00087   0.00000  -0.04425  -0.04440   2.97791
   D67        2.97498   0.00015   0.00000  -0.00382  -0.00367   2.97131
   D68        0.94968  -0.00149   0.00000  -0.04279  -0.04291   0.90676
   D69        0.89479   0.00159   0.00000   0.00879   0.00893   0.90372
   D70       -1.13051  -0.00005   0.00000  -0.03018  -0.03032  -1.16083
         Item               Value     Threshold  Converged?
 Maximum Force            0.009372     0.000450     NO 
 RMS     Force            0.002419     0.000300     NO 
 Maximum Displacement     1.233255     0.001800     NO 
 RMS     Displacement     0.365044     0.001200     NO 
 Predicted change in Energy=-2.518964D-03
 GradGradGradGradGradGradGradGradGradGradGradGradGradGradGradGradGradGrad

                          Input orientation:                          
 ---------------------------------------------------------------------
 Center     Atomic      Atomic             Coordinates (Angstroms)
 Number     Number       Type             X           Y           Z
 ---------------------------------------------------------------------
      1          8           0       -1.225346   -1.924565   -0.513899
      2          6           0       -1.372535   -0.756378   -0.198671
      3          7           0       -0.408503   -0.073850    0.510838
      4          6           0        0.706580   -0.807571    1.099189
      5          6           0        1.153480   -0.065664    2.347196
      6          8           0        2.136432   -0.719755    2.988875
      7          8           0        0.686968    0.980034    2.729567
      8          6           0        1.869700   -1.026765    0.098394
      9          6           0        2.635774    0.204154   -0.265928
     10          6           0        3.983091    0.472866   -0.237289
     11          7           0        4.244276    1.749503   -0.682134
     12          6           0        3.072469    2.261745   -0.972103
     13          7           0        2.062435    1.367307   -0.748789
     14          6           0       -2.594061    0.069536   -0.578850
     15          6           0       -3.684644   -0.752311   -1.262265
     16          7           0       -4.793240    0.129257   -1.650856
     17          1           0       -0.662508    0.779197    0.994891
     18          1           0        0.352572   -1.799046    1.401859
     19          1           0        2.397087   -0.183911    3.753637
     20          1           0        1.426631   -1.509824   -0.777984
     21          1           0        2.572834   -1.738802    0.534136
     22          1           0        4.776779   -0.189985    0.072657
     23          1           0        2.889839    3.259530   -1.341245
     24          1           0        1.071137    1.542594   -0.795398
     25          1           0       -2.287862    0.880143   -1.249635
     26          1           0       -2.991745    0.556195    0.320812
     27          1           0       -3.273213   -1.204032   -2.166621
     28          1           0       -3.981245   -1.580474   -0.605071
     29          1           0       -5.308789    0.447160   -0.835525
     30          1           0       -5.454081   -0.366677   -2.239251
 ---------------------------------------------------------------------
                    Distance matrix (angstroms):
                    1          2          3          4          5
     1  O    0.000000
     2  C    1.218890   0.000000
     3  N    2.267700   1.377899   0.000000
     4  C    2.753555   2.451486   1.458737   0.000000
     5  C    4.159350   3.652298   2.410824   1.519101   0.000000
     6  O    5.002254   4.740743   3.610340   2.371308   1.343794
     7  O    4.755388   3.978852   2.689515   2.419514   1.207197
     8  C    3.280283   3.267023   2.503670   1.549995   2.548293
     9  C    4.416014   4.122340   3.154088   2.570783   3.016359
    10  C    5.740384   5.495022   4.488284   3.763140   3.869920
    11  N    6.591194   6.169420   5.137719   4.714556   4.693048
    12  C    6.017171   5.428197   4.446491   4.394130   4.485209
    13  N    4.658444   4.075744   3.125561   3.159662   3.530543
    14  C    2.419512   1.522760   2.446353   3.805176   4.756479
    15  C    2.825310   2.545014   3.786463   4.986218   6.075124
    16  N    4.270915   3.820263   4.892861   6.220001   7.168395
    17  H    3.146992   2.070440   1.013171   2.098359   2.416678
    18  H    2.485097   2.573878   2.085534   1.095423   2.130664
    19  H    5.862061   5.491676   4.289428   3.208248   1.881121
    20  H    2.697171   2.956115   2.662855   2.129651   3.453543
    21  H    3.944497   4.131355   3.414817   2.160875   2.846251
    22  H    6.275215   6.181301   5.205059   4.242842   4.279870
    23  H    6.670389   5.966643   5.041894   5.221461   5.260842
    24  H    4.168245   3.407769   2.551172   3.040664   3.531172
    25  H    3.088144   2.149546   2.746153   4.163176   5.067009
    26  H    3.157701   2.148151   2.665747   4.017877   4.655731
    27  H    2.728446   2.772327   4.080767   5.163473   6.423865
    28  H    2.778793   2.765802   4.034805   5.047532   6.113585
    29  H    4.733184   4.165115   5.108517   6.442215   7.221746
    30  H    4.825563   4.579831   5.753833   7.020920   8.048973
                    6          7          8          9         10
     6  O    0.000000
     7  O    2.248882   0.000000
     8  C    2.918952   3.514138   0.000000
     9  C    3.420043   3.656887   1.494912   0.000000
    10  C    3.903925   4.463617   2.613044   1.374151   0.000000
    11  N    4.900668   4.988609   3.735706   2.269055   1.376919
    12  C    5.045280   4.586475   3.661545   2.218798   2.137585
    13  N    4.281523   3.760432   2.546850   1.383762   2.179582
    14  C    5.977391   4.747608   4.646041   5.240918   6.598354
    15  C    7.208202   6.168204   5.725160   6.469559   7.832356
    16  N    8.382617   7.067149   6.985057   7.557372   8.896079
    17  H    3.749252   2.206926   3.236862   3.577569   4.815983
    18  H    2.620238   3.098050   2.144088   3.465160   4.585745
    19  H    0.969500   2.308245   3.788052   4.045302   4.344451
    20  H    3.913726   4.364563   1.094392   2.159155   3.280076
    21  H    2.693445   3.970954   1.091451   2.102176   2.734118
    22  H    3.969436   5.015443   3.025223   2.203154   1.079527
    23  H    5.928935   5.159481   4.635253   3.249027   3.190520
    24  H    4.535835   3.590186   2.835167   2.125994   3.152028
    25  H    6.332378   4.969269   4.768521   5.066244   6.365184
    26  H    5.919865   4.417541   5.117507   5.668965   6.997625
    27  H    7.488520   6.665271   5.622390   6.364884   7.693391
    28  H    7.147255   6.282374   5.919038   6.861840   8.232990
    29  H    8.450979   6.995923   7.387514   7.968662   9.311154
    30  H    9.223549   8.013443   7.716091   8.346593   9.683641
                   11         12         13         14         15
    11  N    0.000000
    12  C    1.311338   0.000000
    13  N    2.216066   1.367500   0.000000
    14  C    7.042430   6.088513   4.836947   0.000000
    15  C    8.334471   7.404546   6.146980   1.527043   0.000000
    16  N    9.232568   8.177872   7.024726   2.447274   1.468724
    17  H    5.275456   4.474043   3.288101   2.590594   4.071066
    18  H    5.663972   5.433558   4.192220   4.012163   4.948972
    19  H    5.179407   5.363766   4.773899   6.614094   7.903784
    20  H    4.309469   4.119611   2.946690   4.324350   5.189749
    21  H    4.054788   4.303808   3.399164   5.586200   6.584546
    22  H    2.148227   3.163411   3.235366   7.404127   8.584516
    23  H    2.132864   1.079442   2.148513   6.389873   7.702269
    24  H    3.181895   2.133948   1.007755   3.956067   5.301133
    25  H    6.614127   5.542472   4.406048   1.095807   2.148503
    26  H    7.402019   6.430802   5.229406   1.097442   2.167586
    27  H    8.212169   7.328449   6.090253   2.145749   1.091416
    28  H    8.874339   8.040661   6.725782   2.155806   1.098057
    29  H    9.642649   8.576530   7.428940   2.752858   2.063658
    30  H   10.047934   9.012010   7.856602   3.335705   2.057699
                   16         17         18         19         20
    16  N    0.000000
[...]
 01,0.01712249,-0.00002768,0.00005184,0.00009184,-0.00008326,-0.0000820
 3,-0.00002933,0.00008733,-0.00005496,0.00005464,0.00013469,0.00039346,
 -0.00009204,-0.00001909,0.00002073,0.00002230,0.00003690,0.00002747,-0
 .00002031,-0.00031494,-0.00094471,-0.00021085,-0.00002695,0.00000069,-
 0.00040536,0.00057351,0.00116582,0.00078885,0.00071805,-0.00062038,0.0
 0003416,0.01940267,0.05014548,0.00002643,-0.00141304,-0.00114388,0.002
 05178,0.00216888,0.00249337,-0.00265231,-0.00251985,0.00075475,-0.0006
 8821,0.00127593,-0.00091660,-0.00054637,0.00055606,-0.00034610,0.00040
 047,-0.00018036,0.00026234,0.00020497,-0.00038148,0.00022578,0.0009849
 3,-0.00011987,-0.00044036,-0.01012682,-0.00927651,-0.00759500,-0.00223
 820,0.00382309,-0.00072821,-0.00001895,0.00292620,0.00522076,0.0064824
 7,-0.00534974,-0.00228144,-0.17998431,0.01752699,-0.10962913,-0.000124
 67,-0.00006123,0.00013101,0.00017556,0.00007025,-0.00002913,-0.0001167
 8,0.00002199,-0.00010851,0.00086112,0.00036995,-0.00102486,0.00013285,
 -0.00009306,-0.00004165,-0.00004219,0.00001713,-0.00004439,-0.00011133
 ,-0.00006484,0.00004327,-0.00001387,-0.00020539,0.00001287,-0.00112934
 ,0.00015227,0.00117885,0.00030484,-0.00034267,-0.00089344,0.18622827,-
 0.00892549,0.11499664,-0.00132768,-0.00092529,0.00230603,0.00624454,0.
 01060655,-0.02593431,-0.00256120,-0.00019881,0.00067086,-0.00083340,-0
 .00059577,0.00100113,0.00008146,0.00001319,0.00028473,-0.00005515,0.00
 002203,-0.00009176,-0.00003400,-0.00006923,-0.00011973,-0.00021713,0.0
 0015868,-0.00035325,-0.00002175,0.00019204,-0.00009534,0.00006625,0.00
 001834,0.00003198,0.00009870,-0.00005835,0.00007465,-0.00013599,-0.000
 18261,0.00002244,0.00001189,0.00004003,0.00000258,-0.05205540,-0.01611
 074,0.04406624,-0.00934082,-0.01393413,0.02700933,0.00276994,0.0011066
 0,0.00008988,0.00017255,0.00059843,-0.00037823,0.00004068,0.00001267,0
 .00003936,0.00001085,0.00000620,0.00000352,0.00003934,0.00001282,-0.00
 003637,-0.00012714,0.00001702,0.00007951,0.00001353,0.00000327,0.00000
 757,-0.00000781,-0.00000979,0.00000050,-0.00024917,-0.00003754,-0.0001
 1590,0.06174081,0.00229511,0.00031784,-0.00253195,-0.00491271,-0.00853
 314,0.01760978,0.00046010,-0.00019234,-0.00062900,0.00030929,0.0000879
 9,-0.00005122,0.00006067,-0.00004603,-0.00008580,-0.00001688,0.0000178
 1,0.00000660,-0.00004792,0.00004255,0.00004042,0.00003888,0.00000966,0
 .00006973,0.00003416,-0.00002002,0.00001851,-0.00000551,-0.00000510,-0
 .00000051,-0.00001536,-0.00000343,-0.00000906,0.00001184,0.00003313,-0
 .00002098,0.00001988,-0.00002485,-0.00003395,-0.01883684,-0.08448482,0
 .09048920,-0.00728427,-0.00988723,0.01800928,0.00192836,0.00118250,-0.
 00084336,0.00023644,0.00018785,-0.00011349,-0.00004004,-0.00001430,-0.
 00004889,-0.00000123,-0.00000297,0.00000492,-0.00002853,-0.00001286,0.
 00003957,0.00001491,0.00000095,-0.00000649,-0.00000316,-0.00000056,0.0
 0000330,-0.00000887,-0.00000067,0.00000622,0.00002404,0.00011610,0.000
 06983,0.02346929,0.09208958,-0.00013086,-0.00096458,0.00073098,0.00011
 089,0.00303431,-0.00869054,-0.00125491,0.00051748,0.00071556,-0.000516
 60,-0.00025070,0.00033212,0.00007602,-0.00002807,0.00002329,-0.0000548
 2,0.00002124,-0.00003786,-0.00008187,0.00000520,0.00001768,-0.00008187
 ,0.00013743,-0.00019107,-0.00003788,0.00016255,-0.00009766,0.00005594,
 0.00001839,0.00002984,0.00010879,-0.00003682,0.00006982,-0.00014306,-0
 .00014894,-0.00000225,0.00006498,-0.00003115,0.00003073,0.04948963,0.0
 8960213,-0.25221692,-0.00018310,0.00003380,0.00160914,-0.00021050,-0.0
 0104578,0.00060340,0.00054440,0.00051909,-0.00027771,0.00007197,-0.000
 01967,0.00002156,0.00001238,0.00000924,-0.00000817,-0.00000479,-0.0000
 0350,-0.00001442,-0.00006322,-0.00001391,0.00004830,0.00001282,0.00000
 035,0.00000473,-0.00001357,-0.00000966,0.00000697,-0.00029734,0.000040
 74,-0.00003180,-0.05099545,-0.09926606,0.27340928,-0.00411859,0.005591
 10,-0.00326055,0.00074364,0.01659293,0.02143000,-0.00034906,-0.0010908
 4,-0.00103045,0.00022718,-0.00027805,0.00007680,-0.00008838,0.00022910
 ,0.00009954,0.00006620,-0.00007621,0.00001730,0.00009827,-0.00018771,-
 0.00006339,0.00005998,-0.00002590,0.00006418,-0.00001051,0.00005415,-0
 .00004901,0.00001896,-0.00000674,0.00000176,0.00001431,-0.00002974,0.0
 0001867,-0.00004540,-0.00004349,-0.00000416,0.00004979,-0.00003084,-0.
 00003209,-0.05459538,0.02386846,0.01908326,0.00309600,-0.02303012,-0.0
 2026361,0.00228019,0.00003005,0.00072223,-0.00156931,0.00077453,-0.001
 19550,0.00016323,-0.00003073,0.00015403,-0.00000826,0.00000567,-0.0000
 0330,0.00006663,0.00000918,-0.00004466,0.00001714,-0.00000389,-0.00001
 631,0.00000137,0.00000151,0.00000437,-0.00000906,-0.00000346,0.0000094
 0,-0.00005471,0.00009651,0.00007468,-0.00124911,0.00461566,0.00399137,
 0.05955002,0.00495828,-0.00218075,0.00178884,-0.00241196,-0.01566072,-
 0.01464582,-0.00122108,0.00129310,0.00024237,-0.00002546,-0.00003914,0
 .00068997,0.00026200,-0.00031343,-0.00012014,-0.00010854,0.00011241,-0
 .00003153,-0.00020112,0.00018170,0.00011429,-0.00012418,0.00011608,-0.
 00014344,0.00000175,-0.00000048,0.00002681,-0.00000694,0.00000605,0.00
 000422,-0.00000038,0.00000578,-0.00000362,0.00000809,0.00001095,-0.000
 00167,-0.00001741,0.00000537,0.00002099,0.02595263,-0.18835489,-0.1216
 6115,0.00248271,-0.01414173,-0.01186445,0.00042981,0.00123316,0.000971
 82,0.00107506,0.00090059,0.00056437,-0.00004208,0.00006183,-0.00009296
 ,0.00002443,-0.00000523,0.00000895,-0.00005915,-0.00001333,0.00004454,
 -0.00005283,-0.00000328,0.00004391,0.00000336,-0.00000193,-0.00000293,
 0.00000048,0.00000002,-0.00000197,0.00001394,-0.00002030,-0.00003157,-
 0.00164865,0.01011670,0.00762861,-0.02595817,0.20689796,-0.00183979,0.
 00259463,0.00088346,-0.00209122,0.00772387,0.00438025,0.00003947,0.000
 58014,-0.00019673,0.00022582,0.00010050,0.00048248,0.00006646,-0.00012
 478,-0.00008460,0.00000743,0.00002633,0.00004752,0.00001856,0.00008989
 ,0.00003734,-0.00001996,-0.00002279,-0.00003083,-0.00000258,-0.0000452
 9,0.00001620,-0.00001740,0.00000040,-0.00000828,-0.00001183,0.00003524
 ,-0.00001231,0.00003681,0.00002584,0.00001830,-0.00004140,0.00003760,0
 .00003630,0.02193647,-0.12429692,-0.15302967,0.00026756,-0.00172597,-0
 .00173752,-0.00009228,0.00062290,0.00026463,-0.00054033,0.00034264,0.0
 0055694,-0.00000417,0.00006935,0.00000283,-0.00000174,-0.00001182,0.00
 000520,0.00000100,0.00002758,0.00000800,0.00000863,0.00000308,0.000015
 81,-0.00000238,-0.00000057,-0.00000574,0.00001571,0.00000200,-0.000016
 86,0.00004760,-0.00012280,-0.00009588,0.00417399,-0.02237602,-0.018372
 66,-0.02004917,0.13588930,0.16460874,-0.00040644,0.00150334,0.00103749
 ,0.00053651,-0.00245915,-0.00187010,0.00042192,0.00090854,0.00057689,-
 0.00008329,0.00021524,0.00001222,0.00003517,-0.00009850,-0.00009614,-0
 .00000499,0.00002937,0.00002880,-0.00003022,0.00007724,0.00006813,-0.0
 0000389,-0.00001548,-0.00001322,-0.00001100,-0.00002188,0.00001534,-0.
 00000891,0.00000244,-0.00000297,0.00000496,0.00002113,-0.00000549,0.00
 001000,0.00000978,-0.00000045,-0.00000234,0.00001257,0.00001531,0.0030
 8025,-0.02287066,-0.01927424,-0.05320162,0.02771042,0.02595068,-0.0081
 8126,0.02441548,0.01511515,0.00039775,-0.00015133,0.00030055,-0.000066
 60,0.00000171,-0.00006019,0.00000088,-0.00000328,-0.00000085,-0.000029
 73,0.00000729,0.00001730,0.00000312,0.00000070,0.00000326,-0.00000103,
 -0.00000143,-0.00000199,0.00000410,0.00000147,-0.00000450,0.00002003,-
 0.00004400,-0.00002023,0.00147443,0.00050543,0.00026164,-0.00540162,-0
 .00295501,-0.00068754,0.06472803,0.00129593,0.00092958,0.00126839,0.00
 106164,-0.00159903,-0.00032004,-0.00011060,0.00009033,-0.00021055,0.00
 004881,0.00001437,0.00001357,0.00003497,-0.00002746,-0.00000152,-0.000
 02855,0.00001542,-0.00001921,-0.00002569,0.00003499,-0.00000079,-0.000
 00361,-0.00000219,-0.00001769,0.00000023,-0.00000097,0.00000797,-0.000
 00041,0.00000339,0.00000164,-0.00000154,0.00000025,0.00000242,0.000000
 93,0.00000084,0.00000202,-0.00001330,0.00000931,0.00001372,-0.00090550
 ,-0.01442524,-0.01253802,0.02991682,-0.19393740,-0.12385992,0.00582912
 ,-0.01715376,-0.01050300,0.00003273,0.00006279,0.00013717,-0.00002425,
 0.00002232,-0.00001309,0.00000121,-0.00000217,0.00000240,-0.00001046,0
 .00000376,0.00000393,-0.00000406,0.00000174,0.00000653,0.00000113,-0.0
 0000060,-0.00000167,0.00000248,-0.00000167,-0.00000440,0.00001336,-0.0
 0001939,-0.00003503,0.00055445,0.00041685,0.00008097,-0.00266500,-0.00
 097533,0.00021519,-0.03582028,0.21592765,0.00112668,0.00175918,0.00051
 748,0.00043751,-0.00307997,-0.00081116,-0.00000101,0.00052695,0.000344
 75,-0.00001468,-0.00000637,-0.00002489,0.00003864,-0.00006182,-0.00006
 500,-0.00001942,0.00002563,-0.00000257,-0.00003908,0.00005234,0.000060
 32,0.00000306,-0.00000590,-0.00000542,-0.00000059,-0.00001988,0.000017
 68,-0.00000743,0.00000010,-0.00000256,-0.00000805,0.00001111,-0.000009
 28,0.00001598,0.00001707,0.00000101,-0.00000449,-0.00000012,-0.0000028
 5,-0.00093546,-0.00119814,-0.00198634,0.02755582,-0.13030650,-0.163980
 40,-0.00310291,0.01357415,0.01056293,0.00005747,0.00004428,0.00010113,
 -0.00001193,0.00000162,-0.00002831,0.00000378,-0.00000231,-0.00000012,
 -0.00001562,-0.00000297,0.00001611,-0.00000044,0.00000097,-0.00000139,
 -0.00000106,-0.00000069,-0.00000165,0.00000256,0.00000236,-0.00000096,
 0.00002075,-0.00001070,0.00000948,-0.00042214,0.00043491,0.00093980,-0
 .00052466,0.00025768,0.00138438,-0.02639396,0.13618777,0.17104998,-0.0
 0006340,0.00129898,-0.00027446,0.00162824,-0.00245765,0.00140389,-0.00
 039517,0.00031025,-0.00063807,0.00005769,-0.00015651,0.00002774,-0.000
 02042,0.00004150,0.00010265,-0.00002971,0.00000696,-0.00006837,0.00001
 512,-0.00000547,-0.00007700,-0.00003101,0.00002810,-0.00001216,0.00003
 637,-0.00005462,0.00004844,-0.00002119,-0.00000775,-0.00000975,-0.0000
 5918,-0.00000177,-0.00003183,0.00006922,0.00006966,0.00000354,-0.00004
 301,-0.00000120,-0.00001754,-0.01009072,-0.01065167,0.02508011,-0.0653
 1721,-0.02318256,0.05489075,0.00014823,0.01718191,-0.02850785,-0.00002
 441,-0.00002379,0.00016404,-0.00005318,0.00004309,0.00000429,-0.000010
 41,-0.00000567,0.00000688,0.00001495,-0.00001685,-0.00000452,-0.000019
 21,0.00000347,-0.00000057,-0.00000428,0.00000048,-0.00000159,0.0000043
 0,0.00000400,-0.00000118,0.00010739,0.00000694,0.00001596,-0.00485640,
 -0.00321465,-0.00070982,0.00130481,0.00037360,-0.00062780,-0.00022819,
 -0.00198603,0.00400953,0.07553295,-0.00006172,0.00058635,0.00023926,0.
 00076395,-0.00097362,0.00037789,-0.00020370,0.00019911,-0.00039195,-0.
 00000124,-0.00006136,-0.00003394,-0.00008850,0.00010623,0.00006658,0.0
 0002781,-0.00002799,-0.00001608,0.00006993,-0.00004166,-0.00006665,-0.
 00001874,0.00000095,0.00000240,0.00001589,-0.00003289,0.00001909,-0.00
 001319,-0.00000589,-0.00000779,-0.00002487,0.00001022,-0.00002179,0.00
 003512,0.00003150,0.00000471,-0.00001284,-0.00000006,-0.00001104,-0.00
 846818,-0.00673053,0.01565151,-0.02384849,-0.08410449,0.07378913,0.005
 22283,-0.01074641,0.02058508,-0.00010192,-0.00005285,0.00011909,-0.000
 02290,0.00002547,0.00000085,-0.00001826,-0.00000361,-0.00000010,0.0000
 0718,-0.00000620,-0.00000661,-0.00000454,0.00000254,-0.00000193,-0.000
 00483,0.00000116,-0.00000006,0.00000306,0.00000380,0.00000047,0.000052
 29,-0.00001014,0.00001923,-0.00293956,-0.00122117,0.00001143,0.0009957
 2,0.00034171,0.00033972,0.00587400,0.01056503,-0.02056603,0.02359556,0
 .09152981,0.00016432,-0.00103665,0.00056110,0.00000258,0.00146016,0.00
 014284,0.00048408,-0.00029329,0.00013847,0.00001742,0.00011137,0.00001
 460,0.00005258,-0.00002560,-0.00004423,-0.00000717,-0.00000775,0.00003
 414,-0.00004072,-0.00001158,0.00004108,0.00001704,-0.00002622,0.000005
 58,-0.00001280,0.00002115,-0.00000300,0.00000695,0.00000720,0.00000800
 ,0.00000941,-0.00001802,0.00001547,-0.00002188,-0.00001690,-0.00000590
 ,0.00000754,0.00000209,0.00000746,-0.00044999,-0.00218715,0.00286434,0
 .05707501,0.07402405,-0.23612059,-0.00718919,0.01034408,-0.00855404,0.
 00001327,0.00006448,-0.00014145,0.00004126,-0.00003907,-0.00000444,0.0
 0002095,0.00001102,-0.00000139,-0.00000809,0.00000376,-0.00000069,0.00
 001307,-0.00000172,-0.00000238,0.00000461,-0.00000127,-0.00000041,-0.0
 0000331,-0.00000404,0.,-0.00000783,0.00001375,-0.00001559,-0.00130821,
 -0.00052857,0.00132523,0.00035736,0.00048554,0.00083701,0.00641203,0.0
 0795820,-0.01932740,-0.05444991,-0.09015221,0.25693576,-0.00006714,-0.
 00107748,-0.00027209,-0.00059527,0.00106201,-0.00041337,0.00007075,-0.
 00017301,0.00001940,-0.00005877,0.00004795,-0.00003067,-0.00007908,0.0
 0006672,-0.00004324,0.00006140,-0.00004218,0.00005693,0.00005179,-0.00
 005539,0.00001698,0.00000588,-0.00000879,0.00001926,-0.00001205,0.0000
 1778,-0.00002597,0.00000514,-0.00000055,0.00000179,0.00003020,0.000000
 51,0.00001118,-0.00003451,-0.00002366,-0.00000828,0.00003648,-0.000006
 78,-0.00000087,0.00110593,0.00137570,0.00151177,-0.00768651,0.01764466
 ,0.02282374,-0.09306193,0.09187553,0.06765105,-0.00009072,0.00001124,-
 0.00007670,0.00001531,-0.00001370,0.00000400,-0.00000502,0.00000603,-0
 .00001298,-0.00000318,0.00000747,0.00000018,0.00001274,-0.00000103,-0.
 00000131,0.00000030,-0.00000078,0.00000258,-0.00000663,-0.00000185,0.0
 0000505,-0.00003611,0.00001859,0.00001642,-0.00016029,0.00007506,0.000
 04275,-0.00060238,-0.00075867,-0.00076756,-0.00374128,0.00269874,-0.00
 262648,0.00124997,-0.00065148,-0.00087967,0.09356032,0.00010056,0.0000
 4062,0.00006796,0.00009585,-0.00022880,-0.00003677,-0.00003362,-0.0000
 2659,0.00008258,-0.00000033,0.00001871,-0.00001703,0.00000487,0.000018
 09,-0.00002162,0.00000326,-0.00001443,0.00001677,-0.00001305,-0.000026
 50,0.00002099,0.00000678,0.00000169,-0.00000300,-0.00000341,0.00001523
 ,-0.00000714,0.00000448,0.00000177,0.00000417,0.00001119,-0.00001518,0
 .00000918,-0.00001905,-0.00000879,-0.00000878,0.00001326,-0.00000525,-
 0.00000058,-0.00037100,0.00121105,0.00060049,0.00801514,-0.01705038,-0
 .01538783,0.07014394,-0.19498713,-0.16419835,0.00000493,0.00006693,-0.
 00005112,0.00000954,-0.00001065,-0.00000446,0.00000823,0.00000793,-0.0
 0000583,-0.00000328,0.00000115,0.00000130,0.00000162,-0.00000157,0.000
 00133,0.00000239,-0.00000102,0.00000145,-0.00000607,-0.00000228,0.0000
 0422,-0.00001487,0.00002467,-0.00000067,-0.00014473,-0.00003106,0.0002
 3071,0.00049527,0.00028576,-0.00032024,0.00318046,-0.00082545,0.002848
 91,-0.00162408,0.00065498,-0.00052678,-0.08786513,0.22631608,-0.000267
 30,0.00007122,-0.00004917,0.00015765,0.00007902,0.00013595,0.00003638,
 -0.00001084,-0.00010507,-0.00001994,0.00000296,0.00000262,-0.00004108,
 0.00002560,0.00001283,0.00002453,-0.00000861,0.00000677,0.00003873,-0.
 00000620,-0.00002121,-0.00000528,-0.00000745,0.00000920,-0.00000123,-0
 .00001149,0.00000022,-0.00000402,-0.00000197,-0.00000473,-0.00000133,0
 .00001646,-0.00000746,0.00000868,0.00000041,0.00000547,-0.00000060,0.0
 0000440,-0.00000001,0.00070637,0.00027810,0.00054990,-0.00695720,0.016
 92111,0.00792596,0.06525968,-0.20951020,-0.21283457,-0.00004879,-0.000
 04136,0.00003152,-0.00000534,0.00000471,0.00000474,-0.00001111,-0.0000
 0436,0.00000030,0.00000088,0.00000120,-0.00000200,0.00000278,0.0000014
 3,-0.00000232,-0.00000306,0.00000117,-0.00000012,0.00000411,0.00000222
 ,-0.00000182,0.00000662,-0.00002266,0.00000753,0.00013745,-0.00014348,
 -0.00028310,0.00028418,-0.00034634,0.00002419,-0.00227676,0.00196815,0
 .00026675,-0.00001458,0.00063250,0.00180401,-0.06429723,0.19307919,0.2
 1231833,0.00008156,0.00077012,0.00018776,-0.00037408,-0.00263265,-0.00
 024303,-0.00079182,0.00056185,-0.00030515,0.00008333,-0.00021655,-0.00
 011088,0.00001092,0.00008460,0.00013470,-0.00006672,0.00000320,-0.0001
 0224,-0.00001999,-0.00002565,-0.00007692,-0.00000502,0.00002415,-0.000
 03677,0.00001709,0.00000885,0.00001753,0.00000201,-0.00000032,0.000003
 60,-0.00002164,-0.00002198,-0.00000095,0.00001130,0.00001156,0.0000015
 8,-0.00002922,0.00000143,0.00000362,-0.00433696,0.00555302,-0.00214294
 ,-0.02024016,-0.01877331,-0.00201429,-0.28919038,-0.15831238,-0.095096
 69,0.00000880,0.00005590,0.00007962,-0.00001715,0.00001852,-0.00000063
 ,-0.00000260,0.00000067,0.00000417,0.00001351,-0.00001180,-0.00000485,
 -0.00002396,-0.00000041,0.00000676,0.00000198,-0.00000005,-0.00000091,
 -0.00000040,-0.00000248,-0.00000117,0.00002673,0.00001542,-0.00003129,
 0.00046747,0.00031685,-0.00006393,0.00034405,0.00000550,-0.00004835,0.
 00068524,0.00010671,0.00085763,0.00109785,-0.00017838,-0.00032071,0.01
 003467,0.00799685,0.00728682,0.30223358,-0.00014435,-0.00008685,-0.000
 01124,0.00070031,0.00107353,-0.00007270,0.00023208,-0.00024829,0.00014
 025,-0.00001839,0.00002603,0.00010178,0.00001971,-0.00004522,-0.000024
 36,0.00000557,0.00000714,0.00002155,-0.00000798,0.00001405,0.00001428,
 -0.00000934,0.00000257,0.00000212,-0.00000149,-0.00000424,-0.00000101,
 -0.00000083,0.00000102,-0.00000051,-0.00000226,0.00000071,0.00000030,0
 .00000417,0.00000209,0.00000121,-0.00000243,0.00000057,-0.00000094,0.0
 0237695,-0.00208353,0.00132972,0.02189835,0.01166146,0.01006810,-0.166
 02538,-0.17344392,-0.08124057,0.00002354,-0.00000909,-0.00003836,0.000
 01183,-0.00000269,0.00000736,0.00000635,0.00000073,0.00000291,0.000000
 18,0.00000228,-0.00000180,0.00000335,0.00000060,-0.00000026,0.00000035
 ,-0.00000023,-0.00000040,0.00000172,0.00000044,-0.00000141,-0.00000010
 ,-0.00000548,0.00000298,0.00002359,-0.00013896,-0.00023481,0.00010104,
 0.00014138,0.00032100,-0.00003561,0.00087204,-0.00048363,0.00042577,-0
 .00003999,0.00036997,-0.02422749,-0.01542960,-0.00297492,0.16464079,0.
 17773144,0.00018506,-0.00007845,-0.00019004,-0.00022148,-0.00004598,0.
 00064447,0.00025432,-0.00010253,0.00009090,-0.00002364,0.00005850,-0.0
 0000649,-0.00006282,0.00002899,-0.00004883,0.00006305,-0.00001984,0.00
 004766,0.00005138,-0.00001704,0.00001518,0.00000530,-0.00001453,0.0000
 2972,-0.00000851,-0.00000383,-0.00001512,0.00000012,-0.00000328,-0.000
 00592,0.00002154,0.00001806,-0.00000352,-0.00001140,-0.00001080,-0.000
 00144,0.00002782,-0.00000651,-0.00000588,0.00066122,0.00140707,-0.0002
 4314,-0.01311716,-0.00484306,-0.00714747,-0.05760209,-0.05177806,-0.03
 930095,-0.00004907,-0.00003688,-0.00002216,-0.00000348,-0.00000378,0.0
 0000103,-0.00001396,-0.00000332,-0.00000219,-0.00000801,0.00000663,0.0
 0000385,0.00001515,0.00000104,-0.00000258,-0.00000366,0.00000142,0.000
 00321,-0.00000263,0.00000332,0.00000495,-0.00002801,-0.00000554,0.0000
 2932,-0.00015103,-0.00011346,0.00030576,0.00014771,0.00016539,-0.00001
 846,0.00089385,-0.00034511,0.00097850,-0.00031083,-0.00058275,-0.00051
 359,-0.02272665,-0.01637908,-0.00979469,0.09201792,0.07270340,0.055167
 93\\0.00001101,-0.00000102,0.00000364,-0.00000661,-0.00001146,-0.00000
 664,0.00000146,0.00000595,0.00000480,-0.00000257,-0.00000293,0.0000004
 2,-0.00000034,-0.00000027,0.00000105,-0.00000205,0.00000118,-0.0000003
 2,-0.00000082,0.00000245,0.00000225,-0.00000087,-0.00000003,-0.0000003
 6,-0.00000140,-0.00000343,0.00000350,0.00000522,0.00000288,-0.00000018
 ,-0.00000025,-0.00000230,0.00000033,0.00000267,0.00000059,0.00000168,-
 0.00000247,0.00000018,-0.00000307,-0.00000103,0.00000441,-0.00000026,0
 .00000727,-0.00000558,-0.00000632,0.00000034,0.00000256,0.00000082,-0.
 00000362,0.00000265,0.00000072,0.00000015,0.00000055,0.00000189,0.0000
 0106,0.00000196,0.00000348,-0.00000174,-0.00000318,-0.00000108,-0.0000
 0074,-0.00000200,-0.00000005,-0.00000050,0.00000091,-0.00000030,0.0000
 0106,0.00000075,-0.00000156,-0.00000020,-0.00000216,-0.00000225,-0.000
 00216,0.00000301,-0.00000069,0.00000022,0.00000337,-0.00000296,-0.0000
 0122,0.00000189,0.00000358,-0.00000008,-0.00000235,0.00000103,-0.00000
 118,0.00000262,-0.00000162,-0.00000062,-0.00000119,-0.00000154\\\@


 THERE'S SMALL CHOICE IN A BOWL OF ROTTEN APPLES.
                     SHAKESPEARE
 Job cpu time:       0 days  4 hours 39 minutes 17.3 seconds.
 File lengths (MBytes):  RWF=    542 Int=      0 D2E=      0 Chk=     17 Scr=      1
 Normal termination of Gaussian 09 at Thu Jul 29 01:53:56 2021.
