 Entering Gaussian System, Link 0=g09
 Input=opt_freq-conf-490.com
 Output=opt_freq-conf-490.log
 Initial command:
 /aerosol/software/g09/l1.exe "/scratch/nicole/10563/Gau-102171.inp" -scrdir="/scratch/nicole/10563/"
 Entering Link 1 = /aerosol/software/g09/l1.exe PID=    102174.
  
 Copyright (c) 1988,1990,1992,1993,1995,1998,2003,2009,2013,
            Gaussian, Inc.  All Rights Reserved.
  
 This is part of the Gaussian(R) 09 program.  It is based on
 the Gaussian(R) 03 system (copyright 2003, Gaussian, Inc.),
 the Gaussian(R) 98 system (copyright 1998, Gaussian, Inc.),
 the Gaussian(R) 94 system (copyright 1995, Gaussian, Inc.),
 the Gaussian 92(TM) system (copyright 1992, Gaussian, Inc.),
 the Gaussian 90(TM) system (copyright 1990, Gaussian, Inc.),
 the Gaussian 88(TM) system (copyright 1988, Gaussian, Inc.),
 the Gaussian 86(TM) system (copyright 1986, Carnegie Mellon
 University), and the Gaussian 82(TM) system (copyright 1983,
 Carnegie Mellon University). Gaussian is a federally registered
 trademark of Gaussian, Inc.
  
 This software contains proprietary and confidential information,
 including trade secrets, belonging to Gaussian, Inc.
  
 This software is provided under written license and may be
 used, copied, transmitted, or stored only in accord with that
 written license.
  
 The following legend is applicable only to US Government
 contracts under FAR:
  
                    RESTRICTED RIGHTS LEGEND
  
 Use, reproduction and disclosure by the US Government is
 subject to restrictions as set forth in subparagraphs (a)
 and (c) of the Commercial Computer Software - Restricted
 Rights clause in FAR 52.227-19.
  
 Gaussian, Inc.
 340 Quinnipiac St., Bldg. 40, Wallingford CT 06492
  
  
 ---------------------------------------------------------------
 Warning -- This program may not be used in any manner that
 competes with the business of Gaussian, Inc. or will provide
 assistance to any competitor of Gaussian, Inc.  The licensee
 of this program is prohibited from giving any competitor of
 Gaussian, Inc. access to this program.  By using this program,
 the user acknowledges that Gaussian, Inc. is engaged in the
 business of creating and licensing software in the field of
 computational chemistry and represents and warrants to the
 licensee that it is not a competitor of Gaussian, Inc. and that
 it will not use this program in any manner prohibited above.
 ---------------------------------------------------------------
  

 Cite this work as:
 Gaussian 09, Revision D.01,
 M. J. Frisch, G. W. Trucks, H. B. Schlegel, G. E. Scuseria, 
 M. A. Robb, J. R. Cheeseman, G. Scalmani, V. Barone, B. Mennucci, 
 G. A. Petersson, H. Nakatsuji, M. Caricato, X. Li, H. P. Hratchian, 
 A. F. Izmaylov, J. Bloino, G. Zheng, J. L. Sonnenberg, M. Hada, 
 M. Ehara, K. Toyota, R. Fukuda, J. Hasegawa, M. Ishida, T. Nakajima, 
 Y. Honda, O. Kitao, H. Nakai, T. Vreven, J. A. Montgomery, Jr., 
 J. E. Peralta, F. Ogliaro, M. Bearpark, J. J. Heyd, E. Brothers, 
 K. N. Kudin, V. N. Staroverov, T. Keith, R. Kobayashi, J. Normand, 
 K. Raghavachari, A. Rendell, J. C. Burant, S. S. Iyengar, J. Tomasi, 
 M. Cossi, N. Rega, J. M. Millam, M. Klene, J. E. Knox, J. B. Cross, 
 V. Bakken, C. Adamo, J. Jaramillo, R. Gomperts, R. E. Stratmann, 
 O. Yazyev, A. J. Austin, R. Cammi, C. Pomelli, J. W. Ochterski, 
 R. L. Martin, K. Morokuma, V. G. Zakrzewski, G. A. Voth, 
 P. Salvador, J. J. Dannenberg, S. Dapprich, A. D. Daniels, 
 O. Farkas, J. B. Foresman, J. V. Ortiz, J. Cioslowski, 
 and D. J. Fox, Gaussian, Inc., Wallingford CT, 2013.
 
 ******************************************
 Gaussian 09:  ES64L-G09RevD.01 24-Apr-2013
                28-Jul-2021 
 ******************************************
 %mem=2gb
 %nproc=4
 Will use up to    4 processors via shared memory.
 %chk=conf-490.chk
 ----------------------------------------------------------------------
 # B3LYP/6-311++G(d,p) opt=calcfc freq=noraman nosymm integral(ultrafin
 egrid)
 ----------------------------------------------------------------------
 1/10=4,14=-1,18=20,19=15,26=4,38=1/1,3;
 2/9=110,12=2,15=1,17=6,18=5,40=1/2;
 3/5=4,6=6,7=1111,11=2,16=1,25=1,30=1,71=2,74=-5,75=-5,140=1/1,2,3;
 4//1;
 5/5=2,38=5/2;
 8/6=4,10=90,11=11/1;
 11/6=1,8=1,9=11,15=111,16=1,31=1/1,2,10;
 10/6=1,13=1,31=1/2;
 6/7=2,8=2,9=2,10=2,28=1/1;
 7/10=1,18=20,25=1,30=1/1,2,3,16;
 1/10=4,14=-1,18=20,19=15,26=4/3(2);
 2/9=110,15=1/2;
 99//99;
 2/9=110,15=1/2;
 3/5=4,6=6,7=1111,11=2,16=1,25=1,30=1,71=1,74=-5,75=-5/1,2,3;
 4/5=5,16=3,69=1/1;
 5/5=2,38=5/2;
 7/30=1/1,2,3,16;
 1/14=-1,18=20,19=15,26=4/3(-5);
 2/9=110,15=1/2;
 6/7=2,8=2,9=2,10=2,19=2,28=1/1;
 99/9=1/99;
 ------------------------------------------------------------
 Candidate Structure: Conf:490 OPT and FREQ calc in gas phase
 ------------------------------------------------------------
 Symbolic Z-matrix:
 Charge =  0 Multiplicity = 1
 O                     0.913     0.9289   -2.24247 
 C                     1.56627   0.4006   -1.35321 
 N                     1.05027   0.12252  -0.13577 
 C                    -0.32435   0.42458   0.18659 
 C                    -0.43043   0.50298   1.702 
 O                    -1.3911    1.30232   2.19774 
 O                     0.28298  -0.12782   2.43433 
 C                    -1.257    -0.67083  -0.37914 
 C                    -2.70556  -0.35734  -0.2054 
 C                    -3.62833   0.20778  -1.04377 
 N                    -4.84486   0.36254  -0.40561 
 C                    -4.65235  -0.10291   0.80672 
 N                    -3.384    -0.55819   0.97765 
 C                     3.01793  -0.01984  -1.55981 
 C                     3.91774   0.14247  -0.34199 
 N                     3.5602   -0.81054   0.72089 
 H                     1.63306  -0.33931   0.55327 
 H                    -0.58842   1.37988  -0.27792 
 H                    -1.92064   1.69836   1.49395 
 H                    -1.03512  -0.75151  -1.44155 
 H                    -1.00271  -1.62409   0.08654 
 H                    -3.48786   0.51616  -2.06882 
 H                    -5.37716  -0.13527   1.60067 
 H                    -2.98236  -0.89499   1.84194 
 H                     3.0311   -1.06763  -1.88145 
 H                     3.38508   0.57857  -2.39458 
 H                     4.96258   0.03916  -0.65667 
 H                     3.80551   1.15342   0.05491 
 H                     4.0109   -0.55718   1.58976 
 H                     3.87546  -1.74291   0.48584 
 

 GradGradGradGradGradGradGradGradGradGradGradGradGradGradGradGradGradGrad
 Berny optimization.
 Initialization pass.
                           ----------------------------
                           !    Initial Parameters    !
                           ! (Angstroms and Degrees)  !
 --------------------------                            --------------------------
 ! Name  Definition              Value          Derivative Info.                !
 --------------------------------------------------------------------------------
 ! R1    R(1,2)                  1.2234         calculate D2E/DX2 analytically  !
 ! R2    R(2,3)                  1.3512         calculate D2E/DX2 analytically  !
 ! R3    R(2,14)                 1.5254         calculate D2E/DX2 analytically  !
 ! R4    R(3,4)                  1.4439         calculate D2E/DX2 analytically  !
 ! R5    R(3,17)                 1.0138         calculate D2E/DX2 analytically  !
 ! R6    R(4,5)                  1.5211         calculate D2E/DX2 analytically  !
 ! R7    R(4,8)                  1.5459         calculate D2E/DX2 analytically  !
 ! R8    R(4,18)                 1.0946         calculate D2E/DX2 analytically  !
 ! R9    R(5,6)                  1.3445         calculate D2E/DX2 analytically  !
 ! R10   R(5,7)                  1.2013         calculate D2E/DX2 analytically  !
 ! R11   R(6,19)                 0.9657         calculate D2E/DX2 analytically  !
 ! R12   R(8,9)                  1.4922         calculate D2E/DX2 analytically  !
 ! R13   R(8,20)                 1.0883         calculate D2E/DX2 analytically  !
 ! R14   R(8,21)                 1.091          calculate D2E/DX2 analytically  !
 ! R15   R(9,10)                 1.3688         calculate D2E/DX2 analytically  !
 ! R16   R(9,13)                 1.3785         calculate D2E/DX2 analytically  !
 ! R17   R(10,11)                1.3824         calculate D2E/DX2 analytically  !
 ! R18   R(10,22)                1.0796         calculate D2E/DX2 analytically  !
 ! R19   R(11,12)                1.3128         calculate D2E/DX2 analytically  !
 ! R20   R(12,13)                1.3584         calculate D2E/DX2 analytically  !
 ! R21   R(12,23)                1.0755         calculate D2E/DX2 analytically  !
 ! R22   R(13,24)                1.0108         calculate D2E/DX2 analytically  !
 ! R23   R(14,15)                1.5229         calculate D2E/DX2 analytically  !
 ! R24   R(14,25)                1.0961         calculate D2E/DX2 analytically  !
 ! R25   R(14,26)                1.0907         calculate D2E/DX2 analytically  !
 ! R26   R(15,16)                1.4717         calculate D2E/DX2 analytically  !
 ! R27   R(15,27)                1.0961         calculate D2E/DX2 analytically  !
 ! R28   R(15,28)                1.0919         calculate D2E/DX2 analytically  !
 ! R29   R(16,29)                1.0111         calculate D2E/DX2 analytically  !
 ! R30   R(16,30)                1.0119         calculate D2E/DX2 analytically  !
 ! A1    A(1,2,3)              122.6757         calculate D2E/DX2 analytically  !
 ! A2    A(1,2,14)             121.9219         calculate D2E/DX2 analytically  !
 ! A3    A(3,2,14)             115.3873         calculate D2E/DX2 analytically  !
 ! A4    A(2,3,4)              121.4445         calculate D2E/DX2 analytically  !
 ! A5    A(2,3,17)             119.1189         calculate D2E/DX2 analytically  !
 ! A6    A(4,3,17)             119.3977         calculate D2E/DX2 analytically  !
 ! A7    A(3,4,5)              107.4332         calculate D2E/DX2 analytically  !
 ! A8    A(3,4,8)              110.1472         calculate D2E/DX2 analytically  !
 ! A9    A(3,4,18)             108.5134         calculate D2E/DX2 analytically  !
 ! A10   A(5,4,8)              111.0402         calculate D2E/DX2 analytically  !
 ! A11   A(5,4,18)             111.1595         calculate D2E/DX2 analytically  !
 ! A12   A(8,4,18)             108.5163         calculate D2E/DX2 analytically  !
 ! A13   A(4,5,6)              116.6033         calculate D2E/DX2 analytically  !
 ! A14   A(4,5,7)              122.6042         calculate D2E/DX2 analytically  !
 ! A15   A(6,5,7)              120.7797         calculate D2E/DX2 analytically  !
 ! A16   A(5,6,19)             111.5252         calculate D2E/DX2 analytically  !
 ! A17   A(4,8,9)              113.215          calculate D2E/DX2 analytically  !
 ! A18   A(4,8,20)             106.6644         calculate D2E/DX2 analytically  !
 ! A19   A(4,8,21)             108.803          calculate D2E/DX2 analytically  !
 ! A20   A(9,8,20)             109.095          calculate D2E/DX2 analytically  !
 ! A21   A(9,8,21)             111.1082         calculate D2E/DX2 analytically  !
 ! A22   A(20,8,21)            107.7212         calculate D2E/DX2 analytically  !
 ! A23   A(8,9,10)             132.0529         calculate D2E/DX2 analytically  !
 ! A24   A(8,9,13)             123.166          calculate D2E/DX2 analytically  !
 ! A25   A(10,9,13)            104.7145         calculate D2E/DX2 analytically  !
 ! A26   A(9,10,11)            110.8988         calculate D2E/DX2 analytically  !
 ! A27   A(9,10,22)            127.7144         calculate D2E/DX2 analytically  !
 ! A28   A(11,10,22)           121.3863         calculate D2E/DX2 analytically  !
 ! A29   A(10,11,12)           104.9249         calculate D2E/DX2 analytically  !
 ! A30   A(11,12,13)           111.8363         calculate D2E/DX2 analytically  !
 ! A31   A(11,12,23)           126.409          calculate D2E/DX2 analytically  !
 ! A32   A(13,12,23)           121.7538         calculate D2E/DX2 analytically  !
 ! A33   A(9,13,12)            107.6208         calculate D2E/DX2 analytically  !
 ! A34   A(9,13,24)            125.9311         calculate D2E/DX2 analytically  !
 ! A35   A(12,13,24)           126.1763         calculate D2E/DX2 analytically  !
 ! A36   A(2,14,15)            115.1268         calculate D2E/DX2 analytically  !
 ! A37   A(2,14,25)            108.34           calculate D2E/DX2 analytically  !
 ! A38   A(2,14,26)            105.8295         calculate D2E/DX2 analytically  !
 ! A39   A(15,14,25)           109.235          calculate D2E/DX2 analytically  !
 ! A40   A(15,14,26)           110.7724         calculate D2E/DX2 analytically  !
 ! A41   A(25,14,26)           107.2067         calculate D2E/DX2 analytically  !
 ! A42   A(14,15,16)           111.4072         calculate D2E/DX2 analytically  !
 ! A43   A(14,15,27)           108.8818         calculate D2E/DX2 analytically  !
 ! A44   A(14,15,28)           109.1871         calculate D2E/DX2 analytically  !
 ! A45   A(16,15,27)           112.204          calculate D2E/DX2 analytically  !
 ! A46   A(16,15,28)           108.1845         calculate D2E/DX2 analytically  !
 ! A47   A(27,15,28)           106.8347         calculate D2E/DX2 analytically  !
 ! A48   A(15,16,29)           110.4925         calculate D2E/DX2 analytically  !
 ! A49   A(15,16,30)           110.6847         calculate D2E/DX2 analytically  !
 ! A50   A(29,16,30)           106.9547         calculate D2E/DX2 analytically  !
 ! D1    D(1,2,3,4)              0.6325         calculate D2E/DX2 analytically  !
 ! D2    D(1,2,3,17)           178.3495         calculate D2E/DX2 analytically  !
 ! D3    D(14,2,3,4)          -177.9788         calculate D2E/DX2 analytically  !
 ! D4    D(14,2,3,17)           -0.2618         calculate D2E/DX2 analytically  !
 ! D5    D(1,2,14,15)          144.5836         calculate D2E/DX2 analytically  !
 ! D6    D(1,2,14,25)          -92.813          calculate D2E/DX2 analytically  !
 ! D7    D(1,2,14,26)           21.8904         calculate D2E/DX2 analytically  !
 ! D8    D(3,2,14,15)          -36.7936         calculate D2E/DX2 analytically  !
 ! D9    D(3,2,14,25)           85.8098         calculate D2E/DX2 analytically  !
 ! D10   D(3,2,14,26)         -159.4868         calculate D2E/DX2 analytically  !
 ! D11   D(2,3,4,5)           -158.5048         calculate D2E/DX2 analytically  !
 ! D12   D(2,3,4,8)             80.4281         calculate D2E/DX2 analytically  !
 ! D13   D(2,3,4,18)           -38.2303         calculate D2E/DX2 analytically  !
 ! D14   D(17,3,4,5)            23.7844         calculate D2E/DX2 analytically  !
 ! D15   D(17,3,4,8)           -97.2827         calculate D2E/DX2 analytically  !
 ! D16   D(17,3,4,18)          144.0588         calculate D2E/DX2 analytically  !
 ! D17   D(3,4,5,6)            151.9438         calculate D2E/DX2 analytically  !
 ! D18   D(3,4,5,7)            -29.3497         calculate D2E/DX2 analytically  !
 ! D19   D(8,4,5,6)            -87.5523         calculate D2E/DX2 analytically  !
 ! D20   D(8,4,5,7)             91.1542         calculate D2E/DX2 analytically  !
 ! D21   D(18,4,5,6)            33.3616         calculate D2E/DX2 analytically  !
 ! D22   D(18,4,5,7)          -147.9319         calculate D2E/DX2 analytically  !
 ! D23   D(3,4,8,9)           -174.1792         calculate D2E/DX2 analytically  !
 ! D24   D(3,4,8,20)           -54.1825         calculate D2E/DX2 analytically  !
 ! D25   D(3,4,8,21)            61.7659         calculate D2E/DX2 analytically  !
 ! D26   D(5,4,8,9)             66.9364         calculate D2E/DX2 analytically  !
 ! D27   D(5,4,8,20)          -173.0669         calculate D2E/DX2 analytically  !
 ! D28   D(5,4,8,21)           -57.1185         calculate D2E/DX2 analytically  !
 ! D29   D(18,4,8,9)           -55.5225         calculate D2E/DX2 analytically  !
 ! D30   D(18,4,8,20)           64.4741         calculate D2E/DX2 analytically  !
 ! D31   D(18,4,8,21)         -179.5774         calculate D2E/DX2 analytically  !
 ! D32   D(4,5,6,19)             2.5046         calculate D2E/DX2 analytically  !
 ! D33   D(7,5,6,19)          -176.2271         calculate D2E/DX2 analytically  !
 ! D34   D(4,8,9,10)            96.2482         calculate D2E/DX2 analytically  !
 ! D35   D(4,8,9,13)           -80.3055         calculate D2E/DX2 analytically  !
 ! D36   D(20,8,9,10)          -22.3509         calculate D2E/DX2 analytically  !
 ! D37   D(20,8,9,13)          161.0954         calculate D2E/DX2 analytically  !
 ! D38   D(21,8,9,10)         -140.9653         calculate D2E/DX2 analytically  !
 ! D39   D(21,8,9,13)           42.4809         calculate D2E/DX2 analytically  !
 ! D40   D(8,9,10,11)         -176.74           calculate D2E/DX2 analytically  !
 ! D41   D(8,9,10,22)            3.0061         calculate D2E/DX2 analytically  !
 ! D42   D(13,9,10,11)           0.2778         calculate D2E/DX2 analytically  !
 ! D43   D(13,9,10,22)        -179.9761         calculate D2E/DX2 analytically  !
 ! D44   D(8,9,13,12)          176.7648         calculate D2E/DX2 analytically  !
 ! D45   D(8,9,13,24)            2.4705         calculate D2E/DX2 analytically  !
 ! D46   D(10,9,13,12)          -0.5902         calculate D2E/DX2 analytically  !
 ! D47   D(10,9,13,24)        -174.8844         calculate D2E/DX2 analytically  !
 ! D48   D(9,10,11,12)           0.1513         calculate D2E/DX2 analytically  !
 ! D49   D(22,10,11,12)       -179.6135         calculate D2E/DX2 analytically  !
 ! D50   D(10,11,12,13)         -0.5434         calculate D2E/DX2 analytically  !
 ! D51   D(10,11,12,23)        179.1346         calculate D2E/DX2 analytically  !
 ! D52   D(11,12,13,9)           0.7367         calculate D2E/DX2 analytically  !
 ! D53   D(11,12,13,24)        175.0131         calculate D2E/DX2 analytically  !
 ! D54   D(23,12,13,9)        -178.9585         calculate D2E/DX2 analytically  !
 ! D55   D(23,12,13,24)         -4.6821         calculate D2E/DX2 analytically  !
 ! D56   D(2,14,15,16)          68.7485         calculate D2E/DX2 analytically  !
 ! D57   D(2,14,15,27)        -166.9823         calculate D2E/DX2 analytically  !
 ! D58   D(2,14,15,28)         -50.6803         calculate D2E/DX2 analytically  !
 ! D59   D(25,14,15,16)        -53.3744         calculate D2E/DX2 analytically  !
 ! D60   D(25,14,15,27)         70.8948         calculate D2E/DX2 analytically  !
 ! D61   D(25,14,15,28)       -172.8032         calculate D2E/DX2 analytically  !
 ! D62   D(26,14,15,16)       -171.2428         calculate D2E/DX2 analytically  !
 ! D63   D(26,14,15,27)        -46.9737         calculate D2E/DX2 analytically  !
 ! D64   D(26,14,15,28)         69.3284         calculate D2E/DX2 analytically  !
 ! D65   D(14,15,16,29)       -166.9431         calculate D2E/DX2 analytically  !
 ! D66   D(14,15,16,30)         74.7706         calculate D2E/DX2 analytically  !
 ! D67   D(27,15,16,29)         70.6818         calculate D2E/DX2 analytically  !
 ! D68   D(27,15,16,30)        -47.6044         calculate D2E/DX2 analytically  !
 ! D69   D(28,15,16,29)        -46.9204         calculate D2E/DX2 analytically  !
 ! D70   D(28,15,16,30)       -165.2066         calculate D2E/DX2 analytically  !
 --------------------------------------------------------------------------------
 Trust Radius=3.00D-01 FncErr=1.00D-07 GrdErr=1.00D-06
 Number of steps in this run=    160 maximum allowed number of steps=    180.
 GradGradGradGradGradGradGradGradGradGradGradGradGradGradGradGradGradGrad

                          Input orientation:                          
 ---------------------------------------------------------------------
 Center     Atomic      Atomic             Coordinates (Angstroms)
 Number     Number       Type             X           Y           Z
 ---------------------------------------------------------------------
      1          8           0        0.912995    0.928898   -2.242469
      2          6           0        1.566268    0.400600   -1.353211
      3          7           0        1.050270    0.122519   -0.135770
      4          6           0       -0.324350    0.424580    0.186588
      5          6           0       -0.430428    0.502982    1.702000
      6          8           0       -1.391102    1.302319    2.197742
      7          8           0        0.282982   -0.127818    2.434331
      8          6           0       -1.257004   -0.670830   -0.379137
      9          6           0       -2.705561   -0.357344   -0.205402
     10          6           0       -3.628335    0.207776   -1.043768
     11          7           0       -4.844860    0.362539   -0.405613
     12          6           0       -4.652348   -0.102914    0.806716
     13          7           0       -3.383998   -0.558186    0.977647
     14          6           0        3.017931   -0.019844   -1.559812
     15          6           0        3.917736    0.142471   -0.341993
     16          7           0        3.560197   -0.810536    0.720886
     17          1           0        1.633057   -0.339307    0.553266
     18          1           0       -0.588425    1.379876   -0.277918
     19          1           0       -1.920635    1.698362    1.493947
     20          1           0       -1.035118   -0.751509   -1.441555
     21          1           0       -1.002711   -1.624088    0.086538
     22          1           0       -3.487863    0.516163   -2.068825
     23          1           0       -5.377159   -0.135273    1.600669
     24          1           0       -2.982363   -0.894988    1.841938
     25          1           0        3.031100   -1.067628   -1.881448
     26          1           0        3.385082    0.578567   -2.394580
     27          1           0        4.962581    0.039163   -0.656669
     28          1           0        3.805507    1.153424    0.054911
     29          1           0        4.010903   -0.557177    1.589758
     30          1           0        3.875463   -1.742913    0.485843
 ---------------------------------------------------------------------
                    Distance matrix (angstroms):
                    1          2          3          4          5
     1  O    0.000000
     2  C    1.223374   0.000000
     3  N    2.259928   1.351202   0.000000
     4  C    2.772306   2.438441   1.443861   0.000000
     5  C    4.188678   3.651245   2.390526   1.521142   0.000000
     6  O    5.016351   4.708333   3.577359   2.439903   1.344468
     7  O    4.835910   4.033798   2.693848   2.392979   1.201321
     8  C    3.277199   3.172956   2.451968   1.545902   2.528279
     9  C    4.347184   4.487813   3.787002   2.536775   3.091047
    10  C    4.751903   5.207383   4.766662   3.532293   4.225280
    11  N    6.070230   6.480891   5.906181   4.559557   4.893768
    12  C    6.429246   6.602272   5.784371   4.403904   4.358124
    13  N    5.571779   5.554935   4.622314   3.309539   3.220921
    14  C    2.407672   1.525379   2.433075   3.797139   4.775347
    15  C    3.641256   2.572663   2.874942   4.284190   4.818133
    16  N    4.337601   3.121615   2.811438   4.111045   4.314279
    17  H    3.153247   2.046113   1.013753   2.132937   2.507391
    18  H    2.513385   2.599603   2.070380   1.094574   2.171170
    19  H    4.752089   4.684975   3.737049   2.424837   1.921701
    20  H    2.694509   2.846467   2.611100   2.130546   3.438216
    21  H    3.951195   3.573779   2.704587   2.160376   2.731602
    22  H    4.423580   5.105850   4.948364   3.886269   4.854606
    23  H    7.447699   7.564638   6.662846   5.276736   4.988766
    24  H    5.931505   5.707676   4.605299   3.398011   2.913121
    25  H    2.933056   2.140201   2.896123   4.214558   5.223991
    26  H    2.501416   2.103380   3.280480   4.521728   5.598732
    27  H    4.439091   3.485792   3.947716   5.367613   5.904489
    28  H    3.700675   2.750226   2.947958   4.195745   4.591201
    29  H    5.146981   3.943938   3.493534   4.661239   4.567489
    30  H    4.833060   3.648170   3.442086   4.735611   5.006374
                    6          7          8          9         10
     6  O    0.000000
     7  O    2.214458   0.000000
     8  C    3.248324   3.253003   0.000000
     9  C    3.202715   3.994029   1.492238   0.000000
    10  C    4.087862   5.244826   2.614745   1.368842   0.000000
    11  N    4.425956   5.882219   3.733800   2.266035   1.382435
    12  C    3.813838   5.196849   3.641035   2.208868   2.137620
    13  N    2.986929   3.969117   2.525402   1.378485   2.175435
    14  C    5.941960   4.841981   4.482505   5.891239   6.670154
    15  C    5.998272   4.581754   5.238395   6.643534   7.578914
    16  N    5.582170   3.760603   4.943177   6.350048   7.471676
    17  H    3.813761   2.325045   3.054789   4.404487   5.525582
    18  H    2.603689   3.223165   2.159315   2.739610   3.346849
    19  H    0.965703   3.012505   3.092236   2.780256   3.402658
    20  H    4.193974   4.141120   1.088335   2.115140   2.793427
    21  H    3.629310   3.066589   1.090972   2.142328   3.395175
    22  H    4.818510   5.908672   3.039857   2.201671   1.079619
    23  H    4.279231   5.721210   4.602405   3.232436   3.188905
    24  H    2.736214   3.406165   2.821397   2.134779   3.156052
    25  H    6.466243   5.202052   4.560945   6.018547   6.832015
    26  H    6.665221   5.782767   5.212674   6.539447   7.151936
    27  H    7.079018   5.610776   6.266127   7.691636   8.601285
    28  H    5.623045   4.439753   5.398641   6.689110   7.573860
    29  H    5.745348   3.846433   5.624972   6.955100   8.116561
    30  H    6.319869   4.394435   5.314111   6.760732   7.902650
                   11         12         13         14         15
    11  N    0.000000
    12  C    1.312802   0.000000
    13  N    2.212524   1.358382   0.000000
    14  C    7.956247   8.027486   6.907474   0.000000
    15  C    8.765590   8.650208   7.453032   1.522852   0.000000
    16  N    8.560963   8.243421   6.953520   2.474031   1.471655
    17  H    6.586004   6.294953   5.039727   2.546573   2.500672
    18  H    4.378187   4.459885   3.625984   4.075324   4.673410
    19  H    3.734145   3.343521   2.738613   6.055337   6.314907
    20  H    4.102244   4.308102   3.377447   4.120258   5.151602
    21  H    4.353276   4.019015   2.756946   4.631374   5.245490
    22  H    2.152048   3.163545   3.232028   6.547653   7.613442
    23  H    2.134556   1.075528   2.130658   8.971037   9.499798
    24  H    3.178326   2.118470   1.010814   6.952791   7.311446
    25  H    8.139668   8.197089   7.041834   1.096118   2.149507
    26  H    8.469628   8.678306   7.647520   1.090749   2.164951
    27  H    9.815981   9.726692   8.526030   2.144950   1.096081
    28  H    8.698646   8.583642   7.447821   2.145731   1.091858
    29  H    9.124249   8.710420   7.420191   3.345820   2.056660
    30  H    9.015079   8.690001   7.371921   2.808742   2.059556
                   16         17         18         19         20
    16  N    0.000000
    17  H    1.990985   0.000000
    18  H    4.796517   2.929410   0.000000
    19  H    6.077147   4.203059   2.239581   0.000000
    20  H    5.079031   3.356841   2.469087   3.924688   0.000000
    21  H    4.678075   2.969136   3.054221   3.723179   1.759975
    22  H    7.695308   5.816443   3.515692   4.067818   2.831328
    23  H    9.005905   7.090967   5.362532   3.914226   5.337433
    24  H    6.638447   4.824060   3.924250   2.823796   3.820166
    25  H    2.667992   2.900484   4.654303   6.600278   4.102142
    26  H    3.415612   3.549913   4.572867   6.672722   4.713335
    27  H    2.141571   3.562711   5.723166   7.399780   6.100295
    28  H    2.088263   2.682563   4.412334   5.929291   5.412933
    29  H    1.011071   2.603062   5.328621   6.346635   5.889733
    30  H    1.011911   2.646326   5.501040   6.815673   5.367639
                   21         22         23         24         25
    21  H    0.000000
    22  H    3.924570   0.000000
    23  H    4.862608   4.178396   0.000000
    24  H    2.744456   4.188191   2.523970   0.000000
    25  H    4.522637   6.711213   9.148401   7.074966   0.000000
    26  H    5.500942   6.880944   9.656524   7.788697   1.760274
    27  H    6.237264   8.580893  10.584716   8.380800   2.540805
    28  H    5.552886   7.622966   9.400610   7.311952   3.046680
    29  H    5.341750   8.412418   9.397544   7.005960   3.642779
    30  H    4.895931   8.114698   9.457186   7.041857   2.602503
                   26         27         28         29         30
    26  H    0.000000
    27  H    2.408276   0.000000
    28  H    2.550926   1.756912   0.000000
    29  H    4.190050   2.511523   2.307401   0.000000
    30  H    3.731833   2.379696   2.929055   1.625712   0.000000
 Symmetry turned off by external request.
 Stoichiometry    C9H14N4O3
 Framework group  C1[X(C9H14N4O3)]
 Deg. of freedom    84
 Full point group                 C1      NOp   1
 Rotational constants (GHZ):      1.0604546      0.2826876      0.2409768
 Standard basis: 6-311++G(d,p) (5D, 7F)
   450 basis functions,   702 primitive gaussians,   466 cartesian basis functions
    60 alpha electrons       60 beta electrons
       nuclear repulsion energy      1133.1818804999 Hartrees.
 NAtoms=   30 NActive=   30 NUniq=   30 SFac= 1.00D+00 NAtFMM=   60 NAOKFM=F Big=F
 Integral buffers will be    131072 words long.
 Raffenetti 2 integral format.
 Two-electron integral symmetry is turned off.
 One-electron integrals computed using PRISM.
 NBasis=   450 RedAO= T EigKep=  1.47D-06  NBF=   450
 NBsUse=   450 1.00D-06 EigRej= -1.00D+00 NBFU=   450
 ExpMin= 3.60D-02 ExpMax= 8.59D+03 ExpMxC= 1.30D+03 IAcc=3 IRadAn=         5 AccDes= 0.00D+00
 Harris functional with IExCor=  402 and IRadAn=       5 diagonalized for initial guess.
 HarFok:  IExCor=  402 AccDes= 0.00D+00 IRadAn=         5 IDoV= 1 UseB2=F ITyADJ=14
 ICtDFT=  3500011 ScaDFX=  1.000000  1.000000  1.000000  1.000000
 FoFCou: FMM=F IPFlag=           0 FMFlag=      100000 FMFlg1=           0
         NFxFlg=           0 DoJE=T BraDBF=F KetDBF=T FulRan=T
         wScrn=  0.000000 ICntrl=     500 IOpCl=  0 I1Cent=   200000004 NGrid=           0
         NMat0=    1 NMatS0=      1 NMatT0=    0 NMatD0=    1 NMtDS0=    0 NMtDT0=    0
 Symmetry not used in FoFCou.
 Requested convergence on RMS density matrix=1.00D-08 within 128 cycles.
 Requested convergence on MAX density matrix=1.00D-06.
 Requested convergence on             energy=1.00D-06.
 No special actions if energy rises.
 SCF Done:  E(RB3LYP) =  -796.328421308     A.U. after   16 cycles
            NFock= 16  Conv=0.25D-08     -V/T= 2.0036
 DoSCS=F DFT=T ScalE2(SS,OS)=  1.000000  1.000000
 Range of M.O.s used for correlation:     1   450
 NBasis=   450 NAE=    60 NBE=    60 NFC=     0 NFV=     0
 NROrb=    450 NOA=    60 NOB=    60 NVA=   390 NVB=   390

 **** Warning!!: The largest alpha MO coefficient is  0.31640472D+03

 Symmetrizing basis deriv contribution to polar:
 IMax=3 JMax=2 DiffMx= 0.00D+00
 G2DrvN: will do    31 centers at a time, making    1 passes.
 Calling FoFCou, ICntrl=  3107 FMM=F I1Cent=   0 AccDes= 0.00D+00.
 End of G2Drv F.D. properties file   721 does not exist.
 End of G2Drv F.D. properties file   722 does not exist.
 End of G2Drv F.D. properties file   788 does not exist.
          IDoAtm=111111111111111111111111111111
          Differentiating once with respect to nuclear coordinates.
          There are    93 degrees of freedom in the 1st order CPHF.  IDoFFX=6 NUNeed=     0.
     87 vectors produced by pass  0 Test12= 2.52D-14 1.08D-09 XBig12= 2.62D-01 1.21D-01.
 AX will form    87 AO Fock derivatives at one time.
     87 vectors produced by pass  1 Test12= 2.52D-14 1.08D-09 XBig12= 2.14D-02 4.04D-02.
     87 vectors produced by pass  2 Test12= 2.52D-14 1.08D-09 XBig12= 3.62D-04 2.32D-03.
     87 vectors produced by pass  3 Test12= 2.52D-14 1.08D-09 XBig12= 1.72D-06 1.42D-04.
     87 vectors produced by pass  4 Test12= 2.52D-14 1.08D-09 XBig12= 4.10D-09 5.85D-06.
     81 vectors produced by pass  5 Test12= 2.52D-14 1.08D-09 XBig12= 6.88D-12 1.85D-07.
     30 vectors produced by pass  6 Test12= 2.52D-14 1.08D-09 XBig12= 9.02D-15 8.27D-09.
     14 vectors produced by pass  7 Test12= 2.52D-14 1.08D-09 XBig12= 4.06D-16 2.98D-09.
      4 vectors produced by pass  8 Test12= 2.52D-14 1.08D-09 XBig12= 1.27D-16 1.69D-09.
      4 vectors produced by pass  9 Test12= 2.52D-14 1.08D-09 XBig12= 7.16D-15 8.51D-09.
      4 vectors produced by pass 10 Test12= 2.52D-14 1.08D-09 XBig12= 8.88D-16 3.64D-09.
      4 vectors produced by pass 11 Test12= 2.52D-14 1.08D-09 XBig12= 3.41D-15 6.98D-09.
      4 vectors produced by pass 12 Test12= 2.52D-14 1.08D-09 XBig12= 1.46D-15 4.79D-09.
      4 vectors produced by pass 13 Test12= 2.52D-14 1.08D-09 XBig12= 4.12D-15 7.27D-09.
      4 vectors produced by pass 14 Test12= 2.52D-14 1.08D-09 XBig12= 2.74D-15 5.39D-09.
      3 vectors produced by pass 15 Test12= 2.52D-14 1.08D-09 XBig12= 2.29D-15 4.86D-09.
      1 vectors produced by pass 16 Test12= 2.52D-14 1.08D-09 XBig12= 1.00D-15 3.18D-09.
 InvSVY:  IOpt=1 It=  1 EMax= 9.99D-16
 Solved reduced A of dimension   592 with    93 vectors.
 End of Minotr F.D. properties file   721 does not exist.
 End of Minotr F.D. properties file   722 does not exist.
 End of Minotr F.D. properties file   788 does not exist.

 **********************************************************************

            Population analysis using the SCF density.

 **********************************************************************

 Alpha  occ. eigenvalues --  -19.19664 -19.13515 -19.09107 -14.38181 -14.33703
 Alpha  occ. eigenvalues --  -14.32219 -14.30334 -10.32863 -10.27603 -10.24578
 Alpha  occ. eigenvalues --  -10.23417 -10.21874 -10.21774 -10.20500 -10.19176
 Alpha  occ. eigenvalues --  -10.18884  -1.13690  -1.05553  -1.04627  -1.03364
 Alpha  occ. eigenvalues --   -0.94177  -0.91265  -0.88657  -0.82074  -0.77912
 Alpha  occ. eigenvalues --   -0.74797  -0.69063  -0.65639  -0.64184  -0.62984
 Alpha  occ. eigenvalues --   -0.60869  -0.59394  -0.57460  -0.54977  -0.52781
 Alpha  occ. eigenvalues --   -0.51094  -0.49572  -0.48618  -0.47346  -0.47313
 Alpha  occ. eigenvalues --   -0.46273  -0.45436  -0.44280  -0.43922  -0.42821
 Alpha  occ. eigenvalues --   -0.42006  -0.41240  -0.40641  -0.40190  -0.39429
 Alpha  occ. eigenvalues --   -0.38341  -0.36183  -0.35145  -0.30779  -0.29746
 Alpha  occ. eigenvalues --   -0.28399  -0.27839  -0.27192  -0.26048  -0.24181
 Alpha virt. eigenvalues --   -0.02968  -0.02440  -0.01816  -0.00423  -0.00043
 Alpha virt. eigenvalues --    0.00251   0.00732   0.01226   0.01728   0.02299
 Alpha virt. eigenvalues --    0.02546   0.03275   0.03724   0.04079   0.04644
 Alpha virt. eigenvalues --    0.05357   0.05468   0.05611   0.06281   0.07560
 Alpha virt. eigenvalues --    0.07776   0.07830   0.08408   0.08909   0.09319
 Alpha virt. eigenvalues --    0.09740   0.09978   0.10303   0.10959   0.11030
 Alpha virt. eigenvalues --    0.11516   0.11655   0.11855   0.12316   0.12689
 Alpha virt. eigenvalues --    0.13025   0.13406   0.13662   0.13967   0.14100
 Alpha virt. eigenvalues --    0.14273   0.14863   0.15199   0.15757   0.16273
 Alpha virt. eigenvalues --    0.16294   0.16623   0.17094   0.17372   0.18115
 Alpha virt. eigenvalues --    0.18184   0.18790   0.19069   0.19426   0.19947
 Alpha virt. eigenvalues --    0.20016   0.20506   0.20928   0.21461   0.21629
 Alpha virt. eigenvalues --    0.21867   0.22266   0.22810   0.23031   0.23417
 Alpha virt. eigenvalues --    0.23883   0.24402   0.24582   0.25040   0.25688
 Alpha virt. eigenvalues --    0.25873   0.26154   0.27196   0.27306   0.27989
 Alpha virt. eigenvalues --    0.28423   0.28954   0.29397   0.29740   0.30133
 Alpha virt. eigenvalues --    0.30503   0.30986   0.31360   0.31501   0.31684
 Alpha virt. eigenvalues --    0.32246   0.32611   0.32934   0.33251   0.33775
 Alpha virt. eigenvalues --    0.34272   0.34500   0.35218   0.35870   0.36055
 Alpha virt. eigenvalues --    0.36833   0.37468   0.37730   0.38169   0.38954
 Alpha virt. eigenvalues --    0.39296   0.39605   0.41440   0.41937   0.42472
 Alpha virt. eigenvalues --    0.44171   0.45840   0.45990   0.47252   0.48060
 Alpha virt. eigenvalues --    0.49158   0.49471   0.50662   0.51374   0.52382
 Alpha virt. eigenvalues --    0.54185   0.55518   0.55747   0.57157   0.57734
 Alpha virt. eigenvalues --    0.58521   0.59409   0.59688   0.60997   0.61462
 Alpha virt. eigenvalues --    0.62099   0.63891   0.64197   0.64674   0.65529
 Alpha virt. eigenvalues --    0.66047   0.66956   0.67437   0.68414   0.68848
 Alpha virt. eigenvalues --    0.70065   0.70906   0.71408   0.71828   0.72397
 Alpha virt. eigenvalues --    0.73480   0.74270   0.74313   0.75947   0.76212
 Alpha virt. eigenvalues --    0.77266   0.77369   0.78858   0.80040   0.80675
 Alpha virt. eigenvalues --    0.81343   0.82769   0.83003   0.85273   0.87715
 Alpha virt. eigenvalues --    0.88961   0.89092   0.89774   0.91145   0.91241
 Alpha virt. eigenvalues --    0.93277   0.93504   0.94847   0.95635   0.96422
 Alpha virt. eigenvalues --    0.98119   0.99889   1.01345   1.01543   1.03648
 Alpha virt. eigenvalues --    1.05303   1.06079   1.07743   1.08956   1.10979
 Alpha virt. eigenvalues --    1.12081   1.12692   1.13389   1.15654   1.16873
 Alpha virt. eigenvalues --    1.17501   1.18461   1.19348   1.20099   1.20721
 Alpha virt. eigenvalues --    1.22500   1.23674   1.25032   1.25978   1.27269
 Alpha virt. eigenvalues --    1.28945   1.30205   1.31501   1.32146   1.33541
 Alpha virt. eigenvalues --    1.33798   1.36145   1.37275   1.39254   1.41452
 Alpha virt. eigenvalues --    1.43286   1.45136   1.47002   1.49070   1.49617
 Alpha virt. eigenvalues --    1.51953   1.52475   1.54880   1.56567   1.57275
 Alpha virt. eigenvalues --    1.57587   1.59713   1.61259   1.61690   1.63275
 Alpha virt. eigenvalues --    1.63620   1.64338   1.65654   1.66021   1.66419
 Alpha virt. eigenvalues --    1.67075   1.67781   1.69307   1.70056   1.71395
 Alpha virt. eigenvalues --    1.72329   1.73246   1.74392   1.76038   1.76926
 Alpha virt. eigenvalues --    1.77978   1.79545   1.80136   1.81244   1.82400
 Alpha virt. eigenvalues --    1.82456   1.84450   1.85072   1.85751   1.87297
 Alpha virt. eigenvalues --    1.87867   1.91051   1.92222   1.93291   1.96765
 Alpha virt. eigenvalues --    1.98451   1.99206   2.00937   2.03609   2.05322
 Alpha virt. eigenvalues --    2.05784   2.07252   2.10936   2.11276   2.13518
 Alpha virt. eigenvalues --    2.16053   2.17771   2.20064   2.21297   2.22759
 Alpha virt. eigenvalues --    2.24250   2.25004   2.27253   2.28244   2.29283
 Alpha virt. eigenvalues --    2.32095   2.32826   2.37565   2.39652   2.41144
 Alpha virt. eigenvalues --    2.44673   2.45881   2.47052   2.50644   2.51158
 Alpha virt. eigenvalues --    2.52297   2.53453   2.54781   2.56877   2.58789
 Alpha virt. eigenvalues --    2.59148   2.60129   2.62026   2.64013   2.64552
 Alpha virt. eigenvalues --    2.65533   2.68994   2.69672   2.70788   2.71718
 Alpha virt. eigenvalues --    2.72381   2.74246   2.75991   2.76537   2.78740
 Alpha virt. eigenvalues --    2.78955   2.79890   2.80724   2.82256   2.84404
 Alpha virt. eigenvalues --    2.86048   2.87455   2.89306   2.89553   2.89764
 Alpha virt. eigenvalues --    2.90616   2.92175   2.92465   2.93641   2.94270
 Alpha virt. eigenvalues --    2.95539   2.96438   2.98869   2.99435   2.99920
 Alpha virt. eigenvalues --    3.05927   3.07116   3.07342   3.08474   3.10487
 Alpha virt. eigenvalues --    3.13740   3.17272   3.18455   3.19511   3.22116
 Alpha virt. eigenvalues --    3.28138   3.29268   3.35479   3.37150   3.38280
 Alpha virt. eigenvalues --    3.42659   3.46048   3.51228   3.52535   3.54252
 Alpha virt. eigenvalues --    3.61124   3.62981   3.66514   3.67525   3.71147
 Alpha virt. eigenvalues --    3.74269   3.78233   3.84093   3.85709   3.86356
 Alpha virt. eigenvalues --    3.89431   3.90584   3.92039   3.93137   3.96728
 Alpha virt. eigenvalues --    4.04718   4.06363   4.12698   4.20296   4.22418
 Alpha virt. eigenvalues --    4.31275   4.33305   4.50279   4.71751   4.77231
 Alpha virt. eigenvalues --    4.82673   4.88869   4.91967   4.97766   5.02891
 Alpha virt. eigenvalues --    5.08256   5.11018   5.20137   5.26993   5.27305
 Alpha virt. eigenvalues --    5.38300   5.59293   5.80364   5.88118  23.75904
 Alpha virt. eigenvalues --   23.80190  23.83378  23.84883  23.89559  23.93166
 Alpha virt. eigenvalues --   23.94186  23.95966  24.14315  35.54604  35.58967
 Alpha virt. eigenvalues --   35.63121  35.69670  49.86673  50.01302  50.03880
          Condensed to atoms (all electrons):
               1          2          3          4          5          6
     1  O    8.052689   0.500285  -0.167288   0.045394   0.043206  -0.001061
     2  C    0.500285   6.745397   0.106763  -0.319338  -0.100039   0.028272
     3  N   -0.167288   0.106763   8.502006  -2.358816  -0.007171  -0.032940
     4  C    0.045394  -0.319338  -2.358816  15.523784  -2.139270   0.115603
     5  C    0.043206  -0.100039  -0.007171  -2.139270   8.008418   0.138740
     6  O   -0.001061   0.028272  -0.032940   0.115603   0.138740   7.880674
     7  O    0.000214   0.036470   0.053197  -0.141028   0.353598  -0.132938
     8  C   -0.112750   0.376418   1.173985  -4.359854  -0.244956   0.173625
     9  C    0.046110  -0.431876   0.290594  -1.692610   0.784916  -0.243079
    10  C   -0.003505  -0.055360  -0.104008   1.063769  -0.177694  -0.041052
    11  N    0.000111   0.001983  -0.000955   0.002191  -0.003940  -0.008706
    12  C    0.000786   0.000362   0.028079  -0.097375   0.022421  -0.044914
    13  N    0.000062   0.014189   0.032389  -0.111051   0.026071   0.004785
    14  C   -0.060294  -0.760272  -0.600654  -0.250998  -0.016190   0.005499
    15  C    0.009617   0.016899  -0.074776   0.021081   0.008541  -0.001915
    16  N   -0.001882   0.017929   0.163933  -0.284810   0.030806   0.000533
    17  H    0.002270   0.014835   0.209625   0.309484  -0.149103   0.012975
    18  H   -0.012815   0.023252  -0.215924   1.029099  -0.190796   0.039264
    19  H    0.003057   0.009841   0.015325  -0.066558  -0.025416   0.177380
    20  H   -0.000413   0.014615  -0.030563  -0.197050   0.051597  -0.004469
    21  H    0.001330   0.006690  -0.056317   0.193245  -0.073113  -0.003249
    22  H    0.000573  -0.000293  -0.003031   0.018385  -0.001284  -0.000756
    23  H    0.000001  -0.000190   0.000671  -0.006703   0.004879  -0.002326
    24  H    0.000034   0.004018   0.000016   0.030168  -0.057900   0.007150
    25  H   -0.002309  -0.131883   0.006274  -0.000804   0.008903   0.000115
    26  H   -0.002864  -0.008926   0.023593  -0.022360  -0.001041   0.000037
    27  H    0.001108  -0.005980   0.008868  -0.010952   0.000149  -0.000088
    28  H   -0.001872  -0.014401   0.002651  -0.002483  -0.005172   0.000579
    29  H   -0.000238   0.003128  -0.004423   0.020391  -0.003823  -0.000105
    30  H   -0.000089  -0.015907  -0.000968   0.001744   0.001608   0.000012
               7          8          9         10         11         12
     1  O    0.000214  -0.112750   0.046110  -0.003505   0.000111   0.000786
     2  C    0.036470   0.376418  -0.431876  -0.055360   0.001983   0.000362
     3  N    0.053197   1.173985   0.290594  -0.104008  -0.000955   0.028079
     4  C   -0.141028  -4.359854  -1.692610   1.063769   0.002191  -0.097375
     5  C    0.353598  -0.244956   0.784916  -0.177694  -0.003940   0.022421
     6  O   -0.132938   0.173625  -0.243079  -0.041052  -0.008706  -0.044914
     7  O    7.959812   0.053424  -0.002119  -0.005166   0.000509   0.003618
     8  C    0.053424  22.765360  -9.445112  -3.118550  -0.255424  -0.644343
     9  C   -0.002119  -9.445112  16.543617  -0.068987  -0.164078   0.355080
    10  C   -0.005166  -3.118550  -0.068987   7.861533   0.698761  -0.212103
    11  N    0.000509  -0.255424  -0.164078   0.698761   6.592532   0.362570
    12  C    0.003618  -0.644343   0.355080  -0.212103   0.362570   5.558819
    13  N    0.001051  -0.240076  -0.159561   0.183220   0.013779   0.168231
    14  C    0.019622  -0.015599   0.020209  -0.009395   0.000297  -0.000640
    15  C   -0.010040  -0.058629   0.027865   0.002553   0.000079   0.000135
    16  N    0.012340   0.137068  -0.025038  -0.004127   0.000000   0.000013
    17  H    0.022399  -0.001617  -0.142507   0.009644  -0.000813  -0.003302
    18  H   -0.022468  -0.243470  -0.176321   0.042986  -0.003596  -0.015008
    19  H    0.028477  -0.100448   0.160930   0.019799   0.006680   0.022567
    20  H   -0.002100   0.570724  -0.009663  -0.067412  -0.000285  -0.003392
    21  H   -0.001087   0.193414  -0.024858   0.028891   0.004401  -0.004790
    22  H   -0.000001  -0.090825  -0.094706   0.505925  -0.066300   0.028697
    23  H    0.000197  -0.015010   0.076232  -0.013390  -0.066043   0.456929
    24  H   -0.003123   0.065843  -0.065067  -0.029335   0.006566  -0.037330
    25  H   -0.000004   0.000748  -0.007735  -0.001730  -0.000004  -0.000067
    26  H    0.000320   0.011894  -0.006304  -0.000439  -0.000003  -0.000050
    27  H   -0.000510   0.004613   0.001371  -0.000112   0.000001   0.000022
    28  H    0.001781  -0.003253  -0.002773   0.000319  -0.000011  -0.000031
    29  H   -0.001773  -0.007813   0.002607   0.000170   0.000003   0.000018
    30  H    0.000179   0.000144   0.000576   0.000015   0.000000  -0.000001
              13         14         15         16         17         18
     1  O    0.000062  -0.060294   0.009617  -0.001882   0.002270  -0.012815
     2  C    0.014189  -0.760272   0.016899   0.017929   0.014835   0.023252
     3  N    0.032389  -0.600654  -0.074776   0.163933   0.209625  -0.215924
     4  C   -0.111051  -0.250998   0.021081  -0.284810   0.309484   1.029099
     5  C    0.026071  -0.016190   0.008541   0.030806  -0.149103  -0.190796
     6  O    0.004785   0.005499  -0.001915   0.000533   0.012975   0.039264
     7  O    0.001051   0.019622  -0.010040   0.012340   0.022399  -0.022468
     8  C   -0.240076  -0.015599  -0.058629   0.137068  -0.001617  -0.243470
     9  C   -0.159561   0.020209   0.027865  -0.025038  -0.142507  -0.176321
    10  C    0.183220  -0.009395   0.002553  -0.004127   0.009644   0.042986
    11  N    0.013779   0.000297   0.000079   0.000000  -0.000813  -0.003596
    12  C    0.168231  -0.000640   0.000135   0.000013  -0.003302  -0.015008
    13  N    6.986737   0.000686  -0.000375   0.000604   0.001663  -0.025255
    14  C    0.000686   7.270758  -0.007535  -0.032783   0.004585  -0.032623
    15  C   -0.000375  -0.007535   5.648665   0.161858  -0.038256  -0.000984
    16  N    0.000604  -0.032783   0.161858   6.784173  -0.113093  -0.011385
    17  H    0.001663   0.004585  -0.038256  -0.113093   0.427380   0.019083
    18  H   -0.025255  -0.032623  -0.000984  -0.011385   0.019083   0.552682
    19  H    0.004691   0.006117   0.000100   0.000236  -0.003993  -0.044674
    20  H   -0.000399   0.015813  -0.000997   0.005376  -0.009155  -0.022969
    21  H   -0.002004  -0.002129   0.006953  -0.002453  -0.008417   0.016514
    22  H    0.018088  -0.000460   0.000193  -0.000078  -0.000233  -0.001155
    23  H   -0.121637  -0.000008   0.000004  -0.000001  -0.000057   0.000156
    24  H    0.364242   0.001302  -0.000366  -0.000040   0.002879  -0.000703
    25  H    0.000103   0.474028  -0.050978  -0.010474  -0.004037   0.000839
    26  H    0.000097   0.382210  -0.020944   0.013119  -0.002265  -0.000970
    27  H   -0.000030  -0.030932   0.383519  -0.072581  -0.009475  -0.001310
    28  H    0.000030  -0.074061   0.456308  -0.049016   0.004837   0.001315
    29  H   -0.000058   0.009429  -0.048702   0.354732   0.015373   0.001065
    30  H   -0.000004  -0.002638  -0.035018   0.380658   0.008293  -0.000299
              19         20         21         22         23         24
     1  O    0.003057  -0.000413   0.001330   0.000573   0.000001   0.000034
     2  C    0.009841   0.014615   0.006690  -0.000293  -0.000190   0.004018
     3  N    0.015325  -0.030563  -0.056317  -0.003031   0.000671   0.000016
     4  C   -0.066558  -0.197050   0.193245   0.018385  -0.006703   0.030168
     5  C   -0.025416   0.051597  -0.073113  -0.001284   0.004879  -0.057900
     6  O    0.177380  -0.004469  -0.003249  -0.000756  -0.002326   0.007150
     7  O    0.028477  -0.002100  -0.001087  -0.000001   0.000197  -0.003123
     8  C   -0.100448   0.570724   0.193414  -0.090825  -0.015010   0.065843
     9  C    0.160930  -0.009663  -0.024858  -0.094706   0.076232  -0.065067
    10  C    0.019799  -0.067412   0.028891   0.505925  -0.013390  -0.029335
    11  N    0.006680  -0.000285   0.004401  -0.066300  -0.066043   0.006566
    12  C    0.022567  -0.003392  -0.004790   0.028697   0.456929  -0.037330
    13  N    0.004691  -0.000399  -0.002004   0.018088  -0.121637   0.364242
    14  C    0.006117   0.015813  -0.002129  -0.000460  -0.000008   0.001302
    15  C    0.000100  -0.000997   0.006953   0.000193   0.000004  -0.000366
    16  N    0.000236   0.005376  -0.002453  -0.000078  -0.000001  -0.000040
    17  H   -0.003993  -0.009155  -0.008417  -0.000233  -0.000057   0.002879
    18  H   -0.044674  -0.022969   0.016514  -0.001155   0.000156  -0.000703
    19  H    0.509042   0.001479   0.002179   0.000838  -0.000745  -0.000328
    20  H    0.001479   0.458585  -0.024697  -0.000363   0.000500   0.000034
    21  H    0.002179  -0.024697   0.555736   0.001099  -0.001119  -0.005469
    22  H    0.000838  -0.000363   0.001099   0.530387  -0.001832   0.001188
    23  H   -0.000745   0.000500  -0.001119  -0.001832   0.534312  -0.005180
    24  H   -0.000328   0.000034  -0.005469   0.001188  -0.005180   0.379789
    25  H   -0.000001  -0.001303   0.000744  -0.000052  -0.000002  -0.000003
    26  H   -0.000008   0.000569   0.000284  -0.000030  -0.000002   0.000018
    27  H    0.000016   0.000506   0.000155  -0.000006   0.000001  -0.000040
    28  H   -0.000229  -0.001114  -0.000131  -0.000003   0.000000   0.000056
    29  H   -0.000078  -0.000246   0.000332   0.000007   0.000001  -0.000050
    30  H    0.000020   0.000170  -0.000591   0.000002   0.000000   0.000016
              25         26         27         28         29         30
     1  O   -0.002309  -0.002864   0.001108  -0.001872  -0.000238  -0.000089
     2  C   -0.131883  -0.008926  -0.005980  -0.014401   0.003128  -0.015907
     3  N    0.006274   0.023593   0.008868   0.002651  -0.004423  -0.000968
     4  C   -0.000804  -0.022360  -0.010952  -0.002483   0.020391   0.001744
     5  C    0.008903  -0.001041   0.000149  -0.005172  -0.003823   0.001608
     6  O    0.000115   0.000037  -0.000088   0.000579  -0.000105   0.000012
     7  O   -0.000004   0.000320  -0.000510   0.001781  -0.001773   0.000179
     8  C    0.000748   0.011894   0.004613  -0.003253  -0.007813   0.000144
     9  C   -0.007735  -0.006304   0.001371  -0.002773   0.002607   0.000576
    10  C   -0.001730  -0.000439  -0.000112   0.000319   0.000170   0.000015
    11  N   -0.000004  -0.000003   0.000001  -0.000011   0.000003   0.000000
    12  C   -0.000067  -0.000050   0.000022  -0.000031   0.000018  -0.000001
    13  N    0.000103   0.000097  -0.000030   0.000030  -0.000058  -0.000004
    14  C    0.474028   0.382210  -0.030932  -0.074061   0.009429  -0.002638
    15  C   -0.050978  -0.020944   0.383519   0.456308  -0.048702  -0.035018
    16  N   -0.010474   0.013119  -0.072581  -0.049016   0.354732   0.380658
    17  H   -0.004037  -0.002265  -0.009475   0.004837   0.015373   0.008293
    18  H    0.000839  -0.000970  -0.001310   0.001315   0.001065  -0.000299
    19  H   -0.000001  -0.000008   0.000016  -0.000229  -0.000078   0.000020
    20  H   -0.001303   0.000569   0.000506  -0.001114  -0.000246   0.000170
    21  H    0.000744   0.000284   0.000155  -0.000131   0.000332  -0.000591
    22  H   -0.000052  -0.000030  -0.000006  -0.000003   0.000007   0.000002
    23  H   -0.000002  -0.000002   0.000001   0.000000   0.000001   0.000000
    24  H   -0.000003   0.000018  -0.000040   0.000056  -0.000050   0.000016
    25  H    0.550137  -0.017595  -0.008907   0.010560  -0.000345   0.001401
    26  H   -0.017595   0.484989  -0.004059  -0.004351  -0.001236   0.001053
    27  H   -0.008907  -0.004059   0.610763  -0.032202   0.002975  -0.007252
    28  H    0.010560  -0.004351  -0.032202   0.536483  -0.008418   0.007063
    29  H   -0.000345  -0.001236   0.002975  -0.008418   0.455960  -0.037279
    30  H    0.001401   0.001053  -0.007252   0.007063  -0.037279   0.477226
 Mulliken charges:
               1
     1  O   -0.339466
     2  C   -0.076881
     3  N    0.039866
     4  C   -0.312281
     5  C   -0.286945
     6  O   -0.067646
     7  O   -0.224851
     8  C   -0.569533
     9  C    0.452286
    10  C   -0.505221
    11  N   -0.120306
    12  C    0.054997
    13  N   -0.160267
    14  C   -0.313347
    15  C   -0.394855
    16  N   -0.455619
    17  H    0.420997
    18  H    0.296470
    19  H    0.273705
    20  H    0.256621
    21  H    0.198457
    22  H    0.156025
    23  H    0.160364
    24  H    0.341614
    25  H    0.184381
    26  H    0.175266
    27  H    0.170367
    28  H    0.177542
    29  H    0.248396
    30  H    0.219863
 Sum of Mulliken charges =   0.00000
 Mulliken charges with hydrogens summed into heavy atoms:
               1
     1  O   -0.339466
     2  C   -0.076881
     3  N    0.460863
     4  C   -0.015812
     5  C   -0.286945
     6  O    0.206059
     7  O   -0.224851
     8  C   -0.114455
     9  C    0.452286
    10  C   -0.349196
    11  N   -0.120306
    12  C    0.215361
    13  N    0.181347
    14  C    0.046300
    15  C   -0.046945
    16  N    0.012640
 APT charges:
               1
     1  O   -0.345520
     2  C   -0.028668
     3  N   -0.448055
     4  C   -0.078358
     5  C   -0.693682
     6  O   -0.108479
     7  O   -0.093536
     8  C   -0.936974
     9  C    0.574825
    10  C   -0.945466
    11  N   -0.025566
    12  C   -0.444680
    13  N   -0.561978
    14  C   -0.880614
    15  C   -1.088034
    16  N   -1.528660
    17  H    0.615147
    18  H    0.434383
    19  H    0.497020
    20  H    0.374331
    21  H    0.334176
    22  H    0.432825
    23  H    1.026978
    24  H    0.403616
    25  H    0.360150
    26  H    0.647346
    27  H    0.810275
    28  H    0.226381
    29  H    0.763377
    30  H    0.707443
 Sum of APT charges =   0.00000
 APT charges with hydrogens summed into heavy atoms:
               1
     1  O   -0.345520
     2  C   -0.028668
     3  N    0.167092
     4  C    0.356025
     5  C   -0.693682
     6  O    0.388541
     7  O   -0.093536
     8  C   -0.228468
     9  C    0.574825
    10  C   -0.512642
    11  N   -0.025566
    12  C    0.582299
    13  N   -0.158362
    14  C    0.126882
    15  C   -0.051379
    16  N   -0.057841
 Electronic spatial extent (au):  <R**2>=           4541.4341
 Charge=              0.0000 electrons
 Dipole moment (field-independent basis, Debye):
    X=              4.2210    Y=             -2.1014    Z=              2.0705  Tot=              5.1498
 Quadrupole moment (field-independent basis, Debye-Ang):
   XX=            -92.1872   YY=            -92.8055   ZZ=           -107.9930
   XY=              0.2572   XZ=             -9.6152   YZ=              2.8751
 Traceless Quadrupole moment (field-independent basis, Debye-Ang):
   XX=              5.4747   YY=              4.8564   ZZ=            -10.3311
   XY=              0.2572   XZ=             -9.6152   YZ=              2.8751
 Octapole moment (field-independent basis, Debye-Ang**2):
  XXX=            307.3496  YYY=            -27.8450  ZZZ=            -26.0727  XYY=             48.9397
  XXY=            -40.7054  XXZ=             55.1134  XZZ=             24.9866  YZZ=            -26.2497
  YYZ=              0.4311  XYZ=              8.2260
 Hexadecapole moment (field-independent basis, Debye-Ang**3):
 XXXX=          -5039.3479 YYYY=           -305.5400 ZZZZ=          -1219.3195 XXXY=            105.1458
 XXXZ=            -68.9537 YYYX=             11.0591 YYYZ=             17.5987 ZZZX=            223.9211
 ZZZY=             11.7973 XXYY=           -819.7225 XXZZ=           -843.6802 YYZZ=           -248.8957
 XXYZ=            -12.2760 YYXZ=             63.6669 ZZXY=             19.1004
 N-N= 1.133181880500D+03 E-N=-4.126980634264D+03  KE= 7.935024088144D+02
  Exact polarizability:   0.000   0.000   0.000   0.000   0.000   0.000
 Approx polarizability: 224.362 -25.661 174.018   3.999 -23.993 221.800
 Calling FoFJK, ICntrl=    100147 FMM=F ISym2X=0 I1Cent= 0 IOpClX= 0 NMat=1 NMatS=1 NMatT=0.
 -------------------------------------------------------------------
 Center     Atomic                   Forces (Hartrees/Bohr)
 Number     Number              X              Y              Z
 -------------------------------------------------------------------
      1        8          -0.002066493    0.002962497   -0.004463061
      2        6           0.001922061   -0.003288928   -0.003665405
      3        7          -0.004003783    0.002833853    0.001489980
      4        6           0.006989406    0.001174764   -0.002964174
      5        6           0.004490549   -0.000089892   -0.001952807
      6        8          -0.003987246    0.002503719    0.005435747
      7        8          -0.000944738   -0.000164955    0.003905988
      8        6          -0.008495721    0.000505648   -0.000709664
      9        6           0.006019548   -0.002582097   -0.003325385
     10        6          -0.006882593    0.003249467   -0.001797790
     11        7           0.003292457   -0.000566764   -0.000433720
     12        6          -0.006228539    0.001573354   -0.001032651
     13        7           0.002901582   -0.002890124    0.006211223
     14        6          -0.002424091    0.001292056   -0.001913178
     15        6           0.005584988    0.000196877    0.000786107
     16        7           0.000257657    0.002477815    0.000357659
     17        1           0.004473236   -0.003714034    0.004396186
     18        1          -0.000641947   -0.000526831    0.000114033
     19        1           0.000407371    0.000964067   -0.001599577
     20        1           0.000120023    0.000319734   -0.001363128
     21        1           0.001330339   -0.002044078    0.000980607
     22        1           0.000119111   -0.000584491    0.000105622
     23        1          -0.003108733   -0.000110597    0.001243745
     24        1          -0.001948112   -0.000916902   -0.001249389
     25        1          -0.000836306   -0.000224199   -0.001543682
     26        1           0.001075796   -0.000468904   -0.000292431
     27        1           0.001443058    0.000696591   -0.000881260
     28        1           0.000164855    0.000788781    0.001517102
     29        1           0.000622551    0.000001903    0.003485803
     30        1           0.000353716   -0.003368326   -0.000842500
 -------------------------------------------------------------------
 Cartesian Forces:  Max     0.008495721 RMS     0.002797500
 FormGI is forming the generalized inverse of G from B-inverse, IUseBI=4.

 GradGradGradGradGradGradGradGradGradGradGradGradGradGradGradGradGradGrad
 Berny optimization.
 Internal  Forces:  Max     0.012804908 RMS     0.003085538
 Search for a local minimum.
 Step number   1 out of a maximum of  160
 All quantities printed in internal units (Hartrees-Bohrs-Radians)
 Mixed Optimization -- RFO/linear search
 Second derivative matrix not updated -- analytic derivatives used.
 ITU=  0
     Eigenvalues ---    0.00056   0.00071   0.00135   0.00285   0.00345
     Eigenvalues ---    0.00371   0.00494   0.00554   0.01063   0.01248
     Eigenvalues ---    0.01547   0.02020   0.02539   0.02984   0.03275
     Eigenvalues ---    0.03775   0.04206   0.04265   0.04404   0.04543
     Eigenvalues ---    0.04576   0.04991   0.05108   0.05287   0.05597
     Eigenvalues ---    0.05646   0.05838   0.06103   0.07689   0.07786
     Eigenvalues ---    0.08365   0.10343   0.10850   0.10884   0.11300
     Eigenvalues ---    0.11690   0.12749   0.13335   0.14879   0.15649
     Eigenvalues ---    0.16309   0.16613   0.16833   0.18669   0.20378
     Eigenvalues ---    0.21626   0.22306   0.22813   0.23139   0.23250
     Eigenvalues ---    0.24313   0.24616   0.25329   0.27470   0.30172
     Eigenvalues ---    0.30448   0.31543   0.32782   0.32871   0.33031
     Eigenvalues ---    0.33293   0.33730   0.34080   0.34222   0.34700
     Eigenvalues ---    0.35542   0.36861   0.37553   0.37662   0.40102
     Eigenvalues ---    0.41220   0.42069   0.42926   0.44800   0.45682
     Eigenvalues ---    0.46055   0.46610   0.47299   0.47888   0.52011
     Eigenvalues ---    0.57498   0.58658   0.80706   0.89188
 RFO step:  Lambda=-4.88450699D-03 EMin= 5.56272934D-04
 Linear search not attempted -- first point.
 Iteration  1 RMS(Cart)=  0.09887498 RMS(Int)=  0.00292811
 Iteration  2 RMS(Cart)=  0.00475644 RMS(Int)=  0.00010156
 Iteration  3 RMS(Cart)=  0.00001327 RMS(Int)=  0.00010128
 Iteration  4 RMS(Cart)=  0.00000000 RMS(Int)=  0.00010128
 Variable       Old X    -DE/DX   Delta X   Delta X   Delta X     New X
                                 (Linear)    (Quad)   (Total)
    R1        2.31184   0.00563   0.00000   0.00475   0.00475   2.31660
    R2        2.55340   0.00926   0.00000   0.01863   0.01863   2.57203
    R3        2.88255   0.00547   0.00000   0.00544   0.00544   2.88799
    R4        2.72850   0.00656   0.00000   0.00509   0.00509   2.73360
    R5        1.91572   0.00725   0.00000   0.01491   0.01491   1.93062
    R6        2.87454   0.00593   0.00000   0.01096   0.01096   2.88550
    R7        2.92133   0.01114   0.00000   0.03301   0.03301   2.95434
    R8        2.06844  -0.00035   0.00000  -0.00096  -0.00096   2.06748
    R9        2.54068   0.00603   0.00000   0.01483   0.01483   2.55551
   R10        2.27017   0.00191   0.00000   0.00124   0.00124   2.27141
   R11        1.82491   0.00134   0.00000   0.00334   0.00334   1.82825
   R12        2.81992   0.00504   0.00000   0.00345   0.00345   2.82337
   R13        2.05666   0.00133   0.00000   0.00489   0.00489   2.06155
   R14        2.06164   0.00251   0.00000   0.00685   0.00685   2.06849
   R15        2.58674   0.00581   0.00000   0.01341   0.01344   2.60018
   R16        2.60496   0.00818   0.00000   0.01497   0.01504   2.62000
   R17        2.61242  -0.00168   0.00000  -0.01115  -0.01121   2.60121
   R18        2.04018  -0.00025   0.00000  -0.00005  -0.00005   2.04014
   R19        2.48084  -0.00041   0.00000  -0.00042  -0.00048   2.48036
   R20        2.56697   0.00751   0.00000   0.01328   0.01329   2.58027
   R21        2.03245   0.00302   0.00000   0.00720   0.00720   2.03965
   R22        1.91016  -0.00154   0.00000  -0.00311  -0.00311   1.90705
   R23        2.87777   0.00860   0.00000   0.02097   0.02097   2.89875
   R24        2.07136   0.00066   0.00000   0.00264   0.00264   2.07400
   R25        2.06122   0.00033   0.00000   0.00111   0.00111   2.06233
   R26        2.78103   0.00245   0.00000   0.00275   0.00275   2.78378
   R27        2.07129   0.00156   0.00000   0.00422   0.00422   2.07551
   R28        2.06331   0.00127   0.00000   0.00357   0.00357   2.06688
   R29        1.91065   0.00327   0.00000   0.00615   0.00615   1.91680
   R30        1.91224   0.00341   0.00000   0.00693   0.00693   1.91917
    A1        2.14110  -0.00274   0.00000  -0.00203  -0.00205   2.13905
    A2        2.12794  -0.00490   0.00000  -0.00880  -0.00882   2.11912
    A3        2.01389   0.00766   0.00000   0.01107   0.01105   2.02494
    A4        2.11961  -0.00246   0.00000  -0.00825  -0.00838   2.11123
    A5        2.07902   0.00068   0.00000  -0.00429  -0.00442   2.07459
    A6        2.08388   0.00179   0.00000   0.01356   0.01344   2.09732
    A7        1.87506   0.00074   0.00000   0.02243   0.02230   1.89737
    A8        1.92243   0.00081   0.00000   0.02044   0.02032   1.94275
    A9        1.89392  -0.00062   0.00000  -0.00320  -0.00296   1.89096
   A10        1.93802   0.00145   0.00000  -0.00370  -0.00424   1.93378
   A11        1.94010  -0.00134   0.00000  -0.01662  -0.01678   1.92332
   A12        1.89397  -0.00104   0.00000  -0.01855  -0.01868   1.87529
   A13        2.03511  -0.00076   0.00000  -0.01061  -0.01064   2.02447
   A14        2.13985   0.00430   0.00000   0.01773   0.01770   2.15754
   A15        2.10800  -0.00355   0.00000  -0.00740  -0.00743   2.10057
   A16        1.94648  -0.00157   0.00000  -0.01074  -0.01074   1.93574
   A17        1.97597   0.01280   0.00000   0.03394   0.03393   2.00991
   A18        1.86164  -0.00496   0.00000  -0.01934  -0.01943   1.84222
   A19        1.89897  -0.00299   0.00000  -0.00836  -0.00850   1.89047
   A20        1.90407  -0.00336   0.00000  -0.00050  -0.00034   1.90372
   A21        1.93920  -0.00368   0.00000  -0.00502  -0.00505   1.93416
   A22        1.88009   0.00171   0.00000  -0.00285  -0.00301   1.87708
   A23        2.30476  -0.00149   0.00000   0.00192   0.00162   2.30638
   A24        2.14965   0.00475   0.00000   0.00754   0.00725   2.15690
   A25        1.82761  -0.00320   0.00000  -0.00778  -0.00780   1.81982
   A26        1.93555   0.00178   0.00000   0.00404   0.00406   1.93961
   A27        2.22904  -0.00119   0.00000  -0.00657  -0.00665   2.22238
   A28        2.11859  -0.00059   0.00000   0.00260   0.00252   2.12111
   A29        1.83128   0.00319   0.00000   0.00828   0.00825   1.83954
   A30        1.95191  -0.00149   0.00000  -0.00469  -0.00465   1.94727
   A31        2.20625  -0.00059   0.00000  -0.00654  -0.00657   2.19968
   A32        2.12501   0.00209   0.00000   0.01127   0.01123   2.13623
   A33        1.87834  -0.00027   0.00000   0.00025   0.00019   1.87853
   A34        2.19791   0.00117   0.00000   0.00411   0.00379   2.20170
   A35        2.20219  -0.00079   0.00000  -0.00070  -0.00103   2.20116
   A36        2.00934   0.01033   0.00000   0.02818   0.02812   2.03746
   A37        1.89089  -0.00396   0.00000  -0.01387  -0.01401   1.87688
   A38        1.84707  -0.00279   0.00000   0.00205   0.00206   1.84913
   A39        1.90651  -0.00103   0.00000   0.00454   0.00454   1.91105
   A40        1.93334  -0.00387   0.00000  -0.01193  -0.01202   1.92132
   A41        1.87111   0.00074   0.00000  -0.01185  -0.01190   1.85921
   A42        1.94442   0.00229   0.00000  -0.00046  -0.00047   1.94395
   A43        1.90035  -0.00131   0.00000  -0.00696  -0.00697   1.89338
   A44        1.90567   0.00046   0.00000   0.00457   0.00457   1.91024
   A45        1.95833  -0.00025   0.00000   0.01270   0.01271   1.97104
   A46        1.88818  -0.00132   0.00000  -0.00945  -0.00943   1.87874
   A47        1.86462   0.00007   0.00000  -0.00043  -0.00041   1.86421
   A48        1.92846   0.00221   0.00000   0.01605   0.01596   1.94441
   A49        1.93181   0.00030   0.00000   0.00652   0.00643   1.93824
   A50        1.86671  -0.00054   0.00000   0.00444   0.00426   1.87097
    D1        0.01104  -0.00027   0.00000  -0.02105  -0.02095  -0.00991
    D2        3.11279  -0.00005   0.00000   0.00914   0.00906   3.12185
    D3       -3.10632  -0.00079   0.00000  -0.03177  -0.03170  -3.13801
    D4       -0.00457  -0.00056   0.00000  -0.00158  -0.00168  -0.00625
    D5        2.52346  -0.00162   0.00000   0.00247   0.00258   2.52604
    D6       -1.61989   0.00116   0.00000   0.01727   0.01722  -1.60268
    D7        0.38206  -0.00120   0.00000  -0.00180  -0.00184   0.38022
    D8       -0.64217  -0.00107   0.00000   0.01320   0.01329  -0.62888
    D9        1.49766   0.00170   0.00000   0.02800   0.02793   1.52559
   D10       -2.78357  -0.00066   0.00000   0.00893   0.00888  -2.77469
   D11       -2.76643   0.00168   0.00000   0.03993   0.04017  -2.72626
   D12        1.40374  -0.00101   0.00000   0.01856   0.01845   1.42218
   D13       -0.66724   0.00015   0.00000   0.03111   0.03116  -0.63608
   D14        0.41512   0.00147   0.00000   0.01006   0.01018   0.42529
   D15       -1.69790  -0.00122   0.00000  -0.01131  -0.01154  -1.70945
   D16        2.51430  -0.00005   0.00000   0.00124   0.00117   2.51547
   D17        2.65192  -0.00162   0.00000   0.02321   0.02321   2.67513
   D18       -0.51225  -0.00184   0.00000   0.00875   0.00868  -0.50356
   D19       -1.52808   0.00069   0.00000   0.06021   0.06019  -1.46789
   D20        1.59094   0.00048   0.00000   0.04574   0.04566   1.63661
   D21        0.58227  -0.00056   0.00000   0.02282   0.02294   0.60521
   D22       -2.58190  -0.00078   0.00000   0.00836   0.00841  -2.57348
   D23       -3.04000   0.00138   0.00000  -0.04457  -0.04449  -3.08449
   D24       -0.94566   0.00149   0.00000  -0.03799  -0.03807  -0.98374
   D25        1.07802  -0.00060   0.00000  -0.05562  -0.05554   1.02248
   D26        1.16826  -0.00098   0.00000  -0.08325  -0.08314   1.08512
   D27       -3.02059  -0.00086   0.00000  -0.07666  -0.07672  -3.09731
   D28       -0.99691  -0.00295   0.00000  -0.09430  -0.09418  -1.09109
   D29       -0.96905   0.00047   0.00000  -0.04771  -0.04774  -1.01679
   D30        1.12529   0.00059   0.00000  -0.04112  -0.04132   1.08397
   D31       -3.13422  -0.00150   0.00000  -0.05875  -0.05878   3.09019
   D32        0.04371  -0.00095   0.00000  -0.02207  -0.02199   0.02173
   D33       -3.07574  -0.00085   0.00000  -0.00824  -0.00832  -3.08407
   D34        1.67985  -0.00179   0.00000  -0.08794  -0.08785   1.59199
   D35       -1.40160  -0.00309   0.00000  -0.13111  -0.13114  -1.53274
   D36       -0.39010  -0.00133   0.00000  -0.08462  -0.08462  -0.47471
   D37        2.81164  -0.00262   0.00000  -0.12779  -0.12791   2.68374
   D38       -2.46031   0.00091   0.00000  -0.07776  -0.07767  -2.53798
   D39        0.74143  -0.00039   0.00000  -0.12093  -0.12096   0.62047
   D40       -3.08470  -0.00117   0.00000  -0.03933  -0.03924  -3.12393
   D41        0.05247  -0.00067   0.00000  -0.02133  -0.02128   0.03119
   D42        0.00485   0.00015   0.00000  -0.00162  -0.00168   0.00317
   D43       -3.14118   0.00066   0.00000   0.01637   0.01628  -3.12490
   D44        3.08513   0.00109   0.00000   0.03876   0.03877   3.12390
   D45        0.04312  -0.00005   0.00000   0.00053   0.00045   0.04357
   D46       -0.01030   0.00012   0.00000   0.00547   0.00550  -0.00480
   D47       -3.05231  -0.00102   0.00000  -0.03276  -0.03281  -3.08512
   D48        0.00264  -0.00035   0.00000  -0.00291  -0.00287  -0.00023
   D49       -3.13485  -0.00082   0.00000  -0.01956  -0.01960   3.12874
   D50       -0.00948   0.00043   0.00000   0.00653   0.00652  -0.00297
   D51        3.12649   0.00084   0.00000   0.01463   0.01454   3.14103
   D52        0.01286  -0.00036   0.00000  -0.00781  -0.00781   0.00505
   D53        3.05455   0.00093   0.00000   0.03089   0.03084   3.08539
   D54       -3.12342  -0.00074   0.00000  -0.01541  -0.01543  -3.13885
   D55       -0.08172   0.00055   0.00000   0.02329   0.02322  -0.05850
   D56        1.19989   0.00043   0.00000  -0.01828  -0.01820   1.18169
   D57       -2.91439   0.00075   0.00000  -0.00737  -0.00729  -2.92168
   D58       -0.88454   0.00036   0.00000  -0.00923  -0.00915  -0.89369
   D59       -0.93156  -0.00088   0.00000  -0.02351  -0.02356  -0.95512
   D60        1.23735  -0.00056   0.00000  -0.01260  -0.01265   1.22470
   D61       -3.01599  -0.00095   0.00000  -0.01446  -0.01451  -3.03049
   D62       -2.98875   0.00115   0.00000  -0.00469  -0.00472  -2.99347
   D63       -0.81985   0.00147   0.00000   0.00622   0.00619  -0.81365
   D64        1.21001   0.00108   0.00000   0.00436   0.00433   1.21434
   D65       -2.91371  -0.00008   0.00000   0.00107   0.00111  -2.91259
   D66        1.30499  -0.00099   0.00000  -0.01863  -0.01868   1.28631
   D67        1.23363   0.00013   0.00000   0.00127   0.00130   1.23493
   D68       -0.83085  -0.00078   0.00000  -0.01843  -0.01849  -0.84935
   D69       -0.81892   0.00103   0.00000   0.00036   0.00042  -0.81850
   D70       -2.88340   0.00011   0.00000  -0.01934  -0.01938  -2.90277
         Item               Value     Threshold  Converged?
 Maximum Force            0.012805     0.000450     NO 
 RMS     Force            0.003086     0.000300     NO 
 Maximum Displacement     0.423886     0.001800     NO 
 RMS     Displacement     0.098709     0.001200     NO 
 Predicted change in Energy=-2.779911D-03
 GradGradGradGradGradGradGradGradGradGradGradGradGradGradGradGradGradGrad

                          Input orientation:                          
 ---------------------------------------------------------------------
 Center     Atomic      Atomic             Coordinates (Angstroms)
 Number     Number       Type             X           Y           Z
 ---------------------------------------------------------------------
      1          8           0        0.952330    0.889343   -2.259484
      2          6           0        1.598802    0.370164   -1.356526
      3          7           0        1.067040    0.110058   -0.130941
      4          6           0       -0.305707    0.450847    0.172306
      5          6           0       -0.448368    0.610066    1.684208
      6          8           0       -1.435122    1.434579    2.102846
      7          8           0        0.232290    0.023176    2.482342
      8          6           0       -1.293085   -0.634592   -0.367171
      9          6           0       -2.742188   -0.330396   -0.167709
     10          6           0       -3.668213    0.311097   -0.957782
     11          7           0       -4.894118    0.373096   -0.334826
     12          6           0       -4.727110   -0.221936    0.823117
     13          7           0       -3.446730   -0.670658    0.976872
     14          6           0        3.057214   -0.040932   -1.555530
     15          6           0        3.989785    0.117305   -0.347940
     16          7           0        3.637736   -0.823676    0.729406
     17          1           0        1.652147   -0.340511    0.575024
     18          1           0       -0.546065    1.392068   -0.330991
     19          1           0       -1.927100    1.793744    1.351212
     20          1           0       -1.088588   -0.710627   -1.436056
     21          1           0       -1.030883   -1.594842    0.088140
     22          1           0       -3.515523    0.719396   -1.945457
     23          1           0       -5.483076   -0.359584    1.581101
     24          1           0       -3.067538   -1.117146    1.798624
     25          1           0        3.063536   -1.086653   -1.888640
     26          1           0        3.424787    0.553973   -2.393384
     27          1           0        5.026843    0.005487   -0.691882
     28          1           0        3.897130    1.130511    0.053445
     29          1           0        4.102632   -0.582607    1.598092
     30          1           0        3.916953   -1.770866    0.492193
 ---------------------------------------------------------------------
                    Distance matrix (angstroms):
                    1          2          3          4          5
     1  O    0.000000
     2  C    1.225890   0.000000
     3  N    2.269611   1.361060   0.000000
     4  C    2.772821   2.443561   1.446557   0.000000
     5  C    4.194360   3.673489   2.416865   1.526942   0.000000
     6  O    5.002712   4.722809   3.606241   2.443418   1.352318
     7  O    4.873768   4.089579   2.744741   2.410106   1.201979
     8  C    3.308340   3.217354   2.486060   1.563371   2.543792
     9  C    4.417324   4.555027   3.834784   2.581161   3.094459
    10  C    4.835102   5.282417   4.811101   3.550081   4.175751
    11  N    6.176712   6.572815   5.970440   4.617006   4.888491
    12  C    6.556936   6.717038   5.881549   4.519403   4.443123
    13  N    5.679730   5.655569   4.712843   3.430908   3.336279
    14  C    2.406553   1.528256   2.452151   3.812676   4.817552
    15  C    3.670991   2.607294   2.930799   4.339718   4.906082
    16  N    4.367985   3.151763   2.867148   4.181567   4.434355
    17  H    3.168078   2.058832   1.021642   2.149796   2.558525
    18  H    2.493392   2.587752   2.070187   1.094064   2.163816
    19  H    4.705973   4.668020   3.741183   2.412905   1.923182
    20  H    2.720897   2.897671   2.650203   2.132780   3.448211
    21  H    3.951664   3.586579   2.712187   2.172052   2.783591
    22  H    4.482099   5.159954   4.966250   3.854862   4.753300
    23  H    7.597655   7.701635   6.786433   5.426477   5.128269
    24  H    6.054220   5.825959   4.724827   3.568085   3.139492
    25  H    2.915352   2.133286   2.916783   4.238302   5.289383
    26  H    2.498688   2.107861   3.297678   4.528795   5.624165
    27  H    4.454237   3.510869   4.000704   5.420448   5.999104
    28  H    3.752286   2.801510   3.014090   4.259097   4.670504
    29  H    5.193450   3.988321   3.561483   4.747035   4.705474
    30  H    4.841222   3.657266   3.471049   4.782175   5.113293
                    6          7          8          9         10
     6  O    0.000000
     7  O    2.217281   0.000000
     8  C    3.225310   3.298356   0.000000
     9  C    3.158952   3.999413   1.494062   0.000000
    10  C    3.951753   5.208769   2.623810   1.375954   0.000000
    11  N    4.362757   5.859944   3.739508   2.270161   1.376504
    12  C    3.901146   5.235338   3.657814   2.221129   2.139390
    13  N    3.121924   4.035225   2.538886   1.386443   2.180776
    14  C    5.978456   4.928358   4.548596   5.970168   6.761109
    15  C    6.096817   4.705117   5.336144   6.749251   7.684685
    16  N    5.720134   3.922627   5.054822   6.461545   7.583613
    17  H    3.875102   2.405436   3.106221   4.456673   5.574972
    18  H    2.591485   3.224057   2.160254   2.795801   3.362911
    19  H    0.967469   3.012861   3.041650   2.735592   3.249796
    20  H    4.152809   4.199646   1.090924   2.118413   2.815516
    21  H    3.660579   3.153695   1.094596   2.143094   3.417904
    22  H    4.607419   5.842622   3.043600   2.204654   1.079594
    23  H    4.458382   5.798634   4.628976   3.251408   3.192095
    24  H    3.044444   3.557622   2.841164   2.142731   3.162035
    25  H    6.521234   5.324769   4.636742   6.102456   6.938058
    26  H    6.679092   5.852049   5.270345   6.615687   7.240896
    27  H    7.183996   5.750108   6.360552   7.793935   8.704487
    28  H    5.720613   4.533959   5.498258   6.801743   7.676486
    29  H    5.915279   4.016020   5.742710   7.073417   8.229048
    30  H    6.443119   4.555878   5.401307   6.845041   7.998233
                   11         12         13         14         15
    11  N    0.000000
    12  C    1.312549   0.000000
    13  N    2.214702   1.365418   0.000000
    14  C    8.055136   8.141648   7.007917   0.000000
    15  C    8.887594   8.801745   7.594588   1.533950   0.000000
    16  N    8.680863   8.386985   7.090438   2.484075   1.473111
    17  H    6.647605   6.385181   5.125332   2.569674   2.554606
    18  H    4.465858   4.627971   3.791992   4.066522   4.711607
    19  H    3.696507   3.490259   2.919364   6.054632   6.380211
    20  H    4.107216   4.310629   3.374116   4.201242   5.259214
    21  H    4.356176   4.010881   2.735010   4.672132   5.322473
    22  H    2.148157   3.165288   3.236818   6.628047   7.697027
    23  H    2.134120   1.079338   2.146756   9.103656   9.679035
    24  H    3.179438   2.123016   1.009165   7.065492   7.479132
    25  H    8.238293   8.294307   7.125152   1.097513   2.163610
    26  H    8.571730   8.797803   7.750877   1.091339   2.166505
    27  H    9.934188   9.873527   8.662757   2.151158   1.098312
    28  H    8.832354   8.763506   7.617691   2.160218   1.093747
    29  H    9.251543   8.871021   7.575390   3.366251   2.071148
[...]
 256,0.00002046,0.00000818,-0.00000745,-0.00001717,-0.00000360,-0.00001
 000,0.00006094,-0.00002791,-0.00000459,-0.00007769,0.00006602,0.000018
 99,-0.00001004,-0.00006194,-0.00000667,-0.00012868,-0.00041298,0.00039
 620,0.00032540,0.00014256,-0.00008648,-0.00015923,0.00021985,0.0002785
 3,0.00058698,0.00069553,0.00081843,-0.00009510,-0.00038008,-0.00074487
 ,-0.08028562,0.27455625,-0.00008629,-0.00005328,0.00000525,0.00012441,
 0.00001336,-0.00008753,-0.00029060,-0.00006597,-0.00006261,0.00021202,
 -0.00003960,0.00029448,-0.00056347,0.00008842,0.00102690,0.00051125,0.
 00012929,-0.00049645,0.00008272,0.00010082,-0.00044694,-0.00086555,-0.
 00096391,-0.00066643,-0.01084973,0.00626738,-0.00900560,0.00238234,0.0
 0274834,-0.00102270,0.00261690,0.00115671,0.00440704,-0.00243391,-0.00
 640065,-0.00140398,-0.04167400,0.20963803,-0.18243643,-0.00000546,0.00
 002846,-0.00000146,0.00002182,-0.00000698,0.00004446,-0.00002823,0.000
 01597,-0.00005572,0.00002203,-0.00001290,0.00011967,-0.00009290,-0.000
 13086,-0.00007237,0.00006855,-0.00004947,0.00037392,0.00005740,-0.0000
 0266,0.00000563,0.00081472,-0.00028990,0.00035059,-0.00009201,0.001181
 93,0.00100802,-0.00020951,-0.00048734,-0.00067607,0.05031170,-0.212862
 38,0.18878933,-0.00337703,-0.00351672,-0.00110214,0.00034275,0.0344513
 3,0.00499489,-0.00133336,-0.00171607,0.00064739,-0.00031165,-0.0013703
 6,-0.00026359,0.00004535,-0.00014896,-0.00028016,-0.00003349,0.0000560
 5,0.00005848,0.00004650,0.00001457,0.00016815,-0.00034969,0.00023262,0
 .00021175,-0.00003805,-0.00013061,-0.00003684,0.00001716,0.00000150,-0
 .00001119,-0.00003733,-0.00000947,0.00002594,-0.00004540,0.00001072,0.
 00001112,-0.00003064,0.00000157,-0.00001650,-0.04612445,0.01470157,0.0
 0331523,0.00062431,-0.02272110,-0.00519066,0.00071463,0.00040497,0.001
 93288,-0.00027092,0.00067106,0.00011851,0.00006008,0.00000480,-0.00010
 725,0.00002354,-0.00001024,-0.00001925,0.00001654,0.00014080,-0.000005
 19,-0.00001847,-0.00002350,0.00008096,0.00000879,-0.00001071,0.0000054
 2,-0.00000219,0.00000521,0.00000426,0.00000153,0.00001458,-0.00000395,
 0.05146981,0.00180833,0.00127735,-0.00011362,0.00040320,-0.00859516,-0
 .00034206,0.00043996,0.00074052,0.00041631,0.00017720,0.00019820,-0.00
 014766,-0.00001265,0.00003413,0.00007085,0.00004623,-0.00002626,-0.000
 03502,0.00001478,0.00001407,-0.00004501,0.00007170,-0.00007032,-0.0000
 2522,-0.00000126,0.00003455,0.00000699,-0.00000478,0.00000096,0.000011
 89,0.00001052,0.00000831,-0.00000563,0.00001476,-0.00000196,-0.0000070
 2,0.00001284,0.00000664,0.00000549,0.01021206,-0.28841276,-0.04541194,
 -0.00029186,-0.00808216,-0.00160307,0.00013383,0.00202698,0.00076602,-
 0.00002592,-0.00033748,-0.00008804,-0.00008508,0.00001178,0.00006926,-
 0.00002533,-0.00000625,-0.00000300,-0.00000950,-0.00006346,-0.00001755
 ,0.00000628,0.00001292,-0.00003673,-0.00000731,0.00000093,-0.00000619,
 0.00000069,-0.00000181,-0.00000233,-0.00000170,-0.00001180,-0.00000252
 ,-0.01134535,0.31445273,-0.00107572,-0.00014563,-0.00001183,0.00055699
 ,-0.00640521,-0.00258922,0.00108905,0.00068993,-0.00028776,0.00014505,
 0.00046008,0.00001838,0.00003359,-0.00002545,0.00005714,-0.00003177,0.
 00001036,0.00000127,-0.00002317,0.00006574,-0.00002556,0.00011969,-0.0
 0009829,-0.00003705,0.00002534,0.00003785,0.00000615,-0.00000210,0.000
 00288,0.00000253,-0.00000370,0.00000436,-0.00000775,0.00000929,-0.0000
 0829,0.00000131,0.00000235,0.00000291,0.00000017,0.00282343,-0.0448442
 5,-0.05134043,-0.00058505,-0.02679021,-0.00787449,0.00103946,-0.000275
 57,0.00253724,0.00025237,-0.00061799,-0.00006521,0.00000090,-0.0000082
 7,-0.00002848,0.00000064,-0.00000356,0.00000544,0.00001491,0.00000370,
 0.00000076,0.00000746,0.00000772,-0.00001679,0.00000278,0.00000038,0.0
 0000063,0.00000039,-0.00000091,-0.00000004,0.00000656,-0.00000136,0.00
 000237,0.00030803,0.05101525,0.05638647,0.00310817,0.00091491,-0.00173
 463,-0.01154117,-0.01736193,0.03063706,-0.00618123,0.00262777,-0.00067
 504,0.00053199,0.00022178,0.00150920,-0.00053038,0.00004977,-0.0005345
 7,-0.00019107,0.00016790,0.00035505,0.00012195,-0.00000216,0.00022514,
 0.00006326,0.00008571,0.00004792,0.00000201,-0.00006315,-0.00003875,0.
 00001110,-0.00003367,0.00002084,-0.00004933,0.00000158,0.00000300,-0.0
 0002872,0.00001248,0.00001061,-0.00000037,0.00002514,-0.00003773,-0.07
 038149,-0.03760474,0.06258621,0.00665333,0.01168533,-0.01584744,-0.002
 27339,-0.00207701,-0.00434589,-0.00049046,-0.00008941,-0.00072277,-0.0
 0009346,0.00005040,0.00006485,0.00009748,-0.00003430,0.00001459,-0.000
 00098,-0.00003977,0.00000646,-0.00000297,-0.00001295,-0.00001518,-0.00
 000019,0.00000163,0.00000921,-0.00000174,0.00000456,0.00000198,0.00001
 197,0.00001241,-0.00000580,-0.00002995,0.00048645,-0.00152204,0.080291
 20,-0.00117707,0.00013512,-0.00109837,0.00596500,0.00305537,-0.0084519
 8,0.00161657,0.00000878,0.00025719,0.00040860,0.00025345,-0.00047792,0
 .00014949,-0.00000830,0.00002230,-0.00002027,-0.00003041,-0.00002783,-
 0.00004519,0.00002164,0.00000328,-0.00001391,-0.00005393,0.00000202,0.
 00001721,0.00000412,0.00000073,0.00000110,0.00000159,-0.00000006,-0.00
 001694,0.00000076,-0.00000165,-0.00000262,-0.00000472,0.00000278,-0.00
 000750,0.00000503,-0.00000077,-0.03993027,-0.10521307,0.10558756,0.003
 21190,0.00362441,-0.00737672,-0.00077320,0.00048623,-0.00120124,-0.000
 08449,-0.00027532,-0.00008748,-0.00006270,0.00002034,0.00000860,0.0000
 0686,0.00000722,-0.00000057,0.00000191,0.00000303,0.00002333,0.0000094
 6,-0.00000047,-0.00001525,0.00000383,-0.00000035,0.00000383,-0.0000004
 8,0.00000076,0.00000104,0.00000669,0.00000267,-0.00000189,-0.00972792,
 -0.01505554,0.02648109,0.03987713,0.11191582,-0.00257567,-0.00072251,0
 .00161726,0.00268269,0.00309667,-0.00798758,0.00154476,-0.00025583,0.0
 0117093,-0.00018713,0.00023266,-0.00020499,-0.00005151,0.00003246,0.00
 001419,0.00010569,-0.00007135,-0.00005029,0.00009857,-0.00003106,0.000
 03916,0.00002720,-0.00003009,0.00000708,0.00001390,0.00002470,0.000011
 62,-0.00000147,0.00001260,-0.00000967,0.00001002,-0.00000526,0.0000036
 1,-0.00000016,-0.00000142,-0.00000385,0.00000133,-0.00000764,0.0000170
 9,0.06568283,0.10400229,-0.23092269,0.00865451,0.01174606,-0.01684845,
 -0.00306834,-0.00255129,-0.00380042,-0.00069717,-0.00004798,0.00009045
 ,0.00005856,-0.00001478,-0.00004360,-0.00002042,0.00000792,-0.00001391
 ,0.00002989,0.00003999,-0.00000190,-0.00000923,-0.00000863,0.00001015,
 0.00000269,-0.00000161,-0.00000016,-0.00000056,-0.00000170,-0.00000132
 ,-0.00000516,-0.00000230,-0.00000196,-0.00221836,-0.00291142,0.0060784
 2,-0.06972642,-0.11348786,0.25051602,-0.00204841,0.00125510,-0.0004353
 7,0.00195108,-0.00245318,-0.00418258,-0.00002001,-0.00007959,0.0003472
 1,0.00035703,0.00006932,-0.00001415,0.00024724,-0.00019274,-0.00020280
 ,-0.00024942,0.00013990,0.00013296,-0.00015864,0.00009323,0.00012358,-
 0.00002315,0.00002598,0.00003698,0.00003901,-0.00005537,-0.00003766,0.
 00002343,-0.00001235,0.00000309,-0.00007578,0.00000102,0.00001706,-0.0
 0003628,0.00000290,0.00001679,-0.00001794,0.00002177,-0.00003044,-0.02
 193961,0.00395097,0.00454746,-0.26291951,0.03181430,0.06819240,0.00008
 911,-0.00442903,0.00738588,0.00044061,-0.00007865,0.00013260,-0.000069
 78,0.00000327,0.00001398,0.00006566,-0.00001262,0.00000416,0.00002851,
 0.00004191,0.00000406,0.00000225,-0.00000127,0.00001155,0.00001511,-0.
 00001070,0.00001136,-0.00000221,0.00000290,0.00000371,0.00002224,0.000
 01892,-0.00000981,0.00066290,-0.00058578,0.00058643,0.00047183,0.00049
 760,-0.00043214,0.28543222,-0.00071820,0.00044758,-0.00007334,0.000014
 88,-0.00008910,-0.00210257,0.00010711,0.00052444,0.00023938,-0.0002349
 7,0.00004625,-0.00004177,0.00011860,-0.00009632,0.00016089,-0.00006418
 ,0.00003524,-0.00004343,-0.00011217,0.00012057,-0.00009038,0.00002688,
 -0.00002092,-0.00001319,0.00000076,0.00001172,0.00000915,-0.00000494,0
 .00000030,-0.00000006,0.00000666,0.00000439,-0.00000574,0.00000921,-0.
 00000563,-0.00000158,0.00000009,-0.00000063,-0.00000083,-0.00963166,0.
 00161596,0.00124153,0.03245017,-0.05759825,-0.01279819,-0.02091653,-0.
 00003628,0.01526267,0.00060053,-0.00071965,0.00062173,-0.00003146,-0.0
 0002299,-0.00001651,-0.00001480,0.00000052,0.00000959,-0.00000440,-0.0
 0000112,-0.00000397,0.00000405,0.00000753,-0.00000013,-0.00000121,0.00
 000038,-0.00000117,0.00000055,-0.00000002,0.00000014,0.00000207,-0.000
 00091,0.00000474,0.00008662,0.00033628,0.00081933,0.00063619,0.0004011
 6,0.00029105,-0.03085599,0.05674087,-0.00207191,0.00144412,-0.00008339
 ,0.00071502,-0.00322223,-0.00509447,-0.00019426,-0.00024020,0.00180015
 ,0.00017385,-0.00001256,0.00034769,-0.00057254,0.00020466,-0.00050660,
 0.00021376,-0.00010219,0.00012478,0.00041491,-0.00015689,0.00032588,-0
 .00003477,0.00002292,-0.00000052,0.00001397,-0.00001100,-0.00000650,0.
 00001088,0.00001851,-0.00000476,-0.00000509,-0.00001477,0.00002129,-0.
 00002839,0.00001130,-0.00000380,0.00000043,-0.00000658,0.00001935,-0.0
 2641681,0.00355174,0.00651808,0.06911635,-0.01246236,-0.06977029,0.028
 27908,0.00600192,-0.01933940,-0.00189671,0.00090571,-0.00109563,0.0000
 4993,-0.00003816,-0.00001248,0.00000775,-0.00001408,-0.00004003,0.0000
 4165,0.00004023,0.00000617,-0.00001666,-0.00002208,0.00001106,0.000005
 77,-0.00000704,-0.00000189,-0.00000225,-0.00000085,-0.00000084,-0.0000
 1129,0.00000066,-0.00001109,0.00081647,-0.00007053,0.00078295,0.000380
 35,0.00043079,0.00086831,-0.07790833,0.00697859,0.08593748,0.00027076,
 0.00013691,0.00009927,0.00105959,-0.00136213,-0.00017949,0.00008663,0.
 00038484,0.00022605,-0.00021574,0.00014204,0.00011223,-0.00019289,0.00
 006677,0.00008306,0.00011509,-0.00005580,-0.00005216,0.00010662,0.0000
 1480,-0.00005844,0.00007620,-0.00005108,-0.00003065,-0.00000288,0.0000
 4091,0.00002676,-0.00001046,0.00000647,0.00000037,0.00002977,0.0000040
 9,-0.00000841,0.00001902,-0.00000591,-0.00000966,0.00000920,-0.0000019
 2,0.00001404,0.00106702,-0.02128661,-0.00693050,-0.05484535,0.03359527
 ,0.01134836,0.00097979,-0.00738190,-0.00222343,0.00002301,-0.00060019,
 0.00010860,-0.00001556,-0.00001584,-0.00000674,-0.00003824,-0.00000356
 ,-0.00000376,0.00000277,-0.00001853,-0.00000167,0.00000425,0.00000657,
 -0.00001493,-0.00000653,0.00000241,-0.00000668,0.00000088,-0.00000193,
 -0.00000231,-0.00000616,-0.00001053,0.00000387,-0.00230259,-0.00136973
 ,-0.00348135,0.00047605,0.00050422,0.00047155,-0.00361923,0.02938552,0
 .00898093,0.05587965,-0.00050919,0.00009662,0.00003258,0.00116108,0.00
 018096,-0.00059790,-0.00038343,0.00076412,0.00060911,-0.00017966,-0.00
 003888,0.00002860,-0.00013693,-0.00002393,-0.00006406,0.00003912,0.000
 00138,0.00000972,0.00009520,0.00010557,0.00003621,0.00000234,-0.000017
 41,0.00000302,0.00000519,0.00000411,0.00001410,-0.00000038,0.00000792,
 0.00000540,-0.00000232,0.00000772,-0.00000060,0.00000415,-0.00000711,-
 0.00000172,-0.00000041,0.00001120,0.00000306,-0.00058728,-0.00539268,-
 0.00335711,0.02970592,-0.28057386,-0.06336875,0.00152274,-0.02166812,-
 0.00070111,0.00029343,-0.00073664,0.00013691,-0.00003115,-0.00001041,-
 0.00002334,-0.00002054,-0.00001877,-0.00001241,0.00000742,0.00000438,0
 .00000462,0.00000530,0.00000319,-0.00000921,-0.00000091,-0.00000375,-0
 .00000451,-0.00000022,-0.00000127,-0.00000142,0.00000195,-0.00000880,-
 0.00000264,-0.00039903,0.00123660,-0.00093482,-0.00024128,0.00009977,-
 0.00049764,0.00184743,-0.00329614,-0.00214102,-0.03151816,0.30918684,-
 0.00032822,0.00034730,-0.00021540,0.00184999,-0.00027684,0.00062997,-0
 .00021483,0.00020367,0.00045764,-0.00003523,-0.00010489,0.00011764,0.0
 0007045,-0.00004057,0.00001363,-0.00004664,0.00004192,0.00001612,-0.00
 006582,-0.00003870,-0.00000949,-0.00000779,0.00001147,-0.00002451,0.00
 000658,-0.00000625,0.00000358,0.00000522,-0.00000219,0.00000576,-0.000
 01057,0.00000203,0.00000512,-0.00000685,0.00000249,0.00000221,-0.00000
 230,0.00000635,-0.00000686,0.00125541,-0.02414802,-0.00727065,0.010530
 32,-0.07195958,-0.06825969,-0.00286829,0.03403906,0.00377345,-0.000281
 32,0.00016449,-0.00007992,0.00000139,-0.00000922,-0.00002441,0.0000058
 9,-0.00000612,0.00000337,0.00001335,-0.00000316,0.00000529,-0.00000156
 ,-0.00000163,-0.00000130,0.00000010,-0.00000501,-0.00000115,-0.0000005
 7,0.00000008,-0.00000030,0.00000153,0.00000253,-0.00000386,-0.00353531
 ,-0.00048178,-0.00348370,0.00051763,0.00028894,0.00025905,0.00105937,-
 0.00940354,-0.00201193,-0.00890153,0.06708399,0.07909516,-0.00026939,0
 .00010072,0.00015212,0.00094567,-0.00051236,-0.00010341,-0.00169807,0.
 00109250,0.00041156,0.00029740,0.00016951,-0.00025123,-0.00135588,0.00
 045161,-0.00119288,0.00067571,-0.00032568,0.00021314,0.00118149,-0.000
 15106,0.00088039,-0.00011236,-0.00002097,0.00005645,0.00001596,0.00001
 481,0.00001349,0.00000002,0.00003707,0.00000782,0.00000760,-0.00001144
 ,0.00002239,-0.00003095,0.00000907,-0.00001037,0.00000281,-0.00000474,
 0.00003973,0.00005939,0.00033693,-0.00063316,-0.00114646,0.00158596,0.
 01242191,-0.10616306,-0.07868203,-0.17845123,0.00024509,-0.00176976,-0
 .00231336,-0.00017401,0.00006291,0.00006546,-0.00002184,-0.00005437,-0
 .00011376,0.00005612,0.00003579,0.00003197,0.00000387,-0.00001850,-0.0
 0003001,-0.00000056,-0.00000574,-0.00000803,-0.00000377,-0.00000256,-0
 .00000352,-0.00002078,-0.00002247,-0.00002273,0.00007472,0.00014587,0.
 00028530,0.00002214,0.00003315,-0.00032562,0.00028297,0.00007238,0.001
 11267,0.00074270,0.00042599,-0.00050586,0.10405214,0.00028725,-0.00014
 874,-0.00021528,-0.00080258,0.00019061,0.00052112,0.00051584,-0.000142
 33,-0.00031560,0.00000203,0.00001713,-0.00000911,0.00027707,-0.0000416
 2,0.00021257,-0.00009806,0.00003479,-0.00004408,-0.00023863,-0.0001533
 6,-0.00013063,0.00002455,-0.00000307,-0.00001292,0.00000154,0.00000507
 ,-0.00000542,-0.00000131,-0.00001533,-0.00000250,-0.00000247,-0.000005
 72,-0.00000244,-0.00000019,0.00000664,0.00000111,0.00000049,-0.0000047
 8,-0.00000456,-0.00138901,-0.00273734,0.00363803,0.01191501,0.00906462
 ,0.01969506,-0.06022228,-0.11159119,-0.10798705,-0.00017694,0.00026578
 ,0.00013814,0.00002485,-0.00000315,0.00000343,0.00001910,0.00002618,0.
 00002419,-0.00001407,-0.00001700,-0.00000112,-0.00000042,0.00000042,-0
 .00000630,-0.00000005,0.00000380,0.00000482,0.,0.00000122,0.00000072,0
 .00000150,0.00000865,-0.00000111,-0.00013214,0.00027575,0.00005629,0.0
 0078752,0.00049103,0.00116048,-0.00032944,-0.00018675,0.00007663,0.000
 50824,0.00032585,0.00006316,0.06915927,0.11735191,-0.00013605,-0.00006
 148,0.00025610,0.00033091,0.00019610,-0.00049020,0.00057432,-0.0004053
 9,0.00032535,-0.00015106,-0.00006693,0.00016007,0.00030921,-0.00011668
 ,0.00036136,-0.00018227,0.00008791,-0.00007372,-0.00026950,0.00005000,
 -0.00033365,0.00003640,0.00001129,-0.00002398,-0.00000988,-0.00000164,
 0.00000280,-0.00000080,-0.00000889,-0.00000509,0.00000377,0.00000438,-
 0.00000912,0.00001322,-0.00000600,0.00000273,-0.00000096,-0.00000047,-
 0.00001307,0.00312931,0.00439469,-0.00363591,-0.01591881,-0.01154264,-
 0.02166387,-0.13714767,-0.10634229,-0.28860186,-0.00089362,0.00061323,
 0.00019437,0.00006887,-0.00003992,-0.00002260,0.00000400,0.00001248,0.
 00003826,-0.00001282,-0.00000630,-0.00001239,-0.00000520,0.00000446,0.
 00001626,0.,0.00000201,0.00000139,0.00000202,0.00000090,0.00000149,0.0
 0000561,0.00000754,0.00001223,0.00032818,0.00006459,0.00040545,-0.0013
 4824,-0.00040895,-0.00079122,0.00038253,-0.00079982,0.00014768,-0.0004
 0661,0.00006199,0.00167567,0.15504236,0.11499335,0.31542052,0.00003579
 ,0.00008249,-0.00009386,-0.00026536,0.00027332,0.00007335,-0.00185988,
 -0.00073776,-0.00087142,-0.00010829,-0.00007203,-0.00025686,0.00006491
 ,0.00005474,0.00004648,-0.00002116,0.00001343,-0.00001783,-0.00018893,
 -0.00023968,0.00002502,-0.00007219,0.00017228,-0.00005245,-0.00005223,
 -0.00004772,-0.00001217,0.00000722,0.00000312,-0.00001513,0.00003628,-
 0.00003083,0.00001100,-0.00002631,0.00002090,-0.00000378,0.00000928,-0
 .00003318,0.00001282,-0.00023160,0.00128665,-0.00004985,-0.00094661,-0
 .01305906,0.00300854,-0.05990087,0.14763561,0.01339989,0.00213184,0.00
 255683,0.00103891,-0.00000009,-0.00000547,0.00000246,0.00001336,0.0000
 3428,0.00001187,-0.00000583,0.00001153,-0.00002294,-0.00004889,-0.0000
 3779,0.00005282,0.00000015,0.00000367,0.00000324,0.00000044,0.00000246
 ,0.00000209,-0.00002719,0.00001611,0.00000423,0.00019659,-0.00021846,-
 0.00058512,-0.00006560,-0.00044815,-0.00006482,0.00104875,-0.00093178,
 -0.00117476,0.00030663,-0.00110636,0.00149546,0.00233132,-0.02011666,-
 0.00374722,0.05763846,-0.00017472,0.00010220,-0.00011530,0.00013079,-0
 .00018829,-0.00007484,-0.00043901,0.00000313,-0.00029362,0.00004264,0.
 00004905,-0.00003688,0.00003186,-0.00002158,-0.00000679,-0.00003299,0.
 00001666,0.00001246,-0.00005233,-0.00000167,0.00002237,0.00000031,0.00
 002642,-0.00001025,-0.00000179,-0.00000992,-0.00000859,0.00000363,-0.0
 0000050,-0.00000374,0.00000100,-0.00000891,0.00000512,-0.00001240,0.00
 000640,-0.00000005,0.00000126,-0.00000767,0.00000166,0.00001977,0.0010
 6598,0.00027940,0.00807045,-0.01997934,-0.00396823,0.10020548,-0.37362
 976,-0.04936287,0.00089463,-0.00019308,0.00041309,-0.00002823,0.000005
 38,-0.00000544,0.00000910,0.00000399,0.00000263,0.00000438,0.00000915,
 -0.00000463,-0.00000762,-0.00000598,0.00001380,0.00000171,-0.00000073,
 0.00000205,-0.00000037,0.00000094,0.00000090,-0.00000403,0.00000839,0.
 00000061,0.00046418,-0.00000373,0.00050196,-0.00008828,0.00010382,0.00
 000349,-0.00068980,0.00178149,-0.00116524,-0.00111526,-0.00023846,0.00
 423002,0.00784814,-0.01301909,-0.00069751,-0.11508249,0.40412573,0.000
 27817,-0.00006828,0.00007100,-0.00044970,0.00003883,0.00012354,0.00023
 395,0.00002682,-0.00008058,-0.00009145,0.00005937,0.00000303,-0.000099
 79,0.00005157,0.00004228,0.00008880,-0.00005863,-0.00004001,0.00015256
 ,0.00009348,-0.00004950,0.00002967,-0.00004413,0.00001131,-0.00001097,
 0.00001849,0.00000988,-0.00001104,0.00000415,-0.00000192,0.00001927,0.
 00000943,-0.00001454,0.00002474,-0.00001037,-0.00000060,0.00000200,-0.
 00000067,0.00000250,0.00043475,0.00103322,0.00151232,-0.00978860,0.032
 74757,0.00462783,0.00737558,-0.05389791,-0.06982453,-0.00017132,-0.000
 31289,-0.00019521,0.00001305,-0.00000136,0.00001053,-0.00002238,-0.000
 00313,0.00000264,-0.00001249,-0.00000315,-0.00000752,0.00000652,0.0000
 0930,0.00000116,-0.00000322,0.00000482,-0.00000215,0.00000170,-0.00000
 082,-0.00000025,0.00000131,-0.00001028,0.00001130,-0.00023730,-0.00107
 030,-0.00051838,0.00016438,-0.00047497,-0.00002133,0.00024013,-0.00024
 257,0.00107279,0.00084322,0.00368893,-0.00467048,0.01320842,-0.0318509
 5,-0.00334506,-0.01221996,0.05026441,0.07126996\\-0.00000025,-0.000001
 17,-0.00000025,-0.00000024,-0.00000002,0.00000054,-0.00000015,-0.00000
 125,0.00000034,0.00000122,0.00000124,-0.00000042,0.00000082,-0.0000000
 1,0.,-0.00000042,0.00000191,-0.00000121,-0.00000029,0.00000139,-0.0000
 0035,-0.00000008,-0.00000055,-0.00000025,-0.00000055,-0.00000063,0.000
 00018,0.00000003,0.00000055,-0.00000053,0.00000029,0.00000074,0.000000
 16,-0.00000025,0.00000055,0.00000113,-0.00000030,0.00000114,0.00000070
 ,-0.00000020,-0.00000170,-0.00000010,-0.00000015,-0.00000018,-0.000000
 29,-0.00000018,-0.00000005,0.00000042,0.00000010,0.00000066,-0.0000008
 7,0.00000004,-0.00000023,-0.00000048,-0.00000020,-0.00000013,-0.000000
 07,0.00000097,-0.00000062,0.00000081,-0.00000055,0.00000043,0.00000010
 ,0.00000017,-0.00000051,-0.00000076,-0.00000006,0.00000098,0.00000042,
 0.00000023,0.00000102,0.00000095,-0.00000018,-0.00000111,0.00000042,-0
 .00000012,-0.00000147,-0.00000029,0.00000004,-0.00000084,-0.00000017,0
 .00000010,-0.00000041,-0.00000066,0.00000019,0.00000038,-0.00000006,-0
 .00000003,-0.00000009,0.00000060\\\@


 THERE ARE TWO THINGS THAT EVERYBODY THINKS THEY CAN DO BETTER THAN
 ANYONE ELSE - PUNCH THE FIRE, AND EDIT A DAILY PAPER.
 -- UNCLE ESEK, "CENTURY MAGAZINE", 1885
 Job cpu time:       0 days  4 hours 44 minutes 29.3 seconds.
 File lengths (MBytes):  RWF=    542 Int=      0 D2E=      0 Chk=     17 Scr=      1
 Normal termination of Gaussian 09 at Thu Jul 29 01:53:11 2021.
