 Entering Gaussian System, Link 0=g09
 Input=opt_freq-conf-338.com
 Output=opt_freq-conf-338.log
 Initial command:
 /aerosol/software/g09/l1.exe "/scratch/nicole/10556/Gau-595253.inp" -scrdir="/scratch/nicole/10556/"
 Entering Link 1 = /aerosol/software/g09/l1.exe PID=    595258.
  
 Copyright (c) 1988,1990,1992,1993,1995,1998,2003,2009,2013,
            Gaussian, Inc.  All Rights Reserved.
  
 This is part of the Gaussian(R) 09 program.  It is based on
 the Gaussian(R) 03 system (copyright 2003, Gaussian, Inc.),
 the Gaussian(R) 98 system (copyright 1998, Gaussian, Inc.),
 the Gaussian(R) 94 system (copyright 1995, Gaussian, Inc.),
 the Gaussian 92(TM) system (copyright 1992, Gaussian, Inc.),
 the Gaussian 90(TM) system (copyright 1990, Gaussian, Inc.),
 the Gaussian 88(TM) system (copyright 1988, Gaussian, Inc.),
 the Gaussian 86(TM) system (copyright 1986, Carnegie Mellon
 University), and the Gaussian 82(TM) system (copyright 1983,
 Carnegie Mellon University). Gaussian is a federally registered
 trademark of Gaussian, Inc.
  
 This software contains proprietary and confidential information,
 including trade secrets, belonging to Gaussian, Inc.
  
 This software is provided under written license and may be
 used, copied, transmitted, or stored only in accord with that
 written license.
  
 The following legend is applicable only to US Government
 contracts under FAR:
  
                    RESTRICTED RIGHTS LEGEND
  
 Use, reproduction and disclosure by the US Government is
 subject to restrictions as set forth in subparagraphs (a)
 and (c) of the Commercial Computer Software - Restricted
 Rights clause in FAR 52.227-19.
  
 Gaussian, Inc.
 340 Quinnipiac St., Bldg. 40, Wallingford CT 06492
  
  
 ---------------------------------------------------------------
 Warning -- This program may not be used in any manner that
 competes with the business of Gaussian, Inc. or will provide
 assistance to any competitor of Gaussian, Inc.  The licensee
 of this program is prohibited from giving any competitor of
 Gaussian, Inc. access to this program.  By using this program,
 the user acknowledges that Gaussian, Inc. is engaged in the
 business of creating and licensing software in the field of
 computational chemistry and represents and warrants to the
 licensee that it is not a competitor of Gaussian, Inc. and that
 it will not use this program in any manner prohibited above.
 ---------------------------------------------------------------
  

 Cite this work as:
 Gaussian 09, Revision D.01,
 M. J. Frisch, G. W. Trucks, H. B. Schlegel, G. E. Scuseria, 
 M. A. Robb, J. R. Cheeseman, G. Scalmani, V. Barone, B. Mennucci, 
 G. A. Petersson, H. Nakatsuji, M. Caricato, X. Li, H. P. Hratchian, 
 A. F. Izmaylov, J. Bloino, G. Zheng, J. L. Sonnenberg, M. Hada, 
 M. Ehara, K. Toyota, R. Fukuda, J. Hasegawa, M. Ishida, T. Nakajima, 
 Y. Honda, O. Kitao, H. Nakai, T. Vreven, J. A. Montgomery, Jr., 
 J. E. Peralta, F. Ogliaro, M. Bearpark, J. J. Heyd, E. Brothers, 
 K. N. Kudin, V. N. Staroverov, T. Keith, R. Kobayashi, J. Normand, 
 K. Raghavachari, A. Rendell, J. C. Burant, S. S. Iyengar, J. Tomasi, 
 M. Cossi, N. Rega, J. M. Millam, M. Klene, J. E. Knox, J. B. Cross, 
 V. Bakken, C. Adamo, J. Jaramillo, R. Gomperts, R. E. Stratmann, 
 O. Yazyev, A. J. Austin, R. Cammi, C. Pomelli, J. W. Ochterski, 
 R. L. Martin, K. Morokuma, V. G. Zakrzewski, G. A. Voth, 
 P. Salvador, J. J. Dannenberg, S. Dapprich, A. D. Daniels, 
 O. Farkas, J. B. Foresman, J. V. Ortiz, J. Cioslowski, 
 and D. J. Fox, Gaussian, Inc., Wallingford CT, 2013.
 
 ******************************************
 Gaussian 09:  ES64L-G09RevD.01 24-Apr-2013
                28-Jul-2021 
 ******************************************
 %mem=2gb
 %nproc=4
 Will use up to    4 processors via shared memory.
 %chk=conf-338.chk
 ----------------------------------------------------------------------
 # B3LYP/6-311++G(d,p) opt=calcfc freq=noraman nosymm integral(ultrafin
 egrid)
 ----------------------------------------------------------------------
 1/10=4,14=-1,18=20,19=15,26=4,38=1/1,3;
 2/9=110,12=2,15=1,17=6,18=5,40=1/2;
 3/5=4,6=6,7=1111,11=2,16=1,25=1,30=1,71=2,74=-5,75=-5,140=1/1,2,3;
 4//1;
 5/5=2,38=5/2;
 8/6=4,10=90,11=11/1;
 11/6=1,8=1,9=11,15=111,16=1,31=1/1,2,10;
 10/6=1,13=1,31=1/2;
 6/7=2,8=2,9=2,10=2,28=1/1;
 7/10=1,18=20,25=1,30=1/1,2,3,16;
 1/10=4,14=-1,18=20,19=15,26=4/3(2);
 2/9=110,15=1/2;
 99//99;
 2/9=110,15=1/2;
 3/5=4,6=6,7=1111,11=2,16=1,25=1,30=1,71=1,74=-5,75=-5/1,2,3;
 4/5=5,16=3,69=1/1;
 5/5=2,38=5/2;
 7/30=1/1,2,3,16;
 1/14=-1,18=20,19=15,26=4/3(-5);
 2/9=110,15=1/2;
 6/7=2,8=2,9=2,10=2,19=2,28=1/1;
 99/9=1/99;
 ------------------------------------------------------------
 Candidate Structure: Conf:338 OPT and FREQ calc in gas phase
 ------------------------------------------------------------
 Symbolic Z-matrix:
 Charge =  0 Multiplicity = 1
 O                     1.43892   0.43625   2.04209 
 C                     1.83455  -0.01925   0.9791 
 N                     0.99885  -0.49739   0.0318 
 C                    -0.43897  -0.48529   0.22041 
 C                    -1.00601  -1.51003  -0.73236 
 O                    -1.83722  -2.39627  -0.15191 
 O                    -0.74626  -1.52592  -1.9109 
 C                    -0.99401   0.91774  -0.09473 
 C                    -2.4693    1.03315   0.10272 
 C                    -3.51664   1.05168  -0.77677 
 N                    -4.72522   1.13183  -0.10608 
 C                    -4.40833   1.16399   1.16783 
 N                    -3.05678   1.10528   1.34778 
 C                     3.31923  -0.13885   0.65087 
 C                     3.69369   0.20522  -0.78484 
 N                     3.16474  -0.78792  -1.73454 
 H                     1.39882  -0.79892  -0.85044 
 H                    -0.65378  -0.7514    1.25501 
 H                    -2.14195  -2.97749  -0.86229 
 H                    -0.75931   1.1531   -1.13095 
 H                    -0.46054   1.62353   0.54024 
 H                    -3.46138   0.99554  -1.85631 
 H                    -5.09181   1.23027   1.99532 
 H                    -2.56877   1.11963   2.22933 
 H                     3.83552   0.51704   1.35279 
 H                     3.63828  -1.16585   0.86407 
 H                     3.27303   1.17738  -1.04483 
 H                     4.78376   0.30372  -0.85047 
 H                     3.68705  -1.65305  -1.66654 
 H                     3.26977  -0.4577   -2.6836 
 

 GradGradGradGradGradGradGradGradGradGradGradGradGradGradGradGradGradGrad
 Berny optimization.
 Initialization pass.
                           ----------------------------
                           !    Initial Parameters    !
                           ! (Angstroms and Degrees)  !
 --------------------------                            --------------------------
 ! Name  Definition              Value          Derivative Info.                !
 --------------------------------------------------------------------------------
 ! R1    R(1,2)                  1.2223         calculate D2E/DX2 analytically  !
 ! R2    R(2,3)                  1.3507         calculate D2E/DX2 analytically  !
 ! R3    R(2,14)                 1.5252         calculate D2E/DX2 analytically  !
 ! R4    R(3,4)                  1.4502         calculate D2E/DX2 analytically  !
 ! R5    R(3,17)                 1.0145         calculate D2E/DX2 analytically  !
 ! R6    R(4,5)                  1.5098         calculate D2E/DX2 analytically  !
 ! R7    R(4,8)                  1.5414         calculate D2E/DX2 analytically  !
 ! R8    R(4,18)                 1.0897         calculate D2E/DX2 analytically  !
 ! R9    R(5,6)                  1.3466         calculate D2E/DX2 analytically  !
 ! R10   R(5,7)                  1.2069         calculate D2E/DX2 analytically  !
 ! R11   R(6,19)                 0.9671         calculate D2E/DX2 analytically  !
 ! R12   R(8,9)                  1.4929         calculate D2E/DX2 analytically  !
 ! R13   R(8,20)                 1.0882         calculate D2E/DX2 analytically  !
 ! R14   R(8,21)                 1.089          calculate D2E/DX2 analytically  !
 ! R15   R(9,10)                 1.3678         calculate D2E/DX2 analytically  !
 ! R16   R(9,13)                 1.3786         calculate D2E/DX2 analytically  !
 ! R17   R(10,11)                1.3845         calculate D2E/DX2 analytically  !
 ! R18   R(10,22)                1.0824         calculate D2E/DX2 analytically  !
 ! R19   R(11,12)                1.3131         calculate D2E/DX2 analytically  !
 ! R20   R(12,13)                1.3647         calculate D2E/DX2 analytically  !
 ! R21   R(12,23)                1.0753         calculate D2E/DX2 analytically  !
 ! R22   R(13,24)                1.0077         calculate D2E/DX2 analytically  !
 ! R23   R(14,15)                1.5231         calculate D2E/DX2 analytically  !
 ! R24   R(14,25)                1.0906         calculate D2E/DX2 analytically  !
 ! R25   R(14,26)                1.0964         calculate D2E/DX2 analytically  !
 ! R26   R(15,16)                1.4724         calculate D2E/DX2 analytically  !
 ! R27   R(15,27)                1.0907         calculate D2E/DX2 analytically  !
 ! R28   R(15,28)                1.0965         calculate D2E/DX2 analytically  !
 ! R29   R(16,29)                1.0129         calculate D2E/DX2 analytically  !
 ! R30   R(16,30)                1.0103         calculate D2E/DX2 analytically  !
 ! A1    A(1,2,3)              122.7921         calculate D2E/DX2 analytically  !
 ! A2    A(1,2,14)             122.1045         calculate D2E/DX2 analytically  !
 ! A3    A(3,2,14)             115.0607         calculate D2E/DX2 analytically  !
 ! A4    A(2,3,4)              121.2835         calculate D2E/DX2 analytically  !
 ! A5    A(2,3,17)             118.1109         calculate D2E/DX2 analytically  !
 ! A6    A(4,3,17)             120.4287         calculate D2E/DX2 analytically  !
 ! A7    A(3,4,5)              106.5372         calculate D2E/DX2 analytically  !
 ! A8    A(3,4,8)              109.7564         calculate D2E/DX2 analytically  !
 ! A9    A(3,4,18)             108.4754         calculate D2E/DX2 analytically  !
 ! A10   A(5,4,8)              110.7044         calculate D2E/DX2 analytically  !
 ! A11   A(5,4,18)             111.0626         calculate D2E/DX2 analytically  !
 ! A12   A(8,4,18)             110.2083         calculate D2E/DX2 analytically  !
 ! A13   A(4,5,6)              113.9862         calculate D2E/DX2 analytically  !
 ! A14   A(4,5,7)              122.9795         calculate D2E/DX2 analytically  !
 ! A15   A(6,5,7)              123.0314         calculate D2E/DX2 analytically  !
 ! A16   A(5,6,19)             105.8669         calculate D2E/DX2 analytically  !
 ! A17   A(4,8,9)              113.5259         calculate D2E/DX2 analytically  !
 ! A18   A(4,8,20)             108.2938         calculate D2E/DX2 analytically  !
 ! A19   A(4,8,21)             107.1166         calculate D2E/DX2 analytically  !
 ! A20   A(9,8,20)             108.8048         calculate D2E/DX2 analytically  !
 ! A21   A(9,8,21)             110.9082         calculate D2E/DX2 analytically  !
 ! A22   A(20,8,21)            108.0228         calculate D2E/DX2 analytically  !
 ! A23   A(8,9,10)             132.2758         calculate D2E/DX2 analytically  !
 ! A24   A(8,9,13)             122.9981         calculate D2E/DX2 analytically  !
 ! A25   A(10,9,13)            104.6968         calculate D2E/DX2 analytically  !
 ! A26   A(9,10,11)            110.9607         calculate D2E/DX2 analytically  !
 ! A27   A(9,10,22)            126.9782         calculate D2E/DX2 analytically  !
 ! A28   A(11,10,22)           122.0526         calculate D2E/DX2 analytically  !
 ! A29   A(10,11,12)           105.1121         calculate D2E/DX2 analytically  !
 ! A30   A(11,12,13)           111.4601         calculate D2E/DX2 analytically  !
 ! A31   A(11,12,23)           126.4897         calculate D2E/DX2 analytically  !
 ! A32   A(13,12,23)           122.05           calculate D2E/DX2 analytically  !
 ! A33   A(9,13,12)            107.7701         calculate D2E/DX2 analytically  !
 ! A34   A(9,13,24)            125.7639         calculate D2E/DX2 analytically  !
 ! A35   A(12,13,24)           126.4641         calculate D2E/DX2 analytically  !
 ! A36   A(2,14,15)            115.1166         calculate D2E/DX2 analytically  !
 ! A37   A(2,14,25)            105.9704         calculate D2E/DX2 analytically  !
 ! A38   A(2,14,26)            108.3535         calculate D2E/DX2 analytically  !
 ! A39   A(15,14,25)           110.7586         calculate D2E/DX2 analytically  !
 ! A40   A(15,14,26)           108.8668         calculate D2E/DX2 analytically  !
 ! A41   A(25,14,26)           107.4837         calculate D2E/DX2 analytically  !
 ! A42   A(14,15,16)           111.5487         calculate D2E/DX2 analytically  !
 ! A43   A(14,15,27)           109.3421         calculate D2E/DX2 analytically  !
 ! A44   A(14,15,28)           108.7315         calculate D2E/DX2 analytically  !
 ! A45   A(16,15,27)           107.9923         calculate D2E/DX2 analytically  !
 ! A46   A(16,15,28)           112.2796         calculate D2E/DX2 analytically  !
 ! A47   A(27,15,28)           106.8031         calculate D2E/DX2 analytically  !
 ! A48   A(15,16,29)           110.3388         calculate D2E/DX2 analytically  !
 ! A49   A(15,16,30)           110.3696         calculate D2E/DX2 analytically  !
 ! A50   A(29,16,30)           106.7753         calculate D2E/DX2 analytically  !
 ! D1    D(1,2,3,4)              0.606          calculate D2E/DX2 analytically  !
 ! D2    D(1,2,3,17)           175.791          calculate D2E/DX2 analytically  !
 ! D3    D(14,2,3,4)           178.2743         calculate D2E/DX2 analytically  !
 ! D4    D(14,2,3,17)           -6.5407         calculate D2E/DX2 analytically  !
 ! D5    D(1,2,14,15)         -140.2381         calculate D2E/DX2 analytically  !
 ! D6    D(1,2,14,25)          -17.4646         calculate D2E/DX2 analytically  !
 ! D7    D(1,2,14,26)           97.6346         calculate D2E/DX2 analytically  !
 ! D8    D(3,2,14,15)           42.0759         calculate D2E/DX2 analytically  !
 ! D9    D(3,2,14,25)          164.8494         calculate D2E/DX2 analytically  !
 ! D10   D(3,2,14,26)          -80.0514         calculate D2E/DX2 analytically  !
 ! D11   D(2,3,4,5)           -159.5128         calculate D2E/DX2 analytically  !
 ! D12   D(2,3,4,8)             80.5857         calculate D2E/DX2 analytically  !
 ! D13   D(2,3,4,18)           -39.8777         calculate D2E/DX2 analytically  !
 ! D14   D(17,3,4,5)            25.4129         calculate D2E/DX2 analytically  !
 ! D15   D(17,3,4,8)           -94.4887         calculate D2E/DX2 analytically  !
 ! D16   D(17,3,4,18)          145.048          calculate D2E/DX2 analytically  !
 ! D17   D(3,4,5,6)            128.6376         calculate D2E/DX2 analytically  !
 ! D18   D(3,4,5,7)            -51.9702         calculate D2E/DX2 analytically  !
 ! D19   D(8,4,5,6)           -112.0759         calculate D2E/DX2 analytically  !
 ! D20   D(8,4,5,7)             67.3163         calculate D2E/DX2 analytically  !
 ! D21   D(18,4,5,6)            10.6949         calculate D2E/DX2 analytically  !
 ! D22   D(18,4,5,7)          -169.9129         calculate D2E/DX2 analytically  !
 ! D23   D(3,4,8,9)           -178.6995         calculate D2E/DX2 analytically  !
 ! D24   D(3,4,8,20)            60.356          calculate D2E/DX2 analytically  !
 ! D25   D(3,4,8,21)           -55.9252         calculate D2E/DX2 analytically  !
 ! D26   D(5,4,8,9)             63.9734         calculate D2E/DX2 analytically  !
 ! D27   D(5,4,8,20)           -56.9711         calculate D2E/DX2 analytically  !
 ! D28   D(5,4,8,21)          -173.2523         calculate D2E/DX2 analytically  !
 ! D29   D(18,4,8,9)           -59.2926         calculate D2E/DX2 analytically  !
 ! D30   D(18,4,8,20)          179.763          calculate D2E/DX2 analytically  !
 ! D31   D(18,4,8,21)           63.4818         calculate D2E/DX2 analytically  !
 ! D32   D(4,5,6,19)           178.8374         calculate D2E/DX2 analytically  !
 ! D33   D(7,5,6,19)            -0.5545         calculate D2E/DX2 analytically  !
 ! D34   D(4,8,9,10)          -102.8617         calculate D2E/DX2 analytically  !
 ! D35   D(4,8,9,13)            74.8506         calculate D2E/DX2 analytically  !
 ! D36   D(20,8,9,10)           17.7951         calculate D2E/DX2 analytically  !
 ! D37   D(20,8,9,13)         -164.4926         calculate D2E/DX2 analytically  !
 ! D38   D(21,8,9,10)          136.4784         calculate D2E/DX2 analytically  !
 ! D39   D(21,8,9,13)          -45.8092         calculate D2E/DX2 analytically  !
 ! D40   D(8,9,10,11)          177.9683         calculate D2E/DX2 analytically  !
 ! D41   D(8,9,10,22)           -0.9796         calculate D2E/DX2 analytically  !
 ! D42   D(13,9,10,11)          -0.0483         calculate D2E/DX2 analytically  !
 ! D43   D(13,9,10,22)        -178.9962         calculate D2E/DX2 analytically  !
 ! D44   D(8,9,13,12)         -178.2889         calculate D2E/DX2 analytically  !
 ! D45   D(8,9,13,24)            2.1849         calculate D2E/DX2 analytically  !
 ! D46   D(10,9,13,12)          -0.0387         calculate D2E/DX2 analytically  !
 ! D47   D(10,9,13,24)        -179.5648         calculate D2E/DX2 analytically  !
 ! D48   D(9,10,11,12)           0.1183         calculate D2E/DX2 analytically  !
 ! D49   D(22,10,11,12)        179.1267         calculate D2E/DX2 analytically  !
 ! D50   D(10,11,12,13)         -0.1432         calculate D2E/DX2 analytically  !
 ! D51   D(10,11,12,23)        179.7012         calculate D2E/DX2 analytically  !
 ! D52   D(11,12,13,9)           0.1185         calculate D2E/DX2 analytically  !
 ! D53   D(11,12,13,24)        179.6404         calculate D2E/DX2 analytically  !
 ! D54   D(23,12,13,9)        -179.7339         calculate D2E/DX2 analytically  !
 ! D55   D(23,12,13,24)         -0.2119         calculate D2E/DX2 analytically  !
 ! D56   D(2,14,15,16)         -68.1162         calculate D2E/DX2 analytically  !
 ! D57   D(2,14,15,27)          51.2626         calculate D2E/DX2 analytically  !
 ! D58   D(2,14,15,28)         167.5287         calculate D2E/DX2 analytically  !
 ! D59   D(25,14,15,16)        171.7078         calculate D2E/DX2 analytically  !
 ! D60   D(25,14,15,27)        -68.9134         calculate D2E/DX2 analytically  !
 ! D61   D(25,14,15,28)         47.3527         calculate D2E/DX2 analytically  !
 ! D62   D(26,14,15,16)         53.7343         calculate D2E/DX2 analytically  !
 ! D63   D(26,14,15,27)        173.1131         calculate D2E/DX2 analytically  !
 ! D64   D(26,14,15,28)        -70.6208         calculate D2E/DX2 analytically  !
 ! D65   D(14,15,16,29)        -72.8542         calculate D2E/DX2 analytically  !
 ! D66   D(14,15,16,30)        169.3726         calculate D2E/DX2 analytically  !
 ! D67   D(27,15,16,29)        166.9699         calculate D2E/DX2 analytically  !
 ! D68   D(27,15,16,30)         49.1967         calculate D2E/DX2 analytically  !
 ! D69   D(28,15,16,29)         49.4839         calculate D2E/DX2 analytically  !
 ! D70   D(28,15,16,30)        -68.2893         calculate D2E/DX2 analytically  !
 --------------------------------------------------------------------------------
 Trust Radius=3.00D-01 FncErr=1.00D-07 GrdErr=1.00D-06
 Number of steps in this run=    160 maximum allowed number of steps=    180.
 GradGradGradGradGradGradGradGradGradGradGradGradGradGradGradGradGradGrad

                          Input orientation:                          
 ---------------------------------------------------------------------
 Center     Atomic      Atomic             Coordinates (Angstroms)
 Number     Number       Type             X           Y           Z
 ---------------------------------------------------------------------
      1          8           0        1.438917    0.436248    2.042087
      2          6           0        1.834550   -0.019245    0.979103
      3          7           0        0.998849   -0.497389    0.031803
      4          6           0       -0.438970   -0.485290    0.220409
      5          6           0       -1.006007   -1.510026   -0.732363
      6          8           0       -1.837219   -2.396269   -0.151910
      7          8           0       -0.746262   -1.525921   -1.910900
      8          6           0       -0.994009    0.917744   -0.094734
      9          6           0       -2.469296    1.033152    0.102718
     10          6           0       -3.516640    1.051681   -0.776767
     11          7           0       -4.725223    1.131834   -0.106082
     12          6           0       -4.408332    1.163990    1.167832
     13          7           0       -3.056777    1.105284    1.347775
     14          6           0        3.319231   -0.138846    0.650866
     15          6           0        3.693694    0.205216   -0.784841
     16          7           0        3.164743   -0.787920   -1.734535
     17          1           0        1.398821   -0.798920   -0.850438
     18          1           0       -0.653775   -0.751404    1.255008
     19          1           0       -2.141948   -2.977487   -0.862290
     20          1           0       -0.759313    1.153105   -1.130955
     21          1           0       -0.460540    1.623525    0.540239
     22          1           0       -3.461381    0.995541   -1.856306
     23          1           0       -5.091809    1.230273    1.995318
     24          1           0       -2.568773    1.119626    2.229332
     25          1           0        3.835516    0.517044    1.352785
     26          1           0        3.638281   -1.165852    0.864072
     27          1           0        3.273030    1.177383   -1.044828
     28          1           0        4.783761    0.303721   -0.850471
     29          1           0        3.687047   -1.653052   -1.666544
     30          1           0        3.269772   -0.457701   -2.683603
 ---------------------------------------------------------------------
                    Distance matrix (angstroms):
                    1          2          3          4          5
     1  O    0.000000
     2  C    1.222266   0.000000
     3  N    2.259775   1.350702   0.000000
     4  C    2.773843   2.441661   1.450187   0.000000
     5  C    4.178901   3.635974   2.372515   1.509765   0.000000
     6  O    4.854878   4.517889   3.418007   2.396990   1.346575
     7  O    4.924553   4.157256   2.806667   2.391614   1.206926
     8  C    3.273679   3.167306   2.447468   1.541392   2.510136
     9  C    4.403587   4.516490   3.791519   2.538059   3.050628
    10  C    5.734304   5.732818   4.841802   3.581717   3.587143
    11  N    6.564685   6.747832   5.953014   4.592783   4.604804
    12  C    5.956866   6.356827   5.769606   4.401542   4.726195
    13  N    4.597929   5.032452   4.555047   3.264016   3.920776
    14  C    2.408695   1.525228   2.428161   3.798604   4.743537
    15  C    3.623385   2.572605   2.902198   4.308856   5.003199
    16  N    4.328965   3.118350   2.809886   4.110978   4.349821
    17  H    3.145465   2.035920   1.014518   2.150012   2.510540
    18  H    2.531674   2.608437   2.071695   1.089657   2.156205
    19  H    5.736862   5.287198   4.100596   3.206776   1.860291
    20  H    3.926104   3.543285   2.677175   2.147823   2.704071
    21  H    2.696871   2.856350   2.624233   2.133040   3.425813
    22  H    6.286747   6.092308   5.068278   3.954816   3.683745
    23  H    6.578985   7.111149   6.628448   5.267103   5.625235
    24  H    4.069846   4.716922   4.491303   3.338801   4.257811
    25  H    2.495065   2.105020   3.289491   4.534113   5.647761
    26  H    2.965071   2.140417   2.847125   4.183473   4.923055
    27  H    3.666374   2.756345   3.022565   4.259607   5.062604
    28  H    4.424074   3.485612   3.968090   5.389456   6.068363
    29  H    4.813856   3.619464   3.383245   4.684898   4.787265
    30  H    5.146195   3.958222   3.540070   4.710501   4.816328
                    6          7          8          9         10
     6  O    0.000000
     7  O    2.245382   0.000000
     8  C    3.420081   3.054723   0.000000
     9  C    3.496468   3.684069   1.492909   0.000000
    10  C    3.885777   3.950353   2.616634   1.367760   0.000000
    11  N    4.559625   5.114016   3.737368   2.267717   1.384527
    12  C    4.585606   5.488622   3.648604   2.216178   2.142240
    13  N    3.999657   4.783376   2.524088   1.378588   2.174403
    14  C    5.685893   5.001485   4.502926   5.931365   7.084111
    15  C    6.144862   4.896739   4.791504   6.281376   7.259855
    16  N    5.487360   3.983931   4.784711   6.199533   6.995880
    17  H    3.675788   2.500898   3.040339   4.384898   5.252801
    18  H    2.466888   3.260583   2.173389   2.794375   3.946546
    19  H    0.967116   2.270368   4.132763   4.138070   4.258085
    20  H    3.836465   2.790280   1.088223   2.111961   2.781832
    21  H    4.305004   4.001091   1.088994   2.138941   3.376575
    22  H    4.128830   3.705755   3.032673   2.196229   1.082409
    23  H    5.324918   6.460567   4.610635   3.240118   3.193354
    24  H    4.308945   5.240419   2.814591   2.130695   3.152730
    25  H    6.552207   5.984817   5.057686   6.448231   7.673007
    26  H    5.703266   5.201379   5.169023   6.535884   7.668293
    27  H    6.299439   4.920634   4.379237   5.857642   6.796122
    28  H    7.184379   5.920578   5.859248   7.351699   8.334358
    29  H    5.776158   4.441857   5.567034   6.945973   7.745992
    30  H    6.020704   4.226901   5.174352   6.551575   7.208998
                   11         12         13         14         15
    11  N    0.000000
    12  C    1.313130   0.000000
    13  N    2.213169   1.364744   0.000000
    14  C    8.179293   7.853653   6.533531   0.000000
    15  C    8.496912   8.388982   7.136319   1.523107   0.000000
    16  N    8.281841   8.341772   7.196679   2.476954   1.472423
    17  H    6.464194   6.453639   5.320761   2.525388   2.505800
    18  H    4.687839   4.215808   3.038144   4.065094   4.896590
    19  H    4.912400   5.139039   4.731841   6.338138   6.647580
    20  H    4.096250   4.312758   3.380050   4.634494   4.565913
    21  H    4.341315   4.023694   2.767877   4.171913   4.585313
    22  H    2.163136   3.173405   3.231390   7.317748   7.277895
    23  H    2.135406   1.075299   2.139226   8.627145   9.271737
    24  H    3.178771   2.124319   1.007719   6.224459   7.009984
    25  H    8.705889   8.271262   6.917352   1.090612   2.164901
    26  H    8.727472   8.382626   7.086313   1.096354   2.145184
    27  H    8.053283   7.993708   6.767290   2.147085   1.090715
    28  H    9.573957   9.450301   8.182226   2.143531   1.096474
    29  H    8.997606   9.027988   7.885030   2.792579   2.056844
    30  H    8.549280   8.741666   7.662908   3.350044   2.055351
                   16         17         18         19         20
    16  N    0.000000
    17  H    1.974900   0.000000
    18  H    4.849720   2.940801   0.000000
    19  H    5.806547   4.157324   3.413656   0.000000
    20  H    4.419287   2.923463   3.054687   4.364132   0.000000
    21  H    4.912468   3.355510   2.487675   5.095442   1.761661
    22  H    6.863023   5.277635   4.540346   4.302780   2.802166
    23  H    9.282003   7.371854   4.916427   5.879868   5.343226
    24  H    7.226630   5.376580   2.849084   5.150402   3.816647
    25  H    3.418248   3.538847   4.666075   7.269689   5.261747
    26  H    2.668302   2.844181   4.329705   6.298682   5.356914
    27  H    2.085626   2.730608   4.942597   6.827756   4.033335
    28  H    2.143470   3.560004   5.925633   7.663674   5.614783
    29  H    1.012856   2.575179   5.309536   6.031429   5.285024
    30  H    1.010349   2.641474   5.567148   6.241251   4.608572
                   21         22         23         24         25
    21  H    0.000000
    22  H    3.891380   0.000000
    23  H    4.870376   4.189081   0.000000
    24  H    2.748017   4.183848   2.536280   0.000000
    25  H    4.510058   7.985733   8.978790   6.492022   0.000000
    26  H    4.968483   7.904257   9.123355   6.753878   1.763486
    27  H    4.080566   6.785562   8.900327   6.697023   2.549704
    28  H    5.583784   8.335027  10.319103   8.013154   2.408115
    29  H    5.727855   7.625685   9.939372   7.874063   3.721251
    30  H    5.351625   6.935759   9.729214   7.791887   4.190779
                   26         27         28         29         30
    26  H    0.000000
    27  H    3.044349   0.000000
    28  H    2.532080   1.755952   0.000000
    29  H    2.577550   2.927337   2.386989   0.000000
    30  H    3.636383   2.314972   2.496457   1.624005   0.000000
 Symmetry turned off by external request.
 Stoichiometry    C9H14N4O3
 Framework group  C1[X(C9H14N4O3)]
 Deg. of freedom    84
 Full point group                 C1      NOp   1
 Rotational constants (GHZ):      0.9635637      0.2824545      0.2508772
 Standard basis: 6-311++G(d,p) (5D, 7F)
   450 basis functions,   702 primitive gaussians,   466 cartesian basis functions
    60 alpha electrons       60 beta electrons
       nuclear repulsion energy      1127.8646177760 Hartrees.
 NAtoms=   30 NActive=   30 NUniq=   30 SFac= 1.00D+00 NAtFMM=   60 NAOKFM=F Big=F
 Integral buffers will be    131072 words long.
 Raffenetti 2 integral format.
 Two-electron integral symmetry is turned off.
 One-electron integrals computed using PRISM.
 NBasis=   450 RedAO= T EigKep=  1.37D-06  NBF=   450
 NBsUse=   450 1.00D-06 EigRej= -1.00D+00 NBFU=   450
 ExpMin= 3.60D-02 ExpMax= 8.59D+03 ExpMxC= 1.30D+03 IAcc=3 IRadAn=         5 AccDes= 0.00D+00
 Harris functional with IExCor=  402 and IRadAn=       5 diagonalized for initial guess.
 HarFok:  IExCor=  402 AccDes= 0.00D+00 IRadAn=         5 IDoV= 1 UseB2=F ITyADJ=14
 ICtDFT=  3500011 ScaDFX=  1.000000  1.000000  1.000000  1.000000
 FoFCou: FMM=F IPFlag=           0 FMFlag=      100000 FMFlg1=           0
         NFxFlg=           0 DoJE=T BraDBF=F KetDBF=T FulRan=T
         wScrn=  0.000000 ICntrl=     500 IOpCl=  0 I1Cent=   200000004 NGrid=           0
         NMat0=    1 NMatS0=      1 NMatT0=    0 NMatD0=    1 NMtDS0=    0 NMtDT0=    0
 Symmetry not used in FoFCou.
 Requested convergence on RMS density matrix=1.00D-08 within 128 cycles.
 Requested convergence on MAX density matrix=1.00D-06.
 Requested convergence on             energy=1.00D-06.
 No special actions if energy rises.
 SCF Done:  E(RB3LYP) =  -796.335340109     A.U. after   15 cycles
            NFock= 15  Conv=0.77D-08     -V/T= 2.0036
 DoSCS=F DFT=T ScalE2(SS,OS)=  1.000000  1.000000
 Range of M.O.s used for correlation:     1   450
 NBasis=   450 NAE=    60 NBE=    60 NFC=     0 NFV=     0
 NROrb=    450 NOA=    60 NOB=    60 NVA=   390 NVB=   390

 **** Warning!!: The largest alpha MO coefficient is  0.19948499D+03

 Symmetrizing basis deriv contribution to polar:
 IMax=3 JMax=2 DiffMx= 0.00D+00
 G2DrvN: will do    31 centers at a time, making    1 passes.
 Calling FoFCou, ICntrl=  3107 FMM=F I1Cent=   0 AccDes= 0.00D+00.
 End of G2Drv F.D. properties file   721 does not exist.
 End of G2Drv F.D. properties file   722 does not exist.
 End of G2Drv F.D. properties file   788 does not exist.
          IDoAtm=111111111111111111111111111111
          Differentiating once with respect to nuclear coordinates.
          There are    93 degrees of freedom in the 1st order CPHF.  IDoFFX=6 NUNeed=     0.
     87 vectors produced by pass  0 Test12= 2.52D-14 1.08D-09 XBig12= 2.66D-01 7.89D-02.
 AX will form    87 AO Fock derivatives at one time.
     87 vectors produced by pass  1 Test12= 2.52D-14 1.08D-09 XBig12= 1.79D-02 3.15D-02.
     87 vectors produced by pass  2 Test12= 2.52D-14 1.08D-09 XBig12= 2.36D-04 1.97D-03.
     87 vectors produced by pass  3 Test12= 2.52D-14 1.08D-09 XBig12= 1.10D-06 1.09D-04.
     87 vectors produced by pass  4 Test12= 2.52D-14 1.08D-09 XBig12= 2.27D-09 4.52D-06.
     84 vectors produced by pass  5 Test12= 2.52D-14 1.08D-09 XBig12= 3.11D-12 1.30D-07.
     32 vectors produced by pass  6 Test12= 2.52D-14 1.08D-09 XBig12= 4.63D-15 6.85D-09.
     11 vectors produced by pass  7 Test12= 2.52D-14 1.08D-09 XBig12= 5.56D-16 2.26D-09.
      2 vectors produced by pass  8 Test12= 2.52D-14 1.08D-09 XBig12= 2.60D-16 1.47D-09.
 InvSVY:  IOpt=1 It=  1 EMax= 5.55D-16
 Solved reduced A of dimension   564 with    93 vectors.
 End of Minotr F.D. properties file   721 does not exist.
 End of Minotr F.D. properties file   722 does not exist.
 End of Minotr F.D. properties file   788 does not exist.

 **********************************************************************

            Population analysis using the SCF density.

 **********************************************************************

 Alpha  occ. eigenvalues --  -19.19149 -19.13343 -19.09134 -14.37010 -14.33644
 Alpha  occ. eigenvalues --  -14.32521 -14.29318 -10.32414 -10.27525 -10.23737
 Alpha  occ. eigenvalues --  -10.22444 -10.22080 -10.20670 -10.19456 -10.18960
 Alpha  occ. eigenvalues --  -10.18108  -1.13476  -1.04825  -1.04318  -1.01994
 Alpha  occ. eigenvalues --   -0.94053  -0.91478  -0.87438  -0.81493  -0.77705
 Alpha  occ. eigenvalues --   -0.74553  -0.69207  -0.65611  -0.62461  -0.61730
 Alpha  occ. eigenvalues --   -0.59604  -0.59102  -0.54571  -0.54215  -0.52553
 Alpha  occ. eigenvalues --   -0.51261  -0.49671  -0.48493  -0.47526  -0.47075
 Alpha  occ. eigenvalues --   -0.45606  -0.45215  -0.44008  -0.42562  -0.42473
 Alpha  occ. eigenvalues --   -0.41683  -0.41083  -0.40288  -0.39792  -0.38938
 Alpha  occ. eigenvalues --   -0.38246  -0.36132  -0.34513  -0.30534  -0.28639
 Alpha  occ. eigenvalues --   -0.28086  -0.27462  -0.26874  -0.26176  -0.23062
 Alpha virt. eigenvalues --   -0.02759  -0.02396  -0.01106  -0.00411  -0.00040
 Alpha virt. eigenvalues --    0.00481   0.00874   0.01584   0.01921   0.02374
 Alpha virt. eigenvalues --    0.03101   0.03531   0.04136   0.04538   0.04890
 Alpha virt. eigenvalues --    0.05118   0.05575   0.06031   0.06836   0.07486
 Alpha virt. eigenvalues --    0.07873   0.08400   0.08471   0.08805   0.09524
 Alpha virt. eigenvalues --    0.09562   0.10292   0.10439   0.10851   0.11449
 Alpha virt. eigenvalues --    0.11675   0.11778   0.12047   0.12509   0.12772
 Alpha virt. eigenvalues --    0.13327   0.13618   0.13878   0.14127   0.14586
 Alpha virt. eigenvalues --    0.14772   0.15044   0.15465   0.15840   0.16181
 Alpha virt. eigenvalues --    0.16485   0.16731   0.17267   0.17472   0.18198
 Alpha virt. eigenvalues --    0.18474   0.18784   0.19009   0.19329   0.19857
 Alpha virt. eigenvalues --    0.20381   0.20963   0.21380   0.21804   0.21967
 Alpha virt. eigenvalues --    0.22457   0.22564   0.22778   0.23248   0.23933
 Alpha virt. eigenvalues --    0.24346   0.24454   0.24819   0.24998   0.25523
 Alpha virt. eigenvalues --    0.25847   0.26267   0.27017   0.27786   0.28024
 Alpha virt. eigenvalues --    0.28600   0.29322   0.29861   0.30125   0.30368
 Alpha virt. eigenvalues --    0.30931   0.31274   0.31619   0.31990   0.32079
 Alpha virt. eigenvalues --    0.32368   0.33174   0.33584   0.34025   0.34459
 Alpha virt. eigenvalues --    0.34873   0.35242   0.35693   0.36935   0.37388
 Alpha virt. eigenvalues --    0.37578   0.38135   0.38747   0.39262   0.39541
 Alpha virt. eigenvalues --    0.39891   0.40763   0.40996   0.42065   0.43600
 Alpha virt. eigenvalues --    0.45188   0.45522   0.46149   0.47776   0.48074
 Alpha virt. eigenvalues --    0.48477   0.49243   0.50664   0.52699   0.53749
 Alpha virt. eigenvalues --    0.54275   0.55240   0.56450   0.57290   0.57530
 Alpha virt. eigenvalues --    0.58417   0.59585   0.59810   0.61294   0.61560
 Alpha virt. eigenvalues --    0.63020   0.63571   0.64290   0.65305   0.66050
 Alpha virt. eigenvalues --    0.67100   0.67258   0.68595   0.69385   0.70030
 Alpha virt. eigenvalues --    0.70161   0.70675   0.71714   0.72508   0.73185
 Alpha virt. eigenvalues --    0.74362   0.74848   0.75151   0.76381   0.76773
 Alpha virt. eigenvalues --    0.77276   0.77968   0.80255   0.80611   0.81048
 Alpha virt. eigenvalues --    0.82761   0.83033   0.84352   0.84916   0.86033
 Alpha virt. eigenvalues --    0.87371   0.88841   0.89780   0.90822   0.91641
 Alpha virt. eigenvalues --    0.93120   0.93480   0.94170   0.96672   0.97976
 Alpha virt. eigenvalues --    0.99679   1.00463   1.01142   1.03848   1.04438
 Alpha virt. eigenvalues --    1.05966   1.07171   1.07928   1.08833   1.12273
 Alpha virt. eigenvalues --    1.13052   1.14702   1.15133   1.15985   1.17143
 Alpha virt. eigenvalues --    1.17629   1.19349   1.20218   1.20597   1.21477
 Alpha virt. eigenvalues --    1.22746   1.23547   1.25337   1.25799   1.27688
 Alpha virt. eigenvalues --    1.29213   1.29862   1.30649   1.32140   1.33149
 Alpha virt. eigenvalues --    1.34761   1.37528   1.38399   1.39443   1.41149
 Alpha virt. eigenvalues --    1.42611   1.46417   1.48016   1.48267   1.50732
 Alpha virt. eigenvalues --    1.53202   1.54752   1.55611   1.56474   1.57635
 Alpha virt. eigenvalues --    1.59200   1.60266   1.61116   1.61784   1.63137
 Alpha virt. eigenvalues --    1.63486   1.64457   1.65409   1.66646   1.67563
 Alpha virt. eigenvalues --    1.67771   1.68673   1.69464   1.70130   1.71144
 Alpha virt. eigenvalues --    1.72137   1.73377   1.74295   1.76362   1.76772
 Alpha virt. eigenvalues --    1.78251   1.78758   1.80076   1.80340   1.82711
 Alpha virt. eigenvalues --    1.84079   1.84490   1.85474   1.86498   1.87109
 Alpha virt. eigenvalues --    1.90202   1.91221   1.92571   1.96381   1.96867
 Alpha virt. eigenvalues --    1.97662   1.98774   2.02187   2.04413   2.04656
 Alpha virt. eigenvalues --    2.05097   2.08208   2.10901   2.11539   2.12907
 Alpha virt. eigenvalues --    2.15775   2.19572   2.20357   2.22980   2.24246
 Alpha virt. eigenvalues --    2.25102   2.25842   2.27424   2.28188   2.29815
 Alpha virt. eigenvalues --    2.33137   2.33404   2.36709   2.39423   2.41245
 Alpha virt. eigenvalues --    2.45172   2.45713   2.49207   2.50490   2.52347
 Alpha virt. eigenvalues --    2.52782   2.53784   2.55714   2.56465   2.58128
 Alpha virt. eigenvalues --    2.58572   2.60605   2.61511   2.62685   2.64230
 Alpha virt. eigenvalues --    2.65920   2.67472   2.69228   2.70226   2.71882
 Alpha virt. eigenvalues --    2.73461   2.74690   2.75554   2.77906   2.78056
 Alpha virt. eigenvalues --    2.80081   2.80666   2.81489   2.82462   2.86260
 Alpha virt. eigenvalues --    2.87069   2.88477   2.90109   2.90270   2.91463
 Alpha virt. eigenvalues --    2.92021   2.92698   2.92968   2.93474   2.93956
 Alpha virt. eigenvalues --    2.95720   2.98594   2.99158   2.99764   3.01321
 Alpha virt. eigenvalues --    3.03464   3.05742   3.06653   3.09206   3.10962
 Alpha virt. eigenvalues --    3.15053   3.16699   3.18158   3.18919   3.21242
 Alpha virt. eigenvalues --    3.27139   3.29118   3.33315   3.37838   3.39356
 Alpha virt. eigenvalues --    3.44439   3.46185   3.51777   3.52374   3.60482
 Alpha virt. eigenvalues --    3.61196   3.63104   3.67645   3.68739   3.71187
 Alpha virt. eigenvalues --    3.72793   3.78244   3.80302   3.85291   3.86172
 Alpha virt. eigenvalues --    3.86846   3.90724   3.92025   3.94587   3.97261
 Alpha virt. eigenvalues --    4.05941   4.08280   4.15513   4.20423   4.24069
 Alpha virt. eigenvalues --    4.32449   4.33009   4.51306   4.71366   4.77436
 Alpha virt. eigenvalues --    4.82189   4.88252   4.93775   4.97777   5.02842
 Alpha virt. eigenvalues --    5.09021   5.11232   5.19511   5.27679   5.28236
 Alpha virt. eigenvalues --    5.42457   5.60587   5.80186   5.86381  23.76642
 Alpha virt. eigenvalues --   23.80187  23.83911  23.85063  23.89779  23.94020
 Alpha virt. eigenvalues --   23.94338  23.97061  24.15051  35.55558  35.58920
 Alpha virt. eigenvalues --   35.63369  35.70256  49.87285  50.02074  50.04010
          Condensed to atoms (all electrons):
               1          2          3          4          5          6
     1  O    8.047656   0.495217  -0.177028   0.077940   0.059797  -0.000266
     2  C    0.495217   6.857791   0.000599  -0.183399   0.000467   0.041028
     3  N   -0.177028   0.000599   8.448550  -2.659544   0.408512  -0.001035
     4  C    0.077940  -0.183399  -2.659544  19.883572  -5.800508   0.091091
     5  C    0.059797   0.000467   0.408512  -5.800508  10.258963   0.012045
     6  O   -0.000266   0.041028  -0.001035   0.091091   0.012045   7.926532
     7  O    0.000063   0.014974  -0.001466   0.011554   0.418410  -0.162307
     8  C   -0.083183   0.417063   1.072581  -6.015232   1.311776   0.031633
     9  C   -0.008552  -0.589752   0.404890  -1.489512   0.686024  -0.104462
    10  C   -0.010327  -0.006895  -0.036778   1.490320  -0.913675   0.003011
    11  N   -0.000004  -0.000583   0.000919  -0.032815   0.034294   0.000107
    12  C    0.000837  -0.004475  -0.006651   0.202261  -0.092495   0.003689
    13  N    0.002671  -0.006391  -0.003801  -0.056512   0.097627   0.013702
    14  C   -0.065347  -0.945466  -0.657694   0.225394  -0.117278   0.003059
    15  C   -0.005806  -0.062428  -0.049081  -0.142987   0.015499   0.000411
    16  N   -0.000039  -0.039564   0.159585  -0.225693   0.002376   0.001276
    17  H    0.009160   0.039752   0.255272   0.120735  -0.033511   0.000583
    18  H    0.000376   0.037398  -0.179773   0.896506  -0.154410  -0.014358
    19  H   -0.000241  -0.002572  -0.006987  -0.119975   0.167821   0.224434
    20  H    0.005329   0.022184  -0.031219   0.090218  -0.129189   0.004320
    21  H    0.002419   0.008588  -0.028047  -0.196004   0.118319  -0.005098
    22  H   -0.000104  -0.002416  -0.000764   0.032272  -0.026592  -0.001690
    23  H    0.000043  -0.000208  -0.000428   0.005549  -0.003514  -0.000466
    24  H   -0.000947   0.002452   0.003337   0.001388  -0.018477   0.001808
    25  H    0.001296  -0.021162   0.020177  -0.012802   0.000577   0.000053
    26  H   -0.007563  -0.092645   0.011902   0.000749  -0.008850   0.000024
    27  H   -0.001122   0.003961  -0.011223   0.040992  -0.003325   0.000259
    28  H   -0.000023  -0.026829   0.015963  -0.027878  -0.000055  -0.000071
    29  H    0.000085  -0.012233   0.001161   0.002867   0.000208   0.000045
    30  H   -0.000267   0.008635  -0.006865   0.017920  -0.000049   0.000059
               7          8          9         10         11         12
     1  O    0.000063  -0.083183  -0.008552  -0.010327  -0.000004   0.000837
     2  C    0.014974   0.417063  -0.589752  -0.006895  -0.000583  -0.004475
     3  N   -0.001466   1.072581   0.404890  -0.036778   0.000919  -0.006651
     4  C    0.011554  -6.015232  -1.489512   1.490320  -0.032815   0.202261
     5  C    0.418410   1.311776   0.686024  -0.913675   0.034294  -0.092495
     6  O   -0.162307   0.031633  -0.104462   0.003011   0.000107   0.003689
     7  O    7.938977   0.055153  -0.025891  -0.036563  -0.000150   0.000055
     8  C    0.055153  23.183642  -9.534059  -3.559874  -0.035979  -0.530982
     9  C   -0.025891  -9.534059  17.304328  -0.306454  -0.087516   0.075511
    10  C   -0.036563  -3.559874  -0.306454   9.107021   0.441349  -0.154093
    11  N   -0.000150  -0.035979  -0.087516   0.441349   6.549404   0.360676
    12  C    0.000055  -0.530982   0.075511  -0.154093   0.360676   5.330582
    13  N   -0.002068   0.103287  -0.403059   0.012476   0.020177   0.220455
    14  C   -0.001455  -0.313944   0.156847   0.021635   0.000003   0.002892
    15  C    0.000878   0.097575  -0.095533  -0.005312  -0.000060  -0.000587
    16  N    0.008760   0.096814   0.013887   0.000345  -0.000011  -0.000127
    17  H    0.017876  -0.020873  -0.068612  -0.013000   0.000511   0.002509
    18  H   -0.009396  -0.200235  -0.257134   0.030240  -0.000357   0.010802
    19  H   -0.005700  -0.032197   0.021727   0.001765   0.000027  -0.003245
    20  H    0.006574   0.714628  -0.315996  -0.088635  -0.003240  -0.010360
    21  H   -0.003416   0.472410   0.012224  -0.098469   0.002797   0.001155
    22  H   -0.002975  -0.103458  -0.098837   0.542366  -0.077634   0.035777
    23  H    0.000018   0.003429   0.080484  -0.026911  -0.065312   0.430345
    24  H    0.000605  -0.003693   0.012599  -0.007974   0.008211  -0.025618
    25  H    0.000231   0.007494  -0.003726   0.000013  -0.000008  -0.000149
    26  H   -0.000164   0.002580  -0.005601   0.000196  -0.000002  -0.000058
    27  H    0.000108  -0.017335  -0.006291   0.002209   0.000002  -0.000025
    28  H    0.000049   0.012405  -0.001585  -0.000312   0.000001   0.000011
    29  H   -0.000513  -0.002068   0.002139   0.000098   0.000002   0.000003
    30  H   -0.000523  -0.007445  -0.001119   0.000231  -0.000002   0.000000
              13         14         15         16         17         18
     1  O    0.002671  -0.065347  -0.005806  -0.000039   0.009160   0.000376
     2  C   -0.006391  -0.945466  -0.062428  -0.039564   0.039752   0.037398
     3  N   -0.003801  -0.657694  -0.049081   0.159585   0.255272  -0.179773
     4  C   -0.056512   0.225394  -0.142987  -0.225693   0.120735   0.896506
     5  C    0.097627  -0.117278   0.015499   0.002376  -0.033511  -0.154410
     6  O    0.013702   0.003059   0.000411   0.001276   0.000583  -0.014358
     7  O   -0.002068  -0.001455   0.000878   0.008760   0.017876  -0.009396
     8  C    0.103287  -0.313944   0.097575   0.096814  -0.020873  -0.200235
     9  C   -0.403059   0.156847  -0.095533   0.013887  -0.068612  -0.257134
    10  C    0.012476   0.021635  -0.005312   0.000345  -0.013000   0.030240
    11  N    0.020177   0.000003  -0.000060  -0.000011   0.000511  -0.000357
    12  C    0.220455   0.002892  -0.000587  -0.000127   0.002509   0.010802
    13  N    6.855652  -0.009163   0.001753  -0.000386   0.008808   0.023709
    14  C   -0.009163   7.381591   0.093166   0.008653  -0.064317   0.004279
    15  C    0.001753   0.093166   5.660477   0.191050  -0.034152  -0.005403
    16  N   -0.000386   0.008653   0.191050   6.746533  -0.116922  -0.008089
    17  H    0.008808  -0.064317  -0.034152  -0.116922   0.442572   0.019251
    18  H    0.023709   0.004279  -0.005403  -0.008089   0.019251   0.506161
    19  H   -0.001457  -0.000847  -0.000343  -0.000010  -0.001095   0.008279
    20  H    0.013638  -0.003118   0.003461  -0.001189   0.003029   0.003149
    21  H    0.019601  -0.029712   0.003430   0.004202  -0.007183  -0.008921
    22  H    0.016250   0.001020  -0.000255   0.000146  -0.000488  -0.000021
    23  H   -0.115310   0.000049  -0.000025  -0.000002   0.000030   0.000850
    24  H    0.345422  -0.001163   0.000138  -0.000037   0.000128  -0.007805
    25  H   -0.000284   0.388847  -0.021167   0.010016  -0.003886  -0.001006
    26  H   -0.000032   0.414382  -0.026768  -0.014498  -0.002952   0.000360
    27  H   -0.000192  -0.077745   0.434151  -0.051545   0.006475   0.002834
    28  H    0.000065  -0.026414   0.411556  -0.073947  -0.009202  -0.001774
    29  H   -0.000044  -0.004910  -0.046361   0.384019   0.009269   0.000027
    30  H   -0.000005   0.000903  -0.033638   0.350582   0.015894   0.000520
              19         20         21         22         23         24
     1  O   -0.000241   0.005329   0.002419  -0.000104   0.000043  -0.000947
     2  C   -0.002572   0.022184   0.008588  -0.002416  -0.000208   0.002452
     3  N   -0.006987  -0.031219  -0.028047  -0.000764  -0.000428   0.003337
     4  C   -0.119975   0.090218  -0.196004   0.032272   0.005549   0.001388
     5  C    0.167821  -0.129189   0.118319  -0.026592  -0.003514  -0.018477
     6  O    0.224434   0.004320  -0.005098  -0.001690  -0.000466   0.001808
     7  O   -0.005700   0.006574  -0.003416  -0.002975   0.000018   0.000605
     8  C   -0.032197   0.714628   0.472410  -0.103458   0.003429  -0.003693
     9  C    0.021727  -0.315996   0.012224  -0.098837   0.080484   0.012599
    10  C    0.001765  -0.088635  -0.098469   0.542366  -0.026911  -0.007974
    11  N    0.000027  -0.003240   0.002797  -0.077634  -0.065312   0.008211
    12  C   -0.003245  -0.010360   0.001155   0.035777   0.430345  -0.025618
    13  N   -0.001457   0.013638   0.019601   0.016250  -0.115310   0.345422
    14  C   -0.000847  -0.003118  -0.029712   0.001020   0.000049  -0.001163
    15  C   -0.000343   0.003461   0.003430  -0.000255  -0.000025   0.000138
    16  N   -0.000010  -0.001189   0.004202   0.000146  -0.000002  -0.000037
    17  H   -0.001095   0.003029  -0.007183  -0.000488   0.000030   0.000128
    18  H    0.008279   0.003149  -0.008921  -0.000021   0.000850  -0.007805
    19  H    0.472568  -0.002485   0.000999  -0.000046  -0.000128  -0.000628
    20  H   -0.002485   0.507280  -0.014203  -0.003712   0.000579   0.002242
    21  H    0.000999  -0.014203   0.523730  -0.001807  -0.000191  -0.006681
    22  H   -0.000046  -0.003712  -0.001807   0.542327  -0.001009   0.001107
    23  H   -0.000128   0.000579  -0.000191  -0.001009   0.535538  -0.002831
    24  H   -0.000628   0.002242  -0.006681   0.001107  -0.002831   0.387464
    25  H    0.000042   0.000320   0.000604  -0.000019  -0.000002   0.000000
    26  H   -0.000122   0.001056  -0.000530   0.000006  -0.000002   0.000015
    27  H    0.000101  -0.002126  -0.003511   0.000059   0.000000  -0.000067
    28  H   -0.000045  -0.000161   0.000531   0.000008  -0.000001   0.000021
    29  H    0.000041  -0.000153  -0.000174   0.000001   0.000001  -0.000004
    30  H    0.000034  -0.000635   0.000163   0.000005   0.000000  -0.000005
              25         26         27         28         29         30
     1  O    0.001296  -0.007563  -0.001122  -0.000023   0.000085  -0.000267
     2  C   -0.021162  -0.092645   0.003961  -0.026829  -0.012233   0.008635
     3  N    0.020177   0.011902  -0.011223   0.015963   0.001161  -0.006865
     4  C   -0.012802   0.000749   0.040992  -0.027878   0.002867   0.017920
     5  C    0.000577  -0.008850  -0.003325  -0.000055   0.000208  -0.000049
     6  O    0.000053   0.000024   0.000259  -0.000071   0.000045   0.000059
     7  O    0.000231  -0.000164   0.000108   0.000049  -0.000513  -0.000523
     8  C    0.007494   0.002580  -0.017335   0.012405  -0.002068  -0.007445
     9  C   -0.003726  -0.005601  -0.006291  -0.001585   0.002139  -0.001119
    10  C    0.000013   0.000196   0.002209  -0.000312   0.000098   0.000231
    11  N   -0.000008  -0.000002   0.000002   0.000001   0.000002  -0.000002
    12  C   -0.000149  -0.000058  -0.000025   0.000011   0.000003   0.000000
    13  N   -0.000284  -0.000032  -0.000192   0.000065  -0.000044  -0.000005
    14  C    0.388847   0.414382  -0.077745  -0.026414  -0.004910   0.000903
    15  C   -0.021167  -0.026768   0.434151   0.411556  -0.046361  -0.033638
    16  N    0.010016  -0.014498  -0.051545  -0.073947   0.384019   0.350582
    17  H   -0.003886  -0.002952   0.006475  -0.009202   0.009269   0.015894
    18  H   -0.001006   0.000360   0.002834  -0.001774   0.000027   0.000520
    19  H    0.000042  -0.000122   0.000101  -0.000045   0.000041   0.000034
    20  H    0.000320   0.001056  -0.002126  -0.000161  -0.000153  -0.000635
    21  H    0.000604  -0.000530  -0.003511   0.000531  -0.000174   0.000163
    22  H   -0.000019   0.000006   0.000059   0.000008   0.000001   0.000005
    23  H   -0.000002  -0.000002   0.000000  -0.000001   0.000001   0.000000
    24  H    0.000000   0.000015  -0.000067   0.000021  -0.000004  -0.000005
    25  H    0.472858  -0.010397  -0.001954  -0.006831   0.000665  -0.001308
    26  H   -0.010397   0.547574   0.009217  -0.008600   0.002586  -0.000485
    27  H   -0.001954   0.009217   0.551678  -0.043075   0.009856  -0.009121
    28  H   -0.006831  -0.008600  -0.043075   0.624636  -0.009684   0.004665
    29  H    0.000665   0.002586   0.009856  -0.009684   0.476399  -0.038475
    30  H   -0.001308  -0.000485  -0.009121   0.004665  -0.038475   0.456058
 Mulliken charges:
               1
     1  O   -0.342069
     2  C    0.046909
     3  N    0.054935
     4  C   -0.228466
     5  C   -0.290786
     6  O   -0.069417
     7  O   -0.221697
     8  C   -1.121913
     9  C    0.633032
    10  C   -0.388003
    11  N   -0.114807
    12  C    0.151308
    13  N   -0.156587
    14  C   -0.384148
    15  C   -0.383636
    16  N   -0.446188
    17  H    0.424338
    18  H    0.303941
    19  H    0.280284
    20  H    0.228415
    21  H    0.232773
    22  H    0.150483
    23  H    0.159424
    24  H    0.308991
    25  H    0.181508
    26  H    0.188624
    27  H    0.166755
    28  H    0.166577
    29  H    0.225147
    30  H    0.244272
 Sum of Mulliken charges =   0.00000
 Mulliken charges with hydrogens summed into heavy atoms:
               1
     1  O   -0.342069
     2  C    0.046909
     3  N    0.479273
     4  C    0.075475
     5  C   -0.290786
     6  O    0.210867
     7  O   -0.221697
     8  C   -0.660724
     9  C    0.633032
    10  C   -0.237521
    11  N   -0.114807
    12  C    0.310732
    13  N    0.152404
    14  C   -0.014016
    15  C   -0.050304
    16  N    0.023232
 APT charges:
               1
     1  O   -0.356128
     2  C    0.082279
     3  N   -0.407627
     4  C   -0.298791
     5  C   -0.415870
     6  O   -0.464884
     7  O   -0.149462
     8  C   -1.683553
     9  C    0.848146
    10  C   -0.599481
    11  N    0.020846
    12  C   -0.461048
    13  N   -0.587606
    14  C   -0.944338
    15  C   -1.006421
    16  N   -1.578140
    17  H    0.618057
    18  H    0.466879
    19  H    0.880003
    20  H    0.329081
    21  H    0.365335
    22  H    0.417589
    23  H    1.020337
    24  H    0.392416
    25  H    0.600796
    26  H    0.453221
    27  H    0.143541
    28  H    0.801633
    29  H    0.789906
    30  H    0.723284
 Sum of APT charges =   0.00000
 APT charges with hydrogens summed into heavy atoms:
               1
     1  O   -0.356128
     2  C    0.082279
     3  N    0.210430
     4  C    0.168087
     5  C   -0.415870
     6  O    0.415119
     7  O   -0.149462
     8  C   -0.989137
     9  C    0.848146
    10  C   -0.181892
    11  N    0.020846
    12  C    0.559289
    13  N   -0.195190
    14  C    0.109680
    15  C   -0.061246
    16  N   -0.064950
 Electronic spatial extent (au):  <R**2>=           4513.3061
 Charge=              0.0000 electrons
 Dipole moment (field-independent basis, Debye):
    X=              4.9994    Y=             -1.5269    Z=             -0.6095  Tot=              5.2627
 Quadrupole moment (field-independent basis, Debye-Ang):
   XX=            -98.5778   YY=            -91.4300   ZZ=            -96.3121
   XY=              2.7630   XZ=            -17.6805   YZ=              1.6716
 Traceless Quadrupole moment (field-independent basis, Debye-Ang):
   XX=             -3.1379   YY=              4.0100   ZZ=             -0.8721
   XY=              2.7630   XZ=            -17.6805   YZ=              1.6716
 Octapole moment (field-independent basis, Debye-Ang**2):
  XXX=            315.2727  YYY=            -26.1823  ZZZ=             -4.2196  XYY=             47.5873
  XXY=            -45.1947  XXZ=             15.6296  XZZ=             20.1648  YZZ=             11.1340
  YYZ=             -5.8561  XYZ=            -18.7714
 Hexadecapole moment (field-independent basis, Debye-Ang**3):
 XXXX=          -4936.4826 YYYY=           -727.5034 ZZZZ=           -783.2932 XXXY=            401.8532
 XXXZ=           -150.2804 YYYX=            355.3614 YYYZ=           -105.5728 ZZZX=             -4.1247
 ZZZY=           -159.3870 XXYY=           -861.3463 XXZZ=           -727.2519 YYZZ=           -260.7814
 XXYZ=             44.0616 YYXZ=             43.3534 ZZXY=             47.9622
 N-N= 1.127864617776D+03 E-N=-4.116917394625D+03  KE= 7.934627099666D+02
  Exact polarizability:   0.000   0.000   0.000   0.000   0.000   0.000
 Approx polarizability: 221.833   2.835 165.362  -2.334  11.502 232.975
 Calling FoFJK, ICntrl=    100147 FMM=F ISym2X=0 I1Cent= 0 IOpClX= 0 NMat=1 NMatS=1 NMatT=0.
 -------------------------------------------------------------------
 Center     Atomic                   Forces (Hartrees/Bohr)
 Number     Number              X              Y              Z
 -------------------------------------------------------------------
      1        8          -0.001392987    0.003718246    0.007055868
      2        6           0.003866765   -0.004457193    0.001232163
      3        7          -0.002614664   -0.002567283    0.002666044
      4        6           0.006942918    0.001657858    0.002246061
      5        6          -0.004299690   -0.001489118   -0.004025593
      6        8           0.003101685    0.002794168    0.001279298
      7        8          -0.000224322   -0.002189033   -0.000852346
      8        6          -0.009741141    0.001673400   -0.000153896
      9        6           0.004673967    0.001345909   -0.000169137
     10        6          -0.006860591   -0.000930514   -0.002476473
     11        7           0.003348400    0.000156459   -0.001093194
     12        6           0.000354876   -0.000245717   -0.004234512
     13        7           0.000577766    0.000021443    0.004014279
     14        6          -0.001320093    0.000335917    0.003051227
     15        6           0.004694612    0.001601530   -0.002761100
     16        7           0.000686795    0.001332065    0.000960826
     17        1           0.001994567   -0.001661174   -0.005917608
     18        1          -0.001196649   -0.000786403   -0.000048882
     19        1          -0.003245118   -0.002989418   -0.001089974
     20        1           0.000996251    0.000391625   -0.002243688
     21        1           0.001647476    0.001373537    0.001402836
     22        1          -0.001358087    0.000882479    0.001982740
     23        1          -0.002652570    0.000201604    0.001658921
     24        1           0.000339276    0.000316754    0.001070412
     25        1           0.001298405   -0.000268894   -0.000432916
     26        1          -0.000173133   -0.000188636    0.002076624
     27        1          -0.000846792    0.001746747   -0.001382275
     28        1           0.001233925    0.000709721    0.000188349
     29        1           0.000886075   -0.003005935    0.000163456
     30        1          -0.000717922    0.000519858   -0.004167509
 -------------------------------------------------------------------
 Cartesian Forces:  Max     0.009741141 RMS     0.002679164
 FormGI is forming the generalized inverse of G from B-inverse, IUseBI=4.

 GradGradGradGradGradGradGradGradGradGradGradGradGradGradGradGradGradGrad
 Berny optimization.
 Internal  Forces:  Max     0.010002451 RMS     0.002689261
 Search for a local minimum.
 Step number   1 out of a maximum of  160
 All quantities printed in internal units (Hartrees-Bohrs-Radians)
 Mixed Optimization -- RFO/linear search
 Second derivative matrix not updated -- analytic derivatives used.
 ITU=  0
     Eigenvalues ---    0.00060   0.00112   0.00250   0.00279   0.00331
     Eigenvalues ---    0.00422   0.00525   0.00584   0.00941   0.01260
     Eigenvalues ---    0.01985   0.02095   0.02465   0.03043   0.03380
     Eigenvalues ---    0.03804   0.03999   0.04279   0.04292   0.04572
     Eigenvalues ---    0.04601   0.04717   0.05087   0.05109   0.05477
     Eigenvalues ---    0.05656   0.05894   0.06094   0.07798   0.07827
     Eigenvalues ---    0.08371   0.10148   0.10761   0.11061   0.11297
     Eigenvalues ---    0.11577   0.12799   0.13446   0.14816   0.15041
     Eigenvalues ---    0.15798   0.15804   0.16268   0.16815   0.19334
     Eigenvalues ---    0.20300   0.21121   0.22188   0.22775   0.22875
     Eigenvalues ---    0.24314   0.24394   0.25012   0.27024   0.27480
     Eigenvalues ---    0.30562   0.31456   0.32121   0.32832   0.33182
     Eigenvalues ---    0.33357   0.33560   0.34096   0.34193   0.34244
     Eigenvalues ---    0.34888   0.35445   0.36382   0.37666   0.37805
     Eigenvalues ---    0.40278   0.40684   0.42129   0.43901   0.45399
     Eigenvalues ---    0.46263   0.46832   0.47596   0.48103   0.52074
     Eigenvalues ---    0.57279   0.59510   0.81175   0.86671
 RFO step:  Lambda=-3.86916776D-03 EMin= 5.97379029D-04
 Linear search not attempted -- first point.
 Iteration  1 RMS(Cart)=  0.08495292 RMS(Int)=  0.00181788
 Iteration  2 RMS(Cart)=  0.00306658 RMS(Int)=  0.00012746
 Iteration  3 RMS(Cart)=  0.00000617 RMS(Int)=  0.00012741
 Iteration  4 RMS(Cart)=  0.00000000 RMS(Int)=  0.00012741
 Variable       Old X    -DE/DX   Delta X   Delta X   Delta X     New X
                                 (Linear)    (Quad)   (Total)
    R1        2.30975   0.00797   0.00000   0.00812   0.00812   2.31786
    R2        2.55246   0.01000   0.00000   0.01847   0.01847   2.57093
    R3        2.88226   0.00587   0.00000   0.00637   0.00637   2.88863
    R4        2.74046   0.00719   0.00000   0.00465   0.00465   2.74511
    R5        1.91716   0.00643   0.00000   0.01276   0.01276   1.92993
    R6        2.85304   0.00734   0.00000   0.02108   0.02108   2.87412
    R7        2.91281   0.00790   0.00000   0.03030   0.03030   2.94311
    R8        2.05915   0.00038   0.00000   0.00009   0.00009   2.05924
    R9        2.54466   0.00030   0.00000   0.00014   0.00014   2.54480
   R10        2.28076   0.00081   0.00000  -0.00140  -0.00140   2.27936
   R11        1.82758   0.00362   0.00000   0.00593   0.00593   1.83352
   R12        2.82119   0.00179   0.00000  -0.00170  -0.00170   2.81949
   R13        2.05644   0.00244   0.00000   0.00770   0.00770   2.06415
   R14        2.05790   0.00252   0.00000   0.00853   0.00853   2.06643
   R15        2.58469   0.00542   0.00000   0.01140   0.01141   2.59611
   R16        2.60515   0.00399   0.00000   0.01040   0.01040   2.61556
   R17        2.61638  -0.00413   0.00000  -0.01374  -0.01374   2.60264
   R18        2.04546  -0.00209   0.00000  -0.00534  -0.00534   2.04011
   R19        2.48146  -0.00112   0.00000  -0.00250  -0.00252   2.47894
   R20        2.57899   0.00258   0.00000   0.00433   0.00432   2.58331
   R21        2.03202   0.00297   0.00000   0.00777   0.00777   2.03979
   R22        1.90431   0.00111   0.00000   0.00232   0.00232   1.90663
   R23        2.87826   0.00871   0.00000   0.02181   0.02181   2.90007
   R24        2.06096   0.00017   0.00000   0.00077   0.00077   2.06172
   R25        2.07181   0.00053   0.00000   0.00200   0.00200   2.07381
   R26        2.78248   0.00244   0.00000   0.00183   0.00183   2.78431
   R27        2.06115   0.00221   0.00000   0.00612   0.00612   2.06727
   R28        2.07204   0.00128   0.00000   0.00344   0.00344   2.07548
   R29        1.91402   0.00304   0.00000   0.00573   0.00573   1.91975
   R30        1.90928   0.00401   0.00000   0.00768   0.00768   1.91696
    A1        2.14313  -0.00259   0.00000  -0.00225  -0.00228   2.14084
    A2        2.13113  -0.00549   0.00000  -0.01106  -0.01110   2.12003
    A3        2.00819   0.00811   0.00000   0.01387   0.01384   2.02202
    A4        2.11680  -0.00245   0.00000  -0.01073  -0.01077   2.10603
    A5        2.06142   0.00180   0.00000   0.00437   0.00433   2.06576
    A6        2.10188   0.00063   0.00000   0.00522   0.00518   2.10706
    A7        1.85943   0.00262   0.00000   0.03209   0.03206   1.89148
    A8        1.91561   0.00350   0.00000   0.02778   0.02770   1.94331
    A9        1.89325  -0.00205   0.00000  -0.00412  -0.00374   1.88951
   A10        1.93216  -0.00279   0.00000  -0.01200  -0.01294   1.91922
   A11        1.93841  -0.00075   0.00000  -0.02534  -0.02568   1.91273
   A12        1.92350  -0.00036   0.00000  -0.01593  -0.01632   1.90717
   A13        1.98943  -0.00480   0.00000  -0.02912  -0.02913   1.96030
   A14        2.14640   0.00466   0.00000   0.02236   0.02236   2.16875
   A15        2.14730   0.00014   0.00000   0.00670   0.00669   2.15399
   A16        1.84773   0.00477   0.00000   0.02922   0.02922   1.87695
   A17        1.98140   0.00331   0.00000   0.01616   0.01610   1.99750
   A18        1.89008  -0.00114   0.00000  -0.00002  -0.00021   1.88987
   A19        1.86954  -0.00135   0.00000  -0.01437  -0.01435   1.85519
   A20        1.89900  -0.00024   0.00000   0.00897   0.00886   1.90786
   A21        1.93571  -0.00106   0.00000  -0.00572  -0.00563   1.93008
   A22        1.88535   0.00036   0.00000  -0.00617  -0.00620   1.87916
   A23        2.30865   0.00110   0.00000   0.00680   0.00678   2.31543
   A24        2.14672   0.00051   0.00000  -0.00185  -0.00188   2.14484
   A25        1.82730  -0.00161   0.00000  -0.00469  -0.00467   1.82263
   A26        1.93663   0.00067   0.00000   0.00251   0.00248   1.93911
   A27        2.21619   0.00099   0.00000   0.00750   0.00742   2.22360
   A28        2.13022  -0.00165   0.00000  -0.00967  -0.00975   2.12047
   A29        1.83455   0.00153   0.00000   0.00430   0.00431   1.83886
   A30        1.94535   0.00103   0.00000   0.00169   0.00169   1.94703
   A31        2.20766  -0.00152   0.00000  -0.00789  -0.00789   2.19977
   A32        2.13017   0.00049   0.00000   0.00620   0.00620   2.13637
   A33        1.88094  -0.00162   0.00000  -0.00380  -0.00380   1.87714
   A34        2.19499   0.00104   0.00000   0.00284   0.00283   2.19782
   A35        2.20721   0.00058   0.00000   0.00091   0.00090   2.20811
   A36        2.00916   0.00930   0.00000   0.02415   0.02408   2.03324
   A37        1.84953  -0.00239   0.00000   0.00219   0.00225   1.85179
   A38        1.89113  -0.00357   0.00000  -0.01076  -0.01097   1.88015
   A39        1.93310  -0.00389   0.00000  -0.01454  -0.01456   1.91854
   A40        1.90008  -0.00047   0.00000   0.00925   0.00920   1.90929
   A41        1.87594   0.00052   0.00000  -0.01297  -0.01298   1.86296
   A42        1.94689   0.00204   0.00000  -0.00106  -0.00107   1.94582
   A43        1.90838   0.00017   0.00000   0.00216   0.00215   1.91053
   A44        1.89772  -0.00091   0.00000  -0.00549  -0.00549   1.89223
   A45        1.88482  -0.00086   0.00000  -0.00632  -0.00631   1.87851
   A46        1.95965  -0.00059   0.00000   0.01068   0.01069   1.97034
   A47        1.86407   0.00008   0.00000   0.00002   0.00003   1.86410
   A48        1.92578   0.00081   0.00000   0.01092   0.01079   1.93656
   A49        1.92631   0.00214   0.00000   0.01632   0.01618   1.94249
   A50        1.86358  -0.00062   0.00000   0.00518   0.00491   1.86849
    D1        0.01058   0.00023   0.00000   0.01153   0.01150   0.02208
    D2        3.06813   0.00006   0.00000  -0.00380  -0.00382   3.06431
    D3        3.11147   0.00088   0.00000   0.02646   0.02648   3.13795
    D4       -0.11416   0.00072   0.00000   0.01113   0.01116  -0.10300
    D5       -2.44762   0.00180   0.00000  -0.00111  -0.00121  -2.44882
    D6       -0.30482   0.00104   0.00000  -0.00255  -0.00254  -0.30736
    D7        1.70405  -0.00124   0.00000  -0.02150  -0.02147   1.68258
    D8        0.73436   0.00108   0.00000  -0.01614  -0.01621   0.71815
    D9        2.87716   0.00031   0.00000  -0.01759  -0.01754   2.85962
   D10       -1.39716  -0.00197   0.00000  -0.03654  -0.03647  -1.43363
   D11       -2.78402   0.00059   0.00000   0.04398   0.04431  -2.73972
   D12        1.40649   0.00047   0.00000   0.02430   0.02397   1.43045
   D13       -0.69600   0.00007   0.00000   0.02962   0.02963  -0.66637
   D14        0.44354   0.00071   0.00000   0.05973   0.06006   0.50360
   D15       -1.64914   0.00059   0.00000   0.04005   0.03972  -1.60942
   D16        2.53156   0.00019   0.00000   0.04537   0.04538   2.57694
   D17        2.24515  -0.00170   0.00000   0.06145   0.06141   2.30656
   D18       -0.90705  -0.00151   0.00000   0.05498   0.05493  -0.85212
   D19       -1.95609   0.00254   0.00000   0.10750   0.10731  -1.84879
   D20        1.17489   0.00273   0.00000   0.10104   0.10083   1.27572
   D21        0.18666  -0.00039   0.00000   0.06105   0.06130   0.24796
   D22       -2.96554  -0.00020   0.00000   0.05458   0.05482  -2.91072
   D23       -3.11890   0.00213   0.00000   0.06495   0.06496  -3.05394
   D24        1.05341   0.00111   0.00000   0.04315   0.04313   1.09654
   D25       -0.97608   0.00197   0.00000   0.05785   0.05780  -0.91828
   D26        1.11655  -0.00154   0.00000   0.01583   0.01599   1.13254
   D27       -0.99433  -0.00257   0.00000  -0.00597  -0.00584  -1.00017
   D28       -3.02382  -0.00171   0.00000   0.00874   0.00883  -3.01499
   D29       -1.03485   0.00157   0.00000   0.06736   0.06728  -0.96757
   D30        3.13746   0.00055   0.00000   0.04556   0.04545  -3.10028
   D31        1.10797   0.00141   0.00000   0.06026   0.06012   1.16809
   D32        3.12130  -0.00065   0.00000  -0.04303  -0.04301   3.07829
   D33       -0.00968  -0.00086   0.00000  -0.03667  -0.03670  -0.04638
   D34       -1.79528  -0.00032   0.00000  -0.02802  -0.02809  -1.82337
   D35        1.30639  -0.00020   0.00000  -0.01787  -0.01791   1.28848
   D36        0.31058   0.00022   0.00000  -0.01113  -0.01108   0.29950
   D37       -2.87094   0.00034   0.00000  -0.00098  -0.00090  -2.87183
   D38        2.38200  -0.00013   0.00000  -0.01653  -0.01656   2.36544
   D39       -0.79952   0.00000   0.00000  -0.00639  -0.00638  -0.80590
   D40        3.10613   0.00022   0.00000   0.01142   0.01145   3.11758
   D41       -0.01710  -0.00033   0.00000  -0.00956  -0.00961  -0.02671
   D42       -0.00084   0.00009   0.00000   0.00262   0.00262   0.00178
   D43       -3.12407  -0.00046   0.00000  -0.01836  -0.01844   3.14068
   D44       -3.11173  -0.00014   0.00000  -0.00913  -0.00912  -3.12084
   D45        0.03813   0.00000   0.00000  -0.00241  -0.00238   0.03575
   D46       -0.00067   0.00000   0.00000  -0.00115  -0.00116  -0.00184
   D47       -3.13400   0.00014   0.00000   0.00557   0.00557  -3.12842
   D48        0.00207  -0.00015   0.00000  -0.00309  -0.00308  -0.00101
   D49        3.12635   0.00040   0.00000   0.01688   0.01674  -3.14009
   D50       -0.00250   0.00015   0.00000   0.00231   0.00228  -0.00021
   D51        3.13638  -0.00002   0.00000   0.00083   0.00085   3.13723
   D52        0.00207  -0.00010   0.00000  -0.00078  -0.00074   0.00133
   D53        3.13532  -0.00024   0.00000  -0.00754  -0.00751   3.12781
   D54       -3.13695   0.00006   0.00000   0.00065   0.00066  -3.13629
   D55       -0.00370  -0.00007   0.00000  -0.00612  -0.00611  -0.00981
   D56       -1.18885  -0.00083   0.00000   0.01068   0.01058  -1.17828
   D57        0.89470  -0.00051   0.00000   0.00356   0.00346   0.89816
   D58        2.92393  -0.00083   0.00000   0.00171   0.00161   2.92554
   D59        2.99687  -0.00134   0.00000   0.00172   0.00174   2.99861
   D60       -1.20276  -0.00101   0.00000  -0.00540  -0.00537  -1.20814
   D61        0.82646  -0.00134   0.00000  -0.00725  -0.00722   0.81924
   D62        0.93784   0.00060   0.00000   0.02045   0.02052   0.95836
   D63        3.02139   0.00093   0.00000   0.01334   0.01341   3.03480
   D64       -1.23257   0.00060   0.00000   0.01149   0.01156  -1.22101
   D65       -1.27155   0.00082   0.00000   0.01332   0.01339  -1.25815
   D66        2.95611  -0.00023   0.00000  -0.00979  -0.00986   2.94625
   D67        2.91417  -0.00007   0.00000   0.01538   0.01544   2.92962
   D68        0.85864  -0.00112   0.00000  -0.00773  -0.00781   0.85083
   D69        0.86366   0.00072   0.00000   0.01315   0.01323   0.87688
   D70       -1.19187  -0.00033   0.00000  -0.00996  -0.01003  -1.20190
         Item               Value     Threshold  Converged?
 Maximum Force            0.010002     0.000450     NO 
 RMS     Force            0.002689     0.000300     NO 
 Maximum Displacement     0.333441     0.001800     NO 
 RMS     Displacement     0.085031     0.001200     NO 
 Predicted change in Energy=-2.105929D-03
 GradGradGradGradGradGradGradGradGradGradGradGradGradGradGradGradGradGrad

                          Input orientation:                          
 ---------------------------------------------------------------------
 Center     Atomic      Atomic             Coordinates (Angstroms)
 Number     Number       Type             X           Y           Z
 ---------------------------------------------------------------------
      1          8           0        1.396848    0.369424    2.031669
      2          6           0        1.821822   -0.060697    0.964502
      3          7           0        1.003580   -0.527386   -0.017117
      4          6           0       -0.439244   -0.510564    0.150711
      5          6           0       -1.041378   -1.559888   -0.770996
      6          8           0       -1.938212   -2.341145   -0.139497
      7          8           0       -0.767061   -1.674715   -1.939949
      8          6           0       -1.032095    0.891062   -0.180270
      9          6           0       -2.495127    1.020363    0.082234
     10          6           0       -3.591015    1.044794   -0.745872
     11          7           0       -4.757459    1.153261   -0.021663
     12          6           0       -4.383663    1.193683    1.235102
     13          7           0       -3.024360    1.115809    1.357584
     14          6           0        3.320759   -0.134942    0.674182
     15          6           0        3.762126    0.238465   -0.747407
     16          7           0        3.288837   -0.746504   -1.735696
     17          1           0        1.422294   -0.806257   -0.905884
     18          1           0       -0.665435   -0.761236    1.186788
     19          1           0       -2.318397   -2.942228   -0.799461
     20          1           0       -0.833335    1.107435   -1.232314
     21          1           0       -0.468786    1.611741    0.418952
     22          1           0       -3.599451    0.992250   -1.824141
     23          1           0       -5.037406    1.280949    2.089580
     24          1           0       -2.496788    1.137862    2.217324
     25          1           0        3.802159    0.524188    1.398143
     26          1           0        3.655409   -1.154583    0.903647
     27          1           0        3.337201    1.209579   -1.017790
     28          1           0        4.853965    0.357297   -0.751782
     29          1           0        3.804120   -1.618311   -1.655283
     30          1           0        3.420032   -0.409662   -2.683513
 ---------------------------------------------------------------------
                    Distance matrix (angstroms):
                    1          2          3          4          5
     1  O    0.000000
     2  C    1.226561   0.000000
     3  N    2.270782   1.360476   0.000000
     4  C    2.771933   2.444802   1.452649   0.000000
     5  C    4.185944   3.668439   2.411690   1.520918   0.000000
     6  O    4.814953   4.533995   3.458156   2.383727   1.346650
     7  O    4.963341   4.212269   2.854613   2.415279   1.206187
     8  C    3.326341   3.218881   2.486481   1.557427   2.521151
     9  C    4.401305   4.536865   3.827055   2.564193   3.082059
    10  C    5.748881   5.783278   4.910513   3.627211   3.644948
    11  N    6.534988   6.762629   6.001180   4.630876   4.661752
    12  C    5.893067   6.336777   5.792454   4.431570   4.772573
    13  N    4.534155   5.002416   4.562258   3.283970   3.952522
    14  C    2.408026   1.528597   2.449739   3.814804   4.811159
    15  C    3.651705   2.604786   2.954560   4.361097   5.129160
    16  N    4.360958   3.148576   2.867739   4.184828   4.510322
    17  H    3.164189   2.052761   1.021273   2.160822   2.579891
    18  H    2.499045   2.593571   2.071155   1.089704   2.147580
    19  H    5.725852   5.343800   4.180796   3.216680   1.882140
    20  H    4.021438   3.638735   2.742918   2.164714   2.714905
    21  H    2.761304   2.888176   2.633227   2.139394   3.435560
    22  H    6.341781   6.186714   5.173251   4.018134   3.763809
    23  H    6.498758   7.079182   6.648440   5.302059   5.676397
    24  H    3.973080   4.653654   4.474187   3.349878   4.280902
    25  H    2.492153   2.109945   3.307690   4.540517   5.701613
    26  H    2.948920   2.135961   2.876348   4.212820   5.002850
    27  H    3.710799   2.799903   3.076391   4.311127   5.186792
    28  H    4.438401   3.509165   4.018440   5.439277   6.199277
    29  H    4.831114   3.635786   3.422971   4.742874   4.925874
    30  H    5.189719   3.998008   3.600384   4.789260   4.988479
                    6          7          8          9         10
     6  O    0.000000
     7  O    2.248856   0.000000
     8  C    3.357063   3.122488   0.000000
     9  C    3.414536   3.786673   1.492009   0.000000
    10  C    3.816284   4.098325   2.625188   1.373800   0.000000
    11  N    4.491426   5.253623   3.737946   2.268612   1.377256
    12  C    4.512733   5.602542   3.650735   2.219394   2.138858
    13  N    3.920650   4.874028   2.526782   1.384093   2.179602
    14  C    5.760745   5.090663   4.553033   5.958998   7.154086
    15  C    6.286318   5.059243   4.871558   6.360258   7.397219
    16  N    5.693222   4.165765   4.875595   6.315135   7.177804
    17  H    3.773094   2.572312   3.071064   4.433860   5.346519
    18  H    2.423862   3.259027   2.175633   2.782429   3.944102
    19  H    0.970254   2.305200   4.090487   4.063342   4.185542
    20  H    3.782553   2.871498   1.092300   2.120654   2.800955
    21  H    4.253985   4.056375   1.093509   2.137560   3.380319
    22  H    4.087696   3.892114   3.050224   2.203313   1.079581
    23  H    5.262447   6.573348   4.620253   3.249695   3.191802
    24  H    4.239115   5.308998   2.820406   2.138321   3.160146
    25  H    6.597449   6.070898   5.098627   6.452412   7.715365
    26  H    5.812459   5.283447   5.228024   6.575273   7.750409
    27  H    6.419425   5.100441   4.460229   5.938174   6.935508
    28  H    7.334177   6.093993   5.937780   7.425927   8.472920
    29  H    5.982849   4.580383   5.644608   7.047133   7.912470
    30  H    6.238063   4.436777   5.270631   6.684567   7.417862
                   11         12         13         14         15
    11  N    0.000000
    12  C    1.311799   0.000000
    13  N    2.215255   1.367030   0.000000
    14  C    8.209827   7.838239   6.503226   0.000000
    15  C    8.599237   8.437811   7.159407   1.534651   0.000000
    16  N    8.443334   8.453237   7.272761   2.486471   1.473391
    17  H    6.543005   6.503286   5.346996   2.559578   2.567366
    18  H    4.676571   4.201103   3.019437   4.067523   4.933944
    19  H    4.829805   5.050795   4.649612   6.469355   6.862381
    20  H    4.106887   4.324397   3.392379   4.736531   4.701968
    21  H    4.335557   4.020837   2.767298   4.180514   4.598576
    22  H    2.148448   3.164574   3.235640   7.443217   7.477992
    23  H    2.133547   1.079411   2.148358   8.594592   9.304140
    24  H    3.181813   2.127951   1.008946   6.151842   6.983734
    25  H    8.699347   8.214773   6.852228   1.091017   2.164862
    26  H    8.772610   8.381581   7.069658   1.097412   2.162857
    27  H    8.155916   8.042855   6.791219   2.161198   1.093952
    28  H    9.671923   9.485833   8.191018   2.150905   1.098296
    29  H    9.146090   9.126962   7.948643   2.803646   2.067273
    30  H    8.740683   8.878284   7.758075   3.370377   2.070169
                   16         17         18         19         20
    16  N    0.000000
    17  H    2.043560   0.000000
    18  H    4.917051   2.956335   0.000000
    19  H    6.094162   4.308883   3.381449   0.000000
    20  H    4.547833   2.976010   3.061401   4.335036   0.000000
    21  H    4.931892   3.343365   2.501852   5.064012   1.764625
    22  H    7.104900   5.412555   4.555092   4.262767   2.831064
    23  H    9.384541   7.420038   4.909143   5.794375   5.360904
    24  H    7.256077   5.375242   2.832389   5.077395   3.829883
    25  H    3.420396   3.569647   4.653642   7.369309   5.361650
    26  H    2.695744   2.895261   4.347940   6.463947   5.461491
[...]
 0.00017803,-0.00005539,0.00012325,0.00028520,0.00001828,-0.00013864,-0
 .00000789,-0.00108761,-0.00041247,-0.00003759,0.00001536,-0.00004573,0
 .00003953,-0.00027713,0.00006026,-0.00024139,0.00004911,0.00031690,-0.
 00025547,0.00167219,-0.00038813,-0.00038894,-0.00112771,0.00012207,-0.
 03908265,0.02959142,-0.00322155,0.00168116,-0.00433170,0.00189214,-0.0
 0048154,0.00003694,0.00000348,-0.00013033,-0.00060606,0.00061439,-0.00
 044955,-0.00008774,-0.00013901,-0.00048707,-0.00039067,0.00015662,0.00
 021036,0.00007365,-0.00010750,0.00024210,0.00026738,0.00034575,0.00031
 301,0.00068568,-0.02697853,0.00730321,-0.00258211,-0.00166161,-0.00234
 476,-0.00695159,0.00738842,-0.00302363,0.00005736,0.01004847,0.0040697
 7,0.01692066,-0.13453140,0.00031638,-0.13637005,-0.00005891,-0.0003592
 9,0.00027792,-0.00005617,-0.00002363,0.00001953,-0.00008532,-0.0000092
 2,-0.00002371,0.00004250,-0.00002659,-0.00010511,0.00004297,-0.0004257
 6,0.00004214,-0.00002296,-0.00003946,-0.00000124,-0.00002283,0.0002893
 1,0.00031508,0.00038906,0.00010188,-0.00055574,-0.00118299,-0.00016777
 ,0.00050467,-0.00016168,0.00020058,-0.00061659,0.14731081,-0.00676895,
 0.13339705,0.00306751,0.00198932,0.00050186,-0.00878769,-0.02883234,-0
 .02425810,-0.00676419,0.00055480,0.00088247,0.00025952,-0.00006532,-0.
 00150555,-0.00037301,0.00041057,0.00031044,-0.00012927,-0.00025192,-0.
 00017189,0.00008086,-0.00013091,-0.00016746,-0.00014894,-0.00017994,-0
 .00006498,-0.00003083,0.00000909,-0.00015937,0.00006110,0.00001129,0.0
 0001309,0.00003457,0.00001547,0.00009406,-0.00012437,0.00003584,0.0000
 5937,0.00014865,-0.00002918,-0.00000397,-0.05502542,-0.03611989,-0.027
 41696,0.00267804,0.01382327,0.00854082,-0.00108053,-0.00129451,0.00418
 509,-0.00041629,0.00006138,0.00076291,0.00004833,-0.00003102,0.0000076
 8,-0.00002882,-0.00002704,0.00000851,-0.00005364,0.00007420,-0.0000091
 4,-0.00001123,0.00000278,0.00000264,0.00000924,-0.00000336,0.00000405,
 -0.00000997,0.00000033,0.00000669,-0.00020550,0.00001372,-0.00005715,0
 .06450807,0.00040099,0.00123974,0.00171141,0.00224104,-0.00286710,-0.0
 0214836,-0.00073484,0.00062298,0.00008890,0.00045535,0.00040670,-0.000
 10119,0.00012365,0.00007247,0.00006230,-0.00008389,-0.00005208,-0.0000
 2599,-0.00006798,-0.00001395,-0.00003545,-0.00011449,-0.00004596,-0.00
 005382,-0.00000211,0.00000755,-0.00004545,0.00001972,0.00000397,0.0000
 1231,-0.00002083,0.00000926,0.00003600,-0.00001596,0.00000287,0.000005
 21,-0.00000341,-0.00001614,-0.00000812,-0.03964248,-0.19943365,-0.1271
 6564,0.00156170,0.00507992,0.00470403,-0.00051751,0.00079794,0.0010559
 0,0.00006343,-0.00013168,0.00039854,-0.00003392,-0.00002427,0.00000813
 ,0.00001210,0.00001155,0.00000943,-0.00003479,0.00002693,-0.00000712,-
 0.00001500,-0.00002861,0.00001677,0.00000341,0.00000009,0.00000066,-0.
 00000396,0.00000362,0.00000236,-0.00000378,0.00002167,-0.00003443,0.04
 103433,0.21356729,0.00226191,0.00139493,0.00049421,-0.00241261,-0.0038
 6434,-0.00503590,-0.00101616,-0.00005510,0.00136032,0.00014605,-0.0003
 0088,-0.00004603,0.00001507,-0.00002944,-0.00006547,-0.00006985,-0.000
 03115,-0.00001526,-0.00008363,0.00001652,0.00006524,0.00002400,-0.0000
 3477,0.00000787,-0.00001624,-0.00000729,-0.00004665,0.00001141,-0.0000
 0132,-0.00000698,0.00003542,0.00000043,0.00001546,-0.00004872,0.000017
 36,0.00003263,0.00007082,-0.00000388,0.00000553,-0.03019279,-0.1267035
 7,-0.15248589,-0.00642662,-0.02111742,-0.01449598,0.00250426,0.0020545
 6,-0.00535522,0.00070047,0.00032083,-0.00021253,-0.00004462,0.00000864
 ,0.00004104,0.00000018,-0.00000560,-0.00000192,0.00000878,0.00000370,0
 .00000657,0.00000326,0.00000804,-0.00002798,0.00000235,-0.00000289,0.0
 0000153,0.00000140,-0.00000361,0.00000061,-0.00010043,0.00002613,0.000
 02865,0.03121404,0.13823866,0.16539995,-0.00219213,-0.00383773,0.00260
 275,-0.01110100,0.03115310,-0.01493402,-0.00089354,-0.00188949,0.00044
 413,-0.00009585,-0.00130251,0.00039154,-0.00025903,0.00030440,0.000390
 25,-0.00010353,-0.00019410,-0.00015881,0.00008332,-0.00018930,-0.00014
 135,0.00025099,-0.00013351,0.00002549,0.00003623,0.00001853,0.00005411
 ,0.00000569,0.00001049,0.00000662,-0.00007953,0.00000870,0.00001031,0.
 00005891,-0.00001200,-0.00001808,-0.00011596,0.00003144,-0.00009941,-0
 .07493812,0.07353660,-0.03877727,0.00611640,-0.01546930,0.00884144,0.0
 0051825,-0.00043461,-0.00146447,-0.00049507,0.00061258,-0.00038601,-0.
 00022841,-0.00003956,-0.00019128,-0.00002870,0.00000947,-0.00002344,-0
 .00002489,-0.00000216,-0.00000791,0.00005110,-0.00000029,0.00003237,-0
 .00000179,-0.00000157,-0.00000181,-0.00000182,0.00000359,0.00000197,0.
 00020493,-0.00016253,0.00005842,0.00174863,-0.00513858,0.00310755,0.08
 174435,0.00089353,0.00066436,0.00014397,-0.00052505,0.00254490,-0.0024
 5388,-0.00039879,-0.00019294,-0.00063365,0.00023736,-0.00022812,0.0002
 2814,-0.00006691,-0.00001774,0.00004743,0.00001447,0.00000438,-0.00002
 483,0.00002287,0.00000433,-0.00001153,-0.00003806,-0.00003602,0.000010
 54,-0.00002027,-0.00000060,-0.00005176,0.00001102,0.00000265,0.0000044
 7,0.00002955,0.00000068,0.00000935,-0.00003717,0.00001383,0.00002752,0
 .00007782,-0.00000809,-0.00000262,0.06947564,-0.22069806,0.09190424,0.
 00154094,-0.00490080,0.00203353,-0.00053687,0.00175294,-0.00094169,-0.
 00019919,0.00001683,0.00003158,-0.00007325,-0.00003611,-0.00000727,-0.
 00000957,-0.00000899,-0.00000465,-0.00001203,0.00000480,-0.00000273,0.
 00001958,-0.00001231,-0.00000483,0.00000053,-0.00000211,0.00000122,0.0
 0000027,-0.00000459,0.00000041,-0.00010257,0.00000563,0.00002626,0.008
 09454,-0.02056168,0.01123275,-0.07679989,0.24017596,0.00096292,0.00044
 076,-0.00042835,-0.00228116,0.00305647,-0.00294037,-0.00077471,-0.0007
 8077,0.00029746,-0.00005418,-0.00035106,-0.00000645,-0.00020258,0.0000
 7314,0.00013113,0.00004050,-0.00002716,-0.00004535,0.00010510,-0.00006
 812,-0.00002619,0.00006559,-0.00001261,0.00000355,-0.00001376,-0.00001
 666,-0.00003087,0.00001393,-0.00000668,0.00000302,0.00002193,-0.000000
 98,0.00001522,-0.00003578,0.00001456,0.00002134,0.00003592,-0.00000096
 ,0.00000090,-0.03686805,0.09139428,-0.09046317,-0.00860874,0.02571878,
 -0.01646632,-0.00084204,0.00030948,0.00289136,-0.00039342,0.00044878,-
 0.00023964,-0.00005002,-0.00001702,-0.00002415,-0.00002040,-0.00000308
 ,-0.00001232,0.00000171,0.00000532,0.00000022,0.00001406,-0.00000724,-
 0.00001280,0.00000170,0.00000133,-0.00000002,0.00000036,-0.00000056,-0
 .00000009,-0.00009168,0.00001132,0.00000469,0.00727375,-0.01665858,0.0
 0973890,0.03807631,-0.10255935,0.10100262,0.00038923,0.00014772,-0.000
 20199,0.00099686,-0.00104626,0.00028556,0.00014863,0.00017123,-0.00010
 375,-0.00015992,0.00007823,-0.00011704,-0.00006648,-0.00011567,-0.0000
 8576,0.00008132,0.00006610,0.00003892,0.00003606,0.00007581,0.00004796
 ,-0.00007128,-0.00004654,0.00003416,-0.00000733,0.00000587,-0.00001152
 ,-0.00001492,0.00000247,-0.00000482,0.00004440,-0.00002087,-0.00002395
 ,-0.00001249,0.00000354,0.00000627,0.00006366,-0.00001118,0.00002183,0
 .00622865,-0.01465434,0.00955643,-0.09091161,0.07950997,-0.05145675,0.
 00172136,-0.00197893,0.00276012,0.00005167,-0.00038297,0.00008648,0.00
 006996,0.00001523,0.00001851,-0.00000792,-0.00001033,-0.00000384,0.000
 01723,0.00000527,0.00000521,-0.00000958,0.00004467,-0.00001944,0.00000
 004,0.00000261,0.00000074,0.00000208,0.00000063,-0.00000286,-0.0000800
 7,0.00003210,0.00002256,0.00034241,0.00036557,-0.00075987,-0.00124549,
 -0.00113648,0.00342157,0.09354352,-0.00030654,-0.00006904,-0.00008192,
 0.00084761,0.00030854,0.00065752,-0.00058826,0.00043857,-0.00061380,-0
 .00012960,-0.00004962,0.00002178,0.00004982,-0.00012607,-0.00010314,-0
 .00002107,0.00002989,0.00002577,-0.00008374,0.00011791,0.00003364,-0.0
 0006880,-0.00006765,0.00004220,-0.00000034,0.00003749,0.00000546,-0.00
 001589,0.00001221,-0.00000480,0.00000953,-0.00001337,-0.00002910,0.000
 01785,-0.00000666,-0.00001475,-0.00000251,0.00001455,0.00000844,0.0004
 6577,-0.00257507,0.00353651,0.07518434,-0.20093739,0.09365931,0.010632
 24,-0.02828474,0.01002443,0.00062679,-0.00069506,0.00002110,0.00002547
 ,0.00000997,-0.00000472,0.00000603,-0.00001225,0.00000563,-0.00000859,
 -0.00000423,-0.00000155,-0.00001938,0.00006142,0.00000503,-0.00000342,
 -0.00000217,0.00000073,0.00000153,-0.00000260,-0.00000133,0.00001908,-
 0.00002246,0.00002207,-0.00026181,0.00022949,0.00037513,-0.00017159,0.
 00111745,0.00044786,-0.08456811,0.22688822,0.00049740,-0.00030290,-0.0
 0012426,-0.00217954,-0.00013487,0.00051307,0.00046938,-0.00011622,0.00
 070070,0.00001666,0.00014686,0.00004303,0.00003154,-0.00001464,-0.0000
 0929,0.00000293,0.00000703,0.00001901,-0.00000675,0.00001665,0.0000000
 7,0.00004466,0.00004442,-0.00003654,-0.00000012,-0.00001728,-0.0000028
 9,0.00000948,-0.00000598,0.00000253,0.00000636,-0.00000013,0.00001298,
 -0.00001285,0.00000227,0.00000840,0.00002182,-0.00003424,0.00000497,-0
 .00914692,0.02236397,-0.01524222,-0.05164475,0.10163292,-0.11112475,0.
 00915481,-0.02285546,0.00980622,0.00019348,0.00014494,-0.00012725,-0.0
 0001670,-0.00000009,0.00001118,0.00000404,0.00000554,-0.00000331,-0.00
 000784,-0.00001104,0.00000272,0.00000985,-0.00000737,0.00002741,0.0000
 0154,0.00000148,-0.00000013,0.00000009,0.00000492,-0.00000135,-0.00005
 902,0.00006856,-0.00002807,-0.00037514,-0.00041151,0.00036733,0.003423
 65,0.00012172,-0.00435268,0.05216991,-0.10151007,0.12313083,-0.0019813
 6,0.00063728,0.00043430,0.00256309,-0.00062238,0.00325783,0.00005661,-
 0.00016076,-0.00011913,0.00035463,0.00019604,-0.00005257,0.00023416,0.
 00021087,0.00009310,-0.00020940,-0.00013737,-0.00006239,-0.00013700,-0
 .00011489,-0.00006387,-0.00001965,-0.00008313,-0.00003505,0.00003660,0
 .00003280,0.00004223,0.00000259,0.00000815,0.00000572,-0.00011765,0.00
 002868,0.00002122,0.00007524,-0.00002658,-0.00004475,-0.00019610,0.000
 05916,-0.00002535,-0.01759019,-0.00244411,-0.00223304,-0.27101986,-0.0
 4271647,-0.04950247,0.00535074,-0.00427883,-0.00312008,0.00032045,0.00
 015670,-0.00009044,-0.00002926,0.00000718,0.00002744,0.00002505,0.0000
 2173,0.00001241,-0.00003781,0.00001916,-0.00001959,0.00000717,-0.00004
 369,0.00002776,-0.00000040,-0.00000473,-0.00000270,-0.00000396,-0.0000
 0107,0.00000587,0.00027769,-0.00011926,-0.00004673,0.00014936,0.000534
 21,0.00036878,0.00075761,-0.00053229,-0.00022139,-0.01238201,-0.001339
 00,-0.00280830,0.29176276,-0.00067679,0.00021364,0.00017604,0.00029287
 ,0.00073527,0.00136622,-0.00005233,0.00054994,0.00007527,-0.00011261,0
 .00001954,0.00014885,0.00042922,-0.00017210,-0.00032417,-0.00023220,-0
 .00001780,0.00006483,-0.00036085,0.00008692,0.00018352,-0.00002623,-0.
 00003667,0.00004279,0.00000843,0.00002584,-0.00000377,-0.00000196,0.00
 000692,-0.00000407,-0.00001057,0.00000016,0.00000110,0.00000840,-0.000
 00481,-0.00000753,-0.00002311,0.00002128,0.00000260,-0.00707803,-0.000
 57392,0.00011999,-0.04220877,-0.05949333,-0.00635308,-0.02672175,-0.01
 528080,-0.01650085,0.00142114,-0.00071850,-0.00086033,-0.00001142,0.00
 001218,-0.00000389,0.00003601,0.00001734,0.00000944,0.00000886,-0.0000
 1002,0.00000233,-0.00002398,0.00002156,-0.00000438,0.00000049,-0.00000
 284,0.00000126,-0.00000106,-0.00000054,0.00000127,0.00003555,-0.000033
 39,-0.00000010,0.00046804,0.00049299,-0.00007133,-0.00010134,-0.000014
 68,-0.00071246,0.02383237,0.00614599,0.00521008,0.05181985,0.06633865,
 0.00290608,-0.00093122,-0.00015181,-0.00206935,0.00115831,-0.00636419,
 0.00016600,0.00063557,0.00177174,-0.00017567,0.00003439,0.00026066,0.0
 0043557,-0.00028588,-0.00040208,-0.00019539,0.00003401,0.00009781,-0.0
 0034969,0.00015655,0.00026243,0.00009326,0.00003529,0.00002306,-0.0000
 2988,-0.00002487,-0.00007697,0.00004334,-0.00000957,-0.00000415,0.0000
 7912,0.00000475,0.00005110,-0.00010197,0.00003739,0.00007408,0.0002059
 6,-0.00006817,-0.00000699,0.03086412,0.00578841,0.00420740,-0.05068212
 ,-0.00679649,-0.06028137,-0.02014635,-0.01415160,-0.00912554,0.0017584
 2,-0.00041075,-0.00097627,-0.00003152,-0.00002862,-0.00002374,0.000037
 36,0.00001501,0.00000630,0.00004012,-0.00001595,0.00002191,-0.00000334
 ,0.00001620,-0.00003100,0.00000794,-0.00000185,0.00000395,-0.00000069,
 -0.00000039,-0.00000025,-0.00031444,0.00011055,0.00001132,-0.00035679,
 -0.00044690,0.00103394,-0.00079600,0.00008995,0.00114811,-0.01617150,-
 0.00252351,-0.00283985,0.05478983,0.01655408,0.07056678,0.00005854,0.0
 0002146,-0.00004772,-0.00030905,0.00034883,0.00002131,-0.00116022,-0.0
 0096402,0.00114978,-0.00009370,-0.00006370,0.00020497,-0.00054276,0.00
 030162,0.00034657,0.00027460,0.00003817,-0.00008049,0.00046448,-0.0004
 4225,-0.00005241,0.00002332,0.00006714,-0.00001645,-0.00000432,-0.0000
 4386,0.00000925,-0.00000663,-0.00001078,-0.00000027,0.00002427,-0.0000
 0782,-0.00000627,-0.00001739,0.00000559,0.00000339,0.00002774,-0.00001
 793,0.00001512,-0.00042070,0.00081483,-0.00004786,-0.00064323,-0.00954
 933,-0.00091367,-0.13624666,0.19175945,-0.08077370,0.00029688,0.002825
 88,-0.00180007,-0.00013032,-0.00001047,-0.00000632,-0.00005676,-0.0000
 0417,-0.00003438,0.00001540,0.00001088,0.00000178,0.00001693,-0.000036
 75,-0.00001975,-0.00000082,0.00000625,-0.00000119,0.00000036,0.0000041
 6,-0.00000184,-0.00003749,0.00003658,-0.00000020,0.00007131,-0.0003966
 1,0.00015829,0.00017106,0.00006475,0.00063904,0.00080096,-0.00086587,-
 0.00017220,0.00141046,-0.00076327,0.00103130,0.13203892,-0.00029513,0.
 00009137,0.00013913,0.00027818,0.00000902,0.00009683,-0.00065073,-0.00
 030988,0.00055585,0.00006494,0.00003891,0.00004801,-0.00017593,0.00021
 108,0.00018714,0.00006544,-0.00002839,-0.00005333,0.00016407,-0.000275
 11,-0.00005245,-0.00002474,0.00000226,-0.00000662,0.00000618,-0.000006
 21,0.00001091,-0.00000573,-0.00000113,0.00000230,-0.00001552,-0.000002
 14,-0.00000396,0.00001443,-0.00000383,-0.00000828,-0.00002999,0.000003
 78,-0.00000329,-0.00035722,0.00111714,-0.00002634,0.01732500,-0.025169
 24,0.01141131,0.14801690,-0.25674236,0.09579723,0.00088675,0.00076207,
 -0.00091033,-0.00005652,-0.00000079,0.00000967,-0.00002546,0.00001002,
 -0.00001470,-0.00000328,0.00001308,-0.00000537,0.00000384,-0.00002143,
 -0.00000332,-0.00000102,0.00000267,-0.00000166,0.00000052,0.00000182,-
 0.00000024,0.00004936,-0.00001192,0.00000035,-0.00022042,0.00010511,0.
 00001710,0.00045690,0.00022413,-0.00064545,-0.00104610,-0.00319422,-0.
 00475722,-0.00073775,0.00161153,0.00122305,-0.16946329,0.28753405,-0.0
 0024103,-0.00000440,0.00005568,0.00044595,0.00008209,0.00002923,0.0000
 2264,0.00001562,-0.00025836,0.00014515,-0.00004187,-0.00000679,-0.0000
 5587,0.00013792,0.00016226,0.00001683,-0.00003096,-0.00005576,0.000078
 77,-0.00015545,-0.00009404,-0.00001864,-0.00001305,-0.00000829,0.00000
 867,0.00000569,0.00001437,-0.00000177,0.00000279,0.00000222,-0.0000284
 5,0.00000500,-0.00000308,0.00002479,-0.00000704,-0.00000696,-0.0000455
 4,0.00001378,-0.00001584,0.00014104,-0.00095298,0.00196377,0.01326891,
 -0.02045234,0.00960035,-0.06283483,0.10050184,-0.11034966,-0.00029430,
 0.00001056,0.00012848,-0.00000997,-0.00000874,-0.00001242,-0.00000932,
 0.00000433,0.00000839,-0.00000610,0.00001179,-0.00000680,0.00000011,-0
 .00001676,-0.00000009,-0.00000087,-0.00000079,-0.00000159,0.00000080,-
 0.00000153,0.00000017,0.00006173,-0.00003231,0.00000738,-0.00027098,0.
 00041116,-0.00011677,-0.00025849,0.00086057,-0.00069426,0.00021381,-0.
 00426465,-0.00216077,-0.00009478,0.00003736,0.00056734,0.07284350,-0.1
 0526830,0.11335727,-0.00034291,0.00005992,-0.00006031,0.00107737,-0.00
 025870,-0.00002081,-0.00229020,0.00049190,-0.00035403,0.00023731,0.000
 23821,0.00022283,-0.00080261,0.00042736,0.00080198,0.00044063,-0.00002
 596,-0.00015062,0.00062740,-0.00008720,-0.00075750,-0.00018464,-0.0000
 7089,-0.00000286,-0.00001195,0.00005186,0.00001806,-0.00002751,0.00001
 759,0.00000832,-0.00001834,-0.00001810,-0.00004493,0.00004703,-0.00001
 942,-0.00003442,-0.00004509,0.00001378,-0.00001207,0.00009982,0.001085
 69,0.00088551,-0.00330618,-0.00326219,-0.00725276,-0.06922054,-0.02342
 303,0.15584773,0.00151997,-0.00085205,0.00240333,-0.00007772,-0.000027
 73,-0.00003579,-0.00007166,-0.00005800,-0.00000009,-0.00008624,0.00001
 910,-0.00002819,0.00002316,0.00001788,0.00005555,-0.00001010,0.0000025
 3,-0.00000354,0.00000333,-0.00000146,-0.00000344,0.00010582,-0.0000251
 3,0.00001895,-0.00001790,0.00001461,0.00053748,0.00005739,0.00000554,-
 0.00021648,0.00043105,0.00056843,0.00037252,0.00034047,0.00004506,-0.0
 0103371,0.00397482,0.00577630,-0.02310175,0.06752804,0.00028544,0.0000
 5674,0.00024326,-0.00065727,-0.00038810,-0.00053229,-0.00019408,0.0003
 2193,0.00024824,0.00010213,0.00010122,0.00008441,-0.00019718,0.0001761
 1,0.00025713,0.00014998,-0.00001469,-0.00004631,0.00021150,-0.00011250
 ,-0.00025387,-0.00002412,0.00004377,-0.00001883,-0.00000823,-0.0000204
 1,-0.00001050,0.00000556,-0.00000624,0.00000519,0.00000360,-0.00000024
 ,0.00000970,-0.00001179,0.00000502,0.00000640,0.00001799,-0.00001551,-
 0.00000393,-0.00122266,-0.00524892,-0.00285790,0.01134009,0.00711171,-
 0.03091970,-0.01667143,-0.07776781,0.08442647,0.00045310,-0.00024201,0
 .00052005,-0.00002216,-0.00002061,-0.00001200,-0.00002557,-0.00000350,
 0.00000150,-0.00000269,0.00001423,-0.00000255,-0.00000394,-0.00002615,
 -0.00001257,0.00000164,0.00000415,-0.00000100,-0.00000014,0.00000177,-
 0.00000051,-0.00003026,0.00001905,-0.00000437,0.00084870,0.00047301,-0
 .00148217,-0.00026575,0.00018998,-0.00005336,0.00065841,0.00065089,0.0
 0040767,-0.00036952,0.00005967,-0.00019772,-0.01366546,-0.00597141,0.0
 2915067,0.01929410,0.08060888,0.00005907,0.00016947,0.00018405,-0.0001
 7677,-0.00034405,-0.00027008,-0.00071037,0.00028064,0.00034575,0.00009
 020,0.00011767,0.00010314,-0.00009586,0.00009134,0.00015816,0.00005739
 ,-0.00001474,-0.00003244,0.00007061,-0.00002313,-0.00019658,-0.0000336
 3,-0.00001170,-0.00000553,-0.00000523,0.00000943,-0.00000051,0.0000005
 0,0.00000384,0.00000336,-0.00000507,-0.00000137,-0.00000352,0.00000430
 ,-0.00000267,-0.00000390,-0.00000605,-0.00000184,-0.00000811,-0.001707
 15,-0.00475343,-0.00121305,0.00944599,0.00658637,-0.01739438,0.1119401
 6,0.07341524,-0.35933363,0.00115687,-0.00022640,-0.00007354,-0.0000313
 3,-0.00001209,0.00000008,-0.00001006,-0.00001180,0.00001025,-0.0000251
 7,0.00000511,-0.00000724,0.00000944,-0.00000178,0.00001166,-0.00000229
 ,0.,-0.00000072,0.00000035,-0.00000001,-0.00000067,0.00001191,-0.00000
 052,0.00000026,0.00095002,0.00038078,-0.00068725,-0.00020856,-0.000074
 86,0.00048452,0.00027304,0.00026070,0.00140291,-0.00054385,0.00084893,
 0.00017628,0.00755050,0.00226197,-0.01210543,-0.12805896,-0.07895111,0
 .38845617\\-0.00000498,-0.00000247,-0.00001741,0.00000404,0.00001288,0
 .00003311,-0.00000583,0.00000489,-0.00001554,-0.00002327,0.00001272,-0
 .00002862,0.00000220,0.00000518,-0.00001649,0.00000030,-0.00000562,0.0
 0000247,-0.00000078,-0.00000454,0.00000923,0.00001310,-0.00001490,0.00
 000074,-0.00000352,0.00001147,-0.00000134,0.00000223,-0.00000347,-0.00
 000416,0.00000420,0.00000131,0.00000531,-0.00000085,0.00000418,0.00001
 012,0.00003068,-0.00001687,0.00000043,-0.00000050,-0.00000458,-0.00000
 150,-0.00000237,0.00000222,0.00000104,0.00000118,-0.00000162,-0.000004
 30,0.00000207,-0.00000125,0.00000941,0.00000037,-0.00000807,0.00000223
 ,0.00000024,0.00000031,0.00000325,0.00000392,-0.00000177,0.00000073,-0
 .00000255,-0.00000330,0.00000540,0.00000081,-0.00000125,-0.00000007,0.
 00000002,-0.00000197,-0.00000040,-0.00002186,0.00001483,0.00000520,0.,
 0.00000023,-0.00000010,0.,0.00000037,0.00000007,-0.00000012,-0.0000002
 8,0.00000061,-0.00000015,-0.00000034,-0.00000050,-0.00000064,0.0000005
 4,-0.00000011,0.00000204,0.00000118,0.00000118\\\@


 NOT WHAT WE DID SHALL BE THE TEST
 WHEN ACT AND WILL ARE DONE,
 BUT WHAT OUR LORD INFERS WE WOULD-
 HAD WE DIVINER BEEN.
           EMILY DICKINSON  POEMS NO. CLXXV
 Job cpu time:       0 days  4 hours 50 minutes 51.8 seconds.
 File lengths (MBytes):  RWF=    542 Int=      0 D2E=      0 Chk=     17 Scr=      1
 Normal termination of Gaussian 09 at Thu Jul 29 02:36:53 2021.
