 Entering Gaussian System, Link 0=g09
 Input=opt_freq-conf-422.com
 Output=opt_freq-conf-422.log
 Initial command:
 /aerosol/software/g09/l1.exe "/scratch/nicole/10554/Gau-595252.inp" -scrdir="/scratch/nicole/10554/"
 Entering Link 1 = /aerosol/software/g09/l1.exe PID=    595257.
  
 Copyright (c) 1988,1990,1992,1993,1995,1998,2003,2009,2013,
            Gaussian, Inc.  All Rights Reserved.
  
 This is part of the Gaussian(R) 09 program.  It is based on
 the Gaussian(R) 03 system (copyright 2003, Gaussian, Inc.),
 the Gaussian(R) 98 system (copyright 1998, Gaussian, Inc.),
 the Gaussian(R) 94 system (copyright 1995, Gaussian, Inc.),
 the Gaussian 92(TM) system (copyright 1992, Gaussian, Inc.),
 the Gaussian 90(TM) system (copyright 1990, Gaussian, Inc.),
 the Gaussian 88(TM) system (copyright 1988, Gaussian, Inc.),
 the Gaussian 86(TM) system (copyright 1986, Carnegie Mellon
 University), and the Gaussian 82(TM) system (copyright 1983,
 Carnegie Mellon University). Gaussian is a federally registered
 trademark of Gaussian, Inc.
  
 This software contains proprietary and confidential information,
 including trade secrets, belonging to Gaussian, Inc.
  
 This software is provided under written license and may be
 used, copied, transmitted, or stored only in accord with that
 written license.
  
 The following legend is applicable only to US Government
 contracts under FAR:
  
                    RESTRICTED RIGHTS LEGEND
  
 Use, reproduction and disclosure by the US Government is
 subject to restrictions as set forth in subparagraphs (a)
 and (c) of the Commercial Computer Software - Restricted
 Rights clause in FAR 52.227-19.
  
 Gaussian, Inc.
 340 Quinnipiac St., Bldg. 40, Wallingford CT 06492
  
  
 ---------------------------------------------------------------
 Warning -- This program may not be used in any manner that
 competes with the business of Gaussian, Inc. or will provide
 assistance to any competitor of Gaussian, Inc.  The licensee
 of this program is prohibited from giving any competitor of
 Gaussian, Inc. access to this program.  By using this program,
 the user acknowledges that Gaussian, Inc. is engaged in the
 business of creating and licensing software in the field of
 computational chemistry and represents and warrants to the
 licensee that it is not a competitor of Gaussian, Inc. and that
 it will not use this program in any manner prohibited above.
 ---------------------------------------------------------------
  

 Cite this work as:
 Gaussian 09, Revision D.01,
 M. J. Frisch, G. W. Trucks, H. B. Schlegel, G. E. Scuseria, 
 M. A. Robb, J. R. Cheeseman, G. Scalmani, V. Barone, B. Mennucci, 
 G. A. Petersson, H. Nakatsuji, M. Caricato, X. Li, H. P. Hratchian, 
 A. F. Izmaylov, J. Bloino, G. Zheng, J. L. Sonnenberg, M. Hada, 
 M. Ehara, K. Toyota, R. Fukuda, J. Hasegawa, M. Ishida, T. Nakajima, 
 Y. Honda, O. Kitao, H. Nakai, T. Vreven, J. A. Montgomery, Jr., 
 J. E. Peralta, F. Ogliaro, M. Bearpark, J. J. Heyd, E. Brothers, 
 K. N. Kudin, V. N. Staroverov, T. Keith, R. Kobayashi, J. Normand, 
 K. Raghavachari, A. Rendell, J. C. Burant, S. S. Iyengar, J. Tomasi, 
 M. Cossi, N. Rega, J. M. Millam, M. Klene, J. E. Knox, J. B. Cross, 
 V. Bakken, C. Adamo, J. Jaramillo, R. Gomperts, R. E. Stratmann, 
 O. Yazyev, A. J. Austin, R. Cammi, C. Pomelli, J. W. Ochterski, 
 R. L. Martin, K. Morokuma, V. G. Zakrzewski, G. A. Voth, 
 P. Salvador, J. J. Dannenberg, S. Dapprich, A. D. Daniels, 
 O. Farkas, J. B. Foresman, J. V. Ortiz, J. Cioslowski, 
 and D. J. Fox, Gaussian, Inc., Wallingford CT, 2013.
 
 ******************************************
 Gaussian 09:  ES64L-G09RevD.01 24-Apr-2013
                28-Jul-2021 
 ******************************************
 %mem=2gb
 %nproc=4
 Will use up to    4 processors via shared memory.
 %chk=conf-422.chk
 ----------------------------------------------------------------------
 # B3LYP/6-311++G(d,p) opt=calcfc freq=noraman nosymm integral(ultrafin
 egrid)
 ----------------------------------------------------------------------
 1/10=4,14=-1,18=20,19=15,26=4,38=1/1,3;
 2/9=110,12=2,15=1,17=6,18=5,40=1/2;
 3/5=4,6=6,7=1111,11=2,16=1,25=1,30=1,71=2,74=-5,75=-5,140=1/1,2,3;
 4//1;
 5/5=2,38=5/2;
 8/6=4,10=90,11=11/1;
 11/6=1,8=1,9=11,15=111,16=1,31=1/1,2,10;
 10/6=1,13=1,31=1/2;
 6/7=2,8=2,9=2,10=2,28=1/1;
 7/10=1,18=20,25=1,30=1/1,2,3,16;
 1/10=4,14=-1,18=20,19=15,26=4/3(2);
 2/9=110,15=1/2;
 99//99;
 2/9=110,15=1/2;
 3/5=4,6=6,7=1111,11=2,16=1,25=1,30=1,71=1,74=-5,75=-5/1,2,3;
 4/5=5,16=3,69=1/1;
 5/5=2,38=5/2;
 7/30=1/1,2,3,16;
 1/14=-1,18=20,19=15,26=4/3(-5);
 2/9=110,15=1/2;
 6/7=2,8=2,9=2,10=2,19=2,28=1/1;
 99/9=1/99;
 ------------------------------------------------------------
 Candidate Structure: Conf:422 OPT and FREQ calc in gas phase
 ------------------------------------------------------------
 Symbolic Z-matrix:
 Charge =  0 Multiplicity = 1
 O                     0.78587   0.73522   1.52987 
 C                     1.13924   0.16266   0.50415 
 N                     0.30312  -0.6476   -0.20788 
 C                    -0.93596  -1.13451   0.35649 
 C                    -0.81707  -2.6235    0.61379 
 O                    -1.7968   -3.06349   1.42956 
 O                     0.01444  -3.34827   0.13314 
 C                    -2.14447  -0.88748  -0.55894 
 C                    -2.4521    0.57028  -0.73406 
 C                    -1.92298   1.70746  -0.19576 
 N                    -2.57575   2.83084  -0.66942 
 C                    -3.49191   2.37231  -1.48728 
 N                    -3.46244   1.01624  -1.56355 
 C                     2.50615   0.36515  -0.11942 
 C                     3.56376   0.75402   0.90212 
 N                     4.8435    0.9524    0.2166 
 H                     0.71291  -1.23242  -0.92015 
 H                    -1.09373  -0.61786   1.30258 
 H                    -1.66124  -4.01486   1.51849 
 H                    -3.01463  -1.38629  -0.12674 
 H                    -1.97303  -1.34889  -1.5332 
 H                    -1.09974   1.7603    0.50126 
 H                    -4.19675   2.96499  -2.04443 
 H                    -4.06566   0.4341   -2.11923 
 H                     2.80637  -0.54103  -0.65153 
 H                     2.42751   1.16022  -0.8652 
 H                     3.59987  -0.00614   1.69242 
 H                     3.26508   1.69306   1.37245 
 H                     5.20434   0.0605   -0.10256 
 H                     5.53209   1.31249   0.86643 
 

 GradGradGradGradGradGradGradGradGradGradGradGradGradGradGradGradGradGrad
 Berny optimization.
 Initialization pass.
                           ----------------------------
                           !    Initial Parameters    !
                           ! (Angstroms and Degrees)  !
 --------------------------                            --------------------------
 ! Name  Definition              Value          Derivative Info.                !
 --------------------------------------------------------------------------------
 ! R1    R(1,2)                  1.2267         calculate D2E/DX2 analytically  !
 ! R2    R(2,3)                  1.3648         calculate D2E/DX2 analytically  !
 ! R3    R(2,14)                 1.516          calculate D2E/DX2 analytically  !
 ! R4    R(3,4)                  1.446          calculate D2E/DX2 analytically  !
 ! R5    R(3,17)                 1.0086         calculate D2E/DX2 analytically  !
 ! R6    R(4,5)                  1.5157         calculate D2E/DX2 analytically  !
 ! R7    R(4,8)                  1.5361         calculate D2E/DX2 analytically  !
 ! R8    R(4,18)                 1.0894         calculate D2E/DX2 analytically  !
 ! R9    R(5,6)                  1.3487         calculate D2E/DX2 analytically  !
 ! R10   R(5,7)                  1.2032         calculate D2E/DX2 analytically  !
 ! R11   R(6,19)                 0.9651         calculate D2E/DX2 analytically  !
 ! R12   R(8,9)                  1.5001         calculate D2E/DX2 analytically  !
 ! R13   R(8,20)                 1.0921         calculate D2E/DX2 analytically  !
 ! R14   R(8,21)                 1.0915         calculate D2E/DX2 analytically  !
 ! R15   R(9,10)                 1.3649         calculate D2E/DX2 analytically  !
 ! R16   R(9,13)                 1.3812         calculate D2E/DX2 analytically  !
 ! R17   R(10,11)                1.3829         calculate D2E/DX2 analytically  !
 ! R18   R(10,22)                1.08           calculate D2E/DX2 analytically  !
 ! R19   R(11,12)                1.3109         calculate D2E/DX2 analytically  !
 ! R20   R(12,13)                1.3585         calculate D2E/DX2 analytically  !
 ! R21   R(12,23)                1.0763         calculate D2E/DX2 analytically  !
 ! R22   R(13,24)                1.0058         calculate D2E/DX2 analytically  !
 ! R23   R(14,15)                1.521          calculate D2E/DX2 analytically  !
 ! R24   R(14,25)                1.0929         calculate D2E/DX2 analytically  !
 ! R25   R(14,26)                1.0929         calculate D2E/DX2 analytically  !
 ! R26   R(15,16)                1.4653         calculate D2E/DX2 analytically  !
 ! R27   R(15,27)                1.0971         calculate D2E/DX2 analytically  !
 ! R28   R(15,28)                1.0919         calculate D2E/DX2 analytically  !
 ! R29   R(16,29)                1.0137         calculate D2E/DX2 analytically  !
 ! R30   R(16,30)                1.013          calculate D2E/DX2 analytically  !
 ! A1    A(1,2,3)              122.4707         calculate D2E/DX2 analytically  !
 ! A2    A(1,2,14)             122.7738         calculate D2E/DX2 analytically  !
 ! A3    A(3,2,14)             114.6511         calculate D2E/DX2 analytically  !
 ! A4    A(2,3,4)              121.4169         calculate D2E/DX2 analytically  !
 ! A5    A(2,3,17)             117.6301         calculate D2E/DX2 analytically  !
 ! A6    A(4,3,17)             115.3752         calculate D2E/DX2 analytically  !
 ! A7    A(3,4,5)              109.2586         calculate D2E/DX2 analytically  !
 ! A8    A(3,4,8)              112.7937         calculate D2E/DX2 analytically  !
 ! A9    A(3,4,18)             107.659          calculate D2E/DX2 analytically  !
 ! A10   A(5,4,8)              108.7149         calculate D2E/DX2 analytically  !
 ! A11   A(5,4,18)             109.2572         calculate D2E/DX2 analytically  !
 ! A12   A(8,4,18)             109.1064         calculate D2E/DX2 analytically  !
 ! A13   A(4,5,6)              111.4804         calculate D2E/DX2 analytically  !
 ! A14   A(4,5,7)              125.3192         calculate D2E/DX2 analytically  !
 ! A15   A(6,5,7)              123.1704         calculate D2E/DX2 analytically  !
 ! A16   A(5,6,19)             105.9801         calculate D2E/DX2 analytically  !
 ! A17   A(4,8,9)              112.7792         calculate D2E/DX2 analytically  !
 ! A18   A(4,8,20)             108.5143         calculate D2E/DX2 analytically  !
 ! A19   A(4,8,21)             109.8992         calculate D2E/DX2 analytically  !
 ! A20   A(9,8,20)             109.065          calculate D2E/DX2 analytically  !
 ! A21   A(9,8,21)             109.8033         calculate D2E/DX2 analytically  !
 ! A22   A(20,8,21)            106.5766         calculate D2E/DX2 analytically  !
 ! A23   A(8,9,10)             133.1654         calculate D2E/DX2 analytically  !
 ! A24   A(8,9,13)             122.2672         calculate D2E/DX2 analytically  !
 ! A25   A(10,9,13)            104.5614         calculate D2E/DX2 analytically  !
 ! A26   A(9,10,11)            111.0225         calculate D2E/DX2 analytically  !
 ! A27   A(9,10,22)            126.2145         calculate D2E/DX2 analytically  !
 ! A28   A(11,10,22)           122.7606         calculate D2E/DX2 analytically  !
 ! A29   A(10,11,12)           105.0368         calculate D2E/DX2 analytically  !
 ! A30   A(11,12,13)           111.6547         calculate D2E/DX2 analytically  !
 ! A31   A(11,12,23)           126.0151         calculate D2E/DX2 analytically  !
 ! A32   A(13,12,23)           122.3301         calculate D2E/DX2 analytically  !
 ! A33   A(9,13,12)            107.7245         calculate D2E/DX2 analytically  !
 ! A34   A(9,13,24)            125.7077         calculate D2E/DX2 analytically  !
 ! A35   A(12,13,24)           126.5676         calculate D2E/DX2 analytically  !
 ! A36   A(2,14,15)            112.635          calculate D2E/DX2 analytically  !
 ! A37   A(2,14,25)            109.7065         calculate D2E/DX2 analytically  !
 ! A38   A(2,14,26)            108.2383         calculate D2E/DX2 analytically  !
 ! A39   A(15,14,25)           110.3638         calculate D2E/DX2 analytically  !
 ! A40   A(15,14,26)           108.8048         calculate D2E/DX2 analytically  !
 ! A41   A(25,14,26)           106.9003         calculate D2E/DX2 analytically  !
 ! A42   A(14,15,16)           109.1295         calculate D2E/DX2 analytically  !
 ! A43   A(14,15,27)           109.2413         calculate D2E/DX2 analytically  !
 ! A44   A(14,15,28)           108.6012         calculate D2E/DX2 analytically  !
 ! A45   A(16,15,27)           113.7074         calculate D2E/DX2 analytically  !
 ! A46   A(16,15,28)           108.9045         calculate D2E/DX2 analytically  !
 ! A47   A(27,15,28)           107.1327         calculate D2E/DX2 analytically  !
 ! A48   A(15,16,29)           109.8205         calculate D2E/DX2 analytically  !
 ! A49   A(15,16,30)           109.9805         calculate D2E/DX2 analytically  !
 ! A50   A(29,16,30)           105.8294         calculate D2E/DX2 analytically  !
 ! D1    D(1,2,3,4)            -14.8681         calculate D2E/DX2 analytically  !
 ! D2    D(1,2,3,17)          -167.3086         calculate D2E/DX2 analytically  !
 ! D3    D(14,2,3,4)           168.753          calculate D2E/DX2 analytically  !
 ! D4    D(14,2,3,17)           16.3125         calculate D2E/DX2 analytically  !
 ! D5    D(1,2,14,15)           27.4052         calculate D2E/DX2 analytically  !
 ! D6    D(1,2,14,25)          150.7604         calculate D2E/DX2 analytically  !
 ! D7    D(1,2,14,26)          -92.9343         calculate D2E/DX2 analytically  !
 ! D8    D(3,2,14,15)         -156.2282         calculate D2E/DX2 analytically  !
 ! D9    D(3,2,14,25)          -32.8731         calculate D2E/DX2 analytically  !
 ! D10   D(3,2,14,26)           83.4323         calculate D2E/DX2 analytically  !
 ! D11   D(2,3,4,5)           -109.934          calculate D2E/DX2 analytically  !
 ! D12   D(2,3,4,8)            129.0356         calculate D2E/DX2 analytically  !
 ! D13   D(2,3,4,18)             8.6119         calculate D2E/DX2 analytically  !
 ! D14   D(17,3,4,5)            43.0861         calculate D2E/DX2 analytically  !
 ! D15   D(17,3,4,8)           -77.9442         calculate D2E/DX2 analytically  !
 ! D16   D(17,3,4,18)          161.6321         calculate D2E/DX2 analytically  !
 ! D17   D(3,4,5,6)            164.7753         calculate D2E/DX2 analytically  !
 ! D18   D(3,4,5,7)            -17.1721         calculate D2E/DX2 analytically  !
 ! D19   D(8,4,5,6)            -71.7445         calculate D2E/DX2 analytically  !
 ! D20   D(8,4,5,7)            106.3081         calculate D2E/DX2 analytically  !
 ! D21   D(18,4,5,6)            47.2307         calculate D2E/DX2 analytically  !
 ! D22   D(18,4,5,7)          -134.7167         calculate D2E/DX2 analytically  !
 ! D23   D(3,4,8,9)            -65.9015         calculate D2E/DX2 analytically  !
 ! D24   D(3,4,8,20)           173.1523         calculate D2E/DX2 analytically  !
 ! D25   D(3,4,8,21)            56.9725         calculate D2E/DX2 analytically  !
 ! D26   D(5,4,8,9)            172.7591         calculate D2E/DX2 analytically  !
 ! D27   D(5,4,8,20)            51.8129         calculate D2E/DX2 analytically  !
 ! D28   D(5,4,8,21)           -64.3669         calculate D2E/DX2 analytically  !
 ! D29   D(18,4,8,9)            53.6893         calculate D2E/DX2 analytically  !
 ! D30   D(18,4,8,20)          -67.2569         calculate D2E/DX2 analytically  !
 ! D31   D(18,4,8,21)          176.5633         calculate D2E/DX2 analytically  !
 ! D32   D(4,5,6,19)           178.4285         calculate D2E/DX2 analytically  !
 ! D33   D(7,5,6,19)             0.3268         calculate D2E/DX2 analytically  !
 ! D34   D(4,8,9,10)            -3.9207         calculate D2E/DX2 analytically  !
 ! D35   D(4,8,9,13)           177.1137         calculate D2E/DX2 analytically  !
 ! D36   D(20,8,9,10)          116.711          calculate D2E/DX2 analytically  !
 ! D37   D(20,8,9,13)          -62.2546         calculate D2E/DX2 analytically  !
 ! D38   D(21,8,9,10)         -126.8482         calculate D2E/DX2 analytically  !
 ! D39   D(21,8,9,13)           54.1862         calculate D2E/DX2 analytically  !
 ! D40   D(8,9,10,11)         -179.1307         calculate D2E/DX2 analytically  !
 ! D41   D(8,9,10,22)            1.423          calculate D2E/DX2 analytically  !
 ! D42   D(13,9,10,11)          -0.0344         calculate D2E/DX2 analytically  !
 ! D43   D(13,9,10,22)        -179.4807         calculate D2E/DX2 analytically  !
 ! D44   D(8,9,13,12)          179.2645         calculate D2E/DX2 analytically  !
 ! D45   D(8,9,13,24)           -0.5735         calculate D2E/DX2 analytically  !
 ! D46   D(10,9,13,12)           0.044          calculate D2E/DX2 analytically  !
 ! D47   D(10,9,13,24)        -179.794          calculate D2E/DX2 analytically  !
 ! D48   D(9,10,11,12)           0.0111         calculate D2E/DX2 analytically  !
 ! D49   D(22,10,11,12)        179.4798         calculate D2E/DX2 analytically  !
 ! D50   D(10,11,12,13)          0.0182         calculate D2E/DX2 analytically  !
 ! D51   D(10,11,12,23)        179.9527         calculate D2E/DX2 analytically  !
 ! D52   D(11,12,13,9)          -0.0403         calculate D2E/DX2 analytically  !
 ! D53   D(11,12,13,24)        179.7959         calculate D2E/DX2 analytically  !
 ! D54   D(23,12,13,9)        -179.9776         calculate D2E/DX2 analytically  !
 ! D55   D(23,12,13,24)         -0.1414         calculate D2E/DX2 analytically  !
 ! D56   D(2,14,15,16)        -179.0201         calculate D2E/DX2 analytically  !
 ! D57   D(2,14,15,27)          56.1032         calculate D2E/DX2 analytically  !
 ! D58   D(2,14,15,28)         -60.4282         calculate D2E/DX2 analytically  !
 ! D59   D(25,14,15,16)         57.9915         calculate D2E/DX2 analytically  !
 ! D60   D(25,14,15,27)        -66.8853         calculate D2E/DX2 analytically  !
 ! D61   D(25,14,15,28)        176.5834         calculate D2E/DX2 analytically  !
 ! D62   D(26,14,15,16)        -59.007          calculate D2E/DX2 analytically  !
 ! D63   D(26,14,15,27)        176.1163         calculate D2E/DX2 analytically  !
 ! D64   D(26,14,15,28)         59.5849         calculate D2E/DX2 analytically  !
 ! D65   D(14,15,16,29)        -70.2728         calculate D2E/DX2 analytically  !
 ! D66   D(14,15,16,30)        173.651          calculate D2E/DX2 analytically  !
 ! D67   D(27,15,16,29)         51.9538         calculate D2E/DX2 analytically  !
 ! D68   D(27,15,16,30)        -64.1224         calculate D2E/DX2 analytically  !
 ! D69   D(28,15,16,29)        171.325          calculate D2E/DX2 analytically  !
 ! D70   D(28,15,16,30)         55.2488         calculate D2E/DX2 analytically  !
 --------------------------------------------------------------------------------
 Trust Radius=3.00D-01 FncErr=1.00D-07 GrdErr=1.00D-06
 Number of steps in this run=    160 maximum allowed number of steps=    180.
 GradGradGradGradGradGradGradGradGradGradGradGradGradGradGradGradGradGrad

                          Input orientation:                          
 ---------------------------------------------------------------------
 Center     Atomic      Atomic             Coordinates (Angstroms)
 Number     Number       Type             X           Y           Z
 ---------------------------------------------------------------------
      1          8           0        0.785871    0.735223    1.529867
      2          6           0        1.139240    0.162661    0.504155
      3          7           0        0.303118   -0.647601   -0.207881
      4          6           0       -0.935956   -1.134511    0.356493
      5          6           0       -0.817066   -2.623497    0.613794
      6          8           0       -1.796797   -3.063489    1.429557
      7          8           0        0.014438   -3.348268    0.133141
      8          6           0       -2.144474   -0.887478   -0.558942
      9          6           0       -2.452097    0.570279   -0.734056
     10          6           0       -1.922975    1.707460   -0.195764
     11          7           0       -2.575751    2.830835   -0.669422
     12          6           0       -3.491909    2.372307   -1.487278
     13          7           0       -3.462438    1.016238   -1.563554
     14          6           0        2.506147    0.365153   -0.119418
     15          6           0        3.563763    0.754017    0.902119
     16          7           0        4.843498    0.952401    0.216596
     17          1           0        0.712914   -1.232417   -0.920148
     18          1           0       -1.093734   -0.617860    1.302577
     19          1           0       -1.661238   -4.014865    1.518489
     20          1           0       -3.014626   -1.386288   -0.126735
     21          1           0       -1.973031   -1.348886   -1.533202
     22          1           0       -1.099736    1.760297    0.501259
     23          1           0       -4.196751    2.964992   -2.044427
     24          1           0       -4.065659    0.434098   -2.119228
     25          1           0        2.806372   -0.541031   -0.651533
     26          1           0        2.427514    1.160219   -0.865199
     27          1           0        3.599871   -0.006139    1.692423
     28          1           0        3.265084    1.693065    1.372450
     29          1           0        5.204337    0.060503   -0.102565
     30          1           0        5.532093    1.312491    0.866431
 ---------------------------------------------------------------------
                    Distance matrix (angstroms):
                    1          2          3          4          5
     1  O    0.000000
     2  C    1.226696   0.000000
     3  N    2.272667   1.364778   0.000000
     4  C    2.799535   2.451713   1.445995   0.000000
     5  C    3.832700   3.406146   2.415394   1.515724   0.000000
     6  O    4.594611   4.459230   3.595464   2.369277   1.348679
     7  O    4.384158   3.705327   2.737377   2.419474   1.203212
     8  C    3.947557   3.607734   2.484248   1.536086   2.480138
     9  C    3.954364   3.820605   3.057990   2.528693   3.832784
    10  C    3.355726   3.500493   3.240671   3.058757   4.542643
    11  N    4.530890   4.722033   4.538768   4.411961   5.872764
    12  C    5.484762   5.504170   5.015868   4.714887   6.043786
    13  N    5.262733   5.116587   4.334238   3.833460   4.998651
    14  C    2.411730   1.516008   2.426280   3.784648   4.529169
    15  C    2.848000   2.527131   3.718661   4.910368   5.539169
    16  N    4.270384   3.798408   4.832725   6.146288   6.707219
    17  H    3.143167   2.038782   1.008597   2.087623   2.574669
    18  H    2.327103   2.496571   2.057562   1.089449   2.138585
    19  H    5.343389   5.130621   4.263510   3.189468   1.861989
    20  H    4.657136   4.477931   3.399951   2.148900   2.628372
    21  H    4.619246   4.015199   2.725643   2.166201   2.751450
    22  H    2.379984   2.750539   2.875560   2.903049   4.394339
    23  H    6.524873   6.543786   6.055786   5.762215   7.051214
    24  H    6.078150   5.834962   4.889737   4.287746   5.231792
    25  H    3.235700   2.147120   2.544497   3.920887   4.366580
    26  H    2.934613   2.128356   2.865892   4.251029   5.199156
    27  H    2.914556   2.737732   3.858913   4.861240   5.246268
    28  H    2.662468   2.759580   4.092604   5.164890   5.989341
    29  H    4.758458   4.111393   4.953227   6.272319   6.631313
    30  H    4.827008   4.555273   5.686677   6.934228   7.474466
                    6          7          8          9         10
     6  O    0.000000
     7  O    2.245521   0.000000
     8  C    2.968170   3.345947   0.000000
     9  C    4.279593   4.710715   1.500118   0.000000
    10  C    5.041780   5.424217   2.629575   1.364884   0.000000
    11  N    6.305200   6.747925   3.744872   2.264858   1.382910
    12  C    6.397595   6.902551   3.647409   2.212658   2.138126
    13  N    5.327030   5.832354   2.523967   1.381208   2.172230
    14  C    5.715789   4.479050   4.836377   5.000405   4.628687
    15  C    6.602057   5.478848   6.116631   6.237099   5.676152
    16  N    7.854436   6.467034   7.267624   7.367188   6.820946
    17  H    3.895201   2.464571   2.900710   3.647141   4.014414
    18  H    2.547847   3.170292   2.154531   2.721158   2.887868
    19  H    0.965091   2.274078   3.785470   5.169426   5.979312
    20  H    2.591941   3.618305   1.092144   2.124484   3.281424
    21  H    3.427661   3.274791   1.091546   2.133386   3.336540
    22  H    4.961506   5.241595   3.037469   2.184268   1.079979
    23  H    7.360091   7.895135   4.610861   3.239682   3.188887
    24  H    5.474918   6.002220   2.805709   2.130922   3.148374
    25  H    5.646494   4.036234   4.963817   5.375251   5.256440
    26  H    6.399252   5.210189   5.018957   4.916892   4.435580
    27  H    6.208101   5.143589   6.232407   6.545714   6.083050
    28  H    6.946273   6.125163   6.297047   6.195496   5.419913
    29  H    7.818095   6.213721   7.423744   7.699327   7.315718
    30  H    8.554469   7.259814   8.111796   8.176780   7.540710
                   11         12         13         14         15
    11  N    0.000000
    12  C    1.310909   0.000000
    13  N    2.208721   1.358532   0.000000
    14  C    5.675190   6.471197   6.175229   0.000000
    15  C    6.669074   7.623031   7.450893   1.520955   0.000000
    16  N    7.704465   8.625447   8.494797   2.433305   1.465270
    17  H    5.233373   5.567424   4.785811   2.531617   3.923508
    18  H    4.240125   4.740848   4.061496   3.993436   4.871826
    19  H    7.244784   7.292596   6.168898   6.263737   7.100900
    20  H    4.274488   4.025657   2.834980   5.791937   6.993901
    21  H    4.310390   4.019500   2.795187   4.999975   6.403833
    22  H    2.166833   3.170383   3.224816   3.915873   4.787642
    23  H    2.129854   1.076333   2.137311   7.442692   8.590467
    24  H    3.172714   2.117830   1.005751   6.869689   8.212123
    25  H    6.351145   6.989589   6.523408   1.092909   2.159774
    26  H    5.278441   6.074184   5.932956   1.092933   2.139971
    27  H    7.194792   8.127783   7.843650   2.148687   1.097142
    28  H    6.291193   7.368607   7.371416   2.136588   1.091894
    29  H    8.278033   9.104206   8.840866   2.715386   2.044953
    30  H    8.390551   9.385935   9.321706   3.320497   2.046336
                   16         17         18         19         20
    16  N    0.000000
    17  H    4.809089   0.000000
    18  H    6.236649   2.929533   0.000000
    19  H    8.287354   4.396085   3.450843   0.000000
    20  H    8.205940   3.814149   2.514606   3.383465   0.000000
    21  H    7.404240   2.757480   3.057647   4.064169   1.750562
    22  H    6.004644   3.776563   2.509537   5.890886   3.736600
    23  H    9.533564   6.556451   5.802412   8.236601   4.899857
    24  H    9.224846   5.200944   4.652709   6.229566   2.896291
    25  H    2.670930   2.220976   4.362944   6.061028   5.905412
    26  H    2.655268   2.944075   4.501111   7.012942   6.053669
    27  H    2.154871   4.082132   4.749327   6.616601   6.997551
    28  H    2.091883   4.508660   4.934019   7.541249   7.152952
    29  H    1.013682   4.744783   6.488474   8.146936   8.345367
    30  H    1.012973   5.735234   6.915061   8.974961   9.017550
                   21         22         23         24         25
    21  H    0.000000
    22  H    3.816896   0.000000
    23  H    4.880147   4.186085   0.000000
    24  H    2.810970   4.174021   2.535391   0.000000
    25  H    4.926729   4.677897   7.954626   7.094350   0.000000
    26  H    5.109465   3.829985   6.966252   6.652904   1.755972
    27  H    6.577603   5.159988   9.142154   8.572213   2.531774
    28  H    6.718193   4.451420   8.304928   8.216848   3.049280
    29  H    7.453034   6.557075  10.029324   9.494173   2.532478
    30  H    8.316733   6.656954  10.288550  10.089726   3.628955
                   26         27         28         29         30
    26  H    0.000000
    27  H    3.045692   0.000000
    28  H    2.447963   1.761181   0.000000
    29  H    3.082488   2.408471   2.932854   0.000000
    30  H    3.558110   2.480832   2.353768   1.616741   0.000000
 Symmetry turned off by external request.
 Stoichiometry    C9H14N4O3
 Framework group  C1[X(C9H14N4O3)]
 Deg. of freedom    84
 Full point group                 C1      NOp   1
 Rotational constants (GHZ):      0.5777314      0.3337382      0.2304002
 Standard basis: 6-311++G(d,p) (5D, 7F)
   450 basis functions,   702 primitive gaussians,   466 cartesian basis functions
    60 alpha electrons       60 beta electrons
       nuclear repulsion energy      1109.2545423011 Hartrees.
 NAtoms=   30 NActive=   30 NUniq=   30 SFac= 1.00D+00 NAtFMM=   60 NAOKFM=F Big=F
 Integral buffers will be    131072 words long.
 Raffenetti 2 integral format.
 Two-electron integral symmetry is turned off.
 One-electron integrals computed using PRISM.
 NBasis=   450 RedAO= T EigKep=  3.36D-06  NBF=   450
 NBsUse=   449 1.00D-06 EigRej=  9.69D-07 NBFU=   449
 ExpMin= 3.60D-02 ExpMax= 8.59D+03 ExpMxC= 1.30D+03 IAcc=3 IRadAn=         5 AccDes= 0.00D+00
 Harris functional with IExCor=  402 and IRadAn=       5 diagonalized for initial guess.
 HarFok:  IExCor=  402 AccDes= 0.00D+00 IRadAn=         5 IDoV= 1 UseB2=F ITyADJ=14
 ICtDFT=  3500011 ScaDFX=  1.000000  1.000000  1.000000  1.000000
 FoFCou: FMM=F IPFlag=           0 FMFlag=      100000 FMFlg1=           0
         NFxFlg=           0 DoJE=T BraDBF=F KetDBF=T FulRan=T
         wScrn=  0.000000 ICntrl=     500 IOpCl=  0 I1Cent=   200000004 NGrid=           0
         NMat0=    1 NMatS0=      1 NMatT0=    0 NMatD0=    1 NMtDS0=    0 NMtDT0=    0
 Symmetry not used in FoFCou.
 Requested convergence on RMS density matrix=1.00D-08 within 128 cycles.
 Requested convergence on MAX density matrix=1.00D-06.
 Requested convergence on             energy=1.00D-06.
 No special actions if energy rises.
 SCF Done:  E(RB3LYP) =  -796.327583244     A.U. after   15 cycles
            NFock= 15  Conv=0.52D-08     -V/T= 2.0036
 DoSCS=F DFT=T ScalE2(SS,OS)=  1.000000  1.000000
 Range of M.O.s used for correlation:     1   449
 NBasis=   450 NAE=    60 NBE=    60 NFC=     0 NFV=     0
 NROrb=    449 NOA=    60 NOB=    60 NVA=   389 NVB=   389

 **** Warning!!: The largest alpha MO coefficient is  0.11606146D+03

 Symmetrizing basis deriv contribution to polar:
 IMax=3 JMax=2 DiffMx= 0.00D+00
 G2DrvN: will do    31 centers at a time, making    1 passes.
 Calling FoFCou, ICntrl=  3107 FMM=F I1Cent=   0 AccDes= 0.00D+00.
 End of G2Drv F.D. properties file   721 does not exist.
 End of G2Drv F.D. properties file   722 does not exist.
 End of G2Drv F.D. properties file   788 does not exist.
          IDoAtm=111111111111111111111111111111
          Differentiating once with respect to nuclear coordinates.
          There are    93 degrees of freedom in the 1st order CPHF.  IDoFFX=6 NUNeed=     0.
     87 vectors produced by pass  0 Test12= 2.51D-14 1.08D-09 XBig12= 2.10D-01 8.97D-02.
 AX will form    87 AO Fock derivatives at one time.
     87 vectors produced by pass  1 Test12= 2.51D-14 1.08D-09 XBig12= 1.30D-02 2.56D-02.
     87 vectors produced by pass  2 Test12= 2.51D-14 1.08D-09 XBig12= 1.95D-04 2.35D-03.
     87 vectors produced by pass  3 Test12= 2.51D-14 1.08D-09 XBig12= 7.39D-07 9.61D-05.
     87 vectors produced by pass  4 Test12= 2.51D-14 1.08D-09 XBig12= 1.78D-09 4.66D-06.
     84 vectors produced by pass  5 Test12= 2.51D-14 1.08D-09 XBig12= 2.48D-12 1.77D-07.
     33 vectors produced by pass  6 Test12= 2.51D-14 1.08D-09 XBig12= 3.61D-15 5.81D-09.
      3 vectors produced by pass  7 Test12= 2.51D-14 1.08D-09 XBig12= 2.32D-16 1.73D-09.
      3 vectors produced by pass  8 Test12= 2.51D-14 1.08D-09 XBig12= 2.79D-16 2.80D-09.
      3 vectors produced by pass  9 Test12= 2.51D-14 1.08D-09 XBig12= 2.53D-15 4.53D-09.
      3 vectors produced by pass 10 Test12= 2.51D-14 1.08D-09 XBig12= 5.58D-16 2.86D-09.
      3 vectors produced by pass 11 Test12= 2.51D-14 1.08D-09 XBig12= 2.16D-15 4.96D-09.
      3 vectors produced by pass 12 Test12= 2.51D-14 1.08D-09 XBig12= 2.43D-15 4.29D-09.
      3 vectors produced by pass 13 Test12= 2.51D-14 1.08D-09 XBig12= 9.01D-15 7.87D-09.
      3 vectors produced by pass 14 Test12= 2.51D-14 1.08D-09 XBig12= 1.64D-15 3.90D-09.
      3 vectors produced by pass 15 Test12= 2.51D-14 1.08D-09 XBig12= 2.00D-15 3.83D-09.
      3 vectors produced by pass 16 Test12= 2.51D-14 1.08D-09 XBig12= 7.41D-16 2.18D-09.
      3 vectors produced by pass 17 Test12= 2.51D-14 1.08D-09 XBig12= 7.18D-15 6.89D-09.
      3 vectors produced by pass 18 Test12= 2.51D-14 1.08D-09 XBig12= 6.51D-16 1.94D-09.
      3 vectors produced by pass 19 Test12= 2.51D-14 1.08D-09 XBig12= 2.99D-15 4.42D-09.
      2 vectors produced by pass 20 Test12= 2.51D-14 1.08D-09 XBig12= 2.00D-15 3.99D-09.
 InvSVY:  IOpt=1 It=  1 EMax= 7.22D-16
 Solved reduced A of dimension   593 with    93 vectors.
 End of Minotr F.D. properties file   721 does not exist.
 End of Minotr F.D. properties file   722 does not exist.
 End of Minotr F.D. properties file   788 does not exist.

 **********************************************************************

            Population analysis using the SCF density.

 **********************************************************************

 Alpha  occ. eigenvalues --  -19.20128 -19.14734 -19.09971 -14.37315 -14.35255
 Alpha  occ. eigenvalues --  -14.29827 -14.29219 -10.33463 -10.28415 -10.24832
 Alpha  occ. eigenvalues --  -10.22480 -10.21139 -10.20946 -10.19633 -10.18298
 Alpha  occ. eigenvalues --  -10.17668  -1.14700  -1.05888  -1.05161  -1.02326
 Alpha  occ. eigenvalues --   -0.94986  -0.89178  -0.87619  -0.82587  -0.77139
 Alpha  occ. eigenvalues --   -0.75011  -0.69417  -0.65894  -0.62229  -0.61727
 Alpha  occ. eigenvalues --   -0.60378  -0.59079  -0.55655  -0.53371  -0.52521
 Alpha  occ. eigenvalues --   -0.51211  -0.49628  -0.49447  -0.48865  -0.46352
 Alpha  occ. eigenvalues --   -0.45937  -0.44983  -0.44386  -0.43229  -0.42650
 Alpha  occ. eigenvalues --   -0.41790  -0.41081  -0.40559  -0.39595  -0.39077
 Alpha  occ. eigenvalues --   -0.36634  -0.35894  -0.35401  -0.31742  -0.28716
 Alpha  occ. eigenvalues --   -0.28322  -0.27252  -0.26896  -0.25044  -0.23205
 Alpha virt. eigenvalues --   -0.03073  -0.02600  -0.01598  -0.01103  -0.00225
 Alpha virt. eigenvalues --    0.00138   0.01084   0.01300   0.02119   0.02428
 Alpha virt. eigenvalues --    0.02496   0.03307   0.04073   0.04507   0.05173
 Alpha virt. eigenvalues --    0.05553   0.06088   0.06178   0.06905   0.07239
 Alpha virt. eigenvalues --    0.07726   0.08101   0.08335   0.08992   0.09540
 Alpha virt. eigenvalues --    0.09913   0.10270   0.10691   0.10744   0.11375
 Alpha virt. eigenvalues --    0.11475   0.12045   0.12284   0.13040   0.13388
 Alpha virt. eigenvalues --    0.13423   0.14050   0.14541   0.14783   0.15000
 Alpha virt. eigenvalues --    0.15145   0.15598   0.15937   0.16575   0.16830
 Alpha virt. eigenvalues --    0.16961   0.17214   0.17691   0.17952   0.18325
 Alpha virt. eigenvalues --    0.18618   0.18959   0.19116   0.19493   0.19999
 Alpha virt. eigenvalues --    0.20528   0.20907   0.21163   0.21270   0.21800
 Alpha virt. eigenvalues --    0.22135   0.22321   0.22362   0.23482   0.23716
 Alpha virt. eigenvalues --    0.24584   0.24685   0.24946   0.25569   0.25800
 Alpha virt. eigenvalues --    0.26363   0.26619   0.27324   0.27864   0.28125
 Alpha virt. eigenvalues --    0.28398   0.28439   0.28734   0.29498   0.30250
 Alpha virt. eigenvalues --    0.30543   0.31076   0.31576   0.31715   0.32034
 Alpha virt. eigenvalues --    0.32395   0.32895   0.33326   0.34039   0.34367
 Alpha virt. eigenvalues --    0.34988   0.35464   0.35733   0.36000   0.36580
 Alpha virt. eigenvalues --    0.37198   0.37468   0.38100   0.38660   0.39884
 Alpha virt. eigenvalues --    0.40055   0.41216   0.42164   0.43299   0.43479
 Alpha virt. eigenvalues --    0.44835   0.46755   0.47736   0.47893   0.48638
 Alpha virt. eigenvalues --    0.49318   0.50771   0.51677   0.53732   0.54184
 Alpha virt. eigenvalues --    0.54569   0.56405   0.56792   0.58259   0.58370
 Alpha virt. eigenvalues --    0.59167   0.60374   0.61562   0.62132   0.62698
 Alpha virt. eigenvalues --    0.63999   0.64581   0.65552   0.66162   0.66605
 Alpha virt. eigenvalues --    0.68136   0.68649   0.68893   0.69790   0.70604
 Alpha virt. eigenvalues --    0.70850   0.71896   0.71931   0.72250   0.73318
 Alpha virt. eigenvalues --    0.73775   0.74693   0.75549   0.76094   0.76608
 Alpha virt. eigenvalues --    0.77385   0.78089   0.80802   0.81222   0.83342
 Alpha virt. eigenvalues --    0.83982   0.84333   0.85487   0.86707   0.87741
 Alpha virt. eigenvalues --    0.89214   0.89826   0.91385   0.92550   0.93020
 Alpha virt. eigenvalues --    0.94333   0.95064   0.95213   0.96010   0.96834
 Alpha virt. eigenvalues --    0.99907   1.01172   1.02514   1.04004   1.05268
 Alpha virt. eigenvalues --    1.06436   1.06630   1.07226   1.08995   1.10809
 Alpha virt. eigenvalues --    1.12433   1.13756   1.15855   1.16143   1.17732
 Alpha virt. eigenvalues --    1.18416   1.19889   1.21257   1.22127   1.23152
 Alpha virt. eigenvalues --    1.23239   1.24876   1.26591   1.27316   1.28049
 Alpha virt. eigenvalues --    1.29632   1.30422   1.31212   1.33276   1.35571
 Alpha virt. eigenvalues --    1.37460   1.38863   1.39773   1.39824   1.41889
 Alpha virt. eigenvalues --    1.42449   1.45984   1.46820   1.48129   1.49143
 Alpha virt. eigenvalues --    1.51874   1.52386   1.55509   1.55908   1.58200
 Alpha virt. eigenvalues --    1.58827   1.59394   1.59924   1.61704   1.63139
 Alpha virt. eigenvalues --    1.63889   1.64297   1.65213   1.66749   1.67465
 Alpha virt. eigenvalues --    1.67864   1.68077   1.68588   1.70215   1.71645
 Alpha virt. eigenvalues --    1.72431   1.73788   1.74988   1.76106   1.77717
 Alpha virt. eigenvalues --    1.79317   1.80966   1.82365   1.82940   1.83347
 Alpha virt. eigenvalues --    1.84769   1.85780   1.87078   1.89577   1.91684
 Alpha virt. eigenvalues --    1.92415   1.94135   1.95161   1.96769   1.99649
 Alpha virt. eigenvalues --    2.00659   2.02181   2.03293   2.05688   2.07817
 Alpha virt. eigenvalues --    2.08424   2.10819   2.11530   2.12393   2.15062
 Alpha virt. eigenvalues --    2.15233   2.17406   2.19580   2.23612   2.24418
 Alpha virt. eigenvalues --    2.24796   2.25807   2.28112   2.29049   2.32089
 Alpha virt. eigenvalues --    2.33758   2.36910   2.40052   2.42562   2.46088
 Alpha virt. eigenvalues --    2.46946   2.48066   2.48901   2.52426   2.53091
 Alpha virt. eigenvalues --    2.54062   2.54913   2.55689   2.57119   2.59865
 Alpha virt. eigenvalues --    2.61612   2.62293   2.62380   2.64160   2.65767
 Alpha virt. eigenvalues --    2.66951   2.67976   2.69162   2.71806   2.72799
 Alpha virt. eigenvalues --    2.74470   2.75188   2.77567   2.79188   2.80106
 Alpha virt. eigenvalues --    2.80390   2.81896   2.82087   2.83464   2.85552
 Alpha virt. eigenvalues --    2.86134   2.87559   2.89299   2.90164   2.90961
 Alpha virt. eigenvalues --    2.91509   2.93435   2.94645   2.95769   2.96362
 Alpha virt. eigenvalues --    2.96874   2.98116   2.99938   3.00592   3.02267
 Alpha virt. eigenvalues --    3.03761   3.05994   3.07642   3.09714   3.13421
 Alpha virt. eigenvalues --    3.15181   3.15881   3.18127   3.21253   3.25243
 Alpha virt. eigenvalues --    3.30571   3.31828   3.36195   3.37187   3.43294
 Alpha virt. eigenvalues --    3.44371   3.52079   3.53989   3.57290   3.59127
 Alpha virt. eigenvalues --    3.63330   3.65609   3.69304   3.70612   3.73220
 Alpha virt. eigenvalues --    3.76444   3.79881   3.83189   3.83504   3.87585
 Alpha virt. eigenvalues --    3.88186   3.93215   3.96043   3.99195   4.06260
 Alpha virt. eigenvalues --    4.08723   4.09882   4.15125   4.21112   4.31882
 Alpha virt. eigenvalues --    4.34907   4.52765   4.72888   4.79237   4.82794
 Alpha virt. eigenvalues --    4.86092   4.94247   4.96094   4.98429   5.05574
 Alpha virt. eigenvalues --    5.13407   5.17953   5.28224   5.30146   5.41178
 Alpha virt. eigenvalues --    5.60170   5.80727   5.84134  23.77486  23.80089
 Alpha virt. eigenvalues --   23.83296  23.86246  23.88274  23.91756  23.92952
 Alpha virt. eigenvalues --   23.96605  24.15748  35.56116  35.60187  35.61796
 Alpha virt. eigenvalues --   35.71015  49.86337  49.99374  50.03333
          Condensed to atoms (all electrons):
               1          2          3          4          5          6
     1  O    7.998844   0.449676  -0.172296  -0.094241   0.010000   0.000090
     2  C    0.449676   9.161612  -0.221397  -0.996800   0.048448   0.015187
     3  N   -0.172296  -0.221397   8.044826  -1.015802   0.240258   0.026650
     4  C   -0.094241  -0.996800  -1.015802  15.143012  -3.603636  -0.077000
     5  C    0.010000   0.048448   0.240258  -3.603636   8.740350   0.128915
     6  O    0.000090   0.015187   0.026650  -0.077000   0.128915   7.993728
     7  O    0.002309   0.048509   0.037430  -0.097069   0.495787  -0.136755
     8  C   -0.014541  -0.066792   0.203927  -0.496506  -0.454321  -0.082348
     9  C   -0.018433   0.271736   0.004255  -1.670173   0.788510   0.026677
    10  C   -0.025911  -0.339284   0.426556  -1.266717  -0.184173   0.002541
    11  N    0.002379   0.032183  -0.012349   0.003144   0.011107   0.000233
    12  C   -0.000426  -0.004624  -0.001783  -0.182960  -0.039255   0.000881
    13  N   -0.000023   0.005347  -0.000019   0.010437  -0.027829  -0.000869
    14  C    0.094052  -2.127860  -0.749960   0.257205  -0.126352   0.002518
    15  C   -0.000552   0.437034   0.000647  -0.041008  -0.021458  -0.000404
    16  N    0.002800  -0.058369  -0.007660   0.007948  -0.003823   0.000015
    17  H   -0.000319   0.011085   0.291861  -0.159720   0.042079   0.002213
    18  H    0.008989  -0.056421  -0.193511   0.667726  -0.016727  -0.012976
    19  H   -0.000021  -0.007105   0.002533  -0.179462   0.192733   0.212307
    20  H    0.001914   0.007935   0.067914  -0.270531  -0.054297   0.022037
    21  H   -0.001406   0.003273  -0.101391   0.389013  -0.071164  -0.005414
    22  H    0.044278   0.076606   0.011172  -0.174245   0.009417   0.000355
    23  H   -0.000034  -0.000692  -0.000737  -0.000630  -0.000516   0.000015
    24  H    0.000039  -0.000220   0.001938  -0.026770   0.001139   0.000107
    25  H    0.010156  -0.205617  -0.011622   0.114664  -0.023195  -0.000450
    26  H   -0.002514  -0.077261   0.013898   0.014529  -0.007186   0.000197
    27  H   -0.015651   0.029312  -0.003489  -0.004652   0.001703   0.000319
    28  H    0.000306  -0.033008  -0.001212  -0.002331   0.002289  -0.000040
    29  H   -0.000135  -0.008217  -0.002676  -0.004139   0.000546   0.000003
    30  H    0.000407   0.009215   0.000270   0.000795  -0.000519  -0.000001
               7          8          9         10         11         12
     1  O    0.002309  -0.014541  -0.018433  -0.025911   0.002379  -0.000426
     2  C    0.048509  -0.066792   0.271736  -0.339284   0.032183  -0.004624
     3  N    0.037430   0.203927   0.004255   0.426556  -0.012349  -0.001783
     4  C   -0.097069  -0.496506  -1.670173  -1.266717   0.003144  -0.182960
     5  C    0.495787  -0.454321   0.788510  -0.184173   0.011107  -0.039255
     6  O   -0.136755  -0.082348   0.026677   0.002541   0.000233   0.000881
     7  O    7.970380  -0.066651  -0.011538   0.002596  -0.000050  -0.000188
     8  C   -0.066651   6.450003   0.195951   0.065187  -0.029192   0.018363
     9  C   -0.011538   0.195951   8.739260  -1.872721   0.074913  -0.430492
    10  C    0.002596   0.065187  -1.872721   9.613370   0.426034  -0.238441
    11  N   -0.000050  -0.029192   0.074913   0.426034   6.524107   0.224401
    12  C   -0.000188   0.018363  -0.430492  -0.238441   0.224401   5.759942
    13  N    0.000395  -0.056892   0.071404  -0.054173   0.014773   0.164821
    14  C    0.013893  -0.137712  -0.002273  -0.262700  -0.002288  -0.012518
    15  C   -0.000054  -0.000350   0.011379  -0.014394   0.000578   0.000286
    16  N    0.000033  -0.001578   0.001134  -0.001793   0.000023  -0.000019
    17  H    0.011357   0.009243   0.037500   0.007506  -0.000717  -0.001919
    18  H   -0.013504  -0.083065   0.034511  -0.164596   0.002365   0.003562
    19  H   -0.011661  -0.003767   0.016038  -0.001962   0.000044  -0.000045
    20  H    0.009385   0.409416   0.026138   0.113749  -0.000260   0.004629
    21  H   -0.005796   0.344074  -0.200593  -0.102634   0.001646   0.014215
    22  H   -0.000785  -0.018675  -0.252418   0.616734  -0.081067   0.091915
    23  H   -0.000012   0.008625   0.050553  -0.034227  -0.075122   0.461423
    24  H    0.000018  -0.005549  -0.025716  -0.008733   0.008553   0.001001
    25  H   -0.005028  -0.017931  -0.006980  -0.012638   0.000054   0.000187
    26  H    0.001308  -0.000424   0.002614  -0.003697  -0.001053  -0.002311
    27  H    0.000524   0.001242   0.001460  -0.001387   0.000037   0.000107
    28  H   -0.000114  -0.000314   0.002570  -0.000331   0.000105  -0.000088
    29  H    0.000083   0.000189   0.000237  -0.000165   0.000006   0.000001
    30  H    0.000003  -0.000112   0.000199  -0.000317   0.000008  -0.000001
              13         14         15         16         17         18
     1  O   -0.000023   0.094052  -0.000552   0.002800  -0.000319   0.008989
     2  C    0.005347  -2.127860   0.437034  -0.058369   0.011085  -0.056421
     3  N   -0.000019  -0.749960   0.000647  -0.007660   0.291861  -0.193511
     4  C    0.010437   0.257205  -0.041008   0.007948  -0.159720   0.667726
     5  C   -0.027829  -0.126352  -0.021458  -0.003823   0.042079  -0.016727
     6  O   -0.000869   0.002518  -0.000404   0.000015   0.002213  -0.012976
     7  O    0.000395   0.013893  -0.000054   0.000033   0.011357  -0.013504
     8  C   -0.056892  -0.137712  -0.000350  -0.001578   0.009243  -0.083065
     9  C    0.071404  -0.002273   0.011379   0.001134   0.037500   0.034511
    10  C   -0.054173  -0.262700  -0.014394  -0.001793   0.007506  -0.164596
    11  N    0.014773  -0.002288   0.000578   0.000023  -0.000717   0.002365
    12  C    0.164821  -0.012518   0.000286  -0.000019  -0.001919   0.003562
    13  N    6.797616  -0.001523   0.001135  -0.000005   0.001487   0.001722
    14  C   -0.001523   8.795982  -0.567518  -0.031412   0.052122   0.040671
    15  C    0.001135  -0.567518   6.035034   0.148764  -0.021155  -0.000505
    16  N   -0.000005  -0.031412   0.148764   6.627615  -0.004751   0.001290
    17  H    0.001487   0.052122  -0.021155  -0.004751   0.457287  -0.015343
    18  H    0.001722   0.040671  -0.000505   0.001290  -0.015343   0.501122
    19  H   -0.000385  -0.003335  -0.000009  -0.000007  -0.000294   0.008764
    20  H    0.000301   0.000556   0.000100   0.000000   0.006754  -0.041472
    21  H    0.003794   0.013091  -0.000044   0.000182  -0.019664   0.034150
    22  H    0.004117  -0.037378  -0.003055  -0.001505   0.002467  -0.026190
    23  H   -0.122845  -0.000093  -0.000053  -0.000001  -0.000172   0.000787
    24  H    0.352685  -0.000829   0.000095  -0.000001   0.000929  -0.001087
    25  H   -0.000332   0.427258   0.008898   0.013462  -0.019361   0.006896
    26  H    0.000559   0.484580  -0.106120   0.007623   0.007890  -0.000628
    27  H    0.000004   0.028244   0.331481  -0.136529   0.008156  -0.000484
    28  H   -0.000088  -0.045507   0.438752  -0.034828  -0.001299   0.000933
    29  H    0.000003   0.015353  -0.061735   0.395433   0.001131  -0.000142
    30  H    0.000002  -0.015560  -0.039558   0.407929  -0.000635   0.000054
              19         20         21         22         23         24
     1  O   -0.000021   0.001914  -0.001406   0.044278  -0.000034   0.000039
     2  C   -0.007105   0.007935   0.003273   0.076606  -0.000692  -0.000220
     3  N    0.002533   0.067914  -0.101391   0.011172  -0.000737   0.001938
     4  C   -0.179462  -0.270531   0.389013  -0.174245  -0.000630  -0.026770
     5  C    0.192733  -0.054297  -0.071164   0.009417  -0.000516   0.001139
     6  O    0.212307   0.022037  -0.005414   0.000355   0.000015   0.000107
     7  O   -0.011661   0.009385  -0.005796  -0.000785  -0.000012   0.000018
     8  C   -0.003767   0.409416   0.344074  -0.018675   0.008625  -0.005549
     9  C    0.016038   0.026138  -0.200593  -0.252418   0.050553  -0.025716
    10  C   -0.001962   0.113749  -0.102634   0.616734  -0.034227  -0.008733
    11  N    0.000044  -0.000260   0.001646  -0.081067  -0.075122   0.008553
    12  C   -0.000045   0.004629   0.014215   0.091915   0.461423   0.001001
    13  N   -0.000385   0.000301   0.003794   0.004117  -0.122845   0.352685
    14  C   -0.003335   0.000556   0.013091  -0.037378  -0.000093  -0.000829
    15  C   -0.000009   0.000100  -0.000044  -0.003055  -0.000053   0.000095
    16  N   -0.000007   0.000000   0.000182  -0.001505  -0.000001  -0.000001
    17  H   -0.000294   0.006754  -0.019664   0.002467  -0.000172   0.000929
    18  H    0.008764  -0.041472   0.034150  -0.026190   0.000787  -0.001087
    19  H    0.486694  -0.005650  -0.000179  -0.000360  -0.000003  -0.000009
    20  H   -0.005650   0.569684  -0.073587   0.006781  -0.001033   0.001966
    21  H   -0.000179  -0.073587   0.611029  -0.006370   0.001233  -0.004319
    22  H   -0.000360   0.006781  -0.006370   0.578182   0.000626   0.002089
    23  H   -0.000003  -0.001033   0.001233   0.000626   0.533199  -0.000249
    24  H   -0.000009   0.001966  -0.004319   0.002089  -0.000249   0.401680
    25  H   -0.000244  -0.000819   0.004871  -0.008087   0.000015  -0.000128
    26  H    0.000027   0.000263  -0.000546  -0.004546  -0.000110  -0.000001
    27  H    0.000043  -0.000074  -0.000155   0.003173   0.000006   0.000004
    28  H    0.000007  -0.000036  -0.000006  -0.004426   0.000004  -0.000004
    29  H    0.000002   0.000005  -0.000037   0.000004   0.000000   0.000001
    30  H   -0.000002   0.000004   0.000008  -0.000262  -0.000001   0.000000
              25         26         27         28         29         30
     1  O    0.010156  -0.002514  -0.015651   0.000306  -0.000135   0.000407
     2  C   -0.205617  -0.077261   0.029312  -0.033008  -0.008217   0.009215
     3  N   -0.011622   0.013898  -0.003489  -0.001212  -0.002676   0.000270
     4  C    0.114664   0.014529  -0.004652  -0.002331  -0.004139   0.000795
     5  C   -0.023195  -0.007186   0.001703   0.002289   0.000546  -0.000519
     6  O   -0.000450   0.000197   0.000319  -0.000040   0.000003  -0.000001
     7  O   -0.005028   0.001308   0.000524  -0.000114   0.000083   0.000003
     8  C   -0.017931  -0.000424   0.001242  -0.000314   0.000189  -0.000112
     9  C   -0.006980   0.002614   0.001460   0.002570   0.000237   0.000199
    10  C   -0.012638  -0.003697  -0.001387  -0.000331  -0.000165  -0.000317
    11  N    0.000054  -0.001053   0.000037   0.000105   0.000006   0.000008
    12  C    0.000187  -0.002311   0.000107  -0.000088   0.000001  -0.000001
    13  N   -0.000332   0.000559   0.000004  -0.000088   0.000003   0.000002
    14  C    0.427258   0.484580   0.028244  -0.045507   0.015353  -0.015560
    15  C    0.008898  -0.106120   0.331481   0.438752  -0.061735  -0.039558
    16  N    0.013462   0.007623  -0.136529  -0.034828   0.395433   0.407929
    17  H   -0.019361   0.007890   0.008156  -0.001299   0.001131  -0.000635
    18  H    0.006896  -0.000628  -0.000484   0.000933  -0.000142   0.000054
    19  H   -0.000244   0.000027   0.000043   0.000007   0.000002  -0.000002
    20  H   -0.000819   0.000263  -0.000074  -0.000036   0.000005   0.000004
    21  H    0.004871  -0.000546  -0.000155  -0.000006  -0.000037   0.000008
    22  H   -0.008087  -0.004546   0.003173  -0.004426   0.000004  -0.000262
    23  H    0.000015  -0.000110   0.000006   0.000004   0.000000  -0.000001
    24  H   -0.000128  -0.000001   0.000004  -0.000004   0.000001   0.000000
    25  H    0.696952  -0.067947  -0.058595   0.021309   0.006873   0.003121
    26  H   -0.067947   0.516516   0.019243  -0.015147  -0.000704   0.000683
    27  H   -0.058595   0.019243   0.731279  -0.073469  -0.006903   0.002076
    28  H    0.021309  -0.015147  -0.073469   0.542249   0.012244  -0.012892
    29  H    0.006873  -0.000704  -0.006903   0.012244   0.514759  -0.062808
    30  H    0.003121   0.000683   0.002076  -0.012892  -0.062808   0.470922
 Mulliken charges:
               1
     1  O   -0.279735
     2  C   -0.403495
     3  N    0.121770
     4  C   -0.244082
     5  C   -0.078827
     6  O   -0.118732
     7  O   -0.244804
     8  C   -0.169501
     9  C    0.134297
    10  C   -0.683276
    11  N   -0.124596
    12  C    0.169337
    13  N   -0.165620
    14  C   -0.100710
    15  C   -0.536211
    16  N   -0.331971
    17  H    0.294279
    18  H    0.313110
    19  H    0.295311
    20  H    0.198227
    21  H    0.172728
    22  H    0.171452
    23  H    0.180043
    24  H    0.301370
    25  H    0.124259
    26  H    0.220266
    27  H    0.142977
    28  H    0.204373
    29  H    0.200791
    30  H    0.236971
 Sum of Mulliken charges =   0.00000
 Mulliken charges with hydrogens summed into heavy atoms:
               1
     1  O   -0.279735
     2  C   -0.403495
     3  N    0.416049
     4  C    0.069027
     5  C   -0.078827
     6  O    0.176579
     7  O   -0.244804
     8  C    0.201454
     9  C    0.134297
    10  C   -0.511823
    11  N   -0.124596
    12  C    0.349380
    13  N    0.135751
    14  C    0.243814
    15  C   -0.188861
    16  N    0.105791
 APT charges:
               1
     1  O   -0.301634
     2  C   -0.325018
     3  N   -0.310736
     4  C   -0.629765
     5  C   -0.462808
     6  O   -0.590999
     7  O   -0.065647
     8  C   -0.722910
     9  C   -0.239377
    10  C   -0.211772
    11  N   -0.470204
    12  C   -0.228331
    13  N   -0.621252
    14  C   -0.508425
    15  C   -0.508080
    16  N   -1.849918
    17  H    0.512530
    18  H    0.401053
    19  H    1.025849
    20  H    0.594659
    21  H    0.381595
    22  H    0.090596
    23  H    1.077243
    24  H    0.901484
    25  H    0.367668
    26  H    0.341335
    27  H    0.355295
    28  H    0.345486
    29  H    0.581792
    30  H    1.070291
 Sum of APT charges =   0.00000
 APT charges with hydrogens summed into heavy atoms:
               1
     1  O   -0.301634
     2  C   -0.325018
     3  N    0.201794
     4  C   -0.228711
     5  C   -0.462808
     6  O    0.434851
     7  O   -0.065647
     8  C    0.253343
     9  C   -0.239377
    10  C   -0.121175
    11  N   -0.470204
    12  C    0.848913
    13  N    0.280232
    14  C    0.200577
    15  C    0.192701
    16  N   -0.197836
 Electronic spatial extent (au):  <R**2>=           4717.1433
 Charge=              0.0000 electrons
 Dipole moment (field-independent basis, Debye):
    X=             -1.6220    Y=             -5.5070    Z=             -2.2986  Tot=              6.1840
 Quadrupole moment (field-independent basis, Debye-Ang):
   XX=            -75.0017   YY=           -105.6949   ZZ=            -92.9786
   XY=              7.2198   XZ=             13.0365   YZ=             -3.4786
 Traceless Quadrupole moment (field-independent basis, Debye-Ang):
   XX=             16.2234   YY=            -14.4698   ZZ=             -1.7535
   XY=              7.2198   XZ=             13.0365   YZ=             -3.4786
 Octapole moment (field-independent basis, Debye-Ang**2):
  XXX=             73.2813  YYY=            -62.7123  ZZZ=            -18.6043  XYY=             18.9654
  XXY=            -25.3316  XXZ=            -19.8501  XZZ=              5.8991  YZZ=             -8.6088
  YYZ=             22.8166  XYZ=             23.0002
 Hexadecapole moment (field-independent basis, Debye-Ang**3):
 XXXX=          -3142.0687 YYYY=          -1930.7564 ZZZZ=           -579.9853 XXXY=            -43.8093
 XXXZ=             40.4452 YYYX=            256.6294 YYYZ=             98.1130 ZZZX=           -289.3362
 ZZZY=            184.7618 XXYY=           -944.9719 XXZZ=           -605.9625 YYZZ=           -363.6711
 XXYZ=             74.2973 YYXZ=           -103.7671 ZZXY=             -0.2805
 N-N= 1.109254542301D+03 E-N=-4.079458859454D+03  KE= 7.934535151737D+02
  Exact polarizability:   0.000   0.000   0.000   0.000   0.000   0.000
 Approx polarizability: 201.936  -0.382 220.138  10.132  14.878 193.445
 Calling FoFJK, ICntrl=    100147 FMM=F ISym2X=0 I1Cent= 0 IOpClX= 0 NMat=1 NMatS=1 NMatT=0.
 -------------------------------------------------------------------
 Center     Atomic                   Forces (Hartrees/Bohr)
 Number     Number              X              Y              Z
 -------------------------------------------------------------------
      1        8           0.002304537   -0.004541258   -0.004222072
      2        6           0.001213319    0.009153080    0.005546204
      3        7          -0.002458052   -0.004722838    0.000558589
      4        6           0.000385723    0.001893568   -0.003289059
      5        6          -0.003048627    0.000598835    0.002905755
      6        8           0.001151157    0.001029884   -0.000648949
      7        8           0.002999072   -0.002730146   -0.001408078
      8        6          -0.007156439    0.007902474   -0.000777789
      9        6           0.000289867   -0.004802530   -0.000370929
     10        6           0.004040679    0.005076837    0.003761380
     11        7           0.000841083   -0.002434399    0.000599999
     12        6           0.000830974    0.007618934    0.001496878
     13        7          -0.001343982   -0.008628622   -0.002457837
     14        6          -0.001736638   -0.000002660    0.000460337
     15        6          -0.000708544    0.001789469    0.000487552
     16        7           0.001568813    0.000006494    0.001716659
     17        1           0.001447547   -0.000523213   -0.001042451
     18        1           0.000632773    0.000066849    0.001597616
     19        1          -0.001821858   -0.005350536    0.002341105
     20        1          -0.000949615   -0.002263983    0.001454494
     21        1           0.002304267   -0.002674582   -0.003051860
     22        1          -0.001664887    0.003671543    0.000012707
     23        1          -0.001558436    0.001473944   -0.001193321
     24        1          -0.001894578   -0.000346858   -0.001597522
     25        1           0.001041245   -0.001432023   -0.001565334
     26        1          -0.000352316    0.000798217   -0.001624787
     27        1           0.000176727   -0.000547758    0.001647038
     28        1           0.000787136   -0.000668838    0.000436208
     29        1           0.001184540   -0.001597349   -0.002356227
     30        1           0.001494513    0.002187465    0.000583693
 -------------------------------------------------------------------
 Cartesian Forces:  Max     0.009153080 RMS     0.002850781
 FormGI is forming the generalized inverse of G from B-inverse, IUseBI=4.

 GradGradGradGradGradGradGradGradGradGradGradGradGradGradGradGradGradGrad
 Berny optimization.
 Internal  Forces:  Max     0.009038389 RMS     0.002410266
 Search for a local minimum.
 Step number   1 out of a maximum of  160
 All quantities printed in internal units (Hartrees-Bohrs-Radians)
 Mixed Optimization -- RFO/linear search
 Second derivative matrix not updated -- analytic derivatives used.
 ITU=  0
     Eigenvalues ---    0.00016   0.00086   0.00211   0.00231   0.00256
     Eigenvalues ---    0.00399   0.00459   0.00563   0.00817   0.00934
     Eigenvalues ---    0.01765   0.02031   0.02079   0.02720   0.03284
     Eigenvalues ---    0.03515   0.04069   0.04120   0.04250   0.04407
     Eigenvalues ---    0.04510   0.04557   0.05088   0.05137   0.05334
     Eigenvalues ---    0.05523   0.05768   0.06113   0.07668   0.08091
     Eigenvalues ---    0.08219   0.10337   0.10800   0.11122   0.11819
     Eigenvalues ---    0.11845   0.12351   0.13555   0.15088   0.15499
     Eigenvalues ---    0.15855   0.16739   0.18035   0.18468   0.18811
     Eigenvalues ---    0.20573   0.21447   0.21976   0.22917   0.23416
     Eigenvalues ---    0.24220   0.24351   0.24489   0.26909   0.29608
     Eigenvalues ---    0.30037   0.31504   0.32826   0.32999   0.33286
     Eigenvalues ---    0.33627   0.33727   0.33923   0.34158   0.34251
     Eigenvalues ---    0.35108   0.36161   0.36981   0.37452   0.37545
     Eigenvalues ---    0.40351   0.40831   0.42484   0.44671   0.45027
     Eigenvalues ---    0.45440   0.46367   0.47003   0.48150   0.48235
     Eigenvalues ---    0.52763   0.57897   0.78370   0.88286
 RFO step:  Lambda=-3.27636497D-03 EMin= 1.59275879D-04
 Linear search not attempted -- first point.
 Iteration  1 RMS(Cart)=  0.08489799 RMS(Int)=  0.00226172
 Iteration  2 RMS(Cart)=  0.00379483 RMS(Int)=  0.00015540
 Iteration  3 RMS(Cart)=  0.00000793 RMS(Int)=  0.00015535
 Iteration  4 RMS(Cart)=  0.00000000 RMS(Int)=  0.00015535
 Variable       Old X    -DE/DX   Delta X   Delta X   Delta X     New X
                                 (Linear)    (Quad)   (Total)
    R1        2.31812  -0.00631   0.00000  -0.01040  -0.01040   2.30772
    R2        2.57906   0.00790   0.00000   0.01647   0.01647   2.59553
    R3        2.86484   0.00328   0.00000   0.00886   0.00886   2.87370
    R4        2.73253   0.00483   0.00000   0.00324   0.00324   2.73578
    R5        1.90597   0.00163   0.00000   0.00257   0.00257   1.90854
    R6        2.86430   0.00682   0.00000   0.02134   0.02134   2.88564
    R7        2.90278   0.00693   0.00000   0.02060   0.02060   2.92339
    R8        2.05876   0.00133   0.00000   0.00444   0.00444   2.06320
    R9        2.54863   0.00292   0.00000   0.00187   0.00187   2.55050
   R10        2.27374   0.00428   0.00000   0.00399   0.00399   2.27773
   R11        1.82376   0.00523   0.00000   0.00856   0.00856   1.83232
   R12        2.83481   0.00165   0.00000  -0.00466  -0.00466   2.83015
   R13        2.06385   0.00237   0.00000   0.00683   0.00683   2.07069
   R14        2.06272   0.00422   0.00000   0.01233   0.01233   2.07506
   R15        2.57926   0.00904   0.00000   0.01582   0.01582   2.59507
   R16        2.61010   0.00422   0.00000   0.00733   0.00733   2.61743
   R17        2.61332  -0.00115   0.00000  -0.00506  -0.00506   2.60826
   R18        2.04086  -0.00108   0.00000  -0.00156  -0.00156   2.03930
   R19        2.47726   0.00007   0.00000  -0.00315  -0.00315   2.47411
   R20        2.56725   0.00778   0.00000   0.01920   0.01920   2.58645
   R21        2.03397   0.00245   0.00000   0.00615   0.00615   2.04013
   R22        1.90059   0.00222   0.00000   0.00428   0.00428   1.90487
   R23        2.87419   0.00512   0.00000   0.01403   0.01403   2.88822
   R24        2.06530   0.00224   0.00000   0.00642   0.00642   2.07172
   R25        2.06534   0.00171   0.00000   0.00510   0.00510   2.07044
   R26        2.76896   0.00382   0.00000   0.00501   0.00501   2.77397
   R27        2.07330   0.00157   0.00000   0.00516   0.00516   2.07846
   R28        2.06338  -0.00060   0.00000  -0.00185  -0.00185   2.06153
   R29        1.91558   0.00257   0.00000   0.00360   0.00360   1.91918
   R30        1.91424   0.00217   0.00000   0.00254   0.00254   1.91679
    A1        2.13752  -0.00127   0.00000  -0.00262  -0.00265   2.13487
    A2        2.14281  -0.00093   0.00000   0.00013   0.00010   2.14291
    A3        2.00104   0.00225   0.00000   0.00322   0.00320   2.00424
    A4        2.11912   0.00345   0.00000   0.01296   0.01209   2.13121
    A5        2.05303  -0.00271   0.00000   0.00219   0.00119   2.05422
    A6        2.01368  -0.00021   0.00000   0.01642   0.01558   2.02926
    A7        1.90692  -0.00037   0.00000   0.00384   0.00380   1.91072
    A8        1.96862   0.00131   0.00000   0.00436   0.00433   1.97295
    A9        1.87900  -0.00031   0.00000  -0.00607  -0.00610   1.87291
   A10        1.89743  -0.00050   0.00000   0.00486   0.00483   1.90227
   A11        1.90690  -0.00066   0.00000  -0.01477  -0.01477   1.89212
   A12        1.90427   0.00047   0.00000   0.00694   0.00696   1.91123
   A13        1.94570   0.00219   0.00000   0.00392   0.00391   1.94961
   A14        2.18723  -0.00081   0.00000  -0.00426  -0.00426   2.18297
   A15        2.14973  -0.00137   0.00000   0.00053   0.00053   2.15026
   A16        1.84970   0.00577   0.00000   0.02885   0.02885   1.87855
   A17        1.96837   0.00818   0.00000   0.01560   0.01562   1.98399
   A18        1.89393  -0.00243   0.00000  -0.00949  -0.00974   1.88419
   A19        1.91810  -0.00463   0.00000  -0.02875  -0.02882   1.88928
   A20        1.90354  -0.00199   0.00000   0.01399   0.01398   1.91752
   A21        1.91643  -0.00087   0.00000   0.00633   0.00644   1.92287
   A22        1.86011   0.00136   0.00000   0.00176   0.00143   1.86154
   A23        2.32418   0.00535   0.00000   0.01472   0.01470   2.33888
   A24        2.13396  -0.00472   0.00000  -0.01573  -0.01574   2.11822
   A25        1.82494  -0.00063   0.00000   0.00087   0.00086   1.82580
   A26        1.93771  -0.00090   0.00000  -0.00397  -0.00397   1.93374
   A27        2.20286   0.00431   0.00000   0.02677   0.02676   2.22962
   A28        2.14258  -0.00341   0.00000  -0.02278  -0.02278   2.11979
   A29        1.83324   0.00321   0.00000   0.01048   0.01048   1.84372
   A30        1.94874  -0.00037   0.00000  -0.00347  -0.00346   1.94528
   A31        2.19938   0.00003   0.00000   0.00309   0.00309   2.20247
   A32        2.13506   0.00034   0.00000   0.00038   0.00038   2.13544
   A33        1.88015  -0.00131   0.00000  -0.00391  -0.00391   1.87624
   A34        2.19401   0.00175   0.00000   0.00989   0.00989   2.20390
   A35        2.20902  -0.00044   0.00000  -0.00598  -0.00599   2.20304
   A36        1.96585   0.00056   0.00000   0.00024   0.00022   1.96607
   A37        1.91474   0.00048   0.00000   0.00950   0.00949   1.92423
   A38        1.88911  -0.00069   0.00000  -0.00707  -0.00706   1.88205
   A39        1.92621  -0.00044   0.00000   0.00077   0.00074   1.92695
   A40        1.89900   0.00032   0.00000   0.00192   0.00191   1.90092
   A41        1.86576  -0.00029   0.00000  -0.00595  -0.00594   1.85983
   A42        1.90467   0.00220   0.00000   0.01095   0.01093   1.91560
   A43        1.90662  -0.00033   0.00000   0.00129   0.00126   1.90788
   A44        1.89545  -0.00005   0.00000   0.00120   0.00123   1.89668
   A45        1.98457  -0.00054   0.00000   0.00102   0.00097   1.98554
   A46        1.90074  -0.00118   0.00000  -0.00813  -0.00814   1.89260
   A47        1.86982  -0.00015   0.00000  -0.00672  -0.00673   1.86309
   A48        1.91673   0.00208   0.00000   0.02154   0.02126   1.93799
   A49        1.91952   0.00114   0.00000   0.01232   0.01204   1.93157
   A50        1.84707  -0.00011   0.00000   0.01812   0.01758   1.86465
    D1       -0.25950   0.00204   0.00000   0.09516   0.09505  -0.16444
    D2       -2.92009   0.00093   0.00000   0.01781   0.01791  -2.90218
    D3        2.94530   0.00139   0.00000   0.08256   0.08246   3.02776
    D4        0.28471   0.00028   0.00000   0.00521   0.00532   0.29002
    D5        0.47831  -0.00028   0.00000   0.00616   0.00615   0.48446
    D6        2.63126  -0.00010   0.00000   0.01430   0.01431   2.64558
    D7       -1.62201  -0.00056   0.00000   0.00839   0.00837  -1.61364
    D8       -2.72670   0.00035   0.00000   0.01870   0.01869  -2.70800
    D9       -0.57374   0.00054   0.00000   0.02684   0.02686  -0.54689
   D10        1.45617   0.00007   0.00000   0.02092   0.02092   1.47709
   D11       -1.91871   0.00054   0.00000  -0.05299  -0.05316  -1.97187
   D12        2.25210   0.00056   0.00000  -0.06473  -0.06492   2.18718
   D13        0.15031  -0.00063   0.00000  -0.07198  -0.07214   0.07816
   D14        0.75199   0.00095   0.00000   0.01908   0.01926   0.77125
   D15       -1.36038   0.00098   0.00000   0.00734   0.00750  -1.35288
   D16        2.82101  -0.00021   0.00000   0.00009   0.00028   2.82129
   D17        2.87587  -0.00081   0.00000  -0.01344  -0.01343   2.86244
   D18       -0.29971  -0.00058   0.00000  -0.00715  -0.00715  -0.30686
   D19       -1.25218   0.00025   0.00000  -0.00247  -0.00245  -1.25463
   D20        1.85543   0.00049   0.00000   0.00382   0.00383   1.85926
   D21        0.82433   0.00015   0.00000   0.00018   0.00017   0.82450
   D22       -2.35125   0.00038   0.00000   0.00647   0.00645  -2.34480
   D23       -1.15020  -0.00082   0.00000  -0.01618  -0.01617  -1.16637
   D24        3.02208  -0.00189   0.00000  -0.03728  -0.03717   2.98491
   D25        0.99436   0.00041   0.00000  -0.01815  -0.01827   0.97609
   D26        3.01521  -0.00086   0.00000  -0.02729  -0.02728   2.98794
   D27        0.90431  -0.00193   0.00000  -0.04838  -0.04828   0.85603
   D28       -1.12341   0.00036   0.00000  -0.02925  -0.02938  -1.15280
   D29        0.93706  -0.00005   0.00000  -0.01632  -0.01631   0.92075
   D30       -1.17385  -0.00112   0.00000  -0.03742  -0.03731  -1.21116
   D31        3.08161   0.00117   0.00000  -0.01829  -0.01841   3.06320
   D32        3.11416   0.00007   0.00000   0.00178   0.00178   3.11595
   D33        0.00570  -0.00018   0.00000  -0.00424  -0.00425   0.00145
   D34       -0.06843  -0.00141   0.00000  -0.09295  -0.09301  -0.16144
   D35        3.09122  -0.00114   0.00000  -0.08112  -0.08118   3.01004
   D36        2.03699  -0.00053   0.00000  -0.08512  -0.08507   1.95193
   D37       -1.08655  -0.00027   0.00000  -0.07329  -0.07324  -1.15978
   D38       -2.21392  -0.00052   0.00000  -0.07140  -0.07140  -2.28532
   D39        0.94573  -0.00026   0.00000  -0.05957  -0.05957   0.88616
   D40       -3.12642   0.00029   0.00000   0.01159   0.01170  -3.11472
   D41        0.02484  -0.00030   0.00000   0.01011   0.01016   0.03500
   D42       -0.00060   0.00001   0.00000   0.00109   0.00110   0.00050
   D43       -3.13253  -0.00058   0.00000  -0.00039  -0.00043  -3.13296
   D44        3.12876  -0.00012   0.00000  -0.01038  -0.01027   3.11848
   D45       -0.01001  -0.00008   0.00000  -0.00862  -0.00853  -0.01854
   D46        0.00077   0.00002   0.00000  -0.00166  -0.00167  -0.00090
   D47       -3.13800   0.00005   0.00000   0.00010   0.00008  -3.13792
   D48        0.00019  -0.00003   0.00000  -0.00009  -0.00008   0.00011
   D49        3.13251   0.00058   0.00000   0.00165   0.00166   3.13417
   D50        0.00032   0.00004   0.00000  -0.00101  -0.00103  -0.00071
   D51        3.14077  -0.00002   0.00000   0.00049   0.00050   3.14127
   D52       -0.00070  -0.00004   0.00000   0.00173   0.00175   0.00104
   D53        3.13803  -0.00007   0.00000  -0.00002   0.00003   3.13806
   D54       -3.14120   0.00002   0.00000   0.00029   0.00028  -3.14092
   D55       -0.00247  -0.00001   0.00000  -0.00145  -0.00143  -0.00390
   D56       -3.12449   0.00076   0.00000   0.03758   0.03758  -3.08690
   D57        0.97919   0.00018   0.00000   0.02813   0.02812   1.00730
   D58       -1.05467   0.00057   0.00000   0.03477   0.03477  -1.01990
   D59        1.01214   0.00005   0.00000   0.02452   0.02452   1.03667
   D60       -1.16737  -0.00053   0.00000   0.01507   0.01506  -1.15231
   D61        3.08196  -0.00014   0.00000   0.02171   0.02171   3.10367
   D62       -1.02987   0.00046   0.00000   0.03016   0.03016  -0.99971
   D63        3.07381  -0.00012   0.00000   0.02071   0.02069   3.09450
   D64        1.03995   0.00027   0.00000   0.02734   0.02735   1.06730
   D65       -1.22649   0.00070   0.00000   0.00175   0.00187  -1.22462
   D66        3.03078  -0.00103   0.00000  -0.03986  -0.04003   2.99075
   D67        0.90677   0.00153   0.00000   0.01220   0.01234   0.91911
   D68       -1.11915  -0.00020   0.00000  -0.02941  -0.02956  -1.14870
   D69        2.99019   0.00018   0.00000  -0.00131  -0.00115   2.98904
   D70        0.96427  -0.00156   0.00000  -0.04292  -0.04305   0.92123
         Item               Value     Threshold  Converged?
 Maximum Force            0.009038     0.000450     NO 
 RMS     Force            0.002410     0.000300     NO 
 Maximum Displacement     0.328477     0.001800     NO 
 RMS     Displacement     0.085951     0.001200     NO 
 Predicted change in Energy=-1.795871D-03
 GradGradGradGradGradGradGradGradGradGradGradGradGradGradGradGradGradGrad

                          Input orientation:                          
 ---------------------------------------------------------------------
 Center     Atomic      Atomic             Coordinates (Angstroms)
 Number     Number       Type             X           Y           Z
 ---------------------------------------------------------------------
      1          8           0        0.813015    0.667297    1.561481
      2          6           0        1.153114    0.116304    0.526082
      3          7           0        0.317167   -0.724674   -0.167051
      4          6           0       -0.946401   -1.174528    0.377827
      5          6           0       -0.880820   -2.677066    0.642133
      6          8           0       -1.877645   -3.084742    1.455611
      7          8           0       -0.066277   -3.428746    0.168527
      8          6           0       -2.146543   -0.878911   -0.552466
      9          6           0       -2.436755    0.581445   -0.714026
     10          6           0       -1.976748    1.719431   -0.098229
     11          7           0       -2.602855    2.839256   -0.607173
     12          6           0       -3.432001    2.396443   -1.518519
     13          7           0       -3.374173    1.033368   -1.628069
     14          6           0        2.502684    0.359624   -0.131170
     15          6           0        3.583226    0.758385    0.873504
     16          7           0        4.835778    1.049571    0.165604
     17          1           0        0.725355   -1.304165   -0.886485
     18          1           0       -1.089621   -0.662591    1.331468
     19          1           0       -1.794102   -4.044628    1.564253
     20          1           0       -3.025122   -1.390104   -0.143235
     21          1           0       -1.944018   -1.335201   -1.530498
     22          1           0       -1.227896    1.795490    0.675081
     23          1           0       -4.091903    2.997350   -2.125934
     24          1           0       -3.917888    0.462652   -2.256362
     25          1           0        2.814641   -0.526326   -0.696558
     26          1           0        2.379906    1.168133   -0.860311
     27          1           0        3.678025   -0.027690    1.636930
     28          1           0        3.261543    1.662801    1.391816
     29          1           0        5.246582    0.201229   -0.212511
     30          1           0        5.519752    1.450505    0.798278
 ---------------------------------------------------------------------
                    Distance matrix (angstroms):
                    1          2          3          4          5
     1  O    0.000000
     2  C    1.221193   0.000000
     3  N    2.274043   1.373493   0.000000
     4  C    2.808719   2.469046   1.447711   0.000000
     5  C    3.859928   3.457350   2.429360   1.527017   0.000000
     6  O    4.618296   4.505133   3.608346   2.382803   1.349669
     7  O    4.414867   3.765918   2.751663   2.428976   1.205324
     8  C    3.952027   3.611295   2.498440   1.546989   2.502495
     9  C    3.968162   3.826405   3.096646   2.548870   3.857201
    10  C    3.412389   3.571528   3.352675   3.108575   4.591119
    11  N    4.592237   4.775566   4.628373   4.452474   5.912358
    12  C    5.522365   5.513864   5.062025   4.746174   6.075972
    13  N    5.276342   5.096832   4.341806   3.846102   5.013776
    14  C    2.411371   1.520699   2.439973   3.809053   4.611679
    15  C    2.855815   2.537404   3.734884   4.949684   5.637692
    16  N    4.275187   3.816143   4.865845   6.198811   6.840643
    17  H    3.144341   2.048427   1.009956   2.100014   2.607936
    18  H    2.332710   2.507026   2.056323   1.091797   2.139366
    19  H    5.385101   5.203580   4.298485   3.219267   1.885369
    20  H    4.676564   4.491648   3.407970   2.153847   2.621279
    21  H    4.601257   3.991066   2.710109   2.159342   2.766101
    22  H    2.494764   2.917375   3.073700   2.998100   4.486124
    23  H    6.563871   6.545518   6.093487   5.793752   7.083237
    24  H    6.082701   5.794567   4.869359   4.295235   5.242412
    25  H    3.244993   2.160670   2.560683   3.964834   4.480426
    26  H    2.927638   2.129190   2.884133   4.252690   5.260726
    27  H    2.949064   2.762226   3.877563   4.928072   5.365807
    28  H    2.648604   2.754383   4.098713   5.175462   6.046126
    29  H    4.797997   4.160434   5.015824   6.371361   6.823493
    30  H    4.832107   4.574026   5.721027   6.991331   7.617647
                    6          7          8          9         10
     6  O    0.000000
     7  O    2.248550   0.000000
     8  C    2.995058   3.368827   0.000000
     9  C    4.296610   4.741276   1.497653   0.000000
    10  C    5.050180   5.497707   2.643207   1.373253   0.000000
    11  N    6.314647   6.806158   3.746462   2.266432   1.380233
    12  C    6.426886   6.935925   3.648781   2.220797   2.143206
    13  N    5.357939   5.837842   2.514122   1.385086   2.182634
    14  C    5.793860   4.587060   4.829779   4.978652   4.681396
    15  C    6.702954   5.598923   6.127347   6.228301   5.725485
    16  N    7.989162   6.639690   7.279250   7.340479   6.850462
    17  H    3.928292   2.500715   2.922364   3.685676   4.130961
    18  H    2.550139   3.170375   2.170964   2.747078   2.916343
    19  H    0.969620   2.304939   3.824458   5.196548   6.001798
    20  H    2.597077   3.606663   1.095760   2.135178   3.281817
    21  H    3.461523   3.285655   1.098073   2.140783   3.373907
    22  H    4.984784   5.375742   3.082727   2.205643   1.079153
    23  H    7.397449   7.922432   4.613635   3.251091   3.196647
    24  H    5.524974   5.988153   2.800127   2.141650   3.163077
    25  H    5.761500   4.179965   4.975784   5.366994   5.325301
    26  H    6.448038   5.307883   4.977339   4.854465   4.457032
    27  H    6.343809   5.267180   6.280416   6.579405   6.167630
    28  H    6.996749   6.204408   6.283942   6.170454   5.446387
    29  H    8.020901   6.445803   7.479343   7.709069   7.382038
    30  H    8.701841   7.443615   8.125440   8.145448   7.554704
                   11         12         13         14         15
    11  N    0.000000
    12  C    1.309243   0.000000
    13  N    2.213231   1.368692   0.000000
    14  C    5.695760   6.426029   6.101810   0.000000
    15  C    6.692535   7.590679   7.398573   1.528382   0.000000
    16  N    7.689826   8.544385   8.403620   2.451006   1.467923
    17  H    5.321929   5.601569   4.777043   2.549037   3.939428
    18  H    4.279152   4.792375   4.105401   4.011095   4.905548
    19  H    7.263404   7.326226   6.202708   6.382340   7.243047
    20  H    4.275632   4.049061   2.863527   5.798131   7.022822
    21  H    4.325817   4.017388   2.768571   4.960212   6.380655
    22  H    2.150380   3.167191   3.239110   4.077865   4.925633
    23  H    2.132813   1.079589   2.149472   7.377348   8.539157
    24  H    3.177637   2.126040   1.008015   6.763933   8.133279
[...]
 282255,-0.01797416,0.00108551,-0.02202269,-0.09132766,-0.19206917,-0.1
 5237471,-0.00002157,0.00000031,-0.00001751,-0.00000044,-0.00000008,0.0
 0000282,-0.00000180,-0.00001097,0.00000438,0.00002002,0.00001385,0.000
 01888,-0.00014896,0.00009869,-0.00010667,0.00001723,-0.00000897,0.0000
 3847,-0.00001969,-0.00023593,0.00036361,0.00050171,-0.00040586,-0.0004
 2442,0.00009762,0.00100113,0.00008629,0.00048832,-0.00009238,0.0007624
 2,0.10136485,0.18601719,0.00003937,0.00013839,0.00007310,-0.00016813,-
 0.00028395,-0.00019207,0.00037624,0.00017623,0.00008681,-0.00031043,-0
 .00017072,-0.00004616,-0.00011452,0.00038085,0.00015915,0.00006432,-0.
 00007031,0.00000157,0.00012734,-0.00021628,-0.00011883,0.00098638,-0.0
 0005616,0.00057196,0.00073642,-0.01483865,-0.00914382,-0.00381566,0.00
 114748,-0.00234792,-0.00220527,0.00143539,0.00378126,0.00624526,0.0007
 2054,-0.00010080,-0.15516563,-0.15168251,-0.23373140,0.00002357,0.0000
 4313,0.00000793,-0.00003286,-0.00001006,-0.00001701,0.00003465,0.00002
 114,-0.00001625,0.00000752,-0.00000350,0.00004090,0.00003404,-0.000035
 74,0.00001968,-0.00000460,0.00002372,-0.00002004,-0.00001991,0.0005590
 2,-0.00039066,-0.00019715,0.00020348,0.00004720,-0.00081411,-0.0008562
 9,0.00068072,0.00048333,0.00001957,-0.00050731,0.15366603,0.16336389,0
 .24114422,-0.00580182,-0.00283377,0.00522652,-0.00242781,0.02705070,0.
 01449187,-0.00015160,-0.00127705,-0.00084046,0.00044085,-0.00028979,-0
 .00040103,-0.00027467,0.00019353,0.00021738,0.00009352,-0.00003241,-0.
 00009734,0.00017915,-0.00011433,-0.00010181,0.00007905,0.00003934,-0.0
 0002981,0.00002521,0.00005165,0.00004544,0.00004163,0.00002328,0.00008
 382,-0.00002548,-0.00003181,-0.00002862,-0.00001296,0.00001128,-0.0000
 1662,-0.00004106,-0.00002401,-0.00008557,-0.06833490,0.04960319,0.0374
 2399,0.00611133,-0.02094392,-0.01530909,0.00221472,0.00047451,0.000079
 98,-0.00197355,-0.00109367,0.00021007,0.00036801,0.00026384,0.00011446
 ,-0.00001252,-0.00000300,0.00001771,0.00002560,-0.00002049,0.00001345,
 -0.00003526,-0.00001894,-0.00003256,0.00007059,-0.00005359,0.00000354,
 -0.00000563,-0.00000275,-0.00000594,-0.00001177,0.00001021,0.00000523,
 0.07413940,-0.00126537,0.00113721,0.00194489,-0.00384321,0.00312687,0.
 00394322,-0.00040242,-0.00000039,0.00067929,0.00037020,0.00060848,0.00
 005046,0.00010855,-0.00008655,-0.00004795,-0.00002177,0.00002588,0.000
 01437,-0.00002760,0.00006807,0.00005171,0.00001159,-0.00000158,-0.0000
 4441,-0.00002937,-0.00003601,-0.00004230,-0.00000709,-0.00001056,-0.00
 004617,0.00003819,0.00003946,0.00001357,-0.00001003,-0.00002596,-0.000
 01543,0.00003454,0.00003284,0.00008545,0.05284973,-0.19591069,-0.11342
 141,0.00171469,-0.00545615,-0.00390090,-0.00007929,0.00062471,0.000768
 17,-0.00024094,0.00069033,0.00030608,-0.00009293,0.00003767,0.00015167
 ,-0.00000234,-0.00000377,-0.00000971,0.00001252,0.00000908,0.00000665,
 0.00001285,0.00002217,0.00001795,-0.00004337,-0.00001069,0.00002900,0.
 00000513,-0.00000045,0.00000306,0.00001287,-0.00000621,-0.00001210,-0.
 05365254,0.21277264,0.00448277,0.00101808,-0.00093464,0.00120742,-0.01
 321383,-0.01172739,-0.00158247,0.00022372,0.00056383,0.00006728,0.0006
 5365,-0.00009128,0.00038907,-0.00019485,-0.00023233,-0.00014403,0.0000
 0063,0.00013694,-0.00027088,0.00011803,0.00005503,-0.00010252,-0.00002
 275,0.00008271,-0.00001396,-0.00004125,-0.00000052,-0.00002052,-0.0000
 1898,-0.00004122,0.00000460,0.00002023,0.00002103,0.00000067,0.0000052
 0,-0.00000110,0.00002044,0.00002191,0.00002660,0.03868475,-0.11161536,
 -0.12911113,0.00614261,-0.01803778,-0.01368696,0.00070879,0.00125709,0
 .00102371,0.00053796,0.00020378,0.00117327,-0.00018289,-0.00008289,0.0
 0003866,0.00002651,0.00001474,-0.00001253,-0.00002724,0.00001207,-0.00
 003042,0.00002321,-0.00000174,0.00001512,-0.00002904,0.00002854,-0.000
 02413,0.00000090,0.00000303,0.00000289,0.00000109,-0.00000743,0.000006
 34,-0.04112175,0.12563875,0.14233717,-0.00209335,0.00281454,-0.0012110
 3,0.00506974,-0.02607848,0.01817297,-0.00241991,0.00078805,-0.00074055
 ,-0.00056980,0.00089216,-0.00110141,0.00020191,0.00026558,-0.00016245,
 -0.00003759,-0.00003515,0.00004060,0.00001339,-0.00014454,0.00001389,-
 0.00032654,-0.00027657,0.00037863,0.00003092,-0.00018643,-0.00007993,0
 .00011904,0.00004404,0.00002103,-0.00000641,0.00011030,-0.00008918,-0.
 00005712,0.00002691,-0.00002883,0.00003771,0.00005490,0.00004350,-0.04
 717152,0.02307167,-0.01400203,-0.00500694,0.02010832,-0.01686406,0.002
 10188,0.00044075,0.00117119,-0.00000395,-0.00043292,0.00057196,0.00004
 935,0.00006951,0.00002563,0.00000402,0.00001272,-0.00001573,-0.0001737
 1,0.00006320,-0.00010518,0.00001253,0.00000296,0.00000723,-0.00000414,
 -0.00006745,0.00008731,-0.00000234,0.00000630,-0.00000021,-0.00001334,
 -0.00001877,0.00001652,-0.00129168,0.00743433,-0.00528659,0.05360057,0
 .00045863,-0.00008818,-0.00104085,-0.00104104,-0.00556213,0.00329319,-
 0.00113656,0.00075264,-0.00003590,-0.00042814,0.00020820,-0.00031848,0
 .00017982,-0.00002496,-0.00009994,-0.00005486,0.00000682,0.00004595,-0
 .00010192,0.00003618,0.00000730,-0.00009489,-0.00004462,0.00015562,-0.
 00000810,-0.00007717,-0.00000245,0.00001394,0.00002433,0.00000854,-0.0
 0001122,0.00000754,-0.00001535,-0.00000114,0.00002148,0.00000536,0.000
 01557,0.00001520,-0.00003913,0.02797672,-0.21036666,0.12133393,-0.0013
 2793,0.00557376,-0.00391038,0.00044247,0.00023883,-0.00069453,0.000381
 35,-0.00042117,0.00069942,-0.00000913,-0.00001035,-0.00000600,0.000012
 62,0.00000662,-0.00000154,-0.00002897,0.00002038,-0.00003495,-0.000005
 41,-0.00001644,-0.00000528,-0.00004835,0.00001649,-0.00000957,-0.00000
 462,0.00000431,0.00000501,-0.00001985,-0.00000808,0.00001105,0.0027735
 0,-0.01990712,0.01396679,-0.02692931,0.22759191,0.00202315,-0.00197522
 ,0.00092425,-0.00153082,0.01237612,-0.01043585,-0.00019530,-0.00067535
 ,0.00000518,0.00036919,0.00003322,0.00008152,-0.00002544,-0.00000577,0
 .00000636,-0.00003336,-0.00005758,0.00004730,-0.00003651,-0.00000684,0
 .00002031,-0.00000188,0.00002880,-0.00005118,0.00003047,0.00003567,0.0
 0003231,-0.00001603,-0.00002499,-0.00000870,-0.00001508,-0.00003423,0.
 00001572,0.00001444,0.00001392,0.00002415,-0.00002209,-0.00003163,-0.0
 0005068,-0.01781557,0.12158466,-0.13261912,-0.00567892,0.01882196,-0.0
 1714477,0.00192683,-0.00055501,0.00205466,0.00009558,-0.00011717,0.000
 21435,-0.00004974,-0.00004775,-0.00002408,-0.00000701,0.00000053,-0.00
 000072,0.00000286,-0.00002189,0.00000296,0.00000321,-0.00001019,0.0000
 0025,0.00002791,0.00004845,-0.00003958,-0.00000382,0.00000193,0.000000
 69,-0.00000273,0.00000217,0.00000586,0.00186476,-0.01559012,0.01166097
 ,0.02145009,-0.13245083,0.14695500,-0.00018600,-0.00007940,0.00123186,
 0.00176646,0.00084563,-0.00227600,-0.00043775,-0.00042635,0.00029033,0
 .00012472,0.00001339,-0.00011508,-0.00008375,0.00012642,-0.00004326,-0
 .00001670,-0.00006786,0.00004216,0.00005070,-0.00007947,0.00003728,-0.
 00003598,-0.00001277,0.00002166,0.00000578,0.00001622,0.00002265,-0.00
 001955,-0.00001517,0.00000651,-0.00001578,-0.00000684,0.00001105,0.000
 00786,0.00000123,0.00000021,-0.00001306,-0.00000866,-0.00000845,-0.005
 87010,0.01933539,-0.01470615,-0.05545071,0.03177220,-0.02304082,-0.005
 38950,-0.02761302,0.02461762,0.00002025,0.00014139,-0.00002630,-0.0000
 2454,0.00001415,0.00000631,-0.00001009,-0.00000475,-0.00000613,-0.0000
 2304,0.00000131,-0.00000668,0.00001235,0.00000633,0.00000221,0.0000171
 0,0.00000447,-0.00002124,0.00000088,-0.00000060,-0.00000286,0.00001185
 ,0.00000320,0.00000086,0.00100799,-0.00055598,0.00060084,-0.00357426,-
 0.00144158,-0.00340326,0.06577713,0.00015606,0.00042507,-0.00109368,-0
 .00009256,0.00058774,0.00137610,0.00041476,-0.00007711,-0.00021694,0.0
 0000921,0.00004181,0.00005610,0.00008390,-0.00009774,0.00003975,-0.000
 01729,0.00003257,-0.00003623,-0.00007146,0.00005121,-0.00003967,0.0000
 3332,0.00000358,-0.00000888,0.00000104,-0.00001298,-0.00000372,0.00000
 285,-0.00000583,0.00000064,0.00001386,0.00001967,-0.00000638,-0.000014
 29,-0.00000119,-0.00001914,0.00000542,0.00001791,0.00000876,-0.0014062
 2,0.00556173,-0.00524895,0.03389496,-0.19947337,0.10613465,-0.00750577
 ,-0.00299260,0.00760541,-0.00003451,-0.00010442,0.00004256,0.00002541,
 -0.00001457,0.00000380,0.00002295,0.00001119,0.00001530,0.00000839,0.0
 0000197,0.00000420,-0.00000671,0.00000160,-0.00000465,-0.00000817,-0.0
 0001898,0.00000379,-0.00000308,0.00000016,0.00000080,-0.00000391,-0.00
 000305,0.00000643,0.00048095,0.00096151,0.00048319,-0.00169156,0.00101
 629,-0.00134293,-0.02800869,0.21335001,-0.00028030,0.00023621,0.001083
 10,0.00136577,0.00020915,-0.00162901,-0.00043083,-0.00038642,0.0003363
 7,0.00007137,-0.00006156,-0.00008852,-0.00023423,0.00020093,0.00004562
 ,0.00005996,-0.00005386,-0.00001377,0.00017082,-0.00013591,0.00002299,
 -0.00003455,-0.00001084,0.00000626,0.00000733,0.00001981,0.00001269,-0
 .00001869,-0.00000232,-0.00000363,-0.00001090,-0.00001706,0.00001756,0
 .00001117,-0.00000345,0.00000883,-0.00000756,-0.00001148,0.00000093,-0
 .00770038,0.01728044,-0.01355946,-0.02434034,0.10549782,-0.13132511,0.
 00846043,0.01388281,-0.01066279,-0.00005476,0.00017959,-0.00011493,-0.
 00001926,0.00001424,0.00000606,-0.00003021,-0.00001345,-0.00000385,-0.
 00001528,-0.00000040,-0.00000299,0.00000901,0.00000521,0.00000254,0.00
 000781,0.00000044,-0.00001300,0.00000420,-0.00000071,-0.00000227,0.000
 00918,0.00000550,-0.00000560,0.00103474,0.00012541,0.00048139,-0.00308
 069,-0.00088813,-0.00220759,0.02282667,-0.12274288,0.14554451,-0.00096
 588,0.00089772,0.00101473,0.00061728,-0.00186148,-0.00169547,0.0003189
 6,0.00061106,0.00082019,-0.00014831,0.00011061,0.00020323,0.00006993,-
 0.00010029,-0.00002668,-0.00001564,0.00003123,0.00000936,-0.00005183,0
 .00006595,0.00002246,0.00001786,-0.00000386,-0.00001845,-0.00001922,-0
 .00001656,-0.00001518,-0.00000891,-0.00000105,-0.00005126,0.00001842,0
 .00000893,0.00001735,-0.00000018,-0.00000684,0.00000705,0.00002483,0.0
 0001396,0.00004016,0.00669621,-0.02001714,-0.01503988,-0.06688397,0.05
 595498,0.03874761,-0.01394367,0.02205717,0.02129602,0.00043508,0.00024
 404,-0.00006050,-0.00010244,-0.00007212,-0.00001143,0.00000152,-0.0000
 0242,-0.00000259,0.00000814,0.00000298,0.00000153,0.00000360,0.0000043
 1,0.00000637,-0.00004465,-0.00000318,0.00000745,0.00000469,0.00000146,
 0.00000260,0.00000181,-0.00000387,-0.00000390,-0.00419928,-0.00135710,
 -0.00338932,0.00125304,0.00035806,0.00059193,-0.00031161,0.00498077,0.
 00238263,0.08141395,0.00097016,0.00116629,0.00195827,0.00116485,-0.001
 30599,-0.00307539,-0.00005319,0.00035063,0.00054848,-0.00000564,0.0000
 0297,0.00002596,0.00010003,-0.00009531,-0.00005414,-0.00004374,0.00000
 455,0.00004445,-0.00009120,0.00007782,0.00001476,-0.00000002,0.0000036
 8,0.00000075,-0.00001287,-0.00000421,-0.00000493,-0.00001677,-0.000006
 12,-0.00002432,-0.00000003,0.00000060,0.00001597,0.00000723,-0.0000036
 8,0.00000776,0.00000919,0.00000419,0.00001768,-0.00010021,-0.00551522,
 -0.00349017,0.05918434,-0.21399493,-0.11669127,-0.00372168,0.01033771,
 0.00776293,0.00008202,0.00014674,0.00006345,-0.00005016,-0.00002396,0.
 00000561,0.00000839,0.00000033,-0.00000446,0.00000179,0.00000101,-0.00
 000185,0.00000671,0.00000055,0.00000723,-0.00001514,0.00001474,-0.0000
 0878,0.00000292,0.00000058,0.00000080,0.00000494,-0.00000126,-0.000003
 45,-0.00114202,0.00130714,-0.00043947,-0.00033954,0.00102742,0.0002647
 6,0.00655622,-0.02048728,-0.01313470,-0.06088585,0.22501780,0.00075606
 ,0.00134389,0.00078017,0.00115534,-0.00061816,-0.00105934,-0.00010585,
 -0.00015017,0.00010574,0.00005470,0.00007518,0.00003878,0.00001450,0.0
 0000226,-0.00001000,-0.00001677,-0.00001309,0.00001341,-0.00001525,0.0
 0000176,0.00002750,0.00000553,-0.00001844,-0.00000370,-0.00001038,-0.0
 0002491,-0.00001109,0.00000503,-0.00000792,-0.00002036,0.00002214,0.00
 002760,0.00000252,-0.00001475,-0.00000731,-0.00001859,0.00001791,0.000
 02445,0.00003655,0.00316800,-0.01861013,-0.01427220,0.04059817,-0.1107
 2696,-0.13022955,0.00709595,-0.01187427,-0.01116330,0.00011961,0.00015
 828,0.00004092,-0.00003843,-0.00001235,0.00003140,-0.00000222,-0.00000
 015,-0.00000128,-0.00000720,0.00000944,-0.00000278,0.00000320,0.000008
 49,0.00000374,-0.00002550,-0.00001514,0.00001588,0.00000079,0.00000036
 ,0.00000141,0.00000135,-0.00000443,0.00000049,-0.00314091,-0.00061785,
 -0.00213886,0.00079184,0.00004787,0.00057780,-0.00535323,0.01549937,0.
 01165911,-0.04749660,0.12442373,0.14517114,0.00008463,-0.00043616,-0.0
 0101748,-0.00076409,-0.00027884,0.00107395,0.00010308,-0.00000936,-0.0
 0015147,-0.00008251,-0.00002559,0.00002807,-0.00008248,-0.00002241,0.0
 0007458,0.00005950,0.00004166,-0.00006212,0.00006241,0.00000296,-0.000
 03892,-0.00000121,0.00000902,-0.00000535,0.00000451,0.00000973,-0.0000
 0453,0.00000787,0.00000761,0.00000085,0.00000777,-0.00001236,-0.000006
 44,0.00000220,0.00000122,0.00000839,0.00000060,-0.00000905,-0.00001260
 ,0.00099726,0.00162506,0.00108240,-0.01248902,0.02911770,0.01329824,-0
 .12231455,0.11375486,0.07930884,-0.00009266,-0.00005865,-0.00001336,0.
 00001267,-0.00000148,-0.00001372,-0.00000629,-0.00000722,0.00000929,0.
 00001192,-0.00000457,0.00000253,-0.00000513,-0.00000774,-0.00000239,-0
 .00000280,0.00000846,0.00000703,-0.00000171,-0.00000037,0.00000165,-0.
 00000984,0.00000110,-0.00000047,-0.00052968,-0.00087367,-0.00079922,-0
 .00011848,0.00000620,0.00005193,0.00164711,-0.00084256,-0.00027181,-0.
 00490298,-0.00256228,0.00252987,0.12658095,-0.00025029,-0.00004378,0.0
 0005479,0.00014852,0.00011315,0.00004450,0.00002764,-0.00007514,-0.000
 01057,-0.00001797,-0.00000041,0.00000201,-0.00006408,0.00003722,0.0000
 2580,0.00003279,0.00000524,-0.00001955,0.00005622,-0.00002855,0.000000
 31,-0.00000313,-0.00000131,-0.00000847,-0.00000040,0.00000623,-0.00000
 484,-0.00000307,0.00000105,-0.00000253,0.00000563,-0.00000303,0.000007
 48,-0.00000008,-0.00000782,0.00000038,0.00000236,0.00000231,0.00000949
 ,0.00052452,0.00077898,0.00053378,-0.00765196,0.00745109,0.01079593,0.
 11578388,-0.28249446,-0.17074731,-0.00003526,0.00001647,-0.00003747,0.
 00000160,0.00000423,-0.00000110,-0.00001087,-0.00000489,-0.00000148,0.
 00000213,-0.00000088,0.00000152,-0.00000104,0.00000140,0.00000160,-0.0
 0000273,-0.00000166,0.00000089,0.00000248,-0.00000075,-0.00000020,0.00
 000131,0.00000181,-0.00000509,0.00043661,-0.00008737,-0.00020438,0.000
 11541,-0.00025071,-0.00008286,-0.00042880,0.00176558,0.00032535,-0.001
 92197,0.00113430,0.00124261,-0.11638650,0.28578369,0.00017664,0.000007
 10,-0.00019555,-0.00005319,-0.00014653,0.00002282,-0.00001119,0.000088
 53,-0.00006099,-0.00002498,-0.00001953,0.00001542,0.00003161,-0.000072
 86,0.00003220,-0.00000061,0.00002582,-0.00002590,-0.00003956,0.0000441
 8,-0.00004340,0.00000630,0.00000754,0.00001144,0.00000383,-0.00000669,
 0.00000064,0.00000549,0.00000168,0.00000145,0.00000264,0.00000014,-0.0
 0001293,-0.00000189,0.00001105,0.00000108,0.00000280,-0.00000290,-0.00
 001567,-0.00055223,0.00104769,0.00111746,0.01033327,-0.01499264,-0.011
 83573,0.05778108,-0.12524777,-0.09543353,-0.00002814,-0.00005984,0.000
 07543,0.00001117,-0.00000427,-0.00000262,0.00001240,0.00000153,0.00001
 336,0.00000570,-0.00000067,-0.00000070,-0.00000407,-0.00000637,-0.0000
 0510,-0.00000199,0.00000210,0.00000368,-0.00000435,0.00000083,0.000001
 99,-0.00001014,-0.00000204,0.00000810,0.00026447,-0.00041858,0.0003300
 0,-0.00018034,0.00025502,-0.00007569,-0.00137149,-0.00090865,0.0002906
 4,0.00291802,0.00207524,-0.00054249,-0.08050198,0.15981049,0.11933349,
 -0.00001538,0.00028907,0.00072291,-0.00000050,-0.00069765,-0.00274338,
 -0.00095483,-0.00022812,0.00047735,0.00013030,-0.00015356,-0.00015860,
 -0.00005408,0.00016493,-0.00004134,-0.00004065,-0.00009621,0.00005751,
 0.00001005,-0.00008786,0.00001494,-0.00002273,-0.00003569,0.00003668,0
 .00000198,-0.00002286,0.00001096,-0.00000252,-0.00000956,0.00000906,-0
 .00000334,0.00002321,0.00000028,-0.00001540,0.00000362,-0.00002543,0.0
 0000230,0.00001928,0.00000998,-0.00570978,-0.00128870,0.00535526,-0.02
 007276,-0.00850261,-0.02394093,-0.22655646,-0.10536178,-0.15171573,-0.
 00000205,0.00007569,0.00004086,0.00000817,0.00000906,0.00001009,-0.000
 00292,0.00000164,-0.00000046,-0.00003139,0.00001227,-0.00001513,0.0000
 0259,0.00000707,-0.00000399,0.00001323,-0.00002078,-0.00001160,-0.0000
 0113,0.00000056,-0.00000184,0.00000536,-0.00000136,0.00000555,0.000332
 60,-0.00010017,0.00007153,0.00037701,0.00007413,0.00038521,0.00101223,
 -0.00042711,0.00010868,0.00071327,0.00094155,-0.00011292,0.01182098,0.
 00963706,0.01123074,0.23905586,0.00018779,-0.00019226,-0.00001255,-0.0
 0013383,0.00061124,-0.00006526,0.00031812,0.00008745,-0.00006412,-0.00
 002850,0.00001146,0.00004614,-0.00006995,-0.00001363,0.00005448,0.0000
 5854,0.00003627,-0.00003914,0.00006135,-0.00000077,-0.00001131,-0.0000
 0177,0.00002117,-0.00002255,0.00000392,0.00002136,-0.00000336,-0.00000
 133,0.00001206,-0.00000922,-0.00000351,-0.00003361,0.00000151,0.000018
 77,0.00000545,0.00003007,-0.00000281,-0.00002735,-0.00001518,0.0007556
 0,0.00022559,0.00117916,-0.00815844,-0.00552200,-0.00337847,-0.0765061
 9,-0.07381765,-0.09104507,-0.00003512,-0.00001728,-0.00004207,-0.00000
 661,0.00000195,-0.00000666,-0.00001569,-0.00000540,-0.00000267,0.00001
 719,-0.00000953,0.00000814,-0.00000010,-0.00000790,0.00000044,-0.00000
 639,0.00002176,0.00000388,0.00000244,0.00000067,0.00000128,-0.00000504
 ,0.00000361,-0.00000548,0.00012150,0.00007942,0.00021126,-0.00012092,0
 .00020920,-0.00018185,-0.00008761,-0.00056049,-0.00051975,0.00091050,0
 .00083891,-0.00016398,-0.02304680,-0.01410198,-0.02148960,0.10577489,0
 .09212228,-0.00018932,0.00007464,0.00007140,0.00058351,-0.00008498,0.0
 0065402,0.00004771,0.00002663,-0.00011661,0.00001843,0.00007576,-0.000
 04114,0.00005046,-0.00000478,-0.00002572,-0.00002327,-0.00000433,0.000
 00837,-0.00002743,0.00000195,0.00000922,-0.00000727,-0.00000989,0.0000
 1002,-0.00000218,-0.00000429,0.00000311,0.00000455,-0.00000441,0.00000
 653,-0.00000139,0.00001064,-0.00000505,-0.00000502,-0.00000165,-0.0000
 0717,-0.00000280,0.00000521,-0.00000123,0.00147665,0.00063804,-0.00113
 114,0.01796435,0.01246263,0.00992174,-0.16623755,-0.12712705,-0.201336
 74,0.00003135,-0.00001780,0.00001286,0.00000705,0.00000544,0.00000734,
 0.00000879,0.00000580,0.00000025,-0.00000606,0.00000369,-0.00000153,0.
 00000130,0.00000320,-0.00000031,0.00000313,-0.00000623,0.00000320,-0.0
 0000129,-0.00000031,-0.00000103,0.00000312,-0.00000116,0.00000260,0.00
 011407,0.00033722,0.00007685,0.00015583,-0.00028173,0.00002829,0.00066
 271,0.00039186,0.00011391,-0.00027742,-0.00030491,0.00096697,-0.014575
 76,-0.00173109,-0.01300890,0.16022375,0.11554191,0.20377991\\-0.000001
 07,0.00000126,0.00000169,-0.00000095,-0.00000637,0.00000015,0.00000125
 ,0.00000473,-0.00000324,0.00000171,-0.00000004,0.00000069,0.00000073,-
 0.00000014,-0.00000116,-0.00000038,-0.00000014,-0.00000066,-0.00000038
 ,0.00000014,-0.00000064,0.00000074,0.00000019,-0.00000053,-0.00000072,
 0.00000035,0.00000032,0.00000048,-0.00000040,0.00000031,-0.00000044,0.
 00000049,-0.00000032,0.00000032,-0.00000048,0.00000044,0.00000006,0.00
 000171,0.00000031,-0.00000071,-0.00000100,-0.00000010,-0.00000012,0.00
 000064,-0.00000009,0.00000004,-0.00000081,0.00000055,-0.00000034,-0.00
 000137,0.00000245,0.00000013,-0.00000014,-0.00000027,-0.00000002,-0.00
 000004,-0.00000107,0.00000008,0.00000005,-0.00000050,-0.00000003,0.000
 00063,-0.00000002,-0.00000058,0.00000011,0.00000044,0.00000014,0.00000
 053,0.00000061,0.00000019,0.00000067,0.00000008,0.00000049,0.00000073,
 -0.00000043,-0.00000015,0.00000067,0.00000020,-0.00000004,-0.00000052,
 0.00000017,-0.00000048,-0.00000114,0.00000011,0.00000010,0.00000008,0.
 00000021,-0.00000007,-0.00000038,0.00000028\\\@


 E PUR SI MUOVE    -- GALILEO GALILEI
 Job cpu time:       0 days  4 hours 37 minutes 40.6 seconds.
 File lengths (MBytes):  RWF=    542 Int=      0 D2E=      0 Chk=     19 Scr=      1
 Normal termination of Gaussian 09 at Thu Jul 29 01:10:03 2021.
