 Entering Gaussian System, Link 0=g09
 Input=opt_freq-conf-455.com
 Output=opt_freq-conf-455.log
 Initial command:
 /aerosol/software/g09/l1.exe "/scratch/nicole/10374/Gau-74143.inp" -scrdir="/scratch/nicole/10374/"
 Entering Link 1 = /aerosol/software/g09/l1.exe PID=     74149.
  
 Copyright (c) 1988,1990,1992,1993,1995,1998,2003,2009,2013,
            Gaussian, Inc.  All Rights Reserved.
  
 This is part of the Gaussian(R) 09 program.  It is based on
 the Gaussian(R) 03 system (copyright 2003, Gaussian, Inc.),
 the Gaussian(R) 98 system (copyright 1998, Gaussian, Inc.),
 the Gaussian(R) 94 system (copyright 1995, Gaussian, Inc.),
 the Gaussian 92(TM) system (copyright 1992, Gaussian, Inc.),
 the Gaussian 90(TM) system (copyright 1990, Gaussian, Inc.),
 the Gaussian 88(TM) system (copyright 1988, Gaussian, Inc.),
 the Gaussian 86(TM) system (copyright 1986, Carnegie Mellon
 University), and the Gaussian 82(TM) system (copyright 1983,
 Carnegie Mellon University). Gaussian is a federally registered
 trademark of Gaussian, Inc.
  
 This software contains proprietary and confidential information,
 including trade secrets, belonging to Gaussian, Inc.
  
 This software is provided under written license and may be
 used, copied, transmitted, or stored only in accord with that
 written license.
  
 The following legend is applicable only to US Government
 contracts under FAR:
  
                    RESTRICTED RIGHTS LEGEND
  
 Use, reproduction and disclosure by the US Government is
 subject to restrictions as set forth in subparagraphs (a)
 and (c) of the Commercial Computer Software - Restricted
 Rights clause in FAR 52.227-19.
  
 Gaussian, Inc.
 340 Quinnipiac St., Bldg. 40, Wallingford CT 06492
  
  
 ---------------------------------------------------------------
 Warning -- This program may not be used in any manner that
 competes with the business of Gaussian, Inc. or will provide
 assistance to any competitor of Gaussian, Inc.  The licensee
 of this program is prohibited from giving any competitor of
 Gaussian, Inc. access to this program.  By using this program,
 the user acknowledges that Gaussian, Inc. is engaged in the
 business of creating and licensing software in the field of
 computational chemistry and represents and warrants to the
 licensee that it is not a competitor of Gaussian, Inc. and that
 it will not use this program in any manner prohibited above.
 ---------------------------------------------------------------
  

 Cite this work as:
 Gaussian 09, Revision D.01,
 M. J. Frisch, G. W. Trucks, H. B. Schlegel, G. E. Scuseria, 
 M. A. Robb, J. R. Cheeseman, G. Scalmani, V. Barone, B. Mennucci, 
 G. A. Petersson, H. Nakatsuji, M. Caricato, X. Li, H. P. Hratchian, 
 A. F. Izmaylov, J. Bloino, G. Zheng, J. L. Sonnenberg, M. Hada, 
 M. Ehara, K. Toyota, R. Fukuda, J. Hasegawa, M. Ishida, T. Nakajima, 
 Y. Honda, O. Kitao, H. Nakai, T. Vreven, J. A. Montgomery, Jr., 
 J. E. Peralta, F. Ogliaro, M. Bearpark, J. J. Heyd, E. Brothers, 
 K. N. Kudin, V. N. Staroverov, T. Keith, R. Kobayashi, J. Normand, 
 K. Raghavachari, A. Rendell, J. C. Burant, S. S. Iyengar, J. Tomasi, 
 M. Cossi, N. Rega, J. M. Millam, M. Klene, J. E. Knox, J. B. Cross, 
 V. Bakken, C. Adamo, J. Jaramillo, R. Gomperts, R. E. Stratmann, 
 O. Yazyev, A. J. Austin, R. Cammi, C. Pomelli, J. W. Ochterski, 
 R. L. Martin, K. Morokuma, V. G. Zakrzewski, G. A. Voth, 
 P. Salvador, J. J. Dannenberg, S. Dapprich, A. D. Daniels, 
 O. Farkas, J. B. Foresman, J. V. Ortiz, J. Cioslowski, 
 and D. J. Fox, Gaussian, Inc., Wallingford CT, 2013.
 
 ******************************************
 Gaussian 09:  ES64L-G09RevD.01 24-Apr-2013
                24-Jul-2021 
 ******************************************
 %mem=2gb
 %nproc=4
 Will use up to    4 processors via shared memory.
 %chk=conf-455.chk
 ----------------------------------------------------------------------
 # B3LYP/6-31G(d,p) EmpiricalDispersion=GD3BJ opt=calcfc freq=noraman n
 osymm integral(ultrafinegrid)
 ----------------------------------------------------------------------
 1/10=4,14=-1,18=20,19=15,26=4,38=1/1,3;
 2/9=110,12=2,15=1,17=6,18=5,40=1/2;
 3/5=1,6=6,7=101,11=2,16=1,25=1,30=1,71=2,74=-5,75=-5,124=41,140=1/1,2,3;
 4//1;
 5/5=2,38=5/2;
 8/6=4,10=90,11=11/1;
 11/6=1,8=1,9=11,15=111,16=1,31=1/1,2,10;
 10/6=1,13=1,31=1/2;
 6/7=2,8=2,9=2,10=2,28=1/1;
 7/10=1,18=20,25=1,30=1/1,2,3,16;
 1/10=4,14=-1,18=20,19=15,26=4/3(2);
 2/9=110,15=1/2;
 99//99;
 2/9=110,15=1/2;
 3/5=1,6=6,7=101,11=2,16=1,25=1,30=1,71=1,74=-5,75=-5,124=41/1,2,3;
 4/5=5,16=3,69=1/1;
 5/5=2,38=5/2;
 7/30=1/1,2,3,16;
 1/14=-1,18=20,19=15,26=4/3(-5);
 2/9=110,15=1/2;
 6/7=2,8=2,9=2,10=2,19=2,28=1/1;
 99/9=1/99;
 ------------------------------------------------------------
 Candidate Structure: Conf:455 OPT and FREQ calc in gas phase
 ------------------------------------------------------------
 Symbolic Z-matrix:
 Charge =  0 Multiplicity = 1
 O                     0.28008  -0.25923  -1.27944 
 C                     0.9495   -0.15887  -0.2498 
 N                     0.4937   -0.52865   0.97949 
 C                    -0.61605  -1.43415   1.23982 
 C                    -0.16578  -2.89331   1.09177 
 O                    -1.0117   -3.80859   1.62216 
 O                     0.85198  -3.23587   0.56269 
 C                    -1.87574  -1.18421   0.39051 
 C                    -2.39463   0.209     0.52312 
 C                    -3.31851   0.77342   1.35646 
 N                    -3.40808   2.13496   1.12826 
 C                    -2.54901   2.37777   0.1668 
 N                    -1.91356   1.2507   -0.23435 
 C                     2.35746   0.42422  -0.24031 
 C                     2.66699   1.2558   -1.48472 
 N                     3.99632   1.85969  -1.50811 
 H                     1.17862  -0.50482   1.71547 
 H                    -0.87804  -1.28132   2.29154 
 H                    -1.75658  -3.37408   2.04376 
 H                    -2.65134  -1.87719   0.72534 
 H                    -1.66079  -1.41998  -0.64787 
 H                    -3.9224    0.28943   2.11093 
 H                    -2.33695   3.33354  -0.27858 
 H                    -1.20225   1.15599  -0.94843 
 H                     2.49242   1.02514   0.66613 
 H                     3.07123  -0.40887  -0.17155 
 H                     2.56078   0.62307  -2.36526 
 H                     1.9279    2.05322  -1.57997 
 H                     4.12507   2.46199  -0.70287 
 H                     4.70929   1.14111  -1.45005 
 

 GradGradGradGradGradGradGradGradGradGradGradGradGradGradGradGradGradGrad
 Berny optimization.
 Initialization pass.
                           ----------------------------
                           !    Initial Parameters    !
                           ! (Angstroms and Degrees)  !
 --------------------------                            --------------------------
 ! Name  Definition              Value          Derivative Info.                !
 --------------------------------------------------------------------------------
 ! R1    R(1,2)                  1.2322         calculate D2E/DX2 analytically  !
 ! R2    R(2,3)                  1.3622         calculate D2E/DX2 analytically  !
 ! R3    R(2,14)                 1.524          calculate D2E/DX2 analytically  !
 ! R4    R(3,4)                  1.4558         calculate D2E/DX2 analytically  !
 ! R5    R(3,17)                 1.0057         calculate D2E/DX2 analytically  !
 ! R6    R(4,5)                  1.5342         calculate D2E/DX2 analytically  !
 ! R7    R(4,8)                  1.5397         calculate D2E/DX2 analytically  !
 ! R8    R(4,18)                 1.0946         calculate D2E/DX2 analytically  !
 ! R9    R(5,6)                  1.3545         calculate D2E/DX2 analytically  !
 ! R10   R(5,7)                  1.1971         calculate D2E/DX2 analytically  !
 ! R11   R(6,19)                 0.9599         calculate D2E/DX2 analytically  !
 ! R12   R(8,9)                  1.4926         calculate D2E/DX2 analytically  !
 ! R13   R(8,20)                 1.0927         calculate D2E/DX2 analytically  !
 ! R14   R(8,21)                 1.0863         calculate D2E/DX2 analytically  !
 ! R15   R(9,10)                 1.3662         calculate D2E/DX2 analytically  !
 ! R16   R(9,13)                 1.3749         calculate D2E/DX2 analytically  !
 ! R17   R(10,11)                1.3834         calculate D2E/DX2 analytically  !
 ! R18   R(10,22)                1.0808         calculate D2E/DX2 analytically  !
 ! R19   R(11,12)                1.312          calculate D2E/DX2 analytically  !
 ! R20   R(12,13)                1.3546         calculate D2E/DX2 analytically  !
 ! R21   R(12,23)                1.0756         calculate D2E/DX2 analytically  !
 ! R22   R(13,24)                1.0123         calculate D2E/DX2 analytically  !
 ! R23   R(14,15)                1.5284         calculate D2E/DX2 analytically  !
 ! R24   R(14,25)                1.0959         calculate D2E/DX2 analytically  !
 ! R25   R(14,26)                1.0992         calculate D2E/DX2 analytically  !
 ! R26   R(15,16)                1.4603         calculate D2E/DX2 analytically  !
 ! R27   R(15,27)                1.0895         calculate D2E/DX2 analytically  !
 ! R28   R(15,28)                1.0914         calculate D2E/DX2 analytically  !
 ! R29   R(16,29)                1.0138         calculate D2E/DX2 analytically  !
 ! R30   R(16,30)                1.0139         calculate D2E/DX2 analytically  !
 ! A1    A(1,2,3)              123.3788         calculate D2E/DX2 analytically  !
 ! A2    A(1,2,14)             122.5669         calculate D2E/DX2 analytically  !
 ! A3    A(3,2,14)             114.0402         calculate D2E/DX2 analytically  !
 ! A4    A(2,3,4)              125.8242         calculate D2E/DX2 analytically  !
 ! A5    A(2,3,17)             115.2206         calculate D2E/DX2 analytically  !
 ! A6    A(4,3,17)             113.7692         calculate D2E/DX2 analytically  !
 ! A7    A(3,4,5)              110.5236         calculate D2E/DX2 analytically  !
 ! A8    A(3,4,8)              115.0915         calculate D2E/DX2 analytically  !
 ! A9    A(3,4,18)             105.512          calculate D2E/DX2 analytically  !
 ! A10   A(5,4,8)              109.9549         calculate D2E/DX2 analytically  !
 ! A11   A(5,4,18)             107.2037         calculate D2E/DX2 analytically  !
 ! A12   A(8,4,18)             108.1509         calculate D2E/DX2 analytically  !
 ! A13   A(4,5,6)              114.9362         calculate D2E/DX2 analytically  !
 ! A14   A(4,5,7)              124.355          calculate D2E/DX2 analytically  !
 ! A15   A(6,5,7)              120.707          calculate D2E/DX2 analytically  !
 ! A16   A(5,6,19)             110.5326         calculate D2E/DX2 analytically  !
 ! A17   A(4,8,9)              112.7642         calculate D2E/DX2 analytically  !
 ! A18   A(4,8,20)             107.9844         calculate D2E/DX2 analytically  !
 ! A19   A(4,8,21)             109.2787         calculate D2E/DX2 analytically  !
 ! A20   A(9,8,20)             108.5416         calculate D2E/DX2 analytically  !
 ! A21   A(9,8,21)             110.8736         calculate D2E/DX2 analytically  !
 ! A22   A(20,8,21)            107.201          calculate D2E/DX2 analytically  !
 ! A23   A(8,9,10)             132.4452         calculate D2E/DX2 analytically  !
 ! A24   A(8,9,13)             122.4539         calculate D2E/DX2 analytically  !
 ! A25   A(10,9,13)            105.0494         calculate D2E/DX2 analytically  !
 ! A26   A(9,10,11)            110.4721         calculate D2E/DX2 analytically  !
 ! A27   A(9,10,22)            128.2159         calculate D2E/DX2 analytically  !
 ! A28   A(11,10,22)           121.311          calculate D2E/DX2 analytically  !
 ! A29   A(10,11,12)           105.1067         calculate D2E/DX2 analytically  !
 ! A30   A(11,12,13)           111.7273         calculate D2E/DX2 analytically  !
 ! A31   A(11,12,23)           126.6557         calculate D2E/DX2 analytically  !
 ! A32   A(13,12,23)           121.6167         calculate D2E/DX2 analytically  !
 ! A33   A(9,13,12)            107.644          calculate D2E/DX2 analytically  !
 ! A34   A(9,13,24)            124.304          calculate D2E/DX2 analytically  !
 ! A35   A(12,13,24)           128.0481         calculate D2E/DX2 analytically  !
 ! A36   A(2,14,15)            112.968          calculate D2E/DX2 analytically  !
 ! A37   A(2,14,25)            109.1919         calculate D2E/DX2 analytically  !
 ! A38   A(2,14,26)            108.079          calculate D2E/DX2 analytically  !
 ! A39   A(15,14,25)           110.4976         calculate D2E/DX2 analytically  !
 ! A40   A(15,14,26)           109.3782         calculate D2E/DX2 analytically  !
 ! A41   A(25,14,26)           106.4924         calculate D2E/DX2 analytically  !
 ! A42   A(14,15,16)           114.9869         calculate D2E/DX2 analytically  !
 ! A43   A(14,15,27)           108.8035         calculate D2E/DX2 analytically  !
 ! A44   A(14,15,28)           109.3562         calculate D2E/DX2 analytically  !
 ! A45   A(16,15,27)           108.4196         calculate D2E/DX2 analytically  !
 ! A46   A(16,15,28)           108.2352         calculate D2E/DX2 analytically  !
 ! A47   A(27,15,28)           106.7251         calculate D2E/DX2 analytically  !
 ! A48   A(15,16,29)           110.4008         calculate D2E/DX2 analytically  !
 ! A49   A(15,16,30)           110.2504         calculate D2E/DX2 analytically  !
 ! A50   A(29,16,30)           106.6351         calculate D2E/DX2 analytically  !
 ! D1    D(1,2,3,4)             19.7155         calculate D2E/DX2 analytically  !
 ! D2    D(1,2,3,17)           172.5228         calculate D2E/DX2 analytically  !
 ! D3    D(14,2,3,4)          -161.625          calculate D2E/DX2 analytically  !
 ! D4    D(14,2,3,17)           -8.8176         calculate D2E/DX2 analytically  !
 ! D5    D(1,2,14,15)           18.4503         calculate D2E/DX2 analytically  !
 ! D6    D(1,2,14,25)          141.8325         calculate D2E/DX2 analytically  !
 ! D7    D(1,2,14,26)         -102.7103         calculate D2E/DX2 analytically  !
 ! D8    D(3,2,14,15)         -160.2215         calculate D2E/DX2 analytically  !
 ! D9    D(3,2,14,25)          -36.8393         calculate D2E/DX2 analytically  !
 ! D10   D(3,2,14,26)           78.6178         calculate D2E/DX2 analytically  !
 ! D11   D(2,3,4,5)             79.9655         calculate D2E/DX2 analytically  !
 ! D12   D(2,3,4,8)            -45.3216         calculate D2E/DX2 analytically  !
 ! D13   D(2,3,4,18)          -164.4618         calculate D2E/DX2 analytically  !
 ! D14   D(17,3,4,5)           -73.1791         calculate D2E/DX2 analytically  !
 ! D15   D(17,3,4,8)           161.5337         calculate D2E/DX2 analytically  !
 ! D16   D(17,3,4,18)           42.3935         calculate D2E/DX2 analytically  !
 ! D17   D(3,4,5,6)            164.5717         calculate D2E/DX2 analytically  !
 ! D18   D(3,4,5,7)            -14.9493         calculate D2E/DX2 analytically  !
 ! D19   D(8,4,5,6)            -67.2837         calculate D2E/DX2 analytically  !
 ! D20   D(8,4,5,7)            113.1952         calculate D2E/DX2 analytically  !
 ! D21   D(18,4,5,6)            50.062          calculate D2E/DX2 analytically  !
 ! D22   D(18,4,5,7)          -129.4591         calculate D2E/DX2 analytically  !
 ! D23   D(3,4,8,9)            -56.2643         calculate D2E/DX2 analytically  !
 ! D24   D(3,4,8,20)          -176.1842         calculate D2E/DX2 analytically  !
 ! D25   D(3,4,8,21)            67.5248         calculate D2E/DX2 analytically  !
 ! D26   D(5,4,8,9)            178.1539         calculate D2E/DX2 analytically  !
 ! D27   D(5,4,8,20)            58.234          calculate D2E/DX2 analytically  !
 ! D28   D(5,4,8,21)           -58.057          calculate D2E/DX2 analytically  !
 ! D29   D(18,4,8,9)            61.3994         calculate D2E/DX2 analytically  !
 ! D30   D(18,4,8,20)          -58.5205         calculate D2E/DX2 analytically  !
 ! D31   D(18,4,8,21)         -174.8115         calculate D2E/DX2 analytically  !
 ! D32   D(4,5,6,19)            -2.2359         calculate D2E/DX2 analytically  !
 ! D33   D(7,5,6,19)           177.3042         calculate D2E/DX2 analytically  !
 ! D34   D(4,8,9,10)           -91.9136         calculate D2E/DX2 analytically  !
 ! D35   D(4,8,9,13)            85.0596         calculate D2E/DX2 analytically  !
 ! D36   D(20,8,9,10)           27.6848         calculate D2E/DX2 analytically  !
 ! D37   D(20,8,9,13)         -155.3421         calculate D2E/DX2 analytically  !
 ! D38   D(21,8,9,10)          145.1832         calculate D2E/DX2 analytically  !
 ! D39   D(21,8,9,13)          -37.8436         calculate D2E/DX2 analytically  !
 ! D40   D(8,9,10,11)          177.1271         calculate D2E/DX2 analytically  !
 ! D41   D(8,9,10,22)           -2.4995         calculate D2E/DX2 analytically  !
 ! D42   D(13,9,10,11)          -0.2284         calculate D2E/DX2 analytically  !
 ! D43   D(13,9,10,22)        -179.855          calculate D2E/DX2 analytically  !
 ! D44   D(8,9,13,12)         -177.4772         calculate D2E/DX2 analytically  !
 ! D45   D(8,9,13,24)            1.8542         calculate D2E/DX2 analytically  !
 ! D46   D(10,9,13,12)           0.2103         calculate D2E/DX2 analytically  !
 ! D47   D(10,9,13,24)         179.5417         calculate D2E/DX2 analytically  !
 ! D48   D(9,10,11,12)           0.157          calculate D2E/DX2 analytically  !
 ! D49   D(22,10,11,12)        179.8136         calculate D2E/DX2 analytically  !
 ! D50   D(10,11,12,13)         -0.0184         calculate D2E/DX2 analytically  !
 ! D51   D(10,11,12,23)       -179.8148         calculate D2E/DX2 analytically  !
 ! D52   D(11,12,13,9)          -0.1235         calculate D2E/DX2 analytically  !
 ! D53   D(11,12,13,24)       -179.4222         calculate D2E/DX2 analytically  !
 ! D54   D(23,12,13,9)         179.6847         calculate D2E/DX2 analytically  !
 ! D55   D(23,12,13,24)          0.386          calculate D2E/DX2 analytically  !
 ! D56   D(2,14,15,16)         178.7562         calculate D2E/DX2 analytically  !
 ! D57   D(2,14,15,27)         -59.4451         calculate D2E/DX2 analytically  !
 ! D58   D(2,14,15,28)          56.7759         calculate D2E/DX2 analytically  !
 ! D59   D(25,14,15,16)         56.0991         calculate D2E/DX2 analytically  !
 ! D60   D(25,14,15,27)        177.8978         calculate D2E/DX2 analytically  !
 ! D61   D(25,14,15,28)        -65.8812         calculate D2E/DX2 analytically  !
 ! D62   D(26,14,15,16)        -60.8223         calculate D2E/DX2 analytically  !
 ! D63   D(26,14,15,27)         60.9764         calculate D2E/DX2 analytically  !
 ! D64   D(26,14,15,28)        177.1974         calculate D2E/DX2 analytically  !
 ! D65   D(14,15,16,29)        -58.4127         calculate D2E/DX2 analytically  !
 ! D66   D(14,15,16,30)         59.1529         calculate D2E/DX2 analytically  !
 ! D67   D(27,15,16,29)        179.5809         calculate D2E/DX2 analytically  !
 ! D68   D(27,15,16,30)        -62.8534         calculate D2E/DX2 analytically  !
 ! D69   D(28,15,16,29)         64.1716         calculate D2E/DX2 analytically  !
 ! D70   D(28,15,16,30)       -178.2628         calculate D2E/DX2 analytically  !
 --------------------------------------------------------------------------------
 Trust Radius=3.00D-01 FncErr=1.00D-07 GrdErr=1.00D-06
 Number of steps in this run=    160 maximum allowed number of steps=    180.
 GradGradGradGradGradGradGradGradGradGradGradGradGradGradGradGradGradGrad

                          Input orientation:                          
 ---------------------------------------------------------------------
 Center     Atomic      Atomic             Coordinates (Angstroms)
 Number     Number       Type             X           Y           Z
 ---------------------------------------------------------------------
      1          8           0        0.280076   -0.259227   -1.279438
      2          6           0        0.949501   -0.158872   -0.249798
      3          7           0        0.493702   -0.528654    0.979487
      4          6           0       -0.616052   -1.434154    1.239824
      5          6           0       -0.165782   -2.893307    1.091772
      6          8           0       -1.011697   -3.808590    1.622156
      7          8           0        0.851977   -3.235870    0.562694
      8          6           0       -1.875739   -1.184206    0.390509
      9          6           0       -2.394627    0.209002    0.523119
     10          6           0       -3.318514    0.773416    1.356456
     11          7           0       -3.408081    2.134965    1.128260
     12          6           0       -2.549011    2.377768    0.166802
     13          7           0       -1.913559    1.250695   -0.234345
     14          6           0        2.357461    0.424218   -0.240307
     15          6           0        2.666987    1.255801   -1.484724
     16          7           0        3.996323    1.859687   -1.508106
     17          1           0        1.178621   -0.504817    1.715468
     18          1           0       -0.878044   -1.281316    2.291542
     19          1           0       -1.756579   -3.374081    2.043759
     20          1           0       -2.651343   -1.877186    0.725335
     21          1           0       -1.660789   -1.419981   -0.647874
     22          1           0       -3.922403    0.289426    2.110935
     23          1           0       -2.336948    3.333540   -0.278585
     24          1           0       -1.202253    1.155990   -0.948429
     25          1           0        2.492418    1.025139    0.666134
     26          1           0        3.071227   -0.408875   -0.171547
     27          1           0        2.560782    0.623066   -2.365263
     28          1           0        1.927898    2.053224   -1.579966
     29          1           0        4.125069    2.461991   -0.702866
     30          1           0        4.709286    1.141108   -1.450048
 ---------------------------------------------------------------------
                    Distance matrix (angstroms):
                    1          2          3          4          5
     1  O    0.000000
     2  C    1.232217   0.000000
     3  N    2.284943   1.362216   0.000000
     4  C    2.920647   2.509237   1.455768   0.000000
     5  C    3.572087   3.243578   2.457460   1.534205   0.000000
     6  O    4.762972   4.546531   3.665682   2.437346   1.354482
     7  O    3.546961   3.183955   2.762444   2.420701   1.197125
     8  C    2.879558   3.072993   2.528022   1.539683   2.517289
     9  C    3.259216   3.451945   3.015767   2.525264   3.862051
    10  C    4.578661   4.654585   4.046045   3.491457   4.842997
    11  N    5.013150   5.113634   4.726617   4.532823   5.983088
    12  C    4.129053   4.341391   4.285539   4.406638   5.858291
    13  N    2.860790   3.191274   3.230228   3.326427   4.688930
    14  C    2.421243   1.523954   2.422696   3.806062   4.375747
    15  C    2.834571   2.544819   3.738955   5.043547   5.646062
    16  N    4.283990   3.865365   4.915348   6.298770   6.831796
    17  H    3.136425   2.008593   1.005660   2.076236   2.810925
    18  H    3.890734   3.325389   2.041979   1.094583   2.131965
    19  H    4.989381   4.787572   3.780595   2.389651   1.915217
    20  H    3.902579   4.107257   3.431390   2.145550   2.710127
    21  H    2.348017   2.926171   2.843343   2.157564   2.726189
    22  H    5.427382   5.432262   4.631567   3.829037   5.027989
    23  H    4.556149   4.795677   4.950946   5.291310   6.735388
    24  H    2.075983   2.616676   3.071017   3.441065   4.651182
    25  H    3.213923   2.149746   2.550947   4.004975   4.754095
    26  H    3.006715   2.137837   2.825396   4.079117   4.271605
    27  H    2.675644   2.771795   4.097148   5.226956   5.634724
    28  H    2.855356   2.760430   3.908172   5.156035   5.999154
    29  H    4.745674   4.142273   4.996108   6.436786   7.093049
    30  H    4.648434   4.155301   5.144112   6.498200   6.819358
                    6          7          8          9         10
     6  O    0.000000
     7  O    2.218952   0.000000
     8  C    3.025048   3.417515   0.000000
     9  C    4.388784   4.733831   1.492602   0.000000
    10  C    5.136806   5.839300   2.616665   1.366228   0.000000
    11  N    6.427475   6.878505   3.729510   2.258897   1.383442
    12  C    6.538533   6.575438   3.631941   2.203256   2.140410
    13  N    5.464094   5.330360   2.514084   1.374883   2.175395
    14  C    5.721595   4.038259   4.572192   4.817829   5.906630
    15  C    6.988095   5.259401   5.486939   5.545012   6.643133
    16  N    8.185851   6.335600   6.881216   6.906147   7.930481
    17  H    3.964986   2.982321   3.397970   3.833971   4.689028
    18  H    2.617834   3.130842   2.149128   2.765573   3.324485
    19  H    0.959894   3.002869   2.746450   3.944355   4.484836
    20  H    2.687573   3.761080   1.092652   2.111628   2.805195
    21  H    3.358543   3.328202   1.086293   2.136195   3.402407
    22  H    5.050233   6.133471   3.052915   2.204932   1.080818
    23  H    7.508604   7.350792   4.590254   3.226266   3.192345
    24  H    5.593860   5.078562   2.779003   2.117545   3.152367
    25  H    6.046300   4.567051   4.902854   4.956787   5.857204
    26  H    5.607647   3.668254   5.038802   5.544357   6.675432
    27  H    6.949941   5.136568   5.526593   5.750676   6.959879
    28  H    7.297648   5.807161   5.369486   5.148625   6.146976
    29  H    8.432809   6.691815   7.106330   7.006099   7.905632
    30  H    8.165022   6.171539   7.222000   7.431540   8.512181
                   11         12         13         14         15
    11  N    0.000000
    12  C    1.312005   0.000000
    13  N    2.207312   1.354626   0.000000
    14  C    6.167747   5.296749   4.350254   0.000000
    15  C    6.671362   5.585068   4.748144   1.528369   0.000000
    16  N    7.864566   6.776069   6.076186   2.520666   1.460259
    17  H    5.324574   4.960130   4.055264   2.465324   3.944140
    18  H    4.407413   4.549236   3.723370   4.448325   5.767530
    19  H    5.823674   6.102022   5.157806   6.047260   7.311220
    20  H    4.102725   4.292675   3.353946   5.596162   6.556264
    21  H    4.341120   3.984411   2.714297   4.439990   5.156528
    22  H    2.153181   3.166548   3.234166   6.706951   7.568534
    23  H    2.136147   1.075566   2.125902   5.522960   5.550778
    24  H    3.183820   2.133129   1.012344   3.702498   3.907505
    25  H    6.021724   5.243561   4.502707   1.095881   2.170224
    26  H    7.081105   6.282271   5.254161   1.099197   2.158469
    27  H    7.079398   5.966600   4.995443   2.143903   1.089487
    28  H    5.984467   4.816559   4.148679   2.152411   1.091424
    29  H    7.759402   6.731029   6.176712   2.736954   2.047485
    30  H    8.574793   7.538328   6.734390   2.740162   2.045810
                   16         17         18         19         20
    16  N    0.000000
    17  H    4.890987   0.000000
    18  H    6.932725   2.272594   0.000000
    19  H    8.550085   4.117749   2.283175   0.000000
    20  H    7.946316   4.187168   2.439806   2.186216   0.000000
    21  H    6.595388   3.805938   3.045010   3.327548   1.753835
    22  H    8.846999   5.177611   3.430448   4.256359   2.868743
    23  H    6.617725   5.573908   5.480041   7.121958   5.315859
    24  H    5.275757   3.939948   4.067307   5.457290   3.755197
    25  H    2.772277   2.273308   4.395646   6.269368   5.906375
    26  H    2.790800   2.674321   4.735473   6.083399   5.975629
    27  H    2.079598   4.453634   6.094098   7.352296   6.555097
    28  H    2.078702   4.238499   5.829326   7.494157   6.460029
    29  H    1.013783   4.830305   6.928922   8.729116   8.172390
    30  H    1.013925   5.019478   7.147439   8.625603   8.247499
                   21         22         23         24         25
    21  H    0.000000
    22  H    3.955755   0.000000
    23  H    4.815551   4.182117   0.000000
    24  H    2.633669   4.184478   2.545182   0.000000
    25  H    4.995434   6.616543   5.435437   4.034170   0.000000
    26  H    4.862222   7.389737   6.577650   4.616815   1.758729
    27  H    4.994510   7.885388   5.973998   4.056089   3.058709
    28  H    5.080416   7.138610   4.639150   3.316883   2.533891
    29  H    6.967703   8.797688   6.534315   5.490564   2.569874
    30  H    6.912345   9.376140   7.471847   5.932801   3.066949
                   26         27         28         29         30
    26  H    0.000000
    27  H    2.477467   0.000000
    28  H    3.058230   1.750024   0.000000
    29  H    3.103989   2.931245   2.400823   0.000000
    30  H    2.592343   2.392081   2.930009   1.626137   0.000000
 Symmetry turned off by external request.
 Stoichiometry    C9H14N4O3
 Framework group  C1[X(C9H14N4O3)]
 Deg. of freedom    84
 Full point group                 C1      NOp   1
 Rotational constants (GHZ):      0.5402563      0.4097795      0.2497933
 Standard basis: 6-31G(d,p) (6D, 7F)
   310 basis functions,   546 primitive gaussians,   310 cartesian basis functions
    60 alpha electrons       60 beta electrons
       nuclear repulsion energy      1133.9479686227 Hartrees.
 NAtoms=   30 NActive=   30 NUniq=   30 SFac= 1.00D+00 NAtFMM=   60 NAOKFM=F Big=F
 Integral buffers will be    131072 words long.
 Raffenetti 2 integral format.
 Two-electron integral symmetry is turned off.
 Nuclear repulsion after empirical dispersion term =     1133.8925071366 Hartrees.
 One-electron integrals computed using PRISM.
 NBasis=   310 RedAO= T EigKep=  1.12D-03  NBF=   310
 NBsUse=   310 1.00D-06 EigRej= -1.00D+00 NBFU=   310
 ExpMin= 1.61D-01 ExpMax= 5.48D+03 ExpMxC= 8.25D+02 IAcc=3 IRadAn=         5 AccDes= 0.00D+00
 Harris functional with IExCor=  402 and IRadAn=       5 diagonalized for initial guess.
 HarFok:  IExCor=  402 AccDes= 0.00D+00 IRadAn=         5 IDoV= 1 UseB2=F ITyADJ=14
 ICtDFT=  3500011 ScaDFX=  1.000000  1.000000  1.000000  1.000000
 FoFCou: FMM=F IPFlag=           0 FMFlag=      100000 FMFlg1=           0
         NFxFlg=           0 DoJE=T BraDBF=F KetDBF=T FulRan=T
         wScrn=  0.000000 ICntrl=     500 IOpCl=  0 I1Cent=   200000004 NGrid=           0
         NMat0=    1 NMatS0=      1 NMatT0=    0 NMatD0=    1 NMtDS0=    0 NMtDT0=    0
 Symmetry not used in FoFCou.
 Requested convergence on RMS density matrix=1.00D-08 within 128 cycles.
 Requested convergence on MAX density matrix=1.00D-06.
 Requested convergence on             energy=1.00D-06.
 No special actions if energy rises.
 Integral accuracy reduced to 1.0D-05 until final iterations.
 Initial convergence to 1.0D-05 achieved.  Increase integral accuracy.
 SCF Done:  E(RB3LYP) =  -796.153980124     A.U. after   14 cycles
            NFock= 14  Conv=0.68D-08     -V/T= 2.0089
 DoSCS=F DFT=T ScalE2(SS,OS)=  1.000000  1.000000
 Range of M.O.s used for correlation:     1   310
 NBasis=   310 NAE=    60 NBE=    60 NFC=     0 NFV=     0
 NROrb=    310 NOA=    60 NOB=    60 NVA=   250 NVB=   250
 Symmetrizing basis deriv contribution to polar:
 IMax=3 JMax=2 DiffMx= 0.00D+00
 G2DrvN: will do    31 centers at a time, making    1 passes.
 Calling FoFCou, ICntrl=  3107 FMM=F I1Cent=   0 AccDes= 0.00D+00.
 End of G2Drv F.D. properties file   721 does not exist.
 End of G2Drv F.D. properties file   722 does not exist.
 End of G2Drv F.D. properties file   788 does not exist.
          IDoAtm=111111111111111111111111111111
          Differentiating once with respect to nuclear coordinates.
          There are    93 degrees of freedom in the 1st order CPHF.  IDoFFX=6 NUNeed=     0.
     87 vectors produced by pass  0 Test12= 1.61D-14 1.08D-09 XBig12= 1.77D-01 8.96D-02.
 AX will form    87 AO Fock derivatives at one time.
     87 vectors produced by pass  1 Test12= 1.61D-14 1.08D-09 XBig12= 2.88D-02 4.49D-02.
     87 vectors produced by pass  2 Test12= 1.61D-14 1.08D-09 XBig12= 3.03D-04 4.50D-03.
     87 vectors produced by pass  3 Test12= 1.61D-14 1.08D-09 XBig12= 1.31D-06 2.19D-04.
     87 vectors produced by pass  4 Test12= 1.61D-14 1.08D-09 XBig12= 2.16D-09 4.12D-06.
     72 vectors produced by pass  5 Test12= 1.61D-14 1.08D-09 XBig12= 1.97D-12 1.13D-07.
     17 vectors produced by pass  6 Test12= 1.61D-14 1.08D-09 XBig12= 1.58D-15 3.76D-09.
 InvSVY:  IOpt=1 It=  1 EMax= 6.11D-16
 Solved reduced A of dimension   524 with    93 vectors.
 End of Minotr F.D. properties file   721 does not exist.
 End of Minotr F.D. properties file   722 does not exist.
 End of Minotr F.D. properties file   788 does not exist.

 **********************************************************************

            Population analysis using the SCF density.

 **********************************************************************

 Alpha  occ. eigenvalues --  -19.21509 -19.15358 -19.13813 -14.38597 -14.37854
 Alpha  occ. eigenvalues --  -14.31986 -14.30384 -10.33459 -10.31200 -10.27047
 Alpha  occ. eigenvalues --  -10.23054 -10.22123 -10.21609 -10.21606 -10.20819
 Alpha  occ. eigenvalues --  -10.19213  -1.12256  -1.05708  -1.04089  -1.00891
 Alpha  occ. eigenvalues --   -0.95331  -0.89058  -0.86206  -0.82086  -0.76987
 Alpha  occ. eigenvalues --   -0.74058  -0.68411  -0.64862  -0.62846  -0.60591
 Alpha  occ. eigenvalues --   -0.59941  -0.58693  -0.56225  -0.53688  -0.52879
 Alpha  occ. eigenvalues --   -0.51255  -0.49353  -0.46989  -0.46171  -0.45419
 Alpha  occ. eigenvalues --   -0.45102  -0.43894  -0.43245  -0.42567  -0.41616
 Alpha  occ. eigenvalues --   -0.40841  -0.40399  -0.40128  -0.39234  -0.38732
 Alpha  occ. eigenvalues --   -0.38036  -0.35369  -0.33566  -0.29989  -0.28366
 Alpha  occ. eigenvalues --   -0.27482  -0.27017  -0.25779  -0.24030  -0.22270
 Alpha virt. eigenvalues --   -0.01136   0.00009   0.02595   0.03747   0.05907
 Alpha virt. eigenvalues --    0.06795   0.07142   0.10443   0.11849   0.12445
 Alpha virt. eigenvalues --    0.13017   0.14091   0.14751   0.15221   0.16306
 Alpha virt. eigenvalues --    0.16951   0.17387   0.18093   0.19510   0.19986
 Alpha virt. eigenvalues --    0.20953   0.22467   0.23759   0.25104   0.25241
 Alpha virt. eigenvalues --    0.28062   0.28297   0.31941   0.32735   0.33628
 Alpha virt. eigenvalues --    0.36326   0.38549   0.40341   0.45598   0.48395
 Alpha virt. eigenvalues --    0.50185   0.50590   0.52288   0.53015   0.53624
 Alpha virt. eigenvalues --    0.54611   0.55349   0.55704   0.57815   0.58277
 Alpha virt. eigenvalues --    0.58894   0.60924   0.61248   0.63385   0.63610
 Alpha virt. eigenvalues --    0.64099   0.65269   0.66135   0.67428   0.68508
 Alpha virt. eigenvalues --    0.69643   0.69971   0.71060   0.72267   0.72891
 Alpha virt. eigenvalues --    0.73236   0.75440   0.77530   0.78760   0.79558
 Alpha virt. eigenvalues --    0.80286   0.81260   0.81997   0.82950   0.83523
 Alpha virt. eigenvalues --    0.83991   0.84527   0.85618   0.86079   0.86803
 Alpha virt. eigenvalues --    0.87821   0.88376   0.89264   0.90426   0.91045
 Alpha virt. eigenvalues --    0.91392   0.92717   0.93043   0.94751   0.95872
 Alpha virt. eigenvalues --    0.98275   0.98842   1.00550   1.03159   1.04957
 Alpha virt. eigenvalues --    1.06726   1.07750   1.09239   1.11403   1.15218
 Alpha virt. eigenvalues --    1.16087   1.19203   1.22011   1.24383   1.27592
 Alpha virt. eigenvalues --    1.27604   1.29269   1.30390   1.32394   1.34198
 Alpha virt. eigenvalues --    1.36242   1.36963   1.37231   1.39635   1.40367
 Alpha virt. eigenvalues --    1.42291   1.43509   1.44820   1.47495   1.47851
 Alpha virt. eigenvalues --    1.49888   1.51192   1.54422   1.55264   1.59823
 Alpha virt. eigenvalues --    1.61339   1.65027   1.67609   1.69837   1.70983
 Alpha virt. eigenvalues --    1.72197   1.73155   1.74193   1.75054   1.75823
 Alpha virt. eigenvalues --    1.77826   1.80608   1.81084   1.82727   1.83969
 Alpha virt. eigenvalues --    1.85065   1.85744   1.86007   1.87213   1.88885
 Alpha virt. eigenvalues --    1.91997   1.92415   1.94123   1.95219   1.96366
 Alpha virt. eigenvalues --    1.98400   1.98740   2.01008   2.02986   2.04709
 Alpha virt. eigenvalues --    2.06945   2.07435   2.07790   2.10613   2.12245
 Alpha virt. eigenvalues --    2.12661   2.15380   2.17128   2.18061   2.19020
 Alpha virt. eigenvalues --    2.21044   2.21930   2.22297   2.24960   2.26127
 Alpha virt. eigenvalues --    2.27766   2.28117   2.28858   2.29788   2.30591
 Alpha virt. eigenvalues --    2.32981   2.34074   2.35684   2.37511   2.40819
 Alpha virt. eigenvalues --    2.41561   2.43806   2.44396   2.45838   2.46447
 Alpha virt. eigenvalues --    2.47663   2.48753   2.51369   2.52986   2.54884
 Alpha virt. eigenvalues --    2.55839   2.57567   2.58698   2.59904   2.60832
 Alpha virt. eigenvalues --    2.62437   2.63216   2.66226   2.68064   2.69059
 Alpha virt. eigenvalues --    2.70102   2.71127   2.72791   2.73839   2.75182
 Alpha virt. eigenvalues --    2.75988   2.77548   2.80816   2.83453   2.85794
 Alpha virt. eigenvalues --    2.86395   2.89055   2.90496   2.91270   2.92200
 Alpha virt. eigenvalues --    2.92959   2.96152   2.98522   2.99909   3.03651
 Alpha virt. eigenvalues --    3.04109   3.06648   3.12759   3.16381   3.23809
 Alpha virt. eigenvalues --    3.25157   3.28739   3.29625   3.30603   3.32212
 Alpha virt. eigenvalues --    3.36195   3.37125   3.45574   3.47316   3.50011
 Alpha virt. eigenvalues --    3.50789   3.57220   3.58738   3.70814   3.93812
 Alpha virt. eigenvalues --    3.99422   4.00508   4.12662   4.13260   4.17498
 Alpha virt. eigenvalues --    4.19481   4.26160   4.33905   4.41915   4.44066
 Alpha virt. eigenvalues --    4.47354   4.54328   4.64888   4.71643   4.78830
          Condensed to atoms (all electrons):
               1          2          3          4          5          6
     1  O    8.162577   0.508135  -0.086542   0.001692  -0.000529  -0.000003
     2  C    0.508135   4.445644   0.261682  -0.032319   0.001634   0.000129
     3  N   -0.086542   0.261682   6.989077   0.230972  -0.048079   0.003141
     4  C    0.001692  -0.032319   0.230972   5.237109   0.262959  -0.097844
     5  C   -0.000529   0.001634  -0.048079   0.262959   4.429416   0.243420
     6  O   -0.000003   0.000129   0.003141  -0.097844   0.243420   8.111589
     7  O   -0.000855   0.010953  -0.006062  -0.085388   0.615161  -0.076697
     8  C   -0.002159  -0.003191  -0.036059   0.315222  -0.038048   0.001820
     9  C   -0.005715  -0.002206   0.001628  -0.049090   0.003312   0.000247
    10  C    0.000055  -0.000078  -0.000501  -0.002581   0.000002   0.000001
    11  N   -0.000009  -0.000022   0.000005   0.000003   0.000001   0.000000
    12  C    0.000293   0.000211   0.000117   0.000124   0.000001   0.000000
    13  N   -0.011775   0.003495  -0.000132  -0.002564  -0.000047  -0.000001
    14  C   -0.088038   0.270753  -0.105948   0.005716  -0.000228   0.000000
    15  C    0.005923  -0.022379   0.002857  -0.000155   0.000000   0.000000
    16  N    0.000261   0.005556  -0.000076   0.000001   0.000000   0.000000
    17  H    0.003595  -0.025701   0.344724  -0.035801   0.000346   0.000052
    18  H   -0.000047   0.004142  -0.039832   0.365955  -0.040749   0.002629
    19  H    0.000001  -0.000024   0.000368   0.005586  -0.025948   0.280651
    20  H    0.000687   0.000377   0.004270  -0.041852  -0.003893   0.004312
    21  H    0.012215   0.002487  -0.006677  -0.038386  -0.001886  -0.000173
    22  H    0.000001   0.000000   0.000002   0.000081  -0.000005   0.000000
    23  H   -0.000006   0.000001   0.000004  -0.000002   0.000000   0.000000
    24  H    0.033812  -0.000933  -0.002374   0.000080  -0.000042   0.000000
    25  H    0.001962  -0.029537   0.001848   0.000526  -0.000005   0.000000
    26  H    0.000179  -0.015846  -0.002464  -0.000504   0.000123   0.000000
    27  H    0.006371  -0.001753   0.000219   0.000012  -0.000001   0.000000
    28  H    0.002191   0.000555   0.000026  -0.000005   0.000000   0.000000
    29  H    0.000003   0.000116  -0.000004   0.000000   0.000000   0.000000
    30  H    0.000005   0.000179  -0.000002   0.000000   0.000000   0.000000
               7          8          9         10         11         12
     1  O   -0.000855  -0.002159  -0.005715   0.000055  -0.000009   0.000293
     2  C    0.010953  -0.003191  -0.002206  -0.000078  -0.000022   0.000211
     3  N   -0.006062  -0.036059   0.001628  -0.000501   0.000005   0.000117
     4  C   -0.085388   0.315222  -0.049090  -0.002581   0.000003   0.000124
     5  C    0.615161  -0.038048   0.003312   0.000002   0.000001   0.000001
     6  O   -0.076697   0.001820   0.000247   0.000001   0.000000   0.000000
     7  O    7.964567  -0.002366  -0.000121   0.000000   0.000000   0.000000
     8  C   -0.002366   5.115303   0.322627  -0.065047   0.007289   0.007025
     9  C   -0.000121   0.322627   4.785772   0.570745  -0.044418  -0.092595
    10  C    0.000000  -0.065047   0.570745   4.879499   0.426332  -0.123178
    11  N    0.000000   0.007289  -0.044418   0.426332   6.689070   0.535390
    12  C    0.000000   0.007025  -0.092595  -0.123178   0.535390   4.676677
    13  N    0.000000  -0.063200   0.363025  -0.069722  -0.088756   0.361407
    14  C   -0.000658   0.000072  -0.000136   0.000001   0.000000   0.000019
    15  C    0.000005   0.000011   0.000001   0.000000   0.000000  -0.000004
    16  N    0.000000   0.000000   0.000000   0.000000   0.000000   0.000000
    17  H    0.001803   0.004676  -0.000155  -0.000024   0.000000   0.000014
    18  H    0.001764  -0.032429  -0.004871   0.002808  -0.000068  -0.000068
    19  H    0.004843  -0.000875  -0.000199   0.000001   0.000000   0.000000
    20  H   -0.000095   0.356963  -0.028467  -0.003352   0.000008  -0.000016
    21  H    0.001129   0.368085  -0.018895   0.003028  -0.000190   0.000067
    22  H    0.000000  -0.001080  -0.061328   0.390892  -0.040987   0.007164
    23  H    0.000000  -0.000187   0.003637   0.007147  -0.038037   0.391230
    24  H    0.000001  -0.003456  -0.027863   0.008323   0.004400  -0.023308
    25  H    0.000004  -0.000042   0.000017   0.000000   0.000000  -0.000003
    26  H    0.000659  -0.000001   0.000001   0.000000   0.000000   0.000000
    27  H   -0.000001  -0.000002   0.000001   0.000000   0.000000   0.000000
    28  H    0.000000  -0.000001  -0.000001   0.000000   0.000000   0.000006
    29  H    0.000000   0.000000   0.000000   0.000000   0.000000   0.000000
    30  H    0.000000   0.000000   0.000000   0.000000   0.000000   0.000000
              13         14         15         16         17         18
     1  O   -0.011775  -0.088038   0.005923   0.000261   0.003595  -0.000047
     2  C    0.003495   0.270753  -0.022379   0.005556  -0.025701   0.004142
     3  N   -0.000132  -0.105948   0.002857  -0.000076   0.344724  -0.039832
     4  C   -0.002564   0.005716  -0.000155   0.000001  -0.035801   0.365955
     5  C   -0.000047  -0.000228   0.000000   0.000000   0.000346  -0.040749
     6  O   -0.000001   0.000000   0.000000   0.000000   0.000052   0.002629
     7  O    0.000000  -0.000658   0.000005   0.000000   0.001803   0.001764
     8  C   -0.063200   0.000072   0.000011   0.000000   0.004676  -0.032429
     9  C    0.363025  -0.000136   0.000001   0.000000  -0.000155  -0.004871
    10  C   -0.069722   0.000001   0.000000   0.000000  -0.000024   0.002808
    11  N   -0.088756   0.000000   0.000000   0.000000   0.000000  -0.000068
    12  C    0.361407   0.000019  -0.000004   0.000000   0.000014  -0.000068
    13  N    6.761695   0.000055  -0.000074   0.000000   0.000036  -0.000271
    14  C    0.000055   5.335088   0.336331  -0.059993   0.001371  -0.000205
    15  C   -0.000074   0.336331   4.776282   0.320460   0.000090   0.000003
    16  N    0.000000  -0.059993   0.320460   6.712271  -0.000009   0.000000
    17  H    0.000036   0.001371   0.000090  -0.000009   0.438471  -0.005183
    18  H   -0.000271  -0.000205   0.000003   0.000000  -0.005183   0.621180
    19  H    0.000003   0.000000   0.000000   0.000000  -0.000020   0.001447
    20  H    0.003593   0.000011   0.000000   0.000000  -0.000105  -0.005478
    21  H   -0.004736   0.000221  -0.000004   0.000000  -0.000138   0.005759
    22  H    0.004953   0.000000   0.000000   0.000000   0.000000   0.000077
    23  H   -0.056966   0.000001   0.000000   0.000000   0.000000  -0.000001
    24  H    0.319122  -0.000644   0.000369   0.000003  -0.000035   0.000036
    25  H    0.000051   0.356542  -0.036673   0.000782   0.001492  -0.000004
    26  H   -0.000003   0.358636  -0.030108  -0.000062   0.000823  -0.000003
    27  H    0.000004  -0.048504   0.395344  -0.036781  -0.000008   0.000000
    28  H   -0.000025  -0.056306   0.394702  -0.038187   0.000006   0.000000
    29  H    0.000000  -0.003849  -0.045719   0.343643   0.000003   0.000000
    30  H    0.000000  -0.003016  -0.046912   0.345908   0.000001   0.000000
              19         20         21         22         23         24
     1  O    0.000001   0.000687   0.012215   0.000001  -0.000006   0.033812
     2  C   -0.000024   0.000377   0.002487   0.000000   0.000001  -0.000933
     3  N    0.000368   0.004270  -0.006677   0.000002   0.000004  -0.002374
     4  C    0.005586  -0.041852  -0.038386   0.000081  -0.000002   0.000080
     5  C   -0.025948  -0.003893  -0.001886  -0.000005   0.000000  -0.000042
     6  O    0.280651   0.004312  -0.000173   0.000000   0.000000   0.000000
     7  O    0.004843  -0.000095   0.001129   0.000000   0.000000   0.000001
     8  C   -0.000875   0.356963   0.368085  -0.001080  -0.000187  -0.003456
     9  C   -0.000199  -0.028467  -0.018895  -0.061328   0.003637  -0.027863
    10  C    0.000001  -0.003352   0.003028   0.390892   0.007147   0.008323
    11  N    0.000000   0.000008  -0.000190  -0.040987  -0.038037   0.004400
    12  C    0.000000  -0.000016   0.000067   0.007164   0.391230  -0.023308
    13  N    0.000003   0.003593  -0.004736   0.004953  -0.056966   0.319122
    14  C    0.000000   0.000011   0.000221   0.000000   0.000001  -0.000644
    15  C    0.000000   0.000000  -0.000004   0.000000   0.000000   0.000369
    16  N    0.000000   0.000000   0.000000   0.000000   0.000000   0.000003
    17  H   -0.000020  -0.000105  -0.000138   0.000000   0.000000  -0.000035
    18  H    0.001447  -0.005478   0.005759   0.000077  -0.000001   0.000036
    19  H    0.404812   0.005244  -0.000086   0.000009   0.000000   0.000000
    20  H    0.005244   0.630660  -0.026282   0.002351   0.000005  -0.000056
    21  H   -0.000086  -0.026282   0.537049  -0.000034  -0.000007   0.001069
    22  H    0.000009   0.002351  -0.000034   0.621429  -0.000171  -0.000098
    23  H    0.000000   0.000005  -0.000007  -0.000171   0.584912  -0.000028
    24  H    0.000000  -0.000056   0.001069  -0.000098  -0.000028   0.409032
    25  H    0.000000   0.000000  -0.000004   0.000000   0.000000  -0.000122
    26  H    0.000000   0.000000  -0.000009   0.000000   0.000000   0.000020
    27  H    0.000000   0.000000   0.000000   0.000000   0.000000  -0.000016
    28  H    0.000000   0.000000  -0.000002   0.000000   0.000002   0.000569
    29  H    0.000000   0.000000   0.000000   0.000000   0.000000   0.000000
    30  H    0.000000   0.000000   0.000000   0.000000   0.000000   0.000000
              25         26         27         28         29         30
     1  O    0.001962   0.000179   0.006371   0.002191   0.000003   0.000005
     2  C   -0.029537  -0.015846  -0.001753   0.000555   0.000116   0.000179
     3  N    0.001848  -0.002464   0.000219   0.000026  -0.000004  -0.000002
     4  C    0.000526  -0.000504   0.000012  -0.000005   0.000000   0.000000
     5  C   -0.000005   0.000123  -0.000001   0.000000   0.000000   0.000000
     6  O    0.000000   0.000000   0.000000   0.000000   0.000000   0.000000
     7  O    0.000004   0.000659  -0.000001   0.000000   0.000000   0.000000
     8  C   -0.000042  -0.000001  -0.000002  -0.000001   0.000000   0.000000
     9  C    0.000017   0.000001   0.000001  -0.000001   0.000000   0.000000
    10  C    0.000000   0.000000   0.000000   0.000000   0.000000   0.000000
    11  N    0.000000   0.000000   0.000000   0.000000   0.000000   0.000000
    12  C   -0.000003   0.000000   0.000000   0.000006   0.000000   0.000000
    13  N    0.000051  -0.000003   0.000004  -0.000025   0.000000   0.000000
    14  C    0.356542   0.358636  -0.048504  -0.056306  -0.003849  -0.003016
    15  C   -0.036673  -0.030108   0.395344   0.394702  -0.045719  -0.046912
    16  N    0.000782  -0.000062  -0.036781  -0.038187   0.343643   0.345908
    17  H    0.001492   0.000823  -0.000008   0.000006   0.000003   0.000001
    18  H   -0.000004  -0.000003   0.000000   0.000000   0.000000   0.000000
    19  H    0.000000   0.000000   0.000000   0.000000   0.000000   0.000000
    20  H    0.000000   0.000000   0.000000   0.000000   0.000000   0.000000
    21  H   -0.000004  -0.000009   0.000000  -0.000002   0.000000   0.000000
    22  H    0.000000   0.000000   0.000000   0.000000   0.000000   0.000000
    23  H    0.000000   0.000000   0.000000   0.000002   0.000000   0.000000
    24  H   -0.000122   0.000020  -0.000016   0.000569   0.000000   0.000000
    25  H    0.625949  -0.033546   0.005726  -0.004565   0.005325  -0.000296
    26  H   -0.033546   0.576715  -0.005647   0.005524  -0.000421   0.004881
    27  H    0.005726  -0.005647   0.579374  -0.031117   0.006443  -0.005316
    28  H   -0.004565   0.005524  -0.031117   0.616053  -0.005171   0.006798
    29  H    0.005325  -0.000421   0.006443  -0.005171   0.501868  -0.035748
    30  H   -0.000296   0.004881  -0.005316   0.006798  -0.035748   0.497060
 Mulliken charges:
               1
     1  O   -0.544280
     2  C    0.617945
     3  N   -0.506189
     4  C   -0.039546
     5  C    0.603083
     6  O   -0.473273
     7  O   -0.428647
     8  C   -0.250953
     9  C    0.285048
    10  C   -0.024350
    11  N   -0.450009
    12  C    0.259426
    13  N   -0.519168
    14  C   -0.297292
    15  C   -0.050348
    16  N   -0.593778
    17  H    0.269675
    18  H    0.123408
    19  H    0.324186
    20  H    0.101118
    21  H    0.166401
    22  H    0.076743
    23  H    0.108466
    24  H    0.282139
    25  H    0.104575
    26  H    0.141052
    27  H    0.135651
    28  H    0.108947
    29  H    0.233513
    30  H    0.236458
 Sum of Mulliken charges =   0.00000
 Mulliken charges with hydrogens summed into heavy atoms:
               1
     1  O   -0.544280
     2  C    0.617945
     3  N   -0.236514
     4  C    0.083862
     5  C    0.603083
     6  O   -0.149087
     7  O   -0.428647
     8  C    0.016565
     9  C    0.285048
    10  C    0.052393
    11  N   -0.450009
    12  C    0.367892
    13  N   -0.237028
    14  C   -0.051665
    15  C    0.194250
    16  N   -0.123808
 APT charges:
               1
     1  O   -0.441296
     2  C    0.229275
     3  N   -0.653810
     4  C   -0.489093
     5  C   -0.189675
     6  O   -0.119880
     7  O   -0.043778
     8  C   -0.843062
     9  C   -0.441598
    10  C   -0.248250
    11  N    0.267921
    12  C   -0.458274
    13  N   -0.555269
    14  C   -0.701593
    15  C   -0.548139
    16  N   -1.127137
    17  H    0.626049
    18  H    0.450545
    19  H    0.493844
    20  H    0.562594
    21  H    0.263684
    22  H    0.715561
    23  H    0.579599
    24  H    0.161711
    25  H    0.314654
    26  H    0.476635
    27  H    0.369672
    28  H    0.215009
    29  H    0.488438
    30  H    0.645663
 Sum of APT charges =   0.00000
 APT charges with hydrogens summed into heavy atoms:
               1
     1  O   -0.441296
     2  C    0.229275
     3  N   -0.027761
     4  C   -0.038547
     5  C   -0.189675
     6  O    0.373964
     7  O   -0.043778
     8  C   -0.016784
     9  C   -0.441598
    10  C    0.467311
    11  N    0.267921
    12  C    0.121325
    13  N   -0.393558
    14  C    0.089696
    15  C    0.036541
    16  N    0.006964
 Electronic spatial extent (au):  <R**2>=           4356.2287
 Charge=              0.0000 electrons
 Dipole moment (field-independent basis, Debye):
    X=              1.9539    Y=             -0.4033    Z=              3.1058  Tot=              3.6914
 Quadrupole moment (field-independent basis, Debye-Ang):
   XX=            -96.9409   YY=           -108.2077   ZZ=            -92.4337
   XY=             15.2050   XZ=              7.5309   YZ=             -6.2260
 Traceless Quadrupole moment (field-independent basis, Debye-Ang):
   XX=              2.2532   YY=             -9.0136   ZZ=              6.7604
   XY=             15.2050   XZ=              7.5309   YZ=             -6.2260
 Octapole moment (field-independent basis, Debye-Ang**2):
  XXX=            153.5534  YYY=             99.5016  ZZZ=            -38.4307  XYY=             12.3963
  XXY=            -48.8469  XXZ=             -9.5043  XZZ=              9.8329  YZZ=            -16.6777
  YYZ=            -28.6059  XYZ=             50.0444
 Hexadecapole moment (field-independent basis, Debye-Ang**3):
 XXXX=          -2921.8431 YYYY=          -2268.3051 ZZZZ=           -711.9603 XXXY=            156.3852
 XXXZ=            525.1098 YYYX=             81.1958 YYYZ=            287.8792 ZZZX=            453.2002
 ZZZY=            244.9253 XXYY=           -909.4241 XXZZ=           -643.1539 YYZZ=           -478.7014
 XXYZ=             71.0436 YYXZ=            208.1405 ZZXY=              3.4322
 N-N= 1.133892507137D+03 E-N=-4.124253283643D+03  KE= 7.891398131454D+02
  Exact polarizability:   0.000   0.000   0.000   0.000   0.000   0.000
 Approx polarizability: 182.924  -6.824 183.228 -32.105  -7.875 175.213
 Calling FoFJK, ICntrl=    100147 FMM=F ISym2X=0 I1Cent= 0 IOpClX= 0 NMat=1 NMatS=1 NMatT=0.
 -------------------------------------------------------------------
 Center     Atomic                   Forces (Hartrees/Bohr)
 Number     Number              X              Y              Z
 -------------------------------------------------------------------
      1        8           0.002502550    0.002277626    0.000918344
      2        6           0.002922680   -0.003066549   -0.004415468
      3        7          -0.006133119   -0.003253569    0.001130791
      4        6           0.005441956    0.000157869    0.001484410
      5        6          -0.002362652    0.001147835    0.003704500
      6        8           0.003679122   -0.004745402   -0.002945187
      7        8           0.009553003   -0.002339248   -0.005250490
      8        6          -0.005815451    0.004797994    0.000249105
      9        6           0.004495190   -0.009369290   -0.003913297
     10        6          -0.004715940    0.008827527    0.004306227
     11        7          -0.006427870   -0.001148792    0.006928699
     12        6           0.000030532    0.002220143   -0.000657664
     13        7           0.005922035   -0.001626365   -0.006467055
     14        6          -0.001720860   -0.001719813    0.000914116
     15        6           0.003299459    0.001514549   -0.000224454
     16        7          -0.001910742    0.000884655   -0.003057760
     17        1           0.002879031    0.000453069    0.002830580
     18        1          -0.002336540    0.001072033    0.001462506
     19        1          -0.007027266    0.002901725    0.003593071
     20        1          -0.001160458   -0.000778759    0.001182964
     21        1           0.001134625   -0.000586651   -0.002093649
     22        1          -0.000616922   -0.000435096    0.000036680
     23        1          -0.000758116    0.004449708   -0.000947770
     24        1           0.000572447   -0.002437172   -0.000085612
     25        1           0.000737667    0.001071427    0.001036059
     26        1          -0.001466513   -0.000822861    0.000605580
     27        1          -0.001613251   -0.000697834   -0.002144162
     28        1          -0.001851206    0.001605936   -0.000983883
     29        1           0.000602478    0.001614878    0.002580476
     30        1           0.002144133   -0.001969574    0.000222346
 -------------------------------------------------------------------
 Cartesian Forces:  Max     0.009553003 RMS     0.003335281
 FormGI is forming the generalized inverse of G from B-inverse, IUseBI=4.

 GradGradGradGradGradGradGradGradGradGradGradGradGradGradGradGradGradGrad
 Berny optimization.
 Internal  Forces:  Max     0.011111674 RMS     0.002437628
 Search for a local minimum.
 Step number   1 out of a maximum of  160
 All quantities printed in internal units (Hartrees-Bohrs-Radians)
 Mixed Optimization -- RFO/linear search
 Second derivative matrix not updated -- analytic derivatives used.
 ITU=  0
     Eigenvalues ---   -0.00009   0.00104   0.00223   0.00298   0.00328
     Eigenvalues ---    0.00355   0.00519   0.00818   0.00924   0.01066
     Eigenvalues ---    0.01159   0.02009   0.02289   0.02657   0.02956
     Eigenvalues ---    0.03407   0.04073   0.04199   0.04349   0.04411
     Eigenvalues ---    0.04472   0.04700   0.04818   0.05280   0.05444
     Eigenvalues ---    0.06114   0.06304   0.07043   0.07773   0.08212
     Eigenvalues ---    0.08751   0.10413   0.10759   0.11002   0.11912
     Eigenvalues ---    0.12289   0.12643   0.13633   0.14584   0.16147
     Eigenvalues ---    0.16678   0.17956   0.18205   0.18460   0.18836
     Eigenvalues ---    0.20669   0.21740   0.21814   0.22997   0.23542
     Eigenvalues ---    0.23755   0.24435   0.25461   0.27299   0.28716
     Eigenvalues ---    0.30580   0.32720   0.33025   0.33061   0.33659
     Eigenvalues ---    0.33918   0.34048   0.34455   0.35010   0.35114
     Eigenvalues ---    0.36253   0.37099   0.37448   0.37728   0.38412
     Eigenvalues ---    0.42801   0.42870   0.45079   0.45569   0.45819
     Eigenvalues ---    0.46480   0.47062   0.48336   0.49722   0.55145
     Eigenvalues ---    0.60522   0.61952   0.79457   0.95974
 RFO step:  Lambda=-3.14713604D-03 EMin=-8.63183179D-05
 Linear search not attempted -- first point.
 Iteration  1 RMS(Cart)=  0.08646503 RMS(Int)=  0.00305905
 Iteration  2 RMS(Cart)=  0.00463319 RMS(Int)=  0.00010979
 Iteration  3 RMS(Cart)=  0.00000754 RMS(Int)=  0.00010969
 Iteration  4 RMS(Cart)=  0.00000000 RMS(Int)=  0.00010969
 Variable       Old X    -DE/DX   Delta X   Delta X   Delta X     New X
                                 (Linear)    (Quad)   (Total)
    R1        2.32855  -0.00231   0.00000  -0.00218  -0.00218   2.32637
    R2        2.57421   0.00551   0.00000   0.01218   0.01218   2.58640
    R3        2.87986  -0.00108   0.00000  -0.00752  -0.00752   2.87233
    R4        2.75100  -0.00091   0.00000  -0.00678  -0.00678   2.74422
    R5        1.90042   0.00404   0.00000   0.00865   0.00865   1.90907
    R6        2.89923   0.00410   0.00000   0.01468   0.01468   2.91391
    R7        2.90958   0.00745   0.00000   0.02739   0.02739   2.93697
    R8        2.06846   0.00211   0.00000   0.00531   0.00531   2.07377
    R9        2.55960   0.00359   0.00000   0.00224   0.00224   2.56184
   R10        2.26224   0.01111   0.00000   0.01171   0.01171   2.27395
   R11        1.81394   0.00834   0.00000   0.01488   0.01488   1.82882
   R12        2.82061   0.00090   0.00000  -0.00345  -0.00345   2.81716
   R13        2.06481   0.00168   0.00000   0.00532   0.00532   2.07013
   R14        2.05280   0.00235   0.00000   0.00742   0.00742   2.06022
   R15        2.58180   0.01091   0.00000   0.02012   0.02015   2.60194
   R16        2.59815   0.00402   0.00000   0.00951   0.00955   2.60771
   R17        2.61433  -0.00169   0.00000  -0.01123  -0.01125   2.60308
   R18        2.04245   0.00057   0.00000   0.00212   0.00212   2.04457
   R19        2.47933   0.00723   0.00000   0.01344   0.01340   2.49273
   R20        2.55987   0.00974   0.00000   0.01566   0.01566   2.57553
   R21        2.03252   0.00420   0.00000   0.00998   0.00998   2.04251
   R22        1.91305   0.00069   0.00000   0.00280   0.00280   1.91585
   R23        2.88820   0.00468   0.00000   0.01576   0.01576   2.90395
   R24        2.07091   0.00154   0.00000   0.00374   0.00374   2.07465
   R25        2.07718  -0.00029   0.00000  -0.00034  -0.00034   2.07684
   R26        2.75949   0.00098   0.00000  -0.00037  -0.00037   2.75912
   R27        2.05883   0.00230   0.00000   0.00599   0.00599   2.06483
   R28        2.06249   0.00251   0.00000   0.00817   0.00817   2.07066
   R29        1.91577   0.00309   0.00000   0.00711   0.00711   1.92289
   R30        1.91604   0.00292   0.00000   0.00673   0.00673   1.92277
    A1        2.15337   0.00169   0.00000  -0.00148  -0.00149   2.15188
    A2        2.13920  -0.00362   0.00000  -0.01149  -0.01150   2.12770
    A3        1.99038   0.00191   0.00000   0.01284   0.01283   2.00321
    A4        2.19605   0.00203   0.00000  -0.01430  -0.01480   2.18124
    A5        2.01098  -0.00118   0.00000  -0.00875  -0.00926   2.00172
    A6        1.98565  -0.00079   0.00000   0.00007  -0.00051   1.98514
    A7        1.92900  -0.00448   0.00000  -0.02040  -0.02037   1.90863
    A8        2.00873   0.00289   0.00000   0.00129   0.00134   2.01006
    A9        1.84153   0.00077   0.00000   0.01156   0.01160   1.85313
   A10        1.91907   0.00201   0.00000   0.01716   0.01717   1.93625
   A11        1.87106   0.00151   0.00000   0.01233   0.01246   1.88352
   A12        1.88759  -0.00279   0.00000  -0.02152  -0.02157   1.86602
   A13        2.00601   0.00032   0.00000   0.00902   0.00902   2.01503
   A14        2.17040  -0.00117   0.00000  -0.00957  -0.00958   2.16083
   A15        2.10674   0.00085   0.00000   0.00058   0.00058   2.10731
   A16        1.92916   0.00176   0.00000   0.00544   0.00544   1.93460
   A17        1.96811   0.00507   0.00000   0.01877   0.01878   1.98689
   A18        1.88468  -0.00190   0.00000  -0.00482  -0.00486   1.87983
   A19        1.90727  -0.00159   0.00000  -0.00863  -0.00861   1.89866
   A20        1.89441  -0.00119   0.00000  -0.00240  -0.00241   1.89200
   A21        1.93511  -0.00160   0.00000  -0.00740  -0.00737   1.92774
   A22        1.87101   0.00102   0.00000   0.00397   0.00394   1.87495
   A23        2.31160   0.00125   0.00000   0.01057   0.01041   2.32202
   A24        2.13722  -0.00016   0.00000  -0.00489  -0.00505   2.13217
   A25        1.83346  -0.00107   0.00000  -0.00460  -0.00460   1.82886
   A26        1.92810   0.00275   0.00000   0.00764   0.00764   1.93574
   A27        2.23779  -0.00149   0.00000  -0.00844  -0.00852   2.22927
   A28        2.11728  -0.00126   0.00000   0.00091   0.00083   2.11811
   A29        1.83446  -0.00095   0.00000  -0.00112  -0.00114   1.83332
   A30        1.95001   0.00105   0.00000   0.00152   0.00152   1.95153
   A31        2.21056  -0.00240   0.00000  -0.01524  -0.01525   2.19531
   A32        2.12261   0.00136   0.00000   0.01375   0.01373   2.13634
   A33        1.87874  -0.00177   0.00000  -0.00342  -0.00340   1.87534
   A34        2.16951  -0.00141   0.00000  -0.01942  -0.01951   2.15001
   A35        2.23486   0.00319   0.00000   0.02262   0.02250   2.25737
   A36        1.97166  -0.00051   0.00000  -0.00473  -0.00477   1.96689
   A37        1.90576   0.00122   0.00000   0.01828   0.01832   1.92408
   A38        1.88634  -0.00162   0.00000  -0.02332  -0.02328   1.86306
   A39        1.92855  -0.00065   0.00000  -0.00219  -0.00222   1.92632
   A40        1.90901   0.00168   0.00000   0.01049   0.01037   1.91938
   A41        1.85864  -0.00012   0.00000   0.00135   0.00143   1.86007
   A42        2.00690   0.00046   0.00000   0.00594   0.00592   2.01282
   A43        1.89898  -0.00003   0.00000  -0.00137  -0.00142   1.89756
   A44        1.90863   0.00001   0.00000  -0.00378  -0.00380   1.90483
   A45        1.89228   0.00020   0.00000   0.00735   0.00734   1.89962
   A46        1.88906  -0.00009   0.00000   0.00121   0.00122   1.89028
   A47        1.86271  -0.00063   0.00000  -0.01057  -0.01058   1.85212
   A48        1.92686   0.00010   0.00000  -0.00098  -0.00098   1.92587
   A49        1.92423   0.00015   0.00000  -0.00208  -0.00208   1.92215
   A50        1.86113  -0.00021   0.00000  -0.00484  -0.00485   1.85628
    D1        0.34410   0.00103   0.00000   0.06023   0.06012   0.40422
    D2        3.01109   0.00089   0.00000   0.00376   0.00389   3.01498
    D3       -2.82089   0.00019   0.00000   0.05379   0.05366  -2.76723
    D4       -0.15390   0.00005   0.00000  -0.00268  -0.00257  -0.15646
    D5        0.32202   0.00012   0.00000   0.06530   0.06536   0.38737
    D6        2.47544  -0.00018   0.00000   0.07265   0.07271   2.54815
    D7       -1.79263  -0.00055   0.00000   0.07127   0.07117  -1.72146
    D8       -2.79639   0.00088   0.00000   0.07153   0.07157  -2.72482
    D9       -0.64297   0.00058   0.00000   0.07888   0.07892  -0.56405
   D10        1.37214   0.00020   0.00000   0.07750   0.07739   1.44953
   D11        1.39566   0.00023   0.00000  -0.05903  -0.05901   1.33665
   D12       -0.79101  -0.00102   0.00000  -0.06625  -0.06628  -0.85729
   D13       -2.87040   0.00025   0.00000  -0.04816  -0.04815  -2.91855
   D14       -1.27722   0.00047   0.00000  -0.00127  -0.00125  -1.27847
   D15        2.81930  -0.00078   0.00000  -0.00849  -0.00852   2.81078
   D16        0.73991   0.00049   0.00000   0.00960   0.00961   0.74952
   D17        2.87232   0.00004   0.00000   0.09869   0.09870   2.97102
   D18       -0.26091  -0.00073   0.00000   0.09517   0.09518  -0.16573
   D19       -1.17432   0.00196   0.00000   0.09803   0.09794  -1.07638
   D20        1.97563   0.00120   0.00000   0.09451   0.09442   2.07005
   D21        0.87375   0.00058   0.00000   0.08862   0.08870   0.96244
   D22       -2.25949  -0.00019   0.00000   0.08510   0.08518  -2.17431
   D23       -0.98200  -0.00060   0.00000   0.05729   0.05729  -0.92471
   D24       -3.07499  -0.00097   0.00000   0.05196   0.05196  -3.02303
   D25        1.17853  -0.00028   0.00000   0.05452   0.05449   1.23303
   D26        3.10937   0.00152   0.00000   0.06953   0.06949  -3.10433
   D27        1.01637   0.00115   0.00000   0.06420   0.06416   1.08053
   D28       -1.01329   0.00184   0.00000   0.06676   0.06669  -0.94660
   D29        1.07162   0.00020   0.00000   0.05763   0.05769   1.12931
   D30       -1.02138  -0.00017   0.00000   0.05230   0.05236  -0.96901
   D31       -3.05104   0.00052   0.00000   0.05485   0.05490  -2.99614
   D32       -0.03902  -0.00005   0.00000   0.02414   0.02413  -0.01490
   D33        3.09454   0.00068   0.00000   0.02746   0.02747   3.12202
   D34       -1.60419   0.00034   0.00000  -0.00439  -0.00445  -1.60865
   D35        1.48457   0.00079   0.00000   0.02720   0.02723   1.51180
   D36        0.48319   0.00032   0.00000  -0.00033  -0.00038   0.48281
   D37       -2.71123   0.00078   0.00000   0.03126   0.03131  -2.67992
   D38        2.53392  -0.00008   0.00000  -0.00123  -0.00126   2.53266
   D39       -0.66050   0.00038   0.00000   0.03037   0.03042  -0.63008
   D40        3.09145   0.00057   0.00000   0.03058   0.03079   3.12224
   D41       -0.04363   0.00002   0.00000   0.01219   0.01233  -0.03130
   D42       -0.00399   0.00016   0.00000   0.00307   0.00315  -0.00084
   D43       -3.13906  -0.00039   0.00000  -0.01532  -0.01532   3.12880
   D44       -3.09756  -0.00063   0.00000  -0.02682  -0.02667  -3.12423
   D45        0.03236  -0.00024   0.00000  -0.04578  -0.04534  -0.01298
   D46        0.00367  -0.00022   0.00000  -0.00225  -0.00230   0.00138
   D47        3.13359   0.00017   0.00000  -0.02122  -0.02096   3.11263
   D48        0.00274  -0.00006   0.00000  -0.00274  -0.00279  -0.00005
   D49        3.13834   0.00045   0.00000   0.01413   0.01427  -3.13057
   D50       -0.00032  -0.00009   0.00000   0.00127   0.00128   0.00096
   D51       -3.13836  -0.00034   0.00000  -0.00728  -0.00703   3.13780
   D52       -0.00216   0.00019   0.00000   0.00060   0.00064  -0.00152
   D53       -3.13151  -0.00018   0.00000   0.02087   0.02123  -3.11028
   D54        3.13609   0.00042   0.00000   0.00859   0.00856  -3.13854
   D55        0.00674   0.00005   0.00000   0.02886   0.02915   0.03588
   D56        3.11988   0.00075   0.00000   0.05136   0.05138  -3.11192
   D57       -1.03751   0.00130   0.00000   0.06399   0.06399  -0.97352
   D58        0.99093   0.00054   0.00000   0.04850   0.04853   1.03946
   D59        0.97911   0.00002   0.00000   0.03261   0.03261   1.01173
   D60        3.10490   0.00057   0.00000   0.04523   0.04523  -3.13305
   D61       -1.14984  -0.00020   0.00000   0.02975   0.02977  -1.12008
   D62       -1.06155  -0.00047   0.00000   0.02597   0.02595  -1.03560
   D63        1.06424   0.00008   0.00000   0.03860   0.03856   1.10280
   D64        3.09268  -0.00068   0.00000   0.02311   0.02310   3.11578
   D65       -1.01949   0.00018   0.00000   0.01882   0.01883  -1.00067
   D66        1.03241   0.00007   0.00000   0.01100   0.01101   1.04343
   D67        3.13428  -0.00024   0.00000   0.01096   0.01094  -3.13797
   D68       -1.09700  -0.00035   0.00000   0.00314   0.00312  -1.09388
   D69        1.12001   0.00045   0.00000   0.01891   0.01892   1.13892
   D70       -3.11127   0.00034   0.00000   0.01109   0.01110  -3.10017
         Item               Value     Threshold  Converged?
 Maximum Force            0.011112     0.000450     NO 
 RMS     Force            0.002438     0.000300     NO 
 Maximum Displacement     0.369643     0.001800     NO 
 RMS     Displacement     0.087429     0.001200     NO 
 Predicted change in Energy=-1.839243D-03
 GradGradGradGradGradGradGradGradGradGradGradGradGradGradGradGradGradGrad

                          Input orientation:                          
 ---------------------------------------------------------------------
 Center     Atomic      Atomic             Coordinates (Angstroms)
 Number     Number       Type             X           Y           Z
 ---------------------------------------------------------------------
      1          8           0        0.287375   -0.246188   -1.235230
      2          6           0        0.957759   -0.152560   -0.206962
      3          7           0        0.487175   -0.498548    1.030810
      4          6           0       -0.602066   -1.426667    1.277726
      5          6           0       -0.096911   -2.870647    1.084279
      6          8           0       -0.951189   -3.845024    1.482561
      7          8           0        0.978079   -3.147284    0.619686
      8          6           0       -1.889024   -1.172143    0.444407
      9          6           0       -2.405767    0.222610    0.544664
     10          6           0       -3.323773    0.827372    1.373730
     11          7           0       -3.442488    2.168099    1.080759
     12          6           0       -2.604672    2.376043    0.083342
     13          7           0       -1.955009    1.233989   -0.278841
     14          6           0        2.373143    0.401405   -0.218327
     15          6           0        2.651846    1.291035   -1.439945
     16          7           0        4.008648    1.823008   -1.528667
     17          1           0        1.179699   -0.479322    1.766080
     18          1           0       -0.875557   -1.303232    2.333298
     19          1           0       -1.762085   -3.463754    1.848152
     20          1           0       -2.663446   -1.855028    0.810450
     21          1           0       -1.690600   -1.431018   -0.595879
     22          1           0       -3.911638    0.368081    2.157349
     23          1           0       -2.433603    3.321541   -0.411635
     24          1           0       -1.244167    1.096485   -0.988514
     25          1           0        2.572570    0.953103    0.709655
     26          1           0        3.051571   -0.463217   -0.220989
     27          1           0        2.436876    0.719738   -2.346207
     28          1           0        1.951286    2.133572   -1.438111
     29          1           0        4.234430    2.357507   -0.692762
     30          1           0        4.681448    1.060941   -1.571921
 ---------------------------------------------------------------------
                    Distance matrix (angstroms):
                    1          2          3          4          5
     1  O    0.000000
     2  C    1.231063   0.000000
     3  N    2.288786   1.368662   0.000000
     4  C    2.915405   2.502139   1.452178   0.000000
     5  C    3.523576   3.188671   2.443536   1.541972   0.000000
     6  O    4.676757   4.486965   3.670405   2.451998   1.355666
     7  O    3.512001   3.106788   2.725035   2.427014   1.203320
     8  C    2.900912   3.093219   2.538488   1.554176   2.550690
     9  C    3.262025   3.466843   3.020848   2.551633   3.897466
    10  C    4.582531   4.668015   4.049566   3.535194   4.916479
    11  N    5.010436   5.138664   4.749290   4.585754   6.048294
    12  C    4.120517   4.378245   4.326717   4.460671   5.900720
    13  N    2.851998   3.226748   3.268200   3.366370   4.707299
    14  C    2.409128   1.519973   2.434570   3.798933   4.301659
    15  C    2.827664   2.544434   3.740726   5.035830   5.589898
    16  N    4.267968   3.867519   4.933692   6.300391   6.761176
    17  H    3.139818   2.012194   1.010238   2.076208   2.795177
    18  H    3.899250   3.337366   2.049641   1.097391   2.150146
    19  H    4.905126   4.752372   3.810468   2.412623   1.925638
    20  H    3.934529   4.128759   3.437297   2.156647   2.773728
    21  H    2.392693   2.966398   2.873730   2.166869   2.726776
    22  H    5.433105   5.438020   4.622736   3.866280   5.117907
    23  H    4.561877   4.859281   5.020425   5.362271   6.785358
    24  H    2.051648   2.649418   3.101507   3.451729   4.620693
    25  H    3.231562   2.161086   2.561113   4.008033   4.678412
    26  H    2.952383   2.116779   2.853835   4.064904   4.172814
    27  H    2.605309   2.743185   4.085315   5.193757   5.574870
    28  H    2.910845   2.780149   3.894515   5.154676   5.966554
    29  H    4.759489   4.156081   5.016938   6.449379   7.017976
    30  H    4.596719   4.147476   5.176692   6.498015   6.733906
                    6          7          8          9         10
     6  O    0.000000
     7  O    2.225639   0.000000
     8  C    3.016884   3.485998   0.000000
     9  C    4.420531   4.776215   1.490776   0.000000
    10  C    5.241401   5.905286   2.630629   1.376888   0.000000
    11  N    6.521171   6.928730   3.738371   2.268726   1.377488
    12  C    6.587374   6.605370   3.637602   2.211256   2.140231
    13  N    5.468690   5.348450   2.513348   1.379939   2.183997
    14  C    5.654765   3.904058   4.591442   4.842738   5.930510
    15  C    6.921127   5.171291   5.498866   5.537116   6.621161
    16  N    8.111354   6.205125   6.902644   6.928543   7.948560
    17  H    3.993622   2.910823   3.412313   3.852289   4.705597
    18  H    2.681452   3.126174   2.147606   2.805165   3.384377
    19  H    0.967768   3.019566   2.690370   3.962662   4.591046
    20  H    2.709915   3.868723   1.095467   2.110360   2.819324
    21  H    3.270179   3.397796   1.090222   2.132320   3.412761
    22  H    5.193250   6.215427   3.065522   2.211235   1.081939
    23  H    7.559444   7.385723   4.606797   3.243248   3.193871
    24  H    5.532681   5.053144   2.759670   2.112725   3.158698
    25  H    6.003023   4.400418   4.949025   5.034350   5.934952
    26  H    5.510062   3.494327   5.035356   5.553298   6.697295
    27  H    6.853868   5.087089   5.484538   5.661755   6.858177
    28  H    7.259360   5.750575   5.405517   5.154327   6.118729
    29  H    8.372220   6.529094   7.158790   7.083871   7.983616
    30  H    8.070003   6.018907   7.226572   7.443880   8.533169
                   11         12         13         14         15
    11  N    0.000000
    12  C    1.319097   0.000000
    13  N    2.221186   1.362910   0.000000
    14  C    6.215336   5.363660   4.407920   0.000000
    15  C    6.653127   5.579303   4.751266   1.536707   0.000000
    16  N    7.902382   6.829380   6.121619   2.532356   1.460062
    17  H    5.370579   5.030524   4.116252   2.477470   3.947147
    18  H    4.495345   4.646418   3.798154   4.468851   5.780151
    19  H    5.927092   6.158550   5.160437   6.025769   7.273402
    20  H    4.106766   4.293495   3.351189   5.614009   6.573760
    21  H    4.339801   3.973736   2.696792   4.473738   5.194118
    22  H    2.149235   3.168844   3.242408   6.718885   7.541332
    23  H    2.139046   1.080849   2.145824   5.627555   5.571550
    24  H    3.203570   2.153397   1.013824   3.763145   3.926902
    25  H    6.147752   5.405632   4.642735   1.097858   2.177444
    26  H    7.126793   6.336174   5.286748   1.099019   2.173254
    27  H    6.957642   5.836374   4.881303   2.152504   1.092659
    28  H    5.953041   4.809403   4.172804   2.160149   1.095745
    29  H    7.881391   6.883022   6.304187   2.741498   2.049443
    30  H    8.617474   7.586629   6.763473   2.755989   2.046862
                   16         17         18         19         20
    16  N    0.000000
    17  H    4.915184   0.000000
    18  H    6.967324   2.285747   0.000000
    19  H    8.523738   4.191379   2.385195   0.000000
    20  H    7.969709   4.192321   2.412487   2.115957   0.000000
    21  H    6.628741   3.837081   3.043141   3.179688   1.761810
    22  H    8.856323   5.176185   3.470163   4.404445   2.883458
    23  H    6.707903   5.678464   5.599169   7.183161   5.323832
    24  H    5.330260   3.993254   4.114481   5.395432   3.736583
    25  H    2.798060   2.260081   4.429090   6.292379   5.942358
    26  H    2.802293   2.729946   4.759447   6.037867   5.971802
    27  H    2.087114   4.464207   6.079670   7.261234   6.527418
    28  H    2.082641   4.205877   5.833197   7.477881   6.500824
    29  H    1.017548   4.839926   6.976390   8.735073   8.221058
    30  H    1.017486   5.077096   7.191686   8.584222   8.253850
                   21         22         23         24         25
    21  H    0.000000
    22  H    3.968630   0.000000
    23  H    4.813815   4.184160   0.000000
    24  H    2.596485   4.188368   2.588131   0.000000
    25  H    5.055994   6.669559   5.650536   4.179931   0.000000
    26  H    4.854417   7.404986   6.666924   4.634127   1.761109
    27  H    4.972470   7.791618   5.850942   3.941491   3.067762
    28  H    5.165171   7.100575   4.657486   3.389485   2.528320
    29  H    7.033370   8.856600   6.743223   5.629625   2.588610
    30  H    6.911260   9.393010   7.555166   5.954372   3.108791
                   26         27         28         29         30
    26  H    0.000000
    27  H    2.508742   0.000000
    28  H    3.071698   1.749104   0.000000
    29  H    3.094869   2.940641   2.412144   0.000000
    30  H    2.608558   2.398759   2.936364   1.629058   0.000000
 Symmetry turned off by external request.
 Stoichiometry    C9H14N4O3
 Framework group  C1[X(C9H14N4O3)]
 Deg. of freedom    84
 Full point group                 C1      NOp   1
 Rotational constants (GHZ):      0.5385274      0.4094928      0.2491340
 Standard basis: 6-31G(d,p) (6D, 7F)
   310 basis functions,   546 primitive gaussians,   310 cartesian basis functions
    60 alpha electrons       60 beta electrons
       nuclear repulsion energy      1132.0070084859 Hartrees.
 NAtoms=   30 NActive=   30 NUniq=   30 SFac= 1.00D+00 NAtFMM=   60 NAOKFM=F Big=F
 Integral buffers will be    131072 words long.
 Raffenetti 2 integral format.
 Two-electron integral symmetry is turned off.
 Nuclear repulsion after empirical dispersion term =     1131.9516622933 Hartrees.
 One-electron integrals computed using PRISM.
 NBasis=   310 RedAO= T EigKep=  1.14D-03  NBF=   310
 NBsUse=   310 1.00D-06 EigRej= -1.00D+00 NBFU=   310
 Initial guess from the checkpoint file:  "conf-455.chk"
 B after Tr=     0.014621    0.019658    0.002533
[...]
 209,-0.08907818,-0.00017854,-0.00089031,-0.00011597,-0.00087141,0.0011
 0135,-0.00043936,0.00019083,-0.00068987,0.00028536,0.00010254,0.000498
 66,-0.00012119,-0.00007504,0.00010771,-0.00015938,-0.00011407,-0.00001
 524,0.00002958,0.00012955,-0.00008793,-0.00039791,-0.00039197,-0.00126
 256,-0.00004681,-0.00015965,0.00126162,0.00079354,-0.00071968,-0.00020
 034,0.00042578,-0.08726751,0.10481756,0.00080707,-0.00136241,-0.002391
 13,-0.00209240,0.00121697,0.00088094,0.00058284,-0.00059447,-0.0013714
 1,-0.00012578,0.00063365,-0.00039201,-0.00006544,0.00037988,0.00012264
 ,-0.00003329,-0.00022471,-0.00003465,0.00012377,-0.00023606,-0.0000570
 3,-0.00107803,0.00003832,0.00012550,0.00725221,-0.01255463,-0.01138026
 ,0.00236993,0.00348206,-0.00230290,0.00135215,0.00186022,0.00518927,-0
 .00608642,-0.00275984,-0.00012694,0.18912624,-0.08388389,-0.24166038,-
 0.00036718,0.00011279,-0.00022898,-0.00022350,0.00039976,0.00089549,0.
 00010770,-0.00001366,-0.00040482,0.00001628,-0.00007832,-0.00001623,-0
 .00000776,-0.00003995,0.00003854,0.00002692,0.00014742,0.00001006,-0.0
 0001969,-0.00043145,0.00022099,0.00010075,0.00021264,0.00011539,0.0010
 6383,-0.00048110,0.00047962,-0.00056822,-0.00007474,-0.00056441,-0.192
 57761,0.09458466,0.25313045,-0.00709708,-0.00500120,-0.00002460,-0.004
 83491,-0.00286708,-0.02954950,0.00041893,0.00114310,0.00108677,0.00028
 307,0.00009332,-0.00000546,0.00006933,-0.00000764,-0.00015507,0.000032
 76,0.00007665,0.00003277,0.00001924,0.00003687,0.00009143,-0.00002597,
 0.00000957,-0.00017644,0.00007763,0.00001824,-0.00009395,-0.00001214,0
 .00003398,0.00003557,-0.00004739,0.00006197,0.00011841,0.00003621,-0.0
 0014605,-0.00004890,-0.00008238,0.00011256,0.00006622,-0.08176666,-0.0
 2317014,-0.07657676,-0.00212434,-0.00167077,-0.00354687,0.00063590,0.0
 0074917,0.00094762,-0.00104915,-0.00164663,0.00126242,0.00000768,0.000
 01787,0.00000984,-0.00001064,0.00000421,-0.00002988,0.00001857,0.00000
 550,0.00010620,0.00016383,0.00008878,0.00005061,-0.00001142,0.00000163
 ,0.00000507,-0.00000700,0.00000193,-0.00001182,0.00024048,-0.00023095,
 -0.00001799,0.08570716,-0.00627336,-0.00056156,0.00018716,0.00025744,-
 0.00476006,-0.01771174,0.00011976,0.00036659,0.00089586,0.00038441,-0.
 00003903,-0.00000957,-0.00016498,0.00007036,-0.00010397,0.00005491,-0.
 00001829,0.00001204,0.00014382,-0.00001097,0.00013918,0.00000955,0.000
 00530,-0.00014415,0.00006385,-0.00000196,-0.00005756,0.00000417,0.0000
 1943,-0.00001763,-0.00003741,0.00005579,0.00003929,-0.00001165,-0.0001
 1383,0.00003151,-0.00010568,0.00015739,0.00000154,-0.02420089,-0.06516
 770,-0.05887201,0.01000647,0.00666506,0.02700470,0.00140974,0.00239390
 ,-0.00140533,-0.00127409,-0.00018261,0.00093173,-0.00001209,0.00001084
 ,0.00000828,0.00000914,0.00002207,-0.00002431,0.00000799,0.00000441,0.
 00008848,0.00011123,0.00007421,0.00004441,-0.00000330,0.00000193,0.000
 00259,-0.00001180,0.00001878,0.00000162,0.00009810,-0.00031075,0.00008
 860,0.02759094,0.06975669,0.00073884,0.00033956,0.00248169,0.00306313,
 0.00192494,0.00020692,0.00085468,0.00110460,0.00013395,-0.00020816,-0.
 00022937,0.00064643,-0.00004614,0.00004570,-0.00003697,0.00003402,0.00
 002607,0.00000687,0.00007252,0.00000305,0.00007555,0.00003075,0.000054
 00,-0.00001209,0.00002749,0.00004201,-0.00007410,-0.00001393,0.0000138
 1,0.00003732,-0.00004193,0.00001727,0.00009216,0.00005196,-0.00010267,
 -0.00007593,-0.00006317,0.00002473,0.00005475,-0.08072407,-0.06246708,
 -0.25818020,-0.00751267,-0.00529631,-0.01764855,0.00064772,-0.00075339
 ,0.00220995,0.00069081,0.00007169,0.00089614,-0.00008607,-0.00007124,0
 .00001755,-0.00000211,0.00001000,-0.00001636,-0.00001484,0.00000599,0.
 00005602,0.00006499,0.00000898,0.00001741,-0.00001008,-0.00000215,0.00
 000635,0.00001586,-0.00002155,-0.00000045,0.00015745,0.00002114,-0.000
 07284,0.08731269,0.06309946,0.28144498,0.00280488,-0.00294882,-0.00117
 531,-0.01968843,0.01971407,0.01458170,-0.00292803,-0.00289524,-0.00025
 801,0.00071617,-0.00060371,0.00057723,-0.00081146,0.00042701,0.0002475
 9,0.00011997,-0.00023878,-0.00006837,0.00043380,-0.00017823,-0.0001674
 2,0.00014074,0.00001323,0.00003361,0.00005331,-0.00000079,-0.00005865,
 0.00000559,-0.00001333,-0.00000756,-0.00002608,0.00004778,0.00001985,0
 .00003186,-0.00006061,-0.00001976,-0.00010422,-0.00000189,0.00001105,-
 0.16528626,0.10451551,0.07716646,-0.00386577,0.00343311,0.00127029,0.0
 0144595,-0.00114552,-0.00078922,-0.00032009,0.00013773,-0.00000486,-0.
 00012765,-0.00015962,0.00008517,0.00006279,0.00006271,0.00001804,-0.00
 003565,-0.00000609,-0.00001294,-0.00000399,0.00000681,-0.00003115,-0.0
 0000017,-0.00000215,0.00000358,0.00000682,-0.00000078,0.00000714,0.000
 13917,0.00002598,0.00009161,0.00880678,-0.00754424,-0.00546001,0.17708
 677,0.00117755,-0.00097528,0.00022713,-0.01350605,0.01221009,0.0078508
 1,-0.00139295,-0.00212772,0.00039150,0.00039564,-0.00091089,0.00045782
 ,-0.00065797,0.00025886,0.00015630,0.00009360,-0.00015046,-0.00006632,
 0.00035033,-0.00003705,-0.00009931,0.00013049,0.00000406,-0.00001299,0
 .00003690,-0.00002925,-0.00002218,-0.00000119,0.00000004,-0.00002389,0
 .00002536,0.00005368,0.00000819,-0.00001959,0.00001135,0.00004370,0.00
 001924,0.00002322,0.00001259,0.10350991,-0.13685964,-0.07396960,0.0202
 0578,-0.01974976,-0.01106394,0.00010571,0.00352844,-0.00121532,-0.0002
 7239,0.00015985,0.00016850,-0.00004744,-0.00007667,0.00004740,0.000041
 53,0.00002173,0.00001428,-0.00000290,0.00000744,-0.00000084,0.00000544
 ,0.00001680,-0.00001461,0.00000100,0.00000237,-0.00000663,-0.00004057,
 0.00002931,-0.00003130,0.00004407,-0.00014649,-0.00000633,0.00482554,-
 0.00466344,-0.00291562,-0.11358891,0.15244777,-0.00121571,-0.00038812,
 -0.00010772,0.00350477,-0.00135548,-0.00350420,0.00131107,0.00156501,0
 .00016900,-0.00033201,0.00041171,0.00005316,0.00072474,-0.00023508,-0.
 00013886,-0.00016001,0.00012544,0.00003206,-0.00042194,0.00009389,0.00
 009480,-0.00003908,0.00003041,-0.00001869,0.00001478,0.00000539,-0.000
 02377,-0.00000455,0.00001305,0.00003091,-0.00001894,0.00000285,0.00004
 212,0.00001324,-0.00004408,-0.00004202,-0.00005031,0.00006505,0.000014
 78,0.07712947,-0.07412747,-0.09882683,-0.01385266,0.01465059,0.0078753
 1,-0.00138239,-0.00179816,0.00085247,0.00009895,-0.00093629,0.00035927
 ,0.00001610,0.00002690,-0.00002251,-0.00003622,-0.00003458,-0.00001069
 ,0.00002005,-0.00000442,0.00002038,0.00003597,0.00000554,0.00001761,-0
 .00000617,-0.00000065,0.00000339,0.00001530,-0.00001043,0.00001288,0.0
 0010877,-0.00005870,0.00003043,0.01977791,-0.01630801,-0.01229527,-0.0
 8554346,0.07543587,0.10578362,-0.00072155,-0.00034978,0.00041538,-0.00
 017410,0.00005681,0.00071999,0.00016230,-0.00028905,-0.00036737,-0.000
 00489,-0.00004539,0.00002319,0.00000331,-0.00009165,0.00000779,0.00001
 745,0.00004983,0.00000061,-0.00001489,0.00004693,0.00000223,0.00000787
 ,0.00002400,0.00000199,-0.00002753,-0.00009564,0.00011012,0.00003783,-
 0.00003374,-0.00004313,0.00005996,-0.00002689,-0.00012533,-0.00006919,
 0.00013547,0.00006562,0.00005032,0.00007627,-0.00004702,-0.00089150,0.
 00043975,-0.00714075,-0.08167702,-0.02112708,-0.07680704,-0.01469434,-
 0.01605867,-0.02574877,0.00003908,0.00009994,0.00002911,0.00000917,0.0
 0001178,-0.00001332,-0.00000793,-0.00001643,0.00000268,0.00001359,0.00
 000515,-0.00000947,-0.00001819,-0.00001811,0.00000107,0.00000227,-0.00
 000371,-0.00000820,0.00000424,0.00001991,0.00001976,-0.00039671,-0.000
 15163,0.00017697,0.00025678,0.00040583,-0.00056002,0.00013565,-0.00057
 857,-0.00017810,0.09354096,-0.00026317,-0.00062540,-0.00169314,0.00171
 704,0.00159526,0.00268539,-0.00041662,-0.00012917,-0.00055301,-0.00011
 708,0.00004076,-0.00002735,0.00003087,-0.00001901,0.00005876,-0.000012
 43,-0.00000339,-0.00000797,-0.00002752,-0.00001105,-0.00004894,-0.0000
 3125,-0.00000447,0.00006668,-0.00002632,0.00004865,-0.00003831,-0.0000
 2350,-0.00000178,0.00004536,-0.00002133,-0.00004085,0.00007898,0.00007
 180,0.00002933,-0.00011315,-0.00000382,-0.00009535,0.00006329,0.009091
 41,0.00433186,0.02674861,-0.02357332,-0.06836482,-0.06767679,-0.009950
 99,-0.00928025,-0.01694907,0.00032316,0.00009388,-0.00033593,0.0000054
 7,-0.00000170,-0.00000725,-0.00000473,0.00000066,0.00000666,-0.0000086
 3,-0.00001200,-0.00003067,-0.00004286,-0.00002305,-0.00001778,-0.00000
 199,-0.00000291,0.00000743,0.00002178,-0.00004774,-0.00002468,-0.00002
 482,0.00032809,-0.00003719,0.00019768,-0.00457184,0.00388106,0.0002130
 7,0.00152188,-0.00067030,0.03312164,0.07982406,0.00077304,-0.00106945,
 0.00324885,-0.00312000,-0.00172284,-0.00383729,0.00025775,0.00043955,0
 .00062690,0.00003322,-0.00010097,-0.00004952,-0.00006074,0.00003307,-0
 .00006197,0.00004175,0.00001606,0.00001628,0.00007855,-0.00001126,0.00
 004473,0.00000047,0.00002225,-0.00004359,0.00004106,0.00016148,-0.0001
 5473,-0.00005102,0.00005072,0.00007853,-0.00009501,0.00002097,0.000190
 33,0.00012777,-0.00021757,-0.00012076,-0.00009156,-0.00009610,0.000105
 08,-0.00513077,-0.00236788,-0.01877070,-0.08200987,-0.06889657,-0.2622
 8251,0.00218599,0.00216425,0.00883220,-0.00009039,-0.00006711,0.000292
 33,0.00001607,0.00001592,0.00000085,-0.00000275,0.00001625,-0.00001840
 ,-0.00000303,-0.00001139,0.00004118,0.00004924,0.00001753,0.00001593,-
 0.00001092,0.00000374,0.00001452,0.00000904,-0.00003650,-0.00002147,0.
 00053653,0.00022759,-0.00021125,-0.00041825,0.00356308,-0.00072406,0.0
 0005464,-0.00007060,0.00124650,0.08965931,0.06986537,0.28035053,0.0002
 8968,0.00020263,0.00027743,-0.00051549,-0.00042522,-0.00013034,0.00046
 350,0.00001216,-0.00039873,-0.00009075,0.00000494,-0.00001920,-0.00001
 512,-0.00004029,0.00000366,0.00002993,0.00004232,-0.00000084,0.0000197
 1,0.00000860,-0.00001209,0.00001787,0.00000801,-0.00000238,0.00004326,
 -0.00001708,-0.00010454,-0.00002647,0.00011099,-0.00001894,-0.00000176
 ,-0.00010572,0.00005078,-0.00007522,0.00036529,-0.00001509,-0.00027941
 ,-0.00042695,0.00006421,-0.00165791,0.00509492,0.00126172,-0.16305656,
 0.10048262,0.07089636,-0.02596081,0.01155861,0.01834175,-0.00002503,0.
 00015434,0.00001419,0.00001602,0.00001559,-0.00001229,-0.00000725,-0.0
 0000524,0.00000228,0.00000559,0.00000200,0.00000003,-0.00000864,-0.000
 00263,-0.00000134,-0.00000683,0.00000085,-0.00000364,-0.00002680,-0.00
 003385,-0.00000799,-0.00004106,0.00008173,0.00005198,-0.00010809,-0.00
 021218,0.00013243,0.00078656,0.00024477,-0.00030801,0.00945437,-0.0068
 2485,-0.00423732,0.18553348,-0.00139188,-0.00004093,-0.00038153,0.0037
 1401,0.00045112,-0.00065345,-0.00091547,0.00026717,0.00057997,0.000006
 65,-0.00000985,0.00011801,0.00027788,-0.00007713,-0.00006467,-0.000121
 12,-0.00001654,-0.00000582,-0.00022444,0.00007080,0.00007283,0.0000263
 6,-0.00010539,-0.00001073,-0.00013299,-0.00031718,0.00037069,0.0000678
 8,-0.00011647,-0.00014502,0.00017559,0.00004707,-0.00020843,-0.0003273
 8,0.00074285,0.00021488,0.00063175,-0.00005556,-0.00001521,0.01607841,
 -0.01910943,-0.01036897,0.10571877,-0.14191851,-0.07051022,-0.01693016
 ,0.01193956,0.01187457,0.00018291,-0.00017311,-0.00006094,-0.00002214,
 -0.00002903,0.00001533,0.00000688,-0.00004171,0.00000894,-0.00000386,0
 .00004164,-0.00001448,0.00001488,0.00002620,0.00000045,0.00000366,-0.0
 0000584,-0.00002951,-0.00003203,0.00005155,-0.00003937,-0.00032659,-0.
 00045678,-0.00032756,-0.00030034,0.00127840,0.00022429,0.00031345,-0.0
 0375290,0.00384591,0.00592698,-0.00485249,-0.00321225,-0.10816156,0.15
 610634,-0.00026746,-0.00006723,0.00027160,-0.00106112,-0.00030152,0.00
 088343,-0.00006366,-0.00043196,-0.00006114,0.00012335,0.00008710,-0.00
 005745,-0.00006309,-0.00002492,-0.00001555,0.00000430,-0.00000704,-0.0
 0000224,0.00000758,0.00001881,-0.00000872,0.00000270,-0.00006810,0.000
 01931,0.00007315,-0.00012176,0.00015612,0.00005430,0.00001482,-0.00013
 528,0.00015392,0.00008239,-0.00016020,-0.00018152,0.00008976,0.0002646
 0,0.00025828,0.00005013,-0.00012262,-0.01270194,0.01464304,0.00741354,
 0.07402321,-0.06868814,-0.10108827,0.00506330,-0.00163883,-0.00224031,
 -0.00004890,0.00011613,-0.00000930,0.00000025,-0.00000378,0.00000376,0
 .00000832,-0.00001926,0.00000998,-0.00001291,0.00003054,-0.00001965,-0
 .00000267,0.00001245,-0.00000129,-0.00000444,0.00000588,-0.00003457,-0
 .00013845,0.00012332,-0.00008438,-0.00025059,-0.00045479,-0.00011162,-
 0.00018846,-0.00088649,0.00105925,-0.00058405,0.00407088,-0.00150929,0
 .02029898,-0.01658331,-0.01112264,-0.08463275,0.06831362,0.10461042,0.
 00025777,-0.00024788,0.00072998,-0.00037723,0.00014490,-0.00080562,-0.
 00006806,0.00013850,0.00027584,0.00002884,0.00000432,-0.00002565,0.000
 03487,-0.00000967,-0.00001975,-0.00001536,-0.00000549,0.00000383,-0.00
 002747,0.00000960,0.00001671,-0.00000167,-0.00002181,-0.00000408,0.000
 02858,0.00005466,-0.00007258,-0.00002134,0.00001234,0.00003550,-0.0000
 1230,0.00004578,0.00007965,0.00005876,-0.00009231,-0.00004129,-0.00004
 249,-0.00001805,0.00006049,0.00109702,0.00082161,-0.00011772,-0.013040
 74,-0.00835801,-0.03319501,-0.11238055,-0.05398389,-0.11788416,0.00001
 975,-0.00009897,0.00001281,0.00000083,-0.00000288,0.00000344,0.0000017
 9,-0.00000321,-0.00000338,-0.00000397,0.00000160,0.00000337,0.00001026
 ,0.00001125,0.00000254,-0.00000410,0.00000187,0.00000026,-0.00001581,-
 0.00001309,-0.00002745,0.00015572,0.00003765,-0.00008473,0.00034045,-0
 .00067638,0.00085075,0.00004465,0.00004114,0.00018915,-0.00565175,-0.0
 0376810,0.00199021,0.00037995,0.00069322,-0.00017341,0.11837824,0.0010
 5172,0.00023419,0.00081284,-0.00215856,-0.00037895,0.00004071,0.000826
 07,0.00006455,-0.00051715,-0.00024097,-0.00020746,0.00004405,-0.000163
 36,-0.00021729,0.00004652,0.00016447,0.00021854,0.00000066,0.00012186,
 0.00010249,-0.00005181,0.00000004,0.00010931,-0.00003751,-0.00005929,-
 0.00002414,0.00009014,0.00000455,0.00001223,0.00001172,0.00002657,-0.0
 0013096,-0.00004861,-0.00003626,0.00013002,-0.00000825,0.00014276,-0.0
 0006964,-0.00006873,0.00131559,0.00181968,-0.00293638,-0.01259562,-0.0
 1208614,-0.01757660,-0.03226189,-0.04807738,-0.08343827,-0.00007810,0.
 00004358,0.00015557,0.00004263,0.00004714,-0.00003100,-0.00004244,-0.0
 0002912,0.00000215,0.00005487,-0.00001069,0.00000154,-0.00003209,-0.00
 003580,-0.00000127,-0.00000382,0.00000152,0.00000123,0.00001904,0.0000
 0103,0.00002562,-0.00015939,0.00014521,-0.00002150,-0.00012275,-0.0004
 0571,0.00097050,0.00000597,-0.00038906,0.00007084,-0.00236646,-0.00026
 010,0.00150330,0.00087912,0.00071811,0.00067245,0.05403472,0.06840028,
 -0.00001283,0.00004422,-0.00008396,0.00032183,0.00035906,-0.00018142,-
 0.00008836,-0.00003569,0.00010071,0.00007317,0.00004390,-0.00003701,0.
 00002597,0.00006590,-0.00000468,-0.00003805,-0.00006165,0.00000101,-0.
 00001866,-0.00003513,0.00000970,-0.00000052,-0.00001889,0.00000791,0.0
 0001393,0.00002116,-0.00002914,-0.00000403,0.00000050,-0.00000071,-0.0
 0002071,0.00002646,0.00001706,0.00002008,-0.00005244,-0.00000376,-0.00
 004247,0.00000888,0.00001943,0.00162780,0.00030644,0.00219878,0.004799
 39,0.00893488,0.00417471,-0.11643208,-0.13127245,-0.33775502,0.0000221
 0,0.00002875,-0.00004500,-0.00000242,-0.00000388,0.00000421,0.00001150
 ,0.00001223,-0.00000234,-0.00001313,-0.00000110,0.00000038,0.00000541,
 0.00000635,-0.00000276,0.00000147,-0.00000017,0.00000204,0.00000043,-0
 .00000770,-0.00000524,0.00005946,-0.00000278,-0.00000862,-0.00018533,-
 0.00068797,-0.00006435,-0.00005995,-0.00007342,-0.00013617,0.00035035,
 0.00096392,0.00189052,-0.00044703,-0.00020894,0.00032274,0.12137327,0.
 12110255,0.34723898,0.00024162,-0.00007651,0.00001834,-0.00016789,0.00
 020576,-0.00043202,0.00032779,0.00008624,-0.00014220,-0.00003570,-0.00
 001410,-0.00005112,-0.00003423,0.00000657,0.00001961,0.00002326,0.0000
 1306,-0.00000159,0.00003506,-0.00001081,-0.00002194,-0.00001116,0.0000
 4064,0.00000090,-0.00000145,0.00005471,-0.00004441,-0.00000319,0.00000
 251,0.00003322,-0.00004686,-0.00002215,0.00001870,0.00004620,-0.000115
 70,-0.00005277,-0.00015185,-0.00000013,-0.00001550,0.00197196,0.000561
 72,-0.00029674,-0.02468112,0.02298734,0.01395342,-0.23304627,0.1309725
 4,0.12572381,-0.00002116,0.00002646,0.00000688,0.00001408,0.00001691,-
 0.00001061,-0.00000509,0.00000945,-0.00000050,0.00000501,-0.00001332,0
 .00000638,-0.00000267,-0.00001095,0.00000063,-0.00000164,-0.00000124,0
 .00000973,0.00003969,-0.00002698,0.00003465,0.00009062,0.00015539,0.00
 009779,0.00006237,-0.00014926,-0.00000288,0.00037633,-0.00114545,0.000
 58928,0.00055442,0.00034942,-0.00053302,-0.00513672,-0.00494932,0.0003
 0377,0.01082532,-0.00836899,-0.01134061,0.24873327,0.00047984,0.000123
 40,0.00020850,-0.00091329,-0.00056620,-0.00016555,0.00044965,0.0001477
 9,-0.00022219,-0.00015043,-0.00004767,-0.00001116,-0.00009449,-0.00015
 064,0.00001579,0.00010209,0.00014209,0.00000342,0.00006872,0.00006993,
 -0.00003504,-0.00001198,0.00003970,-0.00001089,-0.00002264,0.00000571,
 0.00002225,-0.00000643,0.00000574,0.00001894,0.00002750,-0.00004133,-0
 .00000579,0.00000056,0.00002538,0.00000227,0.00006225,-0.00003001,-0.0
 0001729,-0.00127560,0.00241707,0.00046438,-0.02056264,0.00692391,0.015
 35270,0.15290799,-0.15732558,-0.13619069,-0.00002502,-0.00000082,0.000
 06383,0.00002654,0.00002459,-0.00001893,-0.00002683,-0.00002420,0.0000
 0174,0.00002598,-0.00000048,-0.00000477,-0.00001925,-0.00001498,0.0000
 0105,-0.00000326,0.00000217,-0.00000316,-0.00001206,-0.00000488,-0.000
 01019,-0.00007484,0.00006498,-0.00002915,0.00009404,-0.00009341,-0.000
 02946,0.00047230,-0.00042824,-0.00037667,0.00083250,0.00053293,-0.0002
 4064,-0.00301395,-0.00066197,0.00096583,0.01124658,-0.00972543,0.00053
 703,-0.14058382,0.15859046,-0.00056988,-0.00024600,-0.00051788,0.00106
 720,0.00054172,0.00062213,-0.00063828,-0.00021066,0.00017705,0.0001761
 9,0.00010113,0.00002796,0.00011036,0.00020526,-0.00000992,-0.00012453,
 -0.00017937,-0.00001129,-0.00007836,-0.00009920,0.00002234,0.00000985,
 -0.00004955,0.00002661,0.00003157,0.00001421,-0.00005808,0.00000419,-0
 .00000849,-0.00000967,-0.00003862,0.00006179,0.00001038,0.00001903,-0.
 00008982,-0.00000675,-0.00015386,0.00003873,0.00001551,-0.00087049,-0.
 00194012,-0.00022729,0.00705854,0.00004305,-0.00344865,0.09624838,-0.0
 9878484,-0.10777267,0.00003860,-0.00001365,-0.00009483,-0.00004101,-0.
 00004045,0.00002467,0.00003294,0.00003141,0.00000373,-0.00003572,-0.00
 000012,0.00000289,0.00002219,0.00001782,-0.00000065,0.00000447,-0.0000
 0174,0.00000468,0.00001689,-0.00000178,0.00001705,0.00013698,-0.000045
 97,0.00009616,0.00012572,0.00008918,-0.00024210,0.00007276,0.00070794,
 -0.00000268,-0.00083664,0.00034336,0.00042363,-0.00074431,0.00061763,0
 .00176975,0.02682703,-0.02081532,-0.01762799,-0.12787120,0.11971384,0.
 12678590\\0.00000298,0.00000174,-0.00000094,0.00000111,-0.00000469,0.0
 0000290,-0.00000077,-0.00000159,-0.00000218,-0.00000135,0.00000418,0.0
 0000162,0.00000235,0.00000059,0.00000015,0.00000031,0.00000013,0.00000
 052,-0.00000028,-0.00000165,0.00000076,0.00000035,-0.00000331,-0.00000
 319,0.00000030,-0.00000046,0.00000069,-0.00000036,0.00000049,-0.000000
 05,-0.00000095,0.00000066,-0.00000061,-0.00000004,-0.00000141,-0.00000
 070,-0.00000026,0.00000142,-0.00000093,0.00000108,0.00000139,-0.000001
 59,0.00000037,0.00000063,0.00000176,0.00000027,-0.00000011,-0.00000100
 ,0.00000018,0.00000072,0.00000016,-0.00000068,0.00000101,0.00000036,-0
 .00000060,0.00000069,0.00000015,-0.00000171,0.00000133,0.00000087,-0.0
 0000048,-0.00000050,0.00000164,-0.00000032,0.00000028,-0.00000058,0.00
 000016,0.,-0.00000066,-0.00000003,-0.00000054,0.00000043,-0.00000097,-
 0.00000032,0.00000120,-0.00000119,0.,0.00000117,-0.00000022,0.00000024
 ,-0.00000086,0.00000022,-0.00000028,-0.00000152,0.00000010,-0.00000018
 ,0.00000013,0.00000042,-0.00000045,0.00000030\\\@


 "PERFECTION IS NOT AN ACCIDENT"
         --  EAGLE ELECTRIC MANUFACTURING CO.,INC. NY
 Job cpu time:       0 days  1 hours 25 minutes 12.7 seconds.
 File lengths (MBytes):  RWF=    320 Int=      0 D2E=      0 Chk=      9 Scr=      1
 Normal termination of Gaussian 09 at Sat Jul 24 01:43:09 2021.
