 Entering Gaussian System, Link 0=g09
 Input=opt_freq-conf-683.com
 Output=opt_freq-conf-683.log
 Initial command:
 /aerosol/software/g09/l1.exe "/scratch/nicole/10367/Gau-72868.inp" -scrdir="/scratch/nicole/10367/"
 Entering Link 1 = /aerosol/software/g09/l1.exe PID=     72874.
  
 Copyright (c) 1988,1990,1992,1993,1995,1998,2003,2009,2013,
            Gaussian, Inc.  All Rights Reserved.
  
 This is part of the Gaussian(R) 09 program.  It is based on
 the Gaussian(R) 03 system (copyright 2003, Gaussian, Inc.),
 the Gaussian(R) 98 system (copyright 1998, Gaussian, Inc.),
 the Gaussian(R) 94 system (copyright 1995, Gaussian, Inc.),
 the Gaussian 92(TM) system (copyright 1992, Gaussian, Inc.),
 the Gaussian 90(TM) system (copyright 1990, Gaussian, Inc.),
 the Gaussian 88(TM) system (copyright 1988, Gaussian, Inc.),
 the Gaussian 86(TM) system (copyright 1986, Carnegie Mellon
 University), and the Gaussian 82(TM) system (copyright 1983,
 Carnegie Mellon University). Gaussian is a federally registered
 trademark of Gaussian, Inc.
  
 This software contains proprietary and confidential information,
 including trade secrets, belonging to Gaussian, Inc.
  
 This software is provided under written license and may be
 used, copied, transmitted, or stored only in accord with that
 written license.
  
 The following legend is applicable only to US Government
 contracts under FAR:
  
                    RESTRICTED RIGHTS LEGEND
  
 Use, reproduction and disclosure by the US Government is
 subject to restrictions as set forth in subparagraphs (a)
 and (c) of the Commercial Computer Software - Restricted
 Rights clause in FAR 52.227-19.
  
 Gaussian, Inc.
 340 Quinnipiac St., Bldg. 40, Wallingford CT 06492
  
  
 ---------------------------------------------------------------
 Warning -- This program may not be used in any manner that
 competes with the business of Gaussian, Inc. or will provide
 assistance to any competitor of Gaussian, Inc.  The licensee
 of this program is prohibited from giving any competitor of
 Gaussian, Inc. access to this program.  By using this program,
 the user acknowledges that Gaussian, Inc. is engaged in the
 business of creating and licensing software in the field of
 computational chemistry and represents and warrants to the
 licensee that it is not a competitor of Gaussian, Inc. and that
 it will not use this program in any manner prohibited above.
 ---------------------------------------------------------------
  

 Cite this work as:
 Gaussian 09, Revision D.01,
 M. J. Frisch, G. W. Trucks, H. B. Schlegel, G. E. Scuseria, 
 M. A. Robb, J. R. Cheeseman, G. Scalmani, V. Barone, B. Mennucci, 
 G. A. Petersson, H. Nakatsuji, M. Caricato, X. Li, H. P. Hratchian, 
 A. F. Izmaylov, J. Bloino, G. Zheng, J. L. Sonnenberg, M. Hada, 
 M. Ehara, K. Toyota, R. Fukuda, J. Hasegawa, M. Ishida, T. Nakajima, 
 Y. Honda, O. Kitao, H. Nakai, T. Vreven, J. A. Montgomery, Jr., 
 J. E. Peralta, F. Ogliaro, M. Bearpark, J. J. Heyd, E. Brothers, 
 K. N. Kudin, V. N. Staroverov, T. Keith, R. Kobayashi, J. Normand, 
 K. Raghavachari, A. Rendell, J. C. Burant, S. S. Iyengar, J. Tomasi, 
 M. Cossi, N. Rega, J. M. Millam, M. Klene, J. E. Knox, J. B. Cross, 
 V. Bakken, C. Adamo, J. Jaramillo, R. Gomperts, R. E. Stratmann, 
 O. Yazyev, A. J. Austin, R. Cammi, C. Pomelli, J. W. Ochterski, 
 R. L. Martin, K. Morokuma, V. G. Zakrzewski, G. A. Voth, 
 P. Salvador, J. J. Dannenberg, S. Dapprich, A. D. Daniels, 
 O. Farkas, J. B. Foresman, J. V. Ortiz, J. Cioslowski, 
 and D. J. Fox, Gaussian, Inc., Wallingford CT, 2013.
 
 ******************************************
 Gaussian 09:  ES64L-G09RevD.01 24-Apr-2013
                24-Jul-2021 
 ******************************************
 %mem=2gb
 %nproc=4
 Will use up to    4 processors via shared memory.
 %chk=conf-683.chk
 ----------------------------------------------------------------------
 # B3LYP/6-31G(d,p) EmpiricalDispersion=GD3BJ opt=calcfc freq=noraman n
 osymm integral(ultrafinegrid)
 ----------------------------------------------------------------------
 1/10=4,14=-1,18=20,19=15,26=4,38=1/1,3;
 2/9=110,12=2,15=1,17=6,18=5,40=1/2;
 3/5=1,6=6,7=101,11=2,16=1,25=1,30=1,71=2,74=-5,75=-5,124=41,140=1/1,2,3;
 4//1;
 5/5=2,38=5/2;
 8/6=4,10=90,11=11/1;
 11/6=1,8=1,9=11,15=111,16=1,31=1/1,2,10;
 10/6=1,13=1,31=1/2;
 6/7=2,8=2,9=2,10=2,28=1/1;
 7/10=1,18=20,25=1,30=1/1,2,3,16;
 1/10=4,14=-1,18=20,19=15,26=4/3(2);
 2/9=110,15=1/2;
 99//99;
 2/9=110,15=1/2;
 3/5=1,6=6,7=101,11=2,16=1,25=1,30=1,71=1,74=-5,75=-5,124=41/1,2,3;
 4/5=5,16=3,69=1/1;
 5/5=2,38=5/2;
 7/30=1/1,2,3,16;
 1/14=-1,18=20,19=15,26=4/3(-5);
 2/9=110,15=1/2;
 6/7=2,8=2,9=2,10=2,19=2,28=1/1;
 99/9=1/99;
 ------------------------------------------------------------
 Candidate Structure: Conf:683 OPT and FREQ calc in gas phase
 ------------------------------------------------------------
 Symbolic Z-matrix:
 Charge =  0 Multiplicity = 1
 O                    -0.48714   0.03411  -2.18319 
 C                     0.46127   0.27928  -1.44052 
 N                     0.32789   0.42795  -0.11044 
 C                    -0.9578    0.66545   0.50158 
 C                    -0.92497   2.00031   1.21365 
 O                    -2.15887   2.3984    1.57874 
 O                     0.07049   2.63591   1.45945 
 C                    -1.34629  -0.41772   1.51388 
 C                    -1.55824  -1.78505   0.92941 
 C                    -1.80804  -2.98089   1.53805 
 N                    -1.96662  -3.98554   0.60476 
 C                    -1.81522  -3.39077  -0.55338 
 N                    -1.57259  -2.06509  -0.41431 
 C                     1.88811   0.37371  -1.96848 
 C                     2.67074   1.56211  -1.4079 
 N                     2.95917   1.38592   0.02671 
 H                     1.16423   0.73916   0.38089 
 H                    -1.71051   0.71537  -0.28595 
 H                    -2.04427   3.24021   2.03676 
 H                    -0.58326  -0.47218   2.29309 
 H                    -2.2642   -0.10001   2.01323 
 H                    -1.8861   -3.18906   2.59558 
 H                    -1.86735  -3.85838  -1.52128 
 H                    -1.36912  -1.41053  -1.15988 
 H                     2.42577  -0.54795  -1.71986 
 H                     1.81067   0.4345   -3.05414 
 H                     2.07238   2.46848  -1.52499 
 H                     3.58337   1.70483  -1.9953 
 H                     3.80746   0.85703   0.17254 
 H                     3.07913   2.28043   0.48106 
 

 GradGradGradGradGradGradGradGradGradGradGradGradGradGradGradGradGradGrad
 Berny optimization.
 Initialization pass.
                           ----------------------------
                           !    Initial Parameters    !
                           ! (Angstroms and Degrees)  !
 --------------------------                            --------------------------
 ! Name  Definition              Value          Derivative Info.                !
 --------------------------------------------------------------------------------
 ! R1    R(1,2)                  1.2293         calculate D2E/DX2 analytically  !
 ! R2    R(2,3)                  1.345          calculate D2E/DX2 analytically  !
 ! R3    R(2,14)                 1.5243         calculate D2E/DX2 analytically  !
 ! R4    R(3,4)                  1.4436         calculate D2E/DX2 analytically  !
 ! R5    R(3,17)                 1.0187         calculate D2E/DX2 analytically  !
 ! R6    R(4,5)                  1.5133         calculate D2E/DX2 analytically  !
 ! R7    R(4,8)                  1.5326         calculate D2E/DX2 analytically  !
 ! R8    R(4,18)                 1.0905         calculate D2E/DX2 analytically  !
 ! R9    R(5,6)                  1.3469         calculate D2E/DX2 analytically  !
 ! R10   R(5,7)                  1.2064         calculate D2E/DX2 analytically  !
 ! R11   R(6,19)                 0.9652         calculate D2E/DX2 analytically  !
 ! R12   R(8,9)                  1.502          calculate D2E/DX2 analytically  !
 ! R13   R(8,20)                 1.0919         calculate D2E/DX2 analytically  !
 ! R14   R(8,21)                 1.0922         calculate D2E/DX2 analytically  !
 ! R15   R(9,10)                 1.3649         calculate D2E/DX2 analytically  !
 ! R16   R(9,13)                 1.3727         calculate D2E/DX2 analytically  !
 ! R17   R(10,11)                1.3804         calculate D2E/DX2 analytically  !
 ! R18   R(10,22)                1.0806         calculate D2E/DX2 analytically  !
 ! R19   R(11,12)                1.3107         calculate D2E/DX2 analytically  !
 ! R20   R(12,13)                1.3549         calculate D2E/DX2 analytically  !
 ! R21   R(12,23)                1.0762         calculate D2E/DX2 analytically  !
 ! R22   R(13,24)                1.0128         calculate D2E/DX2 analytically  !
 ! R23   R(14,15)                1.5294         calculate D2E/DX2 analytically  !
 ! R24   R(14,25)                1.0956         calculate D2E/DX2 analytically  !
 ! R25   R(14,26)                1.0901         calculate D2E/DX2 analytically  !
 ! R26   R(15,16)                1.4739         calculate D2E/DX2 analytically  !
 ! R27   R(15,27)                1.0924         calculate D2E/DX2 analytically  !
 ! R28   R(15,28)                1.0947         calculate D2E/DX2 analytically  !
 ! R29   R(16,29)                1.0102         calculate D2E/DX2 analytically  !
 ! R30   R(16,30)                1.0104         calculate D2E/DX2 analytically  !
 ! A1    A(1,2,3)              122.8875         calculate D2E/DX2 analytically  !
 ! A2    A(1,2,14)             121.6868         calculate D2E/DX2 analytically  !
 ! A3    A(3,2,14)             115.3721         calculate D2E/DX2 analytically  !
 ! A4    A(2,3,4)              121.7189         calculate D2E/DX2 analytically  !
 ! A5    A(2,3,17)             115.4249         calculate D2E/DX2 analytically  !
 ! A6    A(4,3,17)             118.4538         calculate D2E/DX2 analytically  !
 ! A7    A(3,4,5)              108.9833         calculate D2E/DX2 analytically  !
 ! A8    A(3,4,8)              112.9234         calculate D2E/DX2 analytically  !
 ! A9    A(3,4,18)             108.4268         calculate D2E/DX2 analytically  !
 ! A10   A(5,4,8)              108.549          calculate D2E/DX2 analytically  !
 ! A11   A(5,4,18)             108.3251         calculate D2E/DX2 analytically  !
 ! A12   A(8,4,18)             109.535          calculate D2E/DX2 analytically  !
 ! A13   A(4,5,6)              111.6154         calculate D2E/DX2 analytically  !
 ! A14   A(4,5,7)              125.3475         calculate D2E/DX2 analytically  !
 ! A15   A(6,5,7)              123.0221         calculate D2E/DX2 analytically  !
 ! A16   A(5,6,19)             106.1193         calculate D2E/DX2 analytically  !
 ! A17   A(4,8,9)              114.9679         calculate D2E/DX2 analytically  !
 ! A18   A(4,8,20)             109.2354         calculate D2E/DX2 analytically  !
 ! A19   A(4,8,21)             108.0247         calculate D2E/DX2 analytically  !
 ! A20   A(9,8,20)             109.3221         calculate D2E/DX2 analytically  !
 ! A21   A(9,8,21)             108.9127         calculate D2E/DX2 analytically  !
 ! A22   A(20,8,21)            105.9938         calculate D2E/DX2 analytically  !
 ! A23   A(8,9,10)             130.5325         calculate D2E/DX2 analytically  !
 ! A24   A(8,9,13)             124.618          calculate D2E/DX2 analytically  !
 ! A25   A(10,9,13)            104.8255         calculate D2E/DX2 analytically  !
 ! A26   A(9,10,11)            110.9276         calculate D2E/DX2 analytically  !
 ! A27   A(9,10,22)            128.1989         calculate D2E/DX2 analytically  !
 ! A28   A(11,10,22)           120.8735         calculate D2E/DX2 analytically  !
 ! A29   A(10,11,12)           104.7069         calculate D2E/DX2 analytically  !
 ! A30   A(11,12,13)           111.9624         calculate D2E/DX2 analytically  !
 ! A31   A(11,12,23)           126.2929         calculate D2E/DX2 analytically  !
 ! A32   A(13,12,23)           121.7446         calculate D2E/DX2 analytically  !
 ! A33   A(9,13,12)            107.5757         calculate D2E/DX2 analytically  !
 ! A34   A(9,13,24)            125.9221         calculate D2E/DX2 analytically  !
 ! A35   A(12,13,24)           126.3561         calculate D2E/DX2 analytically  !
 ! A36   A(2,14,15)            113.5898         calculate D2E/DX2 analytically  !
 ! A37   A(2,14,25)            109.187          calculate D2E/DX2 analytically  !
 ! A38   A(2,14,26)            106.3738         calculate D2E/DX2 analytically  !
 ! A39   A(15,14,25)           108.6248         calculate D2E/DX2 analytically  !
 ! A40   A(15,14,26)           110.9815         calculate D2E/DX2 analytically  !
 ! A41   A(25,14,26)           107.9245         calculate D2E/DX2 analytically  !
 ! A42   A(14,15,16)           111.3475         calculate D2E/DX2 analytically  !
 ! A43   A(14,15,27)           108.9737         calculate D2E/DX2 analytically  !
 ! A44   A(14,15,28)           109.3448         calculate D2E/DX2 analytically  !
 ! A45   A(16,15,27)           108.1028         calculate D2E/DX2 analytically  !
 ! A46   A(16,15,28)           112.0079         calculate D2E/DX2 analytically  !
 ! A47   A(27,15,28)           106.9165         calculate D2E/DX2 analytically  !
 ! A48   A(15,16,29)           111.5564         calculate D2E/DX2 analytically  !
 ! A49   A(15,16,30)           110.7986         calculate D2E/DX2 analytically  !
 ! A50   A(29,16,30)           107.3892         calculate D2E/DX2 analytically  !
 ! D1    D(1,2,3,4)            -16.8472         calculate D2E/DX2 analytically  !
 ! D2    D(1,2,3,17)          -172.909          calculate D2E/DX2 analytically  !
 ! D3    D(14,2,3,4)           165.7775         calculate D2E/DX2 analytically  !
 ! D4    D(14,2,3,17)            9.7158         calculate D2E/DX2 analytically  !
 ! D5    D(1,2,14,15)          136.0055         calculate D2E/DX2 analytically  !
 ! D6    D(1,2,14,25)         -102.5989         calculate D2E/DX2 analytically  !
 ! D7    D(1,2,14,26)           13.6252         calculate D2E/DX2 analytically  !
 ! D8    D(3,2,14,15)          -46.5847         calculate D2E/DX2 analytically  !
 ! D9    D(3,2,14,25)           74.8109         calculate D2E/DX2 analytically  !
 ! D10   D(3,2,14,26)         -168.965          calculate D2E/DX2 analytically  !
 ! D11   D(2,3,4,5)           -118.9752         calculate D2E/DX2 analytically  !
 ! D12   D(2,3,4,8)            120.312          calculate D2E/DX2 analytically  !
 ! D13   D(2,3,4,18)            -1.2603         calculate D2E/DX2 analytically  !
 ! D14   D(17,3,4,5)            36.3919         calculate D2E/DX2 analytically  !
 ! D15   D(17,3,4,8)           -84.3209         calculate D2E/DX2 analytically  !
 ! D16   D(17,3,4,18)          154.1068         calculate D2E/DX2 analytically  !
 ! D17   D(3,4,5,6)            167.8964         calculate D2E/DX2 analytically  !
 ! D18   D(3,4,5,7)            -13.4842         calculate D2E/DX2 analytically  !
 ! D19   D(8,4,5,6)            -68.7433         calculate D2E/DX2 analytically  !
 ! D20   D(8,4,5,7)            109.876          calculate D2E/DX2 analytically  !
 ! D21   D(18,4,5,6)            50.1173         calculate D2E/DX2 analytically  !
 ! D22   D(18,4,5,7)          -131.2634         calculate D2E/DX2 analytically  !
 ! D23   D(3,4,8,9)            -64.9541         calculate D2E/DX2 analytically  !
 ! D24   D(3,4,8,20)            58.3472         calculate D2E/DX2 analytically  !
 ! D25   D(3,4,8,21)           173.2087         calculate D2E/DX2 analytically  !
 ! D26   D(5,4,8,9)            174.086          calculate D2E/DX2 analytically  !
 ! D27   D(5,4,8,20)           -62.6128         calculate D2E/DX2 analytically  !
 ! D28   D(5,4,8,21)            52.2487         calculate D2E/DX2 analytically  !
 ! D29   D(18,4,8,9)            55.9903         calculate D2E/DX2 analytically  !
 ! D30   D(18,4,8,20)          179.2915         calculate D2E/DX2 analytically  !
 ! D31   D(18,4,8,21)          -65.847          calculate D2E/DX2 analytically  !
 ! D32   D(4,5,6,19)           178.8907         calculate D2E/DX2 analytically  !
 ! D33   D(7,5,6,19)             0.2338         calculate D2E/DX2 analytically  !
 ! D34   D(4,8,9,10)           174.4921         calculate D2E/DX2 analytically  !
 ! D35   D(4,8,9,13)            -7.5697         calculate D2E/DX2 analytically  !
 ! D36   D(20,8,9,10)           51.2371         calculate D2E/DX2 analytically  !
 ! D37   D(20,8,9,13)         -130.8247         calculate D2E/DX2 analytically  !
 ! D38   D(21,8,9,10)          -64.1528         calculate D2E/DX2 analytically  !
 ! D39   D(21,8,9,13)          113.7854         calculate D2E/DX2 analytically  !
 ! D40   D(8,9,10,11)          178.6096         calculate D2E/DX2 analytically  !
 ! D41   D(8,9,10,22)           -1.3372         calculate D2E/DX2 analytically  !
 ! D42   D(13,9,10,11)           0.3647         calculate D2E/DX2 analytically  !
 ! D43   D(13,9,10,22)        -179.5821         calculate D2E/DX2 analytically  !
 ! D44   D(8,9,13,12)         -178.8194         calculate D2E/DX2 analytically  !
 ! D45   D(8,9,13,24)            5.359          calculate D2E/DX2 analytically  !
 ! D46   D(10,9,13,12)          -0.4403         calculate D2E/DX2 analytically  !
 ! D47   D(10,9,13,24)        -176.2619         calculate D2E/DX2 analytically  !
 ! D48   D(9,10,11,12)          -0.1419         calculate D2E/DX2 analytically  !
 ! D49   D(22,10,11,12)        179.8093         calculate D2E/DX2 analytically  !
 ! D50   D(10,11,12,13)         -0.1505         calculate D2E/DX2 analytically  !
 ! D51   D(10,11,12,23)        179.7578         calculate D2E/DX2 analytically  !
 ! D52   D(11,12,13,9)           0.3833         calculate D2E/DX2 analytically  !
 ! D53   D(11,12,13,24)        176.1817         calculate D2E/DX2 analytically  !
 ! D54   D(23,12,13,9)        -179.5298         calculate D2E/DX2 analytically  !
 ! D55   D(23,12,13,24)         -3.7314         calculate D2E/DX2 analytically  !
 ! D56   D(2,14,15,16)          68.9177         calculate D2E/DX2 analytically  !
 ! D57   D(2,14,15,27)         -50.2361         calculate D2E/DX2 analytically  !
 ! D58   D(2,14,15,28)        -166.7754         calculate D2E/DX2 analytically  !
 ! D59   D(25,14,15,16)        -52.7915         calculate D2E/DX2 analytically  !
 ! D60   D(25,14,15,27)       -171.9453         calculate D2E/DX2 analytically  !
 ! D61   D(25,14,15,28)         71.5155         calculate D2E/DX2 analytically  !
 ! D62   D(26,14,15,16)       -171.2862         calculate D2E/DX2 analytically  !
 ! D63   D(26,14,15,27)         69.56           calculate D2E/DX2 analytically  !
 ! D64   D(26,14,15,28)        -46.9793         calculate D2E/DX2 analytically  !
 ! D65   D(14,15,16,29)         86.1649         calculate D2E/DX2 analytically  !
 ! D66   D(14,15,16,30)       -154.2452         calculate D2E/DX2 analytically  !
 ! D67   D(27,15,16,29)       -154.1633         calculate D2E/DX2 analytically  !
 ! D68   D(27,15,16,30)        -34.5734         calculate D2E/DX2 analytically  !
 ! D69   D(28,15,16,29)        -36.6262         calculate D2E/DX2 analytically  !
 ! D70   D(28,15,16,30)         82.9637         calculate D2E/DX2 analytically  !
 --------------------------------------------------------------------------------
 Trust Radius=3.00D-01 FncErr=1.00D-07 GrdErr=1.00D-06
 Number of steps in this run=    160 maximum allowed number of steps=    180.
 GradGradGradGradGradGradGradGradGradGradGradGradGradGradGradGradGradGrad

                          Input orientation:                          
 ---------------------------------------------------------------------
 Center     Atomic      Atomic             Coordinates (Angstroms)
 Number     Number       Type             X           Y           Z
 ---------------------------------------------------------------------
      1          8           0       -0.487137    0.034113   -2.183190
      2          6           0        0.461268    0.279282   -1.440517
      3          7           0        0.327894    0.427946   -0.110441
      4          6           0       -0.957804    0.665448    0.501575
      5          6           0       -0.924970    2.000307    1.213651
      6          8           0       -2.158867    2.398398    1.578742
      7          8           0        0.070491    2.635914    1.459449
      8          6           0       -1.346294   -0.417723    1.513882
      9          6           0       -1.558244   -1.785053    0.929409
     10          6           0       -1.808037   -2.980892    1.538055
     11          7           0       -1.966617   -3.985539    0.604764
     12          6           0       -1.815215   -3.390767   -0.553375
     13          7           0       -1.572589   -2.065091   -0.414312
     14          6           0        1.888109    0.373714   -1.968479
     15          6           0        2.670739    1.562111   -1.407896
     16          7           0        2.959170    1.385918    0.026709
     17          1           0        1.164234    0.739164    0.380893
     18          1           0       -1.710505    0.715370   -0.285954
     19          1           0       -2.044274    3.240207    2.036763
     20          1           0       -0.583259   -0.472180    2.293090
     21          1           0       -2.264205   -0.100005    2.013233
     22          1           0       -1.886099   -3.189059    2.595576
     23          1           0       -1.867355   -3.858382   -1.521281
     24          1           0       -1.369122   -1.410531   -1.159878
     25          1           0        2.425773   -0.547949   -1.719863
     26          1           0        1.810668    0.434499   -3.054138
     27          1           0        2.072378    2.468476   -1.524990
     28          1           0        3.583373    1.704834   -1.995297
     29          1           0        3.807463    0.857035    0.172543
     30          1           0        3.079128    2.280426    0.481062
 ---------------------------------------------------------------------
                    Distance matrix (angstroms):
                    1          2          3          4          5
     1  O    0.000000
     2  C    1.229285   0.000000
     3  N    2.261784   1.344987   0.000000
     4  C    2.797870   2.436105   1.443603   0.000000
     5  C    3.949195   3.453720   2.407323   1.513267   0.000000
     6  O    4.747279   4.524564   3.594440   2.367690   1.346949
     7  O    4.511001   3.757156   2.721384   2.420257   1.206381
     8  C    3.822388   3.532926   2.481227   1.532629   2.472755
     9  C    3.760972   3.735834   3.088069   2.559009   3.848477
    10  C    4.968168   4.964913   4.347403   3.884969   5.069258
    11  N    5.110690   5.316625   5.025450   4.760256   6.106236
    12  C    4.018694   4.408930   4.401327   4.277962   5.742699
    13  N    2.951914   3.268908   3.149509   2.944938   4.426865
    14  C    2.408987   1.524315   2.426833   3.779616   4.548095
    15  C    3.592776   2.555089   2.908375   4.197191   4.471425
    16  N    4.311387   3.101114   2.803593   4.010892   4.107657
    17  H    3.130279   2.005789   1.018691   2.126745   2.578514
    18  H    2.358018   2.497957   2.066032   1.090529   2.125310
    19  H    5.523741   5.209250   4.259868   3.188510   1.862178
    20  H    4.505847   3.949120   2.723489   2.154996   2.719402
    21  H    4.559159   4.415931   3.392300   2.139559   2.616141
    22  H    5.931487   5.816318   5.030608   4.483725   5.455547
    23  H    4.182661   4.748608   5.018186   5.038281   6.533925
    24  H    1.977894   2.506901   2.713149   2.690595   4.179082
    25  H    3.006411   2.149797   2.818458   4.225602   5.130944
    26  H    2.489732   2.109205   3.296060   4.512302   5.305609
    27  H    3.593113   2.719445   3.034458   4.066925   4.086983
    28  H    4.404050   3.476711   3.972564   5.285544   5.541643
    29  H    4.966917   3.759359   3.517328   4.780453   4.978644
    30  H    4.986221   3.814476   3.369101   4.348033   4.080190
                    6          7          8          9         10
     6  O    0.000000
     7  O    2.245146   0.000000
     8  C    2.931726   3.366740   0.000000
     9  C    4.275938   4.741167   1.502040   0.000000
    10  C    5.390871   5.923137   2.604539   1.364872   0.000000
    11  N    6.460669   6.980253   3.733712   2.261482   1.380397
    12  C    6.178872   6.627838   3.651361   2.200682   2.131227
    13  N    4.923284   5.320727   2.546167   1.372667   2.169300
    14  C    5.749794   4.491322   4.818151   4.993534   6.100054
    15  C    5.739728   4.016965   5.347250   5.877993   7.026872
    16  N    5.443181   3.458280   4.899165   5.592580   6.639236
    17  H    3.902678   2.440740   2.987441   3.752923   4.900228
    18  H    2.551608   3.147517   2.157767   2.784314   4.122969
    19  H    0.965172   2.273916   3.760456   5.168723   6.245525
    20  H    3.351574   3.283686   1.091949   2.129285   2.892022
    21  H    2.538089   3.639057   1.092180   2.124251   2.955231
    22  H    5.685774   6.248946   3.023533   2.203368   1.080637
    23  H    6.988735   7.403774   4.617560   3.224922   3.183244
    24  H    4.757276   5.030614   2.852224   2.130998   3.152383
    25  H    6.370296   5.078618   4.970166   4.941807   5.870126
    26  H    6.409187   5.314782   5.617784   5.669623   6.771126
    27  H    5.247999   3.597564   5.408531   6.107209   7.357681
    28  H    6.799125   5.014232   6.412581   6.868001   7.969184
    29  H    6.320624   4.334224   5.475893   6.028622   6.937445
    30  H    5.353074   3.183631   5.284986   6.183393   7.258310
                   11         12         13         14         15
    11  N    0.000000
    12  C    1.310710   0.000000
    13  N    2.209501   1.354852   0.000000
    14  C    6.362671   5.467033   4.509949   0.000000
    15  C    7.505484   6.736839   5.670066   1.529396   0.000000
    16  N    7.310956   6.778493   5.713213   2.480424   1.473881
    17  H    5.672316   5.177481   3.998300   2.485377   2.479227
    18  H    4.791400   4.116169   2.786837   3.987185   4.601199
    19  H    7.366685   7.122577   5.863142   6.302569   6.075609
    20  H    4.136159   4.258900   3.293352   4.998417   5.331430
    21  H    4.143636   4.197402   3.198886   5.772361   6.230604
    22  H    2.145739   3.156201   3.228160   6.911483   7.704944
    23  H    2.132155   1.076208   2.127947   5.675750   7.070283
    24  H    3.178305   2.118532   1.012776   3.800911   5.021812
    25  H    6.042682   5.237202   4.471363   1.095607   2.147018
    26  H    6.869657   5.833824   4.966192   1.090113   2.172866
    27  H    7.905925   7.098461   5.922214   2.149108   1.092357
    28  H    8.363196   7.562344   6.579954   2.155578   1.094673
    29  H    7.548333   7.084158   6.150462   2.915732   2.070521
    30  H    8.045940   7.562214   6.428350   3.324805   2.061775
                   16         17         18         19         20
    16  N    0.000000
    17  H    1.940498   0.000000
    18  H    4.727923   2.951165   0.000000
    19  H    5.702031   4.392225   3.446913   0.000000
    20  H    4.597588   2.859648   3.054902   3.997760   0.000000
    21  H    5.782551   3.888822   2.501535   3.347527   1.744251
    22  H    7.141856   5.444289   4.855781   6.455443   3.028253
    23  H    7.293442   5.826340   4.740237   7.942351   5.259723
    24  H    5.287932   3.662384   2.323735   5.683635   3.663478
    25  H    2.659862   2.767909   4.556409   6.960150   5.016354
    26  H    3.422846   3.508581   4.487805   6.974944   5.928390
    27  H    2.089522   2.729036   4.349574   5.498043   5.502509
    28  H    2.140057   3.525767   5.650313   7.091212   6.363213
    29  H    1.010241   2.654046   5.538796   6.587690   5.053907
    30  H    1.010431   2.460150   5.096891   5.439727   4.926800
                   21         22         23         24         25
    21  H    0.000000
    22  H    3.166123   0.000000
    23  H    5.174522   4.170953   0.000000
    24  H    3.547856   4.187344   2.524049   0.000000
    25  H    6.011036   6.647609   5.424882   3.931775   0.000000
    26  H    6.524457   7.662605   5.857161   4.135628   1.767441
    27  H    6.158090   8.040914   7.453230   5.198454   3.043301
    28  H    7.315731   8.656871   7.802852   5.910214   2.547731
    29  H    6.416324   7.393146   7.570188   5.806395   2.732077
    30  H    6.046917   7.683742   8.134004   6.008558   3.642890
                   26         27         28         29         30
    26  H    0.000000
    27  H    2.558095   0.000000
    28  H    2.424331   1.757112   0.000000
    29  H    3.818010   2.913568   2.338484   0.000000
    30  H    4.184982   2.252366   2.591896   1.628404   0.000000
 Symmetry turned off by external request.
 Stoichiometry    C9H14N4O3
 Framework group  C1[X(C9H14N4O3)]
 Deg. of freedom    84
 Full point group                 C1      NOp   1
 Rotational constants (GHZ):      0.6745708      0.3748381      0.2826775
 Standard basis: 6-31G(d,p) (6D, 7F)
   310 basis functions,   546 primitive gaussians,   310 cartesian basis functions
    60 alpha electrons       60 beta electrons
       nuclear repulsion energy      1148.3601066720 Hartrees.
 NAtoms=   30 NActive=   30 NUniq=   30 SFac= 1.00D+00 NAtFMM=   60 NAOKFM=F Big=F
 Integral buffers will be    131072 words long.
 Raffenetti 2 integral format.
 Two-electron integral symmetry is turned off.
 Nuclear repulsion after empirical dispersion term =     1148.3041973030 Hartrees.
 One-electron integrals computed using PRISM.
 NBasis=   310 RedAO= T EigKep=  1.10D-03  NBF=   310
 NBsUse=   310 1.00D-06 EigRej= -1.00D+00 NBFU=   310
 ExpMin= 1.61D-01 ExpMax= 5.48D+03 ExpMxC= 8.25D+02 IAcc=3 IRadAn=         5 AccDes= 0.00D+00
 Harris functional with IExCor=  402 and IRadAn=       5 diagonalized for initial guess.
 HarFok:  IExCor=  402 AccDes= 0.00D+00 IRadAn=         5 IDoV= 1 UseB2=F ITyADJ=14
 ICtDFT=  3500011 ScaDFX=  1.000000  1.000000  1.000000  1.000000
 FoFCou: FMM=F IPFlag=           0 FMFlag=      100000 FMFlg1=           0
         NFxFlg=           0 DoJE=T BraDBF=F KetDBF=T FulRan=T
         wScrn=  0.000000 ICntrl=     500 IOpCl=  0 I1Cent=   200000004 NGrid=           0
         NMat0=    1 NMatS0=      1 NMatT0=    0 NMatD0=    1 NMtDS0=    0 NMtDT0=    0
 Symmetry not used in FoFCou.
 Requested convergence on RMS density matrix=1.00D-08 within 128 cycles.
 Requested convergence on MAX density matrix=1.00D-06.
 Requested convergence on             energy=1.00D-06.
 No special actions if energy rises.
 Integral accuracy reduced to 1.0D-05 until final iterations.
 Initial convergence to 1.0D-05 achieved.  Increase integral accuracy.
 SCF Done:  E(RB3LYP) =  -796.176308842     A.U. after   14 cycles
            NFock= 14  Conv=0.60D-08     -V/T= 2.0088
 DoSCS=F DFT=T ScalE2(SS,OS)=  1.000000  1.000000
 Range of M.O.s used for correlation:     1   310
 NBasis=   310 NAE=    60 NBE=    60 NFC=     0 NFV=     0
 NROrb=    310 NOA=    60 NOB=    60 NVA=   250 NVB=   250
 Symmetrizing basis deriv contribution to polar:
 IMax=3 JMax=2 DiffMx= 0.00D+00
 G2DrvN: will do    31 centers at a time, making    1 passes.
 Calling FoFCou, ICntrl=  3107 FMM=F I1Cent=   0 AccDes= 0.00D+00.
 End of G2Drv F.D. properties file   721 does not exist.
 End of G2Drv F.D. properties file   722 does not exist.
 End of G2Drv F.D. properties file   788 does not exist.
          IDoAtm=111111111111111111111111111111
          Differentiating once with respect to nuclear coordinates.
          There are    93 degrees of freedom in the 1st order CPHF.  IDoFFX=6 NUNeed=     0.
     87 vectors produced by pass  0 Test12= 1.61D-14 1.08D-09 XBig12= 1.94D-01 9.75D-02.
 AX will form    87 AO Fock derivatives at one time.
     87 vectors produced by pass  1 Test12= 1.61D-14 1.08D-09 XBig12= 4.53D-02 5.15D-02.
     87 vectors produced by pass  2 Test12= 1.61D-14 1.08D-09 XBig12= 3.25D-04 2.58D-03.
     87 vectors produced by pass  3 Test12= 1.61D-14 1.08D-09 XBig12= 1.13D-06 9.54D-05.
     87 vectors produced by pass  4 Test12= 1.61D-14 1.08D-09 XBig12= 1.70D-09 5.50D-06.
     70 vectors produced by pass  5 Test12= 1.61D-14 1.08D-09 XBig12= 1.65D-12 1.72D-07.
     14 vectors produced by pass  6 Test12= 1.61D-14 1.08D-09 XBig12= 1.23D-15 3.74D-09.
 InvSVY:  IOpt=1 It=  1 EMax= 7.22D-16
 Solved reduced A of dimension   519 with    93 vectors.
 End of Minotr F.D. properties file   721 does not exist.
 End of Minotr F.D. properties file   722 does not exist.
 End of Minotr F.D. properties file   788 does not exist.

 **********************************************************************

            Population analysis using the SCF density.

 **********************************************************************

 Alpha  occ. eigenvalues --  -19.21539 -19.15982 -19.12264 -14.36191 -14.35602
 Alpha  occ. eigenvalues --  -14.34344 -14.28752 -10.33733 -10.29283 -10.24986
 Alpha  occ. eigenvalues --  -10.23460 -10.21238 -10.20653 -10.20251 -10.20122
 Alpha  occ. eigenvalues --  -10.17220  -1.12930  -1.04584  -1.03743  -0.99348
 Alpha  occ. eigenvalues --   -0.93746  -0.90705  -0.84697  -0.80801  -0.76874
 Alpha  occ. eigenvalues --   -0.73536  -0.67111  -0.65395  -0.61995  -0.59390
 Alpha  occ. eigenvalues --   -0.58131  -0.56854  -0.54302  -0.52321  -0.51324
 Alpha  occ. eigenvalues --   -0.50603  -0.48930  -0.47620  -0.47195  -0.46524
 Alpha  occ. eigenvalues --   -0.44977  -0.43680  -0.42584  -0.41907  -0.40634
 Alpha  occ. eigenvalues --   -0.40123  -0.39517  -0.38697  -0.38438  -0.38084
 Alpha  occ. eigenvalues --   -0.37510  -0.35555  -0.33863  -0.29799  -0.27153
 Alpha  occ. eigenvalues --   -0.26941  -0.25763  -0.25605  -0.24280  -0.20308
 Alpha virt. eigenvalues --   -0.00753   0.01315   0.05344   0.06276   0.06580
 Alpha virt. eigenvalues --    0.08361   0.10859   0.11413   0.11845   0.13324
 Alpha virt. eigenvalues --    0.14053   0.14668   0.15135   0.16762   0.17035
 Alpha virt. eigenvalues --    0.18141   0.18248   0.19984   0.20117   0.21017
 Alpha virt. eigenvalues --    0.22012   0.22359   0.23569   0.24010   0.26098
 Alpha virt. eigenvalues --    0.29567   0.31302   0.31439   0.34956   0.35374
 Alpha virt. eigenvalues --    0.36963   0.39548   0.41418   0.46214   0.49269
 Alpha virt. eigenvalues --    0.51277   0.51626   0.53118   0.53306   0.54101
 Alpha virt. eigenvalues --    0.55203   0.56431   0.57002   0.57683   0.59103
 Alpha virt. eigenvalues --    0.61300   0.62352   0.63207   0.63628   0.64474
 Alpha virt. eigenvalues --    0.64842   0.65977   0.66750   0.68705   0.68929
 Alpha virt. eigenvalues --    0.70717   0.71822   0.72843   0.73779   0.74590
 Alpha virt. eigenvalues --    0.76084   0.76728   0.78923   0.79558   0.80215
 Alpha virt. eigenvalues --    0.81806   0.82429   0.82985   0.83776   0.84455
 Alpha virt. eigenvalues --    0.85168   0.85615   0.86459   0.87585   0.87863
 Alpha virt. eigenvalues --    0.89043   0.89772   0.90435   0.90973   0.91680
 Alpha virt. eigenvalues --    0.92797   0.93296   0.94820   0.95393   0.98557
 Alpha virt. eigenvalues --    0.99695   1.00558   1.03335   1.04210   1.04991
 Alpha virt. eigenvalues --    1.05662   1.06706   1.09533   1.12680   1.13847
 Alpha virt. eigenvalues --    1.17461   1.20636   1.23686   1.24148   1.26452
 Alpha virt. eigenvalues --    1.28246   1.31375   1.32056   1.32914   1.33932
 Alpha virt. eigenvalues --    1.35821   1.37873   1.38430   1.40209   1.41079
 Alpha virt. eigenvalues --    1.44792   1.46014   1.49594   1.50135   1.51840
 Alpha virt. eigenvalues --    1.54086   1.55286   1.55928   1.56598   1.57834
 Alpha virt. eigenvalues --    1.62848   1.64654   1.66184   1.68885   1.70736
 Alpha virt. eigenvalues --    1.71748   1.74551   1.75057   1.76699   1.77712
 Alpha virt. eigenvalues --    1.78473   1.80334   1.82688   1.83763   1.84104
 Alpha virt. eigenvalues --    1.84340   1.86234   1.87719   1.89346   1.91421
 Alpha virt. eigenvalues --    1.93937   1.94225   1.95075   1.96765   1.98130
 Alpha virt. eigenvalues --    1.99337   2.00103   2.02725   2.05767   2.07193
 Alpha virt. eigenvalues --    2.08723   2.09151   2.09826   2.10458   2.12132
 Alpha virt. eigenvalues --    2.13044   2.15177   2.17084   2.18062   2.20159
 Alpha virt. eigenvalues --    2.21542   2.21847   2.23662   2.24350   2.27107
 Alpha virt. eigenvalues --    2.28597   2.29349   2.29793   2.32015   2.32852
 Alpha virt. eigenvalues --    2.34909   2.36282   2.37899   2.39505   2.40305
 Alpha virt. eigenvalues --    2.43597   2.45378   2.47321   2.48395   2.49823
 Alpha virt. eigenvalues --    2.50315   2.52721   2.53250   2.56141   2.56650
 Alpha virt. eigenvalues --    2.57483   2.58668   2.60335   2.60772   2.61918
 Alpha virt. eigenvalues --    2.62809   2.66584   2.66987   2.67744   2.68994
 Alpha virt. eigenvalues --    2.70484   2.71536   2.72467   2.75654   2.76671
 Alpha virt. eigenvalues --    2.79057   2.80544   2.82228   2.84064   2.85027
 Alpha virt. eigenvalues --    2.87550   2.87689   2.89178   2.91431   2.93465
 Alpha virt. eigenvalues --    2.94162   2.97042   2.97915   3.00278   3.01572
 Alpha virt. eigenvalues --    3.05826   3.07236   3.16441   3.20638   3.23528
 Alpha virt. eigenvalues --    3.26927   3.29528   3.30678   3.30978   3.33144
 Alpha virt. eigenvalues --    3.38257   3.41489   3.43246   3.47571   3.50410
 Alpha virt. eigenvalues --    3.52472   3.56328   3.58596   3.72534   3.94843
 Alpha virt. eigenvalues --    4.01878   4.06684   4.11478   4.14195   4.19329
 Alpha virt. eigenvalues --    4.25165   4.26525   4.38608   4.41527   4.44938
 Alpha virt. eigenvalues --    4.49366   4.54226   4.62579   4.71528   4.83747
          Condensed to atoms (all electrons):
               1          2          3          4          5          6
     1  O    8.137435   0.525356  -0.106990  -0.005538   0.000446  -0.000001
     2  C    0.525356   4.383815   0.293963  -0.028784   0.003601   0.000018
     3  N   -0.106990   0.293963   7.062643   0.243400  -0.046505   0.002389
     4  C   -0.005538  -0.028784   0.243400   5.131830   0.290840  -0.100864
     5  C    0.000446   0.003601  -0.046505   0.290840   4.403660   0.260343
     6  O   -0.000001   0.000018   0.002389  -0.100864   0.260343   8.115100
     7  O   -0.000003   0.000987  -0.006266  -0.079816   0.589463  -0.085777
     8  C    0.000246   0.000889  -0.058693   0.319453  -0.038541   0.001733
     9  C   -0.000801   0.000211   0.000531  -0.022482   0.001291   0.000037
    10  C   -0.000003  -0.000071  -0.000163   0.002957  -0.000129  -0.000002
    11  N   -0.000005  -0.000006   0.000004  -0.000149   0.000002   0.000000
    12  C    0.000095   0.000111  -0.000004   0.000050   0.000006   0.000000
    13  N   -0.020196   0.002513   0.002296  -0.005102   0.000187   0.000001
    14  C   -0.069839   0.351342  -0.118154   0.007139  -0.000170   0.000000
    15  C    0.001271  -0.022532   0.008359  -0.000777   0.000090   0.000000
    16  N   -0.000060  -0.006253  -0.038337   0.001954  -0.000079  -0.000001
    17  H    0.002620  -0.011210   0.299051  -0.027139  -0.003374   0.000249
    18  H    0.020051  -0.002565  -0.052552   0.371019  -0.021499   0.002451
    19  H    0.000000  -0.000003  -0.000281   0.010658  -0.010835   0.271239
    20  H   -0.000018  -0.000120  -0.004624  -0.030667  -0.002888  -0.000057
    21  H   -0.000009  -0.000003   0.004748  -0.036968  -0.002204   0.006448
    22  H    0.000000   0.000001  -0.000007   0.000024   0.000002   0.000000
    23  H   -0.000003   0.000008  -0.000001  -0.000004   0.000000   0.000000
    24  H    0.057768  -0.002212  -0.009610   0.001897  -0.000110   0.000002
    25  H    0.000418  -0.027226   0.000425  -0.000103  -0.000003   0.000000
    26  H    0.004690  -0.024575   0.005264  -0.000141   0.000002   0.000000
    27  H    0.000330  -0.004430   0.001240  -0.000306   0.000226   0.000001
    28  H   -0.000087   0.003771  -0.000158   0.000020  -0.000002   0.000000
    29  H    0.000002   0.000033   0.000759  -0.000052   0.000009   0.000000
    30  H    0.000002   0.000236   0.000624  -0.000102   0.000032   0.000001
               7          8          9         10         11         12
     1  O   -0.000003   0.000246  -0.000801  -0.000003  -0.000005   0.000095
     2  C    0.000987   0.000889   0.000211  -0.000071  -0.000006   0.000111
     3  N   -0.006266  -0.058693   0.000531  -0.000163   0.000004  -0.000004
     4  C   -0.079816   0.319453  -0.022482   0.002957  -0.000149   0.000050
     5  C    0.589463  -0.038541   0.001291  -0.000129   0.000002   0.000006
     6  O   -0.085777   0.001733   0.000037  -0.000002   0.000000   0.000000
     7  O    8.024866  -0.002529  -0.000077   0.000000   0.000000   0.000000
     8  C   -0.002529   5.088347   0.336912  -0.061968   0.006668   0.007004
     9  C   -0.000077   0.336912   4.747651   0.567532  -0.043064  -0.091139
    10  C    0.000000  -0.061968   0.567532   4.892740   0.426286  -0.127256
    11  N    0.000000   0.006668  -0.043064   0.426286   6.689420   0.538230
    12  C    0.000000   0.007004  -0.091139  -0.127256   0.538230   4.675809
    13  N   -0.000001  -0.068791   0.368943  -0.067482  -0.088562   0.368437
    14  C   -0.000104  -0.000363  -0.000023   0.000000   0.000000  -0.000003
    15  C   -0.000205   0.000030   0.000001   0.000000   0.000000   0.000000
    16  N   -0.000555  -0.000013   0.000002   0.000000   0.000000   0.000000
    17  H    0.013537  -0.000634  -0.000169   0.000003   0.000000   0.000004
    18  H    0.001849  -0.039096  -0.006366   0.000033  -0.000017  -0.000041
    19  H    0.009636  -0.000195   0.000015   0.000000   0.000000   0.000000
    20  H    0.001297   0.369374  -0.035926  -0.003063   0.000051   0.000034
    21  H    0.000127   0.372562  -0.034686  -0.003078   0.000041   0.000124
    22  H    0.000000  -0.001159  -0.060859   0.392314  -0.042521   0.007364
    23  H    0.000000  -0.000198   0.003261   0.007357  -0.039167   0.391305
    24  H   -0.000001  -0.004218  -0.027644   0.008319   0.003954  -0.021457
    25  H    0.000001   0.000024   0.000005   0.000000   0.000000   0.000000
    26  H    0.000000   0.000001   0.000000   0.000000   0.000000   0.000000
    27  H    0.000652   0.000008   0.000000   0.000000   0.000000   0.000000
    28  H    0.000000   0.000000   0.000000   0.000000   0.000000   0.000000
    29  H    0.000037   0.000002   0.000000   0.000000   0.000000   0.000000
    30  H    0.001563  -0.000001   0.000000   0.000000   0.000000   0.000000
              13         14         15         16         17         18
     1  O   -0.020196  -0.069839   0.001271  -0.000060   0.002620   0.020051
     2  C    0.002513   0.351342  -0.022532  -0.006253  -0.011210  -0.002565
     3  N    0.002296  -0.118154   0.008359  -0.038337   0.299051  -0.052552
     4  C   -0.005102   0.007139  -0.000777   0.001954  -0.027139   0.371019
     5  C    0.000187  -0.000170   0.000090  -0.000079  -0.003374  -0.021499
     6  O    0.000001   0.000000   0.000000  -0.000001   0.000249   0.002451
     7  O   -0.000001  -0.000104  -0.000205  -0.000555   0.013537   0.001849
     8  C   -0.068791  -0.000363   0.000030  -0.000013  -0.000634  -0.039096
     9  C    0.368943  -0.000023   0.000001   0.000002  -0.000169  -0.006366
    10  C   -0.067482   0.000000   0.000000   0.000000   0.000003   0.000033
    11  N   -0.088562   0.000000   0.000000   0.000000   0.000000  -0.000017
    12  C    0.368437  -0.000003   0.000000   0.000000   0.000004  -0.000041
    13  N    6.803270  -0.000298   0.000000   0.000000   0.000016   0.001429
    14  C   -0.000298   5.183874   0.319832  -0.059066  -0.007670   0.001296
    15  C    0.000000   0.319832   4.857580   0.270129  -0.010163  -0.000135
    16  N    0.000000  -0.059066   0.270129   6.799447   0.056297  -0.000056
    17  H    0.000016  -0.007670  -0.010163   0.056297   0.371157   0.004277
    18  H    0.001429   0.001296  -0.000135  -0.000056   0.004277   0.558209
    19  H    0.000000   0.000000   0.000000   0.000000  -0.000030  -0.000386
    20  H    0.001986   0.000004  -0.000002  -0.000033   0.001959   0.005820
    21  H    0.001092   0.000006   0.000000   0.000000  -0.000093  -0.002739
    22  H    0.004877   0.000000   0.000000   0.000000   0.000000   0.000000
    23  H   -0.056734   0.000000   0.000000   0.000000   0.000000   0.000003
    24  H    0.297991   0.001234   0.000007  -0.000001   0.000010   0.000306
    25  H    0.000095   0.368732  -0.036092  -0.004063  -0.000186  -0.000022
    26  H    0.000002   0.355451  -0.025507   0.003932   0.000282  -0.000017
    27  H    0.000000  -0.044756   0.395025  -0.037886  -0.000424  -0.000033
    28  H    0.000000  -0.045305   0.385868  -0.039932   0.000983   0.000000
    29  H    0.000000  -0.001365  -0.031060   0.338324  -0.001023   0.000000
    30  H    0.000000   0.005323  -0.028442   0.340873  -0.001856   0.000001
              19         20         21         22         23         24
     1  O    0.000000  -0.000018  -0.000009   0.000000  -0.000003   0.057768
     2  C   -0.000003  -0.000120  -0.000003   0.000001   0.000008  -0.002212
     3  N   -0.000281  -0.004624   0.004748  -0.000007  -0.000001  -0.009610
     4  C    0.010658  -0.030667  -0.036968   0.000024  -0.000004   0.001897
     5  C   -0.010835  -0.002888  -0.002204   0.000002   0.000000  -0.000110
     6  O    0.271239  -0.000057   0.006448   0.000000   0.000000   0.000002
     7  O    0.009636   0.001297   0.000127   0.000000   0.000000  -0.000001
     8  C   -0.000195   0.369374   0.372562  -0.001159  -0.000198  -0.004218
     9  C    0.000015  -0.035926  -0.034686  -0.060859   0.003261  -0.027644
    10  C    0.000000  -0.003063  -0.003078   0.392314   0.007357   0.008319
    11  N    0.000000   0.000051   0.000041  -0.042521  -0.039167   0.003954
    12  C    0.000000   0.000034   0.000124   0.007364   0.391305  -0.021457
    13  N    0.000000   0.001986   0.001092   0.004877  -0.056734   0.297991
    14  C    0.000000   0.000004   0.000006   0.000000   0.000000   0.001234
    15  C    0.000000  -0.000002   0.000000   0.000000   0.000000   0.000007
    16  N    0.000000  -0.000033   0.000000   0.000000   0.000000  -0.000001
    17  H   -0.000030   0.001959  -0.000093   0.000000   0.000000   0.000010
    18  H   -0.000386   0.005820  -0.002739   0.000000   0.000003   0.000306
    19  H    0.393925  -0.000096  -0.000079   0.000000   0.000000   0.000000
    20  H   -0.000096   0.610482  -0.036375   0.001001   0.000004  -0.000116
    21  H   -0.000079  -0.036375   0.589340   0.000513   0.000004  -0.000102
    22  H    0.000000   0.001001   0.000513   0.624158  -0.000181  -0.000099
    23  H    0.000000   0.000004   0.000004  -0.000181   0.590998   0.000247
    24  H    0.000000  -0.000116  -0.000102  -0.000099   0.000247   0.406452
    25  H    0.000000  -0.000001   0.000000   0.000000   0.000000  -0.000225
    26  H    0.000000   0.000000   0.000000   0.000000   0.000000  -0.000017
    27  H    0.000000   0.000000   0.000000   0.000000   0.000000  -0.000003
    28  H    0.000000   0.000000   0.000000   0.000000   0.000000   0.000000
    29  H    0.000000   0.000001   0.000000   0.000000   0.000000   0.000000
    30  H    0.000000   0.000002   0.000000   0.000000   0.000000   0.000000
              25         26         27         28         29         30
     1  O    0.000418   0.004690   0.000330  -0.000087   0.000002   0.000002
     2  C   -0.027226  -0.024575  -0.004430   0.003771   0.000033   0.000236
     3  N    0.000425   0.005264   0.001240  -0.000158   0.000759   0.000624
     4  C   -0.000103  -0.000141  -0.000306   0.000020  -0.000052  -0.000102
     5  C   -0.000003   0.000002   0.000226  -0.000002   0.000009   0.000032
     6  O    0.000000   0.000000   0.000001   0.000000   0.000000   0.000001
     7  O    0.000001   0.000000   0.000652   0.000000   0.000037   0.001563
     8  C    0.000024   0.000001   0.000008   0.000000   0.000002  -0.000001
     9  C    0.000005   0.000000   0.000000   0.000000   0.000000   0.000000
    10  C    0.000000   0.000000   0.000000   0.000000   0.000000   0.000000
    11  N    0.000000   0.000000   0.000000   0.000000   0.000000   0.000000
    12  C    0.000000   0.000000   0.000000   0.000000   0.000000   0.000000
    13  N    0.000095   0.000002   0.000000   0.000000   0.000000   0.000000
    14  C    0.368732   0.355451  -0.044756  -0.045305  -0.001365   0.005323
    15  C   -0.036092  -0.025507   0.395025   0.385868  -0.031060  -0.028442
    16  N   -0.004063   0.003932  -0.037886  -0.039932   0.338324   0.340873
    17  H   -0.000186   0.000282  -0.000424   0.000983  -0.001023  -0.001856
    18  H   -0.000022  -0.000017  -0.000033   0.000000   0.000000   0.000001
    19  H    0.000000   0.000000   0.000000   0.000000   0.000000   0.000000
    20  H   -0.000001   0.000000   0.000000   0.000000   0.000001   0.000002
    21  H    0.000000   0.000000   0.000000   0.000000   0.000000   0.000000
    22  H    0.000000   0.000000   0.000000   0.000000   0.000000   0.000000
    23  H    0.000000   0.000000   0.000000   0.000000   0.000000   0.000000
    24  H   -0.000225  -0.000017  -0.000003   0.000000   0.000000   0.000000
    25  H    0.586001  -0.023394   0.005648  -0.003707   0.003131  -0.000021
    26  H   -0.023394   0.574787  -0.000797  -0.001899  -0.000190  -0.000188
    27  H    0.005648  -0.000797   0.599229  -0.037933   0.005954  -0.007974
    28  H   -0.003707  -0.001899  -0.037933   0.642685  -0.008388   0.000351
    29  H    0.003131  -0.000190   0.005954  -0.008388   0.470341  -0.029952
    30  H   -0.000021  -0.000188  -0.007974   0.000351  -0.029952   0.452483
 Mulliken charges:
               1
     1  O   -0.547177
     2  C    0.563135
     3  N   -0.483352
     4  C   -0.042249
     5  C    0.576140
     6  O   -0.473311
     7  O   -0.468680
     8  C   -0.226851
     9  C    0.296842
    10  C   -0.034326
    11  N   -0.451165
    12  C    0.251328
    13  N   -0.545971
    14  C   -0.247119
    15  C   -0.083279
    16  N   -0.624625
    17  H    0.313527
    18  H    0.158780
    19  H    0.326432
    20  H    0.121976
    21  H    0.141330
    22  H    0.074571
    23  H    0.103100
    24  H    0.287628
    25  H    0.130565
    26  H    0.132312
    27  H    0.126228
    28  H    0.103732
    29  H    0.253436
    30  H    0.267043
 Sum of Mulliken charges =   0.00000
 Mulliken charges with hydrogens summed into heavy atoms:
               1
     1  O   -0.547177
     2  C    0.563135
     3  N   -0.169826
     4  C    0.116531
     5  C    0.576140
     6  O   -0.146879
     7  O   -0.468680
     8  C    0.036455
     9  C    0.296842
    10  C    0.040245
    11  N   -0.451165
    12  C    0.354428
    13  N   -0.258342
    14  C    0.015758
    15  C    0.146681
    16  N   -0.104146
 APT charges:
               1
     1  O   -0.206337
     2  C    0.015683
     3  N   -0.457887
     4  C   -0.416570
     5  C   -0.157744
     6  O   -0.792076
     7  O    0.000260
     8  C   -0.888811
     9  C   -0.507687
    10  C   -0.267001
    11  N    0.364478
    12  C   -0.512262
    13  N   -0.570560
    14  C   -0.718716
    15  C   -0.970226
    16  N   -1.480303
    17  H    0.461132
    18  H    0.366099
    19  H    1.015556
    20  H    0.336498
    21  H    0.549369
    22  H    0.678037
    23  H    0.668828
    24  H    0.149150
    25  H    0.336350
    26  H    0.558905
    27  H    0.317312
    28  H    0.705788
    29  H    0.726637
    30  H    0.696098
 Sum of APT charges =   0.00000
 APT charges with hydrogens summed into heavy atoms:
               1
     1  O   -0.206337
     2  C    0.015683
     3  N    0.003246
     4  C   -0.050471
     5  C   -0.157744
     6  O    0.223480
     7  O    0.000260
     8  C   -0.002944
     9  C   -0.507687
    10  C    0.411035
    11  N    0.364478
    12  C    0.156566
    13  N   -0.421410
    14  C    0.176539
    15  C    0.052875
    16  N   -0.057568
 Electronic spatial extent (au):  <R**2>=           4034.2337
 Charge=              0.0000 electrons
 Dipole moment (field-independent basis, Debye):
    X=              4.2185    Y=              5.7914    Z=              0.4669  Tot=              7.1801
 Quadrupole moment (field-independent basis, Debye-Ang):
   XX=            -83.4775   YY=           -106.7015   ZZ=            -90.6600
   XY=             -8.8450   XZ=             -5.1992   YZ=              7.1054
 Traceless Quadrupole moment (field-independent basis, Debye-Ang):
   XX=             10.1355   YY=            -13.0885   ZZ=              2.9530
   XY=             -8.8450   XZ=             -5.1992   YZ=              7.1054
 Octapole moment (field-independent basis, Debye-Ang**2):
  XXX=            154.2778  YYY=            170.6837  ZZZ=              6.6038  XYY=             61.3258
  XXY=             59.7712  XXZ=            -10.5597  XZZ=             26.5193  YZZ=             15.2809
  YYZ=            -23.9620  XYZ=            -24.7468
 Hexadecapole moment (field-independent basis, Debye-Ang**3):
 XXXX=          -1607.8573 YYYY=          -2761.6844 ZZZZ=          -1039.5792 XXXY=           -511.8937
 XXXZ=            344.3408 YYYX=           -764.6966 YYYZ=            172.8301 ZZZX=            276.2681
 ZZZY=             11.8705 XXYY=           -721.3694 XXZZ=           -431.1978 YYZZ=           -504.6881
 XXYZ=             49.1764 YYXZ=            113.5805 ZZXY=           -172.9723
 N-N= 1.148304197303D+03 E-N=-4.154047876656D+03  KE= 7.892559880507D+02
  Exact polarizability:   0.000   0.000   0.000   0.000   0.000   0.000
 Approx polarizability: 159.503  17.882 181.633   2.107  10.461 195.364
 Calling FoFJK, ICntrl=    100147 FMM=F ISym2X=0 I1Cent= 0 IOpClX= 0 NMat=1 NMatS=1 NMatT=0.
 -------------------------------------------------------------------
 Center     Atomic                   Forces (Hartrees/Bohr)
 Number     Number              X              Y              Z
 -------------------------------------------------------------------
      1        8          -0.009789575   -0.003310168   -0.008317907
      2        6           0.008399110   -0.004916742   -0.002802827
      3        7          -0.002859476    0.003517969    0.005819156
      4        6           0.001687170   -0.002388036    0.000953262
      5        6          -0.004173725   -0.000050658   -0.001517366
      6        8          -0.002861531   -0.004439204   -0.002544527
      7        8           0.007996400    0.005406921    0.001452094
      8        6          -0.006323719   -0.007456004    0.001519528
      9        6           0.003293973    0.011223125    0.002734173
     10        6          -0.001715557   -0.012140331    0.005125638
     11        7          -0.001599350   -0.004208250    0.007081607
     12        6          -0.000453840   -0.003899164   -0.004958238
     13        7           0.001415703    0.007335530   -0.005397907
     14        6          -0.001110060   -0.000255702    0.001308116
     15        6           0.003367532    0.002001426    0.002315365
     16        7          -0.006142509    0.000869127   -0.001324523
     17        1           0.005667418    0.001779539    0.004162998
     18        1          -0.000940865   -0.000067881   -0.001930201
     19        1          -0.000219643    0.006060909    0.003906438
     20        1           0.003315409    0.000723254    0.001327813
     21        1          -0.001966147    0.001847431    0.000820042
     22        1           0.000185098    0.000656423    0.000908584
     23        1          -0.000261419   -0.002240860   -0.002992825
     24        1           0.000751133    0.004328481   -0.005040713
     25        1          -0.000876514   -0.002170061   -0.000775961
     26        1           0.000582864   -0.000082080   -0.001138717
     27        1          -0.000497886    0.001611147    0.000780584
     28        1           0.001494984    0.000582918   -0.002894589
     29        1           0.003550140   -0.003709720   -0.000471596
     30        1           0.000084882    0.003390661    0.001892498
 -------------------------------------------------------------------
 Cartesian Forces:  Max     0.012140331 RMS     0.003978076
 FormGI is forming the generalized inverse of G from B-inverse, IUseBI=4.

 GradGradGradGradGradGradGradGradGradGradGradGradGradGradGradGradGradGrad
 Berny optimization.
 Internal  Forces:  Max     0.013238022 RMS     0.003153938
 Search for a local minimum.
 Step number   1 out of a maximum of  160
 All quantities printed in internal units (Hartrees-Bohrs-Radians)
 Mixed Optimization -- RFO/linear search
 Second derivative matrix not updated -- analytic derivatives used.
 ITU=  0
     Eigenvalues ---    0.00043   0.00067   0.00170   0.00323   0.00551
     Eigenvalues ---    0.00590   0.00869   0.00907   0.01180   0.01883
     Eigenvalues ---    0.02046   0.02129   0.02864   0.02995   0.03016
     Eigenvalues ---    0.03780   0.03845   0.04195   0.04334   0.04451
     Eigenvalues ---    0.04611   0.05310   0.05364   0.05658   0.05716
     Eigenvalues ---    0.05886   0.06297   0.06513   0.07785   0.08454
     Eigenvalues ---    0.08482   0.10958   0.11235   0.11698   0.12013
     Eigenvalues ---    0.12684   0.13629   0.14117   0.14862   0.15217
     Eigenvalues ---    0.16486   0.17320   0.18660   0.19235   0.21784
     Eigenvalues ---    0.22018   0.22501   0.23551   0.24214   0.24806
     Eigenvalues ---    0.25567   0.26181   0.27268   0.28464   0.30501
     Eigenvalues ---    0.32253   0.33021   0.33691   0.33762   0.33969
     Eigenvalues ---    0.34593   0.34856   0.35040   0.35225   0.35674
     Eigenvalues ---    0.36157   0.37804   0.38261   0.38808   0.41591
     Eigenvalues ---    0.43114   0.43245   0.44214   0.46783   0.47085
     Eigenvalues ---    0.47671   0.49744   0.52122   0.53795   0.57436
     Eigenvalues ---    0.61022   0.63909   0.83514   0.91922
 RFO step:  Lambda=-4.24266716D-03 EMin= 4.27736751D-04
 Linear search not attempted -- first point.
 Iteration  1 RMS(Cart)=  0.05878867 RMS(Int)=  0.00116579
 Iteration  2 RMS(Cart)=  0.00218356 RMS(Int)=  0.00011389
 Iteration  3 RMS(Cart)=  0.00000345 RMS(Int)=  0.00011388
 Iteration  4 RMS(Cart)=  0.00000000 RMS(Int)=  0.00011388
 Variable       Old X    -DE/DX   Delta X   Delta X   Delta X     New X
                                 (Linear)    (Quad)   (Total)
    R1        2.32301   0.01324   0.00000   0.01706   0.01706   2.34007
    R2        2.54166   0.01187   0.00000   0.01534   0.01534   2.55699
    R3        2.88054   0.00067   0.00000  -0.00132  -0.00132   2.87922
    R4        2.72801   0.00240   0.00000   0.00452   0.00452   2.73253
    R5        1.92505   0.00720   0.00000   0.01704   0.01704   1.94209
    R6        2.85966   0.00678   0.00000   0.01870   0.01870   2.87836
    R7        2.89625   0.00430   0.00000   0.02347   0.02347   2.91972
    R8        2.06080   0.00204   0.00000   0.00722   0.00722   2.06803
    R9        2.54536   0.00367   0.00000   0.00485   0.00485   2.55021
   R10        2.27973   0.00974   0.00000   0.00920   0.00920   2.28893
   R11        1.82391   0.00711   0.00000   0.01294   0.01294   1.83685
   R12        2.83844  -0.00020   0.00000  -0.00183  -0.00183   2.83661
   R13        2.06348   0.00323   0.00000   0.00900   0.00900   2.07248
   R14        2.06392   0.00257   0.00000   0.00694   0.00694   2.07086
   R15        2.57923   0.01246   0.00000   0.02359   0.02357   2.60281
   R16        2.59396   0.00945   0.00000   0.01748   0.01752   2.61149
   R17        2.60857   0.00096   0.00000  -0.00558  -0.00562   2.60295
   R18        2.04211   0.00075   0.00000   0.00224   0.00224   2.04435
   R19        2.47688   0.00954   0.00000   0.01472   0.01471   2.49159
   R20        2.56030   0.01044   0.00000   0.01802   0.01805   2.57835
   R21        2.03374   0.00368   0.00000   0.00888   0.00888   2.04262
   R22        1.91387   0.00666   0.00000   0.01906   0.01906   1.93293
   R23        2.89014   0.00475   0.00000   0.01393   0.01393   2.90407
   R24        2.07040   0.00122   0.00000   0.00438   0.00438   2.07477
   R25        2.06002   0.00109   0.00000   0.00343   0.00343   2.06345
   R26        2.78523  -0.00046   0.00000  -0.00363  -0.00363   2.78160
   R27        2.06426   0.00153   0.00000   0.00422   0.00422   2.06848
   R28        2.06863   0.00288   0.00000   0.00867   0.00867   2.07730
   R29        1.90908   0.00486   0.00000   0.01088   0.01088   1.91996
   R30        1.90944   0.00386   0.00000   0.00815   0.00815   1.91759
    A1        2.14479   0.00103   0.00000   0.00695   0.00689   2.15168
    A2        2.12383  -0.00016   0.00000  -0.00441  -0.00447   2.11936
    A3        2.01362  -0.00086   0.00000  -0.00174  -0.00179   2.01183
    A4        2.12440  -0.00090   0.00000   0.00691   0.00625   2.13064
    A5        2.01454   0.00193   0.00000   0.00603   0.00531   2.01986
    A6        2.06741  -0.00050   0.00000   0.01170   0.01104   2.07844
    A7        1.90212  -0.00092   0.00000  -0.00917  -0.00946   1.89266
    A8        1.97089  -0.00236   0.00000   0.01125   0.01122   1.98210
    A9        1.89240   0.00075   0.00000  -0.00733  -0.00737   1.88504
   A10        1.89454   0.00508   0.00000   0.02319   0.02318   1.91772
   A11        1.89063  -0.00084   0.00000  -0.00736  -0.00736   1.88327
   A12        1.91175  -0.00170   0.00000  -0.01142  -0.01133   1.90042
   A13        1.94806  -0.00016   0.00000  -0.00250  -0.00251   1.94555
   A14        2.18773   0.00006   0.00000   0.00004   0.00004   2.18777
   A15        2.14714   0.00010   0.00000   0.00259   0.00258   2.14972
   A16        1.85213   0.00204   0.00000   0.00828   0.00828   1.86041
   A17        2.00657  -0.00899   0.00000  -0.01065  -0.01069   1.99588
   A18        1.90652   0.00093   0.00000  -0.01631  -0.01638   1.89014
   A19        1.88539   0.00228   0.00000  -0.00696  -0.00689   1.87850
   A20        1.90803   0.00358   0.00000   0.00386   0.00360   1.91163
   A21        1.90089   0.00342   0.00000   0.02203   0.02199   1.92287
   A22        1.84994  -0.00062   0.00000   0.00981   0.00963   1.85957
   A23        2.27822   0.00264   0.00000   0.00127   0.00122   2.27944
   A24        2.17499  -0.00341   0.00000  -0.00115  -0.00119   2.17380
   A25        1.82955   0.00077   0.00000  -0.00040  -0.00036   1.82919
   A26        1.93605  -0.00003   0.00000   0.00251   0.00250   1.93855
   A27        2.23749  -0.00085   0.00000  -0.01165  -0.01164   2.22585
   A28        2.10964   0.00088   0.00000   0.00913   0.00914   2.11878
   A29        1.82748   0.00164   0.00000   0.00204   0.00200   1.82948
   A30        1.95411   0.00046   0.00000   0.00313   0.00317   1.95729
   A31        2.20423  -0.00096   0.00000  -0.00728  -0.00731   2.19692
   A32        2.12484   0.00050   0.00000   0.00415   0.00412   2.12897
   A33        1.87755  -0.00285   0.00000  -0.00729  -0.00732   1.87022
   A34        2.19776   0.00157   0.00000   0.00448   0.00429   2.20205
   A35        2.20533   0.00130   0.00000   0.00081   0.00063   2.20596
   A36        1.98252   0.00111   0.00000   0.01444   0.01440   1.99691
   A37        1.90567  -0.00175   0.00000  -0.01442  -0.01454   1.89113
   A38        1.85657   0.00032   0.00000   0.00267   0.00264   1.85921
   A39        1.89586   0.00148   0.00000   0.01346   0.01350   1.90936
   A40        1.93699  -0.00087   0.00000  -0.00499  -0.00500   1.93199
   A41        1.88364  -0.00044   0.00000  -0.01318  -0.01319   1.87045
   A42        1.94338  -0.00215   0.00000  -0.00740  -0.00741   1.93597
   A43        1.90195   0.00164   0.00000   0.00457   0.00453   1.90648
   A44        1.90843  -0.00056   0.00000  -0.00826  -0.00823   1.90020
   A45        1.88675  -0.00067   0.00000  -0.00800  -0.00801   1.87874
   A46        1.95491   0.00228   0.00000   0.01933   0.01934   1.97424
   A47        1.86605  -0.00046   0.00000  -0.00011  -0.00009   1.86595
   A48        1.94703  -0.00177   0.00000  -0.00916  -0.00915   1.93788
   A49        1.93380   0.00067   0.00000   0.00534   0.00535   1.93915
   A50        1.87429   0.00095   0.00000   0.00670   0.00671   1.88101
    D1       -0.29404  -0.00006   0.00000   0.04880   0.04882  -0.24522
    D2       -3.01783  -0.00135   0.00000  -0.01757  -0.01751  -3.03535
    D3        2.89336  -0.00036   0.00000   0.02945   0.02939   2.92275
    D4        0.16957  -0.00165   0.00000  -0.03692  -0.03695   0.13263
    D5        2.37374  -0.00055   0.00000   0.03009   0.03018   2.40393
    D6       -1.79069   0.00083   0.00000   0.04666   0.04661  -1.74407
    D7        0.23780  -0.00038   0.00000   0.02546   0.02549   0.26330
    D8       -0.81306  -0.00022   0.00000   0.04951   0.04955  -0.76351
    D9        1.30570   0.00116   0.00000   0.06607   0.06598   1.37167
   D10       -2.94900  -0.00006   0.00000   0.04488   0.04486  -2.90414
   D11       -2.07651  -0.00083   0.00000  -0.07883  -0.07898  -2.15549
   D12        2.09984  -0.00509   0.00000  -0.10914  -0.10919   1.99065
   D13       -0.02200  -0.00192   0.00000  -0.09687  -0.09692  -0.11891
   D14        0.63516   0.00105   0.00000  -0.01187  -0.01186   0.62330
   D15       -1.47168  -0.00321   0.00000  -0.04218  -0.04207  -1.51374
   D16        2.68967  -0.00005   0.00000  -0.02991  -0.02980   2.65987
   D17        2.93035   0.00023   0.00000   0.02288   0.02293   2.95327
   D18       -0.23534   0.00030   0.00000   0.02875   0.02880  -0.20655
   D19       -1.19980  -0.00004   0.00000   0.04563   0.04561  -1.15418
   D20        1.91770   0.00003   0.00000   0.05151   0.05149   1.96918
   D21        0.87471   0.00032   0.00000   0.04088   0.04085   0.91556
   D22       -2.29098   0.00039   0.00000   0.04675   0.04672  -2.24426
   D23       -1.13366   0.00114   0.00000   0.01712   0.01716  -1.11650
   D24        1.01835   0.00008   0.00000   0.00168   0.00182   1.02017
   D25        3.02306   0.00106   0.00000   0.00104   0.00114   3.02420
   D26        3.03837   0.00030   0.00000   0.00533   0.00517   3.04355
   D27       -1.09280  -0.00076   0.00000  -0.01011  -0.01017  -1.10297
   D28        0.91191   0.00021   0.00000  -0.01074  -0.01085   0.90107
   D29        0.97721  -0.00068   0.00000   0.00722   0.00719   0.98440
   D30        3.12923  -0.00174   0.00000  -0.00822  -0.00816   3.12107
   D31       -1.14925  -0.00076   0.00000  -0.00885  -0.00883  -1.15808
   D32        3.12223  -0.00034   0.00000  -0.00768  -0.00767   3.11456
   D33        0.00408  -0.00040   0.00000  -0.01335  -0.01336  -0.00927
   D34        3.04546  -0.00101   0.00000  -0.05848  -0.05847   2.98699
   D35       -0.13212  -0.00108   0.00000  -0.07071  -0.07070  -0.20281
   D36        0.89426   0.00146   0.00000  -0.03227  -0.03219   0.86207
   D37       -2.28332   0.00139   0.00000  -0.04450  -0.04442  -2.32774
   D38       -1.11968  -0.00163   0.00000  -0.05820  -0.05830  -1.17797
   D39        1.98593  -0.00170   0.00000  -0.07043  -0.07052   1.91541
   D40        3.11732  -0.00029   0.00000  -0.01279  -0.01280   3.10453
   D41       -0.02334  -0.00012   0.00000  -0.01015  -0.01017  -0.03350
   D42        0.00636  -0.00015   0.00000  -0.00236  -0.00236   0.00400
   D43       -3.13430   0.00001   0.00000   0.00028   0.00027  -3.13403
   D44       -3.12099   0.00007   0.00000   0.00931   0.00929  -3.11170
   D45        0.09353  -0.00017   0.00000   0.03797   0.03798   0.13151
   D46       -0.00768   0.00007   0.00000  -0.00027  -0.00027  -0.00796
   D47       -3.07635  -0.00017   0.00000   0.02839   0.02842  -3.04793
   D48       -0.00248   0.00019   0.00000   0.00416   0.00415   0.00167
   D49        3.13826   0.00004   0.00000   0.00172   0.00169   3.13996
   D50       -0.00263  -0.00014   0.00000  -0.00437  -0.00438  -0.00701
   D51        3.13737   0.00000   0.00000  -0.00731  -0.00729   3.13008
   D52        0.00669   0.00005   0.00000   0.00305   0.00304   0.00972
   D53        3.07495   0.00030   0.00000  -0.02558  -0.02554   3.04941
   D54       -3.13339  -0.00009   0.00000   0.00584   0.00582  -3.12756
   D55       -0.06513   0.00017   0.00000  -0.02278  -0.02275  -0.08788
   D56        1.20284  -0.00114   0.00000  -0.01633  -0.01629   1.18655
   D57       -0.87679  -0.00005   0.00000  -0.00483  -0.00478  -0.88157
   D58       -2.91078  -0.00011   0.00000  -0.00265  -0.00260  -2.91338
   D59       -0.92139  -0.00071   0.00000  -0.01723  -0.01730  -0.93868
   D60       -3.00101   0.00038   0.00000  -0.00573  -0.00578  -3.00679
   D61        1.24818   0.00032   0.00000  -0.00355  -0.00360   1.24458
   D62       -2.98951  -0.00058   0.00000  -0.00650  -0.00650  -2.99601
   D63        1.21405   0.00051   0.00000   0.00500   0.00501   1.21906
   D64       -0.81994   0.00045   0.00000   0.00718   0.00720  -0.81275
   D65        1.50386  -0.00081   0.00000  -0.06393  -0.06396   1.43990
   D66       -2.69209  -0.00033   0.00000  -0.05795  -0.05799  -2.75007
   D67       -2.69066  -0.00051   0.00000  -0.06784  -0.06781  -2.75847
   D68       -0.60342  -0.00003   0.00000  -0.06186  -0.06184  -0.66526
   D69       -0.63925  -0.00017   0.00000  -0.06179  -0.06178  -0.70103
   D70        1.44799   0.00031   0.00000  -0.05581  -0.05581   1.39218
         Item               Value     Threshold  Converged?
 Maximum Force            0.013238     0.000450     NO 
 RMS     Force            0.003154     0.000300     NO 
 Maximum Displacement     0.223303     0.001800     NO 
 RMS     Displacement     0.058783     0.001200     NO 
 Predicted change in Energy=-2.365072D-03
 GradGradGradGradGradGradGradGradGradGradGradGradGradGradGradGradGradGrad

                          Input orientation:                          
 ---------------------------------------------------------------------
 Center     Atomic      Atomic             Coordinates (Angstroms)
 Number     Number       Type             X           Y           Z
 ---------------------------------------------------------------------
      1          8           0       -0.482236   -0.084012   -2.137425
      2          6           0        0.463992    0.226832   -1.401595
      3          7           0        0.325463    0.474932   -0.078665
      4          6           0       -0.968028    0.689359    0.531092
      5          6           0       -0.952060    2.041538    1.232078
      6          8           0       -2.190338    2.410837    1.621273
      7          8           0        0.035824    2.709878    1.443101
      8          6           0       -1.369975   -0.416660    1.532258
      9          6           0       -1.546960   -1.774246    0.916755
     10          6           0       -1.737093   -3.006200    1.502608
     11          7           0       -1.900074   -3.987693    0.550032
     12          6           0       -1.807422   -3.356527   -0.603861
     13          7           0       -1.601854   -2.017380   -0.442521
     14          6           0        1.888044    0.320257   -1.935227
     15          6           0        2.680440    1.532829   -1.421966
     16          7           0        2.958600    1.407722    0.018050
     17          1           0        1.167101    0.817248    0.401592
     18          1           0       -1.715256    0.733093   -0.267245
     19          1           0       -2.094957    3.263376    2.078330
     20          1           0       -0.604414   -0.466435    2.315976
     21          1           0       -2.297745   -0.099880    2.021941
     22          1           0       -1.767932   -3.235738    2.559351
     23          1           0       -1.876429   -3.811377   -1.581976
     24          1           0       -1.423564   -1.336957   -1.185140
     25          1           0        2.419036   -0.602489   -1.666861
     26          1           0        1.810809    0.342620   -3.024192
     27          1           0        2.085572    2.440088   -1.567371
     28          1           0        3.589908    1.646083   -2.028937
     29          1           0        3.773684    0.823930    0.182610
     30          1           0        3.137959    2.314965    0.435720
 ---------------------------------------------------------------------
                    Distance matrix (angstroms):
                    1          2          3          4          5
     1  O    0.000000
     2  C    1.238313   0.000000
     3  N    2.281072   1.353103   0.000000
     4  C    2.820476   2.449468   1.445995   0.000000
     5  C    4.011514   3.497799   2.409226   1.523162   0.000000
     6  O    4.823867   4.577453   3.600940   2.376136   1.349513
     7  O    4.571036   3.800150   2.719310   2.433511   1.211249
     8  C    3.790160   3.519235   2.502902   1.545048   2.511473
     9  C    3.649458   3.663740   3.091219   2.559932   3.874731
    10  C    4.833600   4.871516   4.344288   3.897751   5.115576
    11  N    4.946860   5.211514   5.026261   4.769055   6.141298
    12  C    3.849323   4.316962   4.416458   4.285078   5.765537
    13  N    2.804310   3.197504   3.171523   2.945521   4.438618
    14  C    2.412995   1.523619   2.431544   3.791585   4.589207
    15  C    3.623338   2.572680   2.910244   4.223410   4.527449
    16  N    4.325586   3.103701   2.795150   4.024632   4.143531
    17  H    3.158986   2.023472   1.027707   2.142872   2.584461
    18  H    2.384444   2.508420   2.065610   1.094352   2.131306
    19  H    5.619472   5.280028   4.276270   3.207721   1.874898
    20  H    4.471460   3.929688   2.735900   2.157286   2.754201
    21  H    4.538353   4.410729   3.409424   2.147947   2.649607
    22  H    5.800526   5.714890   5.011038   4.489996   5.502449
    23  H    4.018152   4.670893   5.047843   5.054392   6.559723
    24  H    1.833798   2.460723   2.750695   2.694239   4.180848
    25  H    2.984565   2.140172   2.840115   4.239348   5.172912
    26  H    2.495280   2.111905   3.301498   4.525727   5.351224
    27  H    3.645501   2.748727   3.029202   4.097934   4.150056
    28  H    4.425760   3.489868   3.978914   5.314494   5.605362
    29  H    4.931509   3.717565   3.475672   4.756404   4.991654
    30  H    5.047967   3.858253   3.400066   4.417105   4.175788
                    6          7          8          9         10
     6  O    0.000000
     7  O    2.253213   0.000000
     8  C    2.945447   3.429207   0.000000
     9  C    4.292459   4.784310   1.501069   0.000000
    10  C    5.437260   5.985008   2.615602   1.377347   0.000000
    11  N    6.494074   7.028708   3.741397   2.271238   1.377422
    12  C    6.193571   6.662497   3.660216   2.209915   2.136559
    13  N    4.920840   5.346450   2.552611   1.381940   2.186225
    14  C    5.801070   4.533664   4.814685   4.931532   6.002137
    15  C    5.810050   4.072842   5.379016   5.854680   6.976426
    16  N    5.485264   3.502713   4.935358   5.588620   6.613332
    17  H    3.911463   2.438560   3.039357   3.787792   4.925986
    18  H    2.570414   3.146307   2.163184   2.777936   4.137048
    19  H    0.972019   2.291310   3.790311   5.198769   6.306117
    20  H    3.358044   3.355709   1.096711   2.134615   2.897402
    21  H    2.544753   3.698018   1.095854   2.142106   3.005118
    22  H    5.739531   6.312678   3.026630   2.209730   1.081825
    23  H    7.005376   7.438721   4.634550   3.240696   3.190985
    24  H    4.744456   5.041264   2.869507   2.150445   3.179412
    25  H    6.413914   5.130628   4.962409   4.876189   5.752979
    26  H    6.470474   5.358282   5.608487   5.593460   6.655383
    27  H    5.334014   3.652012   5.450643   6.093175   7.328000
    28  H    6.878963   5.081163   6.444956   6.838360   7.905219
    29  H    6.337001   4.372326   5.460572   5.966469   6.839661
    30  H    5.459439   3.285424   5.383831   6.237108   7.295148
                   11         12         13         14         15
    11  N    0.000000
    12  C    1.318493   0.000000
    13  N    2.226259   1.364406   0.000000
    14  C    6.251783   5.380311   4.457814   0.000000
    15  C    7.439493   6.687002   5.648127   1.536769   0.000000
    16  N    7.280126   6.767555   5.721992   2.478702   1.471962
    17  H    5.702373   5.222942   4.051512   2.495493   2.475402
    18  H    4.794572   4.104484   2.758384   3.992038   4.614662
    19  H    7.412940   7.148422   5.872327   6.374550   6.168572
    20  H    4.146873   4.280806   3.318075   4.990387   5.362791
    21  H    4.176093   4.212007   3.199163   5.775511   6.269654
    22  H    2.149479   3.165763   3.243950   6.797977   7.640558
    23  H    2.139417   1.080907   2.142936   5.600576   7.025041
    24  H    3.203792   2.136327   1.022862   3.778325   5.013443
    25  H    5.918525   5.155350   4.434916   1.097923   2.165154
    26  H    6.730330   5.712555   4.886808   1.091929   2.177150
    27  H    7.853988   7.048722   5.893336   2.160559   1.094591
    28  H    8.278310   7.495873   6.549203   2.159383   1.099260
    29  H    7.448373   7.017372   6.112303   2.880028   2.066975
    30  H    8.069594   7.596271   6.481230   3.341038   2.066895
                   16         17         18         19         20
    16  N    0.000000
    17  H    1.924898   0.000000
    18  H    4.730904   2.960137   0.000000
    19  H    5.764255   4.408629   3.471056   0.000000
    20  H    4.635515   2.907056   3.057101   4.023641   0.000000
    21  H    5.823882   3.933422   2.504697   3.369835   1.757325
    22  H    7.096480   5.449499   4.872786   6.525091   3.013643
    23  H    7.292228   5.884028   4.733571   7.968546   5.291568
    24  H    5.308888   3.724227   2.283139   5.680147   3.699544
    25  H    2.677874   2.803836   4.564546   7.024778   5.002275
    26  H    3.421565   3.517901   4.492923   7.058438   5.916524
    27  H    2.083631   2.711828   4.364682   5.607651   5.546555
    28  H    2.155347   3.530500   5.664086   7.197428   6.397916
    29  H    1.015999   2.615774   5.508093   6.632164   5.038257
    30  H    1.014745   2.475601   5.152686   5.566063   5.027614
                   21         22         23         24         25
    21  H    0.000000
    22  H    3.225387   0.000000
    23  H    5.190466   4.182550   0.000000
    24  H    3.546819   4.212502   2.546629   0.000000
    25  H    6.008985   6.505810   5.362386   3.941709   0.000000
    26  H    6.522229   7.535780   5.738589   4.082188   1.762248
    27  H    6.208708   8.005893   7.401248   5.169739   3.062413
    28  H    7.356797   8.578520   7.737214   5.894525   2.560882
    29  H    6.410836   7.269066   7.518220   5.792371   2.700054
    30  H    6.155847   7.706353   8.169899   6.063927   3.667320
                   26         27         28         29         30
    26  H    0.000000
    27  H    2.568500   0.000000
    28  H    2.419657   1.762531   0.000000
    29  H    3.790530   2.919610   2.366569   0.000000
    30  H    4.197911   2.266174   2.593490   1.640547   0.000000
 Symmetry turned off by external request.
 Stoichiometry    C9H14N4O3
 Framework group  C1[X(C9H14N4O3)]
 Deg. of freedom    84
 Full point group                 C1      NOp   1
 Rotational constants (GHZ):      0.6631192      0.3796536      0.2820542
 Standard basis: 6-31G(d,p) (6D, 7F)
   310 basis functions,   546 primitive gaussians,   310 cartesian basis functions
    60 alpha electrons       60 beta electrons
       nuclear repulsion energy      1146.1430039333 Hartrees.
 NAtoms=   30 NActive=   30 NUniq=   30 SFac= 1.00D+00 NAtFMM=   60 NAOKFM=F Big=F
 Integral buffers will be    131072 words long.
 Raffenetti 2 integral format.
 Two-electron integral symmetry is turned off.
 Nuclear repulsion after empirical dispersion term =     1146.0871509093 Hartrees.
 One-electron integrals computed using PRISM.
 NBasis=   310 RedAO= T EigKep=  1.15D-03  NBF=   310
 NBsUse=   310 1.00D-06 EigRej= -1.00D+00 NBFU=   310
 Initial guess from the checkpoint file:  "conf-683.chk"
 B after Tr=    -0.000397    0.005226    0.005526
[...]
 047695,-0.00016248,-0.00055634,-0.00006840,0.00027034,-0.00000500,-0.0
 0022182,0.00064031,0.00040322,0.00005915,-0.00011577,-0.00082482,0.000
 47524,0.00170832,0.01995514,-0.01196209,-0.00052056,-0.00331367,-0.005
 52641,0.00205165,-0.00674162,0.00491076,-0.00083211,0.00176209,0.01419
 657,0.00569632,0.16640612,-0.26465637,-0.00096358,0.00028960,-0.000810
 62,0.00004809,0.00024521,0.00034276,-0.00017248,-0.00004912,-0.0002288
 0,0.00067360,-0.00008258,-0.00009043,0.00020433,-0.00098641,0.00063370
 ,0.00004662,-0.00004161,0.00001309,0.00002339,0.00038133,0.00036758,0.
 00010366,0.00045402,-0.00003810,-0.00035951,0.00077324,0.00024853,-0.0
 0017216,-0.00022881,-0.00041138,-0.00391267,-0.17335421,0.26554690,-0.
 00211714,-0.00465159,0.00179837,-0.01201303,0.03054201,-0.00770238,-0.
 00029491,-0.00158628,0.00117717,0.00018353,-0.00137216,0.00062409,0.00
 019479,-0.00031417,-0.00020102,-0.00006364,0.00007020,0.00004923,0.000
 03963,0.00017637,0.00007815,-0.00039880,0.00037905,0.00003292,-0.00005
 874,0.00008180,-0.00004135,0.00000971,-0.00007689,0.00002198,0.0001056
 6,-0.00015182,0.00007084,-0.00003716,0.00006485,0.00004497,0.00009676,
 -0.00034629,0.00018612,-0.08601044,0.09416513,-0.01655777,0.00864319,-
 0.02127824,0.00295256,0.00125174,0.00064513,0.00151231,-0.00060860,0.0
 0059507,-0.00012000,0.00004546,-0.00003641,-0.00011476,0.00001252,-0.0
 0001057,-0.00001047,0.00000566,-0.00001086,0.00001873,-0.00005882,-0.0
 0017163,0.00010806,-0.00000132,-0.00000696,0.00000199,-0.00005176,-0.0
 0003090,-0.00001968,0.00014782,0.00071582,-0.00037795,0.09315403,-0.00
 020317,-0.00027463,-0.00031490,0.00088543,0.00015388,-0.00049016,0.000
 19347,0.00070369,0.00027170,0.00016164,-0.00005280,-0.00022213,-0.0001
 0388,-0.00008193,-0.00000534,0.00004353,0.00001523,-0.00000115,0.00006
 525,0.00009268,-0.00003195,-0.00000458,-0.00003216,0.00004011,0.000010
 48,-0.00001594,0.00000938,-0.00001746,0.00001553,0.00000557,-0.0000153
 0,0.00000718,-0.00000771,0.00003352,-0.00002636,-0.00000003,0.00003820
 ,0.00001272,0.00002255,0.08997487,-0.25584309,0.03926598,0.00867903,-0
 .02373631,0.00344502,0.00054036,0.00256789,0.00123961,0.00011078,-0.00
 037808,0.00006439,-0.00003020,0.00000160,0.00002776,-0.00000650,-0.000
 00348,0.00001352,0.00000489,-0.00000099,-0.00001220,-0.00001024,0.0000
 0319,0.00000112,0.00000406,0.00000088,-0.00000288,0.00000123,0.0000036
 6,-0.00000082,0.00003864,0.00006120,-0.00009254,-0.09697130,0.28097356
 ,-0.00063103,0.00035863,0.00024195,0.00521352,-0.01365445,0.00140235,0
 .00072012,0.00096365,-0.00128020,-0.00016926,0.00090786,-0.00032183,-0
 .00010522,0.00006455,0.00009741,0.00002151,-0.00001073,-0.00000146,-0.
 00000028,-0.00002470,-0.00005958,0.00028545,-0.00019191,-0.00006173,-0
 .00002811,-0.00008621,-0.00005922,-0.00002079,0.00000396,-0.00000577,-
 0.00001061,0.00000277,0.00000354,0.00002250,0.00005598,0.00004538,-0.0
 0007376,-0.00000070,0.00004201,-0.01503256,0.03829427,-0.05168218,0.00
 425384,-0.01366250,0.00087296,0.00118938,-0.00025159,0.00140044,0.0006
 2980,-0.00054562,0.00010675,0.00001243,-0.00000509,-0.00001685,-0.0000
 0521,0.00000681,0.00000115,-0.00000204,-0.00000599,-0.00001557,0.00003
 757,0.00008851,-0.00007392,0.00000757,-0.00000107,-0.00000710,-0.00001
 315,-0.00000764,-0.00000297,0.00005791,0.00002175,0.00000130,0.0181562
 1,-0.04125806,0.05370993,0.00206385,0.00119235,-0.00227829,0.00218135,
 -0.00469216,0.03574102,-0.00654924,0.00056099,0.00082229,0.00060937,0.
 00090633,0.00098123,-0.00049990,-0.00049159,-0.00005186,-0.00005369,0.
 00027040,0.00014897,0.00014910,0.00017989,0.00006533,-0.00008291,0.000
 10228,0.00000396,-0.00000382,0.00004772,0.00005932,-0.00000883,0.00003
 759,-0.00003193,0.00000092,-0.00002575,-0.00006278,0.00000249,-0.00006
 193,-0.00000861,0.00002015,0.00011958,-0.00006875,-0.04832885,0.000521
 81,-0.02161331,-0.00111154,0.00523974,-0.01870430,-0.00181441,-0.00461
 854,-0.00191390,-0.00079988,-0.00045170,-0.00034104,-0.00002398,0.0000
 2983,0.00004111,-0.00003803,0.00002399,0.00001427,0.00000341,-0.000011
 40,0.00000909,-0.00002401,-0.00007062,0.00004597,-0.00000469,0.0000027
 1,-0.00000041,-0.00000365,-0.00001192,-0.00000202,-0.00001232,-0.00020
 714,0.00018981,-0.00101093,0.00106189,-0.01266001,0.05513227,-0.001150
 43,-0.00080029,-0.00013954,0.00284924,-0.00085338,-0.00290434,0.000102
 66,0.00076204,0.00031074,0.00027163,0.00046418,-0.00032213,-0.00014675
 ,-0.00007183,-0.00002708,0.00000208,0.00006192,0.00005523,0.00004962,0
 .00003769,0.00003924,0.00007703,-0.00001013,-0.00005488,-0.00000947,-0
 .00001771,-0.00002313,-0.00001607,0.00000573,-0.00001619,-0.00000086,-
 0.00003549,-0.00000854,0.00001507,0.00004411,0.00004980,-0.00002433,-0
 .00005014,0.00003748,0.00007089,-0.05200121,0.03321638,0.00015582,0.00
 461197,-0.02281393,-0.00242000,-0.00373234,-0.00223978,-0.00056318,-0.
 00050829,0.00008451,-0.00002201,0.00001420,0.00000649,-0.00000966,0.00
 000615,-0.00000209,0.00000421,-0.00001032,-0.00000050,-0.00000097,0.00
 000649,-0.00000605,0.00000254,-0.00000108,-0.00000227,-0.00001120,-0.0
 0001263,-0.00000283,0.00005542,0.00010847,0.00000854,0.00136399,-0.003
 23619,0.03006630,-0.00039226,0.05363047,-0.00181132,-0.00069176,0.0032
 8918,-0.00230532,0.00111665,-0.01585790,0.00326436,0.00020836,0.000378
 97,-0.00058679,-0.00019451,-0.00017860,0.00007657,0.00018765,0.0000601
 9,0.00010786,-0.00013737,-0.00008848,0.00005753,-0.00006667,-0.0000228
 9,0.00005552,-0.00006478,-0.00003432,0.00000365,-0.00003669,-0.0000688
 4,0.00001710,-0.00003897,0.00002764,0.00001304,0.00000539,0.00007087,-
 0.00001840,0.00007653,0.00001007,-0.00003450,-0.00015237,0.00005951,-0
 .01757161,0.03301525,-0.31453485,0.00061664,0.00281437,-0.00939070,-0.
 00106536,-0.00266650,-0.00010824,-0.00038306,0.00012023,0.00042535,0.0
 0009644,-0.00002824,-0.00005599,0.00000210,0.00000503,-0.00000830,-0.0
 0000581,0.00000985,0.00001105,0.00001710,0.00004770,-0.00002478,-0.000
 00097,-0.00000557,0.00000626,0.00000656,0.00000921,0.00000267,0.000078
 68,0.00020434,-0.00015143,-0.00014352,0.00063741,-0.00390956,0.0200540
 6,-0.03449057,0.33946817,0.00026956,0.00021792,-0.00008184,0.00138994,
 -0.00101994,0.00013127,0.00007033,0.00028859,-0.00000718,-0.00012728,0
 .00015619,0.00008927,-0.00023937,0.00000515,0.00006822,0.00013113,-0.0
 0005765,-0.00003686,0.00013801,0.00001559,-0.00015183,0.00004588,-0.00
 005364,-0.00000574,0.00001862,-0.00002291,-0.00000619,0.00000509,0.000
 00276,0.00000820,-0.00001304,0.00003947,-0.00000025,0.00000584,-0.0000
 1248,-0.00000413,-0.00001215,0.00003740,-0.00002496,0.00872046,-0.0205
 9631,0.00173290,-0.10245345,0.10440918,-0.00564225,-0.00267739,0.00556
 905,-0.00349871,-0.00001886,-0.00034421,0.00021883,0.00000867,-0.00001
 262,-0.00000479,-0.00001558,0.00001921,0.00001340,-0.00000375,0.000007
 59,-0.00000049,0.00001253,0.00003034,-0.00001863,-0.00000107,-0.000000
 75,0.00000033,0.00000708,0.00000577,0.00000389,-0.00000562,-0.00007224
 ,0.00001389,-0.00232242,-0.00377969,-0.00160474,0.00048143,0.00085734,
 0.00024088,0.10778944,-0.00052727,0.00008010,0.00005407,0.00202302,0.0
 0001267,-0.00096242,-0.00057081,0.00103225,0.00051831,-0.00012206,-0.0
 0004077,0.00015981,-0.00035138,-0.00021308,0.00004326,0.00016045,0.000
 00138,-0.00002407,0.00022821,0.00016975,-0.00016935,-0.00001829,-0.000
 03249,0.00002558,0.00001217,-0.00002730,-0.00003732,0.00000140,-0.0000
 0638,0.00001065,-0.00002393,0.00002590,0.00002482,0.00000210,0.0000294
 9,0.00000894,-0.00004759,-0.00001799,0.00000203,0.00743598,-0.02122546
 ,0.00057723,0.10323546,-0.25816698,0.01682752,0.00236155,-0.00451124,0
 .00237952,0.00055942,-0.00060097,0.00040087,-0.00001572,-0.00002697,-0
 .00002239,-0.00002089,0.00000363,0.00002868,0.00000512,0.00000639,-0.0
 0001176,-0.00000586,0.00001364,-0.00000476,0.00000603,-0.00000089,0.00
 000011,0.00001493,0.00000799,0.00000380,0.00006168,-0.00000723,-0.0000
 2388,-0.00311118,-0.00190446,-0.00226996,0.00001483,0.00036788,-0.0002
 4656,-0.11091958,0.28075379,-0.00031746,0.00004088,-0.00018272,0.00093
 677,0.00062444,0.00029465,0.00019088,-0.00011386,0.00024583,0.00007915
 ,-0.00006922,0.00010997,0.00052214,0.00025090,0.00007759,-0.00030967,0
 .00003832,0.00001798,-0.00043343,-0.00029211,0.00021233,-0.00004223,0.
 00002911,-0.00005323,-0.00000998,-0.00000064,-0.00001085,0.00000240,0.
 00000211,-0.00001420,0.00000577,-0.00003713,0.00000933,-0.00000482,0.0
 0003375,0.00000227,-0.00001814,-0.00004476,0.00004364,0.00539851,-0.01
 202633,0.00160839,-0.00209623,0.00799813,-0.05107817,-0.01744425,0.035
 61255,-0.00942920,-0.00092998,0.00041338,-0.00029888,0.00002120,-0.000
 01821,-0.00001379,0.00004003,-0.00002527,-0.00002291,-0.00000195,0.000
 00724,0.00001196,-0.00000282,-0.00001429,0.00001924,-0.00000422,-0.000
 00158,0.00000746,0.00000625,0.00000225,0.00000119,0.00005108,0.0000412
 8,-0.00002695,-0.00223797,-0.00179300,-0.00059813,0.00043702,0.0002885
 8,0.00016364,0.01118197,-0.01759364,0.06244580,-0.00228042,0.00016912,
 0.00005012,0.00181267,-0.00352117,-0.00315811,0.00018094,-0.00013280,0
 .00062455,0.00044162,0.00019143,-0.00010091,0.00013928,-0.00026469,-0.
 00019779,-0.00019697,0.00017721,0.00013522,-0.00008685,0.00012012,0.00
 016183,-0.00001391,0.00009128,-0.00001492,-0.00004047,0.00001203,-0.00
 008551,-0.00000978,-0.00000255,-0.00001442,0.00002088,-0.00012782,0.00
 004313,-0.00001097,0.00014214,0.00002097,-0.00002703,-0.00017011,0.000
 16237,-0.01876325,-0.00021673,0.00953191,-0.23120447,-0.00167182,0.107
 17870,0.01219755,-0.00012009,-0.00460482,-0.00033173,0.00013346,-0.000
 38395,0.00002391,-0.00001050,-0.00003516,0.00001780,-0.00001567,-0.000
 01273,0.00000832,-0.00001881,0.00001473,-0.00002849,-0.00004660,0.0000
 3416,0.00000253,-0.00000140,0.00000844,0.00000059,-0.00000046,-0.00000
 433,0.00014170,0.00028435,-0.00016299,0.00098091,-0.00010765,0.0002280
 1,0.00003368,0.00021113,-0.00044102,-0.01195901,-0.00026304,0.00682423
 ,0.24658893,-0.00253147,0.00038445,0.00016206,0.00036590,-0.00403706,-
 0.00437285,0.00020377,0.00074468,0.00081126,0.00007996,0.00009114,0.00
 005825,-0.00025157,-0.00028810,-0.00005203,0.00006008,0.00007006,0.000
 04083,0.00012845,0.00022784,-0.00005383,-0.00001225,0.00002431,0.00001
 602,-0.00001691,-0.00000017,-0.00007996,0.00000288,-0.00001387,0.00000
 776,0.00001727,-0.00005658,0.00004279,-0.00000880,0.00009927,0.0000125
 8,-0.00002326,-0.00011668,0.00009311,-0.02411531,-0.00122987,0.0115125
 8,-0.00121851,-0.05458296,0.00175211,-0.00436888,0.00264492,0.00710215
 ,-0.00001418,-0.00019733,0.00032468,0.00002823,-0.00003003,-0.00003896
 ,-0.00001432,0.00000088,0.00001687,0.00000297,-0.00000625,0.00000272,-
 0.00001483,-0.00001654,0.00001099,0.00000058,-0.00000265,0.00000505,-0
 .00000138,0.00000087,-0.00000179,0.00009253,0.00019791,-0.00012423,0.0
 0075308,0.00088149,0.00082395,0.00059231,0.00095174,-0.00006919,0.0253
 6782,0.00182393,-0.01517661,0.00554454,0.05212002,-0.00118599,0.000357
 78,0.00030998,0.00036022,-0.00287709,-0.00174272,0.00055358,0.00024801
 ,0.00170729,0.00026981,0.00019970,0.00036046,-0.00058660,-0.00020660,-
 0.00008822,0.00024741,0.00002916,-0.00002183,0.00040771,0.00002761,0.0
 0011109,-0.00007561,0.00000944,-0.00004123,0.00001553,-0.00001503,-0.0
 0005854,0.00001944,-0.00002225,0.00000616,0.00001335,0.00000694,0.0000
 4264,-0.00001301,0.00005164,0.00000592,-0.00000903,-0.00005077,0.00003
 768,-0.01170319,-0.00066563,0.00748743,0.10747656,0.00231143,-0.111421
 92,0.02440755,0.00407740,-0.03452133,-0.00370091,-0.00029341,-0.001206
 46,0.00014248,-0.00003164,-0.00009971,-0.00005056,0.00003386,0.0000105
 1,-0.00000923,-0.00000157,0.00005168,0.00000656,-0.00000255,0.00002528
 ,-0.00000849,-0.00000902,0.00001058,0.00000237,0.00000475,0.00000414,0
 .00003007,0.00007853,-0.00008000,0.00046494,0.00020756,0.00002951,0.00
 011028,0.00045585,0.00063772,-0.00085632,-0.00078691,0.00217041,-0.116
 83377,-0.00256048,0.13425597,0.00007033,0.00000598,-0.00017824,-0.0005
 2526,0.00035726,0.00029835,-0.00173485,-0.00169842,-0.00004074,-0.0001
 9193,-0.00018993,-0.00019574,0.00035578,0.00025622,0.00003141,-0.00016
 359,-0.00004450,0.00001688,-0.00029832,-0.00013713,0.00009559,-0.00008
 410,0.00007944,-0.00010294,0.00001447,0.00004803,0.00000632,0.00004406
 ,-0.00002673,0.00000368,0.00005361,-0.00001518,0.00000058,-0.00002163,
 -0.00001110,-0.00002223,0.00006614,-0.00002234,0.00000883,-0.00048141,
 0.00098476,-0.00011094,-0.00487318,0.00168351,0.00663673,-0.17441804,0
 .20989375,-0.04842533,0.00148006,0.00363234,-0.00084207,-0.00006382,0.
 00000518,0.00003254,0.00001304,0.00000206,-0.00002582,-0.00002295,0.00
 001465,0.00006866,0.00002984,-0.00002734,0.00004045,-0.00002709,-0.000
 01031,0.00001714,-0.00001138,-0.00000356,0.00000270,-0.00004481,0.0000
 5592,-0.00003002,0.00001141,-0.00076906,-0.00066624,0.00017651,-0.0005
 4438,0.00011542,0.00067951,-0.00032694,-0.00138067,0.00166360,-0.00123
 541,-0.00020305,0.17048503,-0.00014152,-0.00001139,-0.00018462,-0.0001
 1943,-0.00002419,0.00025426,-0.00096981,-0.00080304,-0.00026532,-0.000
 04780,-0.00003104,-0.00014414,0.00004062,0.00001498,0.00000910,-0.0000
 0037,-0.00000510,0.00000079,-0.00002511,0.00002899,0.00001298,-0.00000
 767,0.00003708,-0.00000993,-0.00000167,0.00003208,-0.00001029,0.000021
 29,-0.00000734,0.00001128,0.00003760,-0.00002475,-0.00000027,-0.000010
 20,0.00000713,-0.00001982,0.00003162,-0.00002716,0.00002452,-0.0004784
 8,0.00202138,0.00004951,0.00448385,-0.00521856,0.00093214,0.16547177,-
 0.28017837,0.02419531,0.00168751,0.00129649,-0.00015490,-0.00004914,0.
 00001086,0.00001125,-0.00000304,0.00000413,0.00000034,-0.00000588,0.00
 000313,0.00001415,0.00000716,-0.00001608,0.00000878,-0.00001359,-0.000
 00210,0.00000756,-0.00000903,-0.00000252,-0.00000069,-0.00000723,0.000
 05260,-0.00003095,0.00058958,-0.00029326,0.00015545,0.00004299,-0.0002
 3485,0.00004183,-0.00054251,0.00172258,0.00150840,-0.00063222,0.000553
 33,-0.00119603,-0.19254880,0.30460416,0.00043134,0.00009995,0.00012324
 ,-0.00034461,-0.00005694,0.00006949,0.00112649,0.00080449,-0.00001196,
 -0.00005602,0.00007902,0.00015271,-0.00034886,-0.00009650,0.00001735,0
 .00024683,-0.00003543,-0.00007988,0.00035302,0.00003984,-0.00009846,0.
 00007589,-0.00006031,0.00009676,0.00000734,-0.00001251,0.00004679,-0.0
 0001912,0.00000780,0.00002685,-0.00002869,0.00005623,-0.00003461,0.000
 01644,-0.00006447,-0.00000422,0.00000257,0.00008852,-0.00009511,0.0006
 4200,0.00084488,0.00111768,-0.02444662,0.03425418,-0.00703064,-0.03054
 911,0.00876770,-0.05237736,-0.00139546,-0.00193572,0.00008195,0.000057
 41,0.00001504,-0.00000802,-0.00002220,0.00000752,0.00002730,0.00000830
 ,-0.00001071,-0.00004762,-0.00000545,0.00002713,-0.00004197,0.00001936
 ,0.00000997,-0.00002158,-0.00000403,-0.00000210,-0.00000404,-0.0000640
 3,-0.00011233,0.00007316,-0.00017185,-0.00118374,-0.00000347,0.0003654
 3,-0.00019653,0.00011549,-0.00147426,0.00077797,-0.00731585,0.00051196
 ,0.00031549,0.00171242,0.04164136,-0.02948074,0.06168800,-0.00046190,0
 .00007871,0.00019034,0.00131225,-0.00014787,-0.00015100,-0.00253668,0.
 00058294,0.00072043,0.00021133,0.00001603,-0.00058355,-0.00159322,-0.0
 0120504,-0.00041106,0.00084449,0.00017207,-0.00005560,0.00145332,0.000
 71626,0.00027467,-0.00011141,0.00002788,0.00005994,0.00002348,-0.00000
 367,-0.00009352,0.00000653,-0.00001533,0.00001206,-0.00000245,0.000013
 57,0.00005928,-0.00000873,0.00007750,0.00001078,-0.00003955,-0.0000487
 1,0.00005298,-0.00004207,0.00111461,-0.00315024,-0.00598382,-0.0050875
 3,0.00484272,-0.11041690,-0.15182554,-0.10542768,0.00138439,-0.0025749
 5,-0.00178826,-0.00018122,0.00006891,0.00007702,-0.00013848,0.00007339
 ,0.00006288,0.00001104,-0.00003562,0.00003646,-0.00002375,-0.00002766,
 0.00003957,0.00000040,-0.00000874,0.00000729,0.00000773,0.00000769,0.0
 0000408,0.00008461,0.00007592,-0.00007886,0.00016489,0.00017176,0.0001
 8718,-0.00048385,-0.00077710,-0.00045581,0.00007545,0.00020219,-0.0004
 6359,0.00069843,0.00058673,0.00070790,0.00781896,0.02319949,0.01342458
 ,0.10792671,0.00016022,-0.00008396,-0.00000853,-0.00028866,0.00006406,
 0.00017946,0.00033770,0.00010935,-0.00005099,-0.00004770,0.00000366,-0
 .00001140,0.00011732,0.00016909,0.00004440,-0.00008662,-0.00002797,-0.
 00000564,-0.00008362,-0.00025452,0.00003290,0.00000968,-0.00000998,-0.
 00003704,-0.00000241,-0.00001122,0.00000917,-0.00000371,0.00000518,-0.
 00001237,0.00000093,-0.00000169,-0.00000193,0.00000242,-0.00000352,0.0
 0000443,0.00000270,0.00000739,0.00000371,0.00055207,0.00042326,0.00128
 437,0.00338176,0.00785900,0.00723298,-0.11925190,-0.29522004,-0.129082
 34,-0.00071183,-0.00035401,-0.00011647,0.00001116,-0.00000310,0.000015
 72,0.00001774,0.00000653,-0.00001678,-0.00000374,-0.00000077,0.0000089
 1,0.00000828,0.00000721,-0.00000016,-0.00000224,-0.00000118,0.00000166
 ,-0.00000087,-0.00000048,0.00000060,-0.00000826,-0.00001428,0.00001312
 ,-0.00001482,0.00038529,0.00016179,0.00008780,0.00050284,0.00038997,0.
 00040515,0.00073087,0.00031534,0.00024733,-0.00023874,0.00061934,-0.01
 940801,-0.02350919,-0.01294770,0.13457213,0.30946093,-0.00000530,0.000
 05547,0.00039123,0.00008460,0.00001003,-0.00093648,0.00167117,-0.00015
 551,0.00026359,-0.00007566,0.00000136,0.00048097,0.00045351,0.00041112
 ,0.00019528,-0.00023075,-0.00007960,-0.00000161,-0.00043592,-0.0001788
 6,-0.00032343,0.00003956,-0.00000752,0.00001140,-0.00000561,0.00000993
 ,0.00002268,0.00000828,-0.00000280,0.00001604,0.00000522,-0.00000061,-
 0.00002075,-0.00000107,-0.00002586,-0.00001267,0.00001199,0.00000231,-
 0.00002857,0.00024701,0.00322861,-0.00689202,-0.01779382,-0.03068510,-
 0.01623207,-0.07651732,-0.10853635,-0.10475329,-0.00199601,0.00124466,
 0.00071183,0.00014289,-0.00004319,-0.00005049,0.00004815,-0.00003165,0
 .00000468,-0.00000848,0.00002335,-0.00002006,0.00000886,0.00001114,-0.
 00001964,-0.00000028,0.00000534,-0.00000399,-0.00000256,-0.00000118,-0
 .00000218,-0.00002917,-0.00001333,0.00001161,0.00040005,0.00016493,0.0
 0014483,-0.00135194,-0.00136872,-0.00029189,-0.00028388,0.00030986,0.0
 0160317,0.00052009,-0.00058133,0.00030510,0.00320738,0.00426003,0.0018
 2560,0.09188900,0.13197346,0.12360114\\0.00000091,0.00000054,-0.000000
 03,0.00000050,-0.00000177,-0.00000022,0.00000144,0.00000098,0.00000073
 ,-0.00000089,0.00000018,0.00000077,-0.00000018,0.00000011,-0.00000003,
 -0.00000007,0.00000011,-0.00000033,-0.00000008,-0.00000022,0.00000011,
 0.00000019,0.00000075,-0.00000015,0.00000036,-0.00000021,-0.00000114,-
 0.00000032,0.00000011,-0.00000043,-0.00000052,0.00000030,-0.00000049,-
 0.00000026,0.00000031,-0.00000040,-0.00000064,-0.00000021,-0.00000048,
 -0.00000013,0.00000028,-0.00000049,0.00000056,-0.00000046,0.00000102,-
 0.00000096,-0.00000031,0.00000034,-0.00000071,-0.00000063,0.00000024,-
 0.00000004,-0.00000004,-0.00000027,-0.00000016,0.00000002,-0.00000032,
 -0.00000041,0.00000001,0.,-0.00000042,0.00000054,-0.00000085,-0.000000
 54,-0.00000006,-0.00000029,0.00000009,0.00000024,-0.00000033,0.0000007
 0,-0.00000021,-0.00000011,0.00000029,0.00000025,0.00000043,0.00000053,
 0.00000014,0.00000024,0.00000057,0.,0.00000040,0.00000039,-0.00000022,
 0.00000063,-0.00000013,-0.00000018,0.00000075,-0.00000005,-0.00000035,
 0.00000070\\\@


 I (ERNEST RUTHERFORD) CAME INTO THE ROOM, WHICH WAS HALF DARK, AND PRESENTLY
 SPOTTED LORD KELVIN IN THE AUDIENCE AND REALIZED I WAS IN TROUBLE AT
 THE LAST PART OF MY SPEECH DEALING THE AGE OF THE EARTH, WHERE MY VIEWS
 CONFLICTED WITH HIS.  TO MY RELIEF KELVIN FELL FAST ASLEEP, BUT AS I CAME
 TO THE IMPORTANT POINT, I SAW THE OLD BIRD SIT UP AND COCK A BALEFUL GLANCE
 AT ME! THEN A SUDDEN INSPIRATION CAME AND I SAID LORD KELVIN HAD LIMITED
 THE AGE OF THE EARTH PROVIDED NO NEW SOURCE WAS DISCOVERED. THAT
 PROPHETIC UTTERANCE REFERS TO WHAT WE ARE NOW CONSIDERING TONIGHT, RADIUM!
 BEHOLD!  THE OLD BOY BEAMED UPON ME.
 Job cpu time:       0 days  1 hours 22 minutes 41.2 seconds.
 File lengths (MBytes):  RWF=    320 Int=      0 D2E=      0 Chk=      9 Scr=      1
 Normal termination of Gaussian 09 at Sat Jul 24 01:30:26 2021.
