 Entering Gaussian System, Link 0=g09
 Input=opt_freq-conf-640.com
 Output=opt_freq-conf-640.log
 Initial command:
 /aerosol/software/g09/l1.exe "/scratch/nicole/10371/Gau-73551.inp" -scrdir="/scratch/nicole/10371/"
 Entering Link 1 = /aerosol/software/g09/l1.exe PID=     73555.
  
 Copyright (c) 1988,1990,1992,1993,1995,1998,2003,2009,2013,
            Gaussian, Inc.  All Rights Reserved.
  
 This is part of the Gaussian(R) 09 program.  It is based on
 the Gaussian(R) 03 system (copyright 2003, Gaussian, Inc.),
 the Gaussian(R) 98 system (copyright 1998, Gaussian, Inc.),
 the Gaussian(R) 94 system (copyright 1995, Gaussian, Inc.),
 the Gaussian 92(TM) system (copyright 1992, Gaussian, Inc.),
 the Gaussian 90(TM) system (copyright 1990, Gaussian, Inc.),
 the Gaussian 88(TM) system (copyright 1988, Gaussian, Inc.),
 the Gaussian 86(TM) system (copyright 1986, Carnegie Mellon
 University), and the Gaussian 82(TM) system (copyright 1983,
 Carnegie Mellon University). Gaussian is a federally registered
 trademark of Gaussian, Inc.
  
 This software contains proprietary and confidential information,
 including trade secrets, belonging to Gaussian, Inc.
  
 This software is provided under written license and may be
 used, copied, transmitted, or stored only in accord with that
 written license.
  
 The following legend is applicable only to US Government
 contracts under FAR:
  
                    RESTRICTED RIGHTS LEGEND
  
 Use, reproduction and disclosure by the US Government is
 subject to restrictions as set forth in subparagraphs (a)
 and (c) of the Commercial Computer Software - Restricted
 Rights clause in FAR 52.227-19.
  
 Gaussian, Inc.
 340 Quinnipiac St., Bldg. 40, Wallingford CT 06492
  
  
 ---------------------------------------------------------------
 Warning -- This program may not be used in any manner that
 competes with the business of Gaussian, Inc. or will provide
 assistance to any competitor of Gaussian, Inc.  The licensee
 of this program is prohibited from giving any competitor of
 Gaussian, Inc. access to this program.  By using this program,
 the user acknowledges that Gaussian, Inc. is engaged in the
 business of creating and licensing software in the field of
 computational chemistry and represents and warrants to the
 licensee that it is not a competitor of Gaussian, Inc. and that
 it will not use this program in any manner prohibited above.
 ---------------------------------------------------------------
  

 Cite this work as:
 Gaussian 09, Revision D.01,
 M. J. Frisch, G. W. Trucks, H. B. Schlegel, G. E. Scuseria, 
 M. A. Robb, J. R. Cheeseman, G. Scalmani, V. Barone, B. Mennucci, 
 G. A. Petersson, H. Nakatsuji, M. Caricato, X. Li, H. P. Hratchian, 
 A. F. Izmaylov, J. Bloino, G. Zheng, J. L. Sonnenberg, M. Hada, 
 M. Ehara, K. Toyota, R. Fukuda, J. Hasegawa, M. Ishida, T. Nakajima, 
 Y. Honda, O. Kitao, H. Nakai, T. Vreven, J. A. Montgomery, Jr., 
 J. E. Peralta, F. Ogliaro, M. Bearpark, J. J. Heyd, E. Brothers, 
 K. N. Kudin, V. N. Staroverov, T. Keith, R. Kobayashi, J. Normand, 
 K. Raghavachari, A. Rendell, J. C. Burant, S. S. Iyengar, J. Tomasi, 
 M. Cossi, N. Rega, J. M. Millam, M. Klene, J. E. Knox, J. B. Cross, 
 V. Bakken, C. Adamo, J. Jaramillo, R. Gomperts, R. E. Stratmann, 
 O. Yazyev, A. J. Austin, R. Cammi, C. Pomelli, J. W. Ochterski, 
 R. L. Martin, K. Morokuma, V. G. Zakrzewski, G. A. Voth, 
 P. Salvador, J. J. Dannenberg, S. Dapprich, A. D. Daniels, 
 O. Farkas, J. B. Foresman, J. V. Ortiz, J. Cioslowski, 
 and D. J. Fox, Gaussian, Inc., Wallingford CT, 2013.
 
 ******************************************
 Gaussian 09:  ES64L-G09RevD.01 24-Apr-2013
                24-Jul-2021 
 ******************************************
 %mem=2gb
 %nproc=4
 Will use up to    4 processors via shared memory.
 %chk=conf-640.chk
 ----------------------------------------------------------------------
 # B3LYP/6-31G(d,p) EmpiricalDispersion=GD3BJ opt=calcfc freq=noraman n
 osymm integral(ultrafinegrid)
 ----------------------------------------------------------------------
 1/10=4,14=-1,18=20,19=15,26=4,38=1/1,3;
 2/9=110,12=2,15=1,17=6,18=5,40=1/2;
 3/5=1,6=6,7=101,11=2,16=1,25=1,30=1,71=2,74=-5,75=-5,124=41,140=1/1,2,3;
 4//1;
 5/5=2,38=5/2;
 8/6=4,10=90,11=11/1;
 11/6=1,8=1,9=11,15=111,16=1,31=1/1,2,10;
 10/6=1,13=1,31=1/2;
 6/7=2,8=2,9=2,10=2,28=1/1;
 7/10=1,18=20,25=1,30=1/1,2,3,16;
 1/10=4,14=-1,18=20,19=15,26=4/3(2);
 2/9=110,15=1/2;
 99//99;
 2/9=110,15=1/2;
 3/5=1,6=6,7=101,11=2,16=1,25=1,30=1,71=1,74=-5,75=-5,124=41/1,2,3;
 4/5=5,16=3,69=1/1;
 5/5=2,38=5/2;
 7/30=1/1,2,3,16;
 1/14=-1,18=20,19=15,26=4/3(-5);
 2/9=110,15=1/2;
 6/7=2,8=2,9=2,10=2,19=2,28=1/1;
 99/9=1/99;
 ------------------------------------------------------------
 Candidate Structure: Conf:640 OPT and FREQ calc in gas phase
 ------------------------------------------------------------
 Symbolic Z-matrix:
 Charge =  0 Multiplicity = 1
 O                     0.92904  -1.24196  -0.873 
 C                     1.14845  -0.10723  -0.44526 
 N                     0.2273    0.87891  -0.54866 
 C                    -0.97462   0.70331  -1.33263 
 C                    -1.08429   1.83216  -2.33354 
 O                    -1.97773   1.54387  -3.30167 
 O                    -0.49299   2.87836  -2.27439 
 C                    -2.26049   0.68855  -0.4937 
 C                    -2.33041  -0.37329   0.56466 
 C                    -3.14952  -0.49021   1.64953 
 N                    -2.89099  -1.66012   2.3362 
 C                    -1.92679  -2.23652   1.662 
 N                    -1.55644  -1.50578   0.58175 
 C                     2.45641   0.27932   0.21253 
 C                     3.08644  -0.86428   1.00797 
 N                     4.40372  -0.56311   1.56443 
 H                     0.49677   1.83106  -0.35097 
 H                    -0.88867  -0.23908  -1.87118 
 H                    -2.00681   2.31839  -3.87722 
 H                    -3.09639   0.5662   -1.18687 
 H                    -2.4066    1.65964  -0.01709 
 H                    -3.91554   0.19426   1.98446 
 H                    -1.45505  -3.17397   1.89963 
 H                    -0.77922  -1.70241  -0.03841 
 H                     2.29431   1.15407   0.84898 
 H                     3.14994   0.58266  -0.5804 
 H                     2.43604  -1.14432   1.83845 
 H                     3.16991  -1.73687   0.3616 
 H                     4.3486    0.23292   2.18976 
 H                     5.04569  -0.30467   0.82302 
 

 GradGradGradGradGradGradGradGradGradGradGradGradGradGradGradGradGradGrad
 Berny optimization.
 Initialization pass.
                           ----------------------------
                           !    Initial Parameters    !
                           ! (Angstroms and Degrees)  !
 --------------------------                            --------------------------
 ! Name  Definition              Value          Derivative Info.                !
 --------------------------------------------------------------------------------
 ! R1    R(1,2)                  1.2324         calculate D2E/DX2 analytically  !
 ! R2    R(2,3)                  1.3534         calculate D2E/DX2 analytically  !
 ! R3    R(2,14)                 1.5142         calculate D2E/DX2 analytically  !
 ! R4    R(3,4)                  1.4457         calculate D2E/DX2 analytically  !
 ! R5    R(3,17)                 1.0091         calculate D2E/DX2 analytically  !
 ! R6    R(4,5)                  1.5127         calculate D2E/DX2 analytically  !
 ! R7    R(4,8)                  1.5354         calculate D2E/DX2 analytically  !
 ! R8    R(4,18)                 1.0888         calculate D2E/DX2 analytically  !
 ! R9    R(5,6)                  1.3486         calculate D2E/DX2 analytically  !
 ! R10   R(5,7)                  1.2032         calculate D2E/DX2 analytically  !
 ! R11   R(6,19)                 0.9654         calculate D2E/DX2 analytically  !
 ! R12   R(8,9)                  1.5008         calculate D2E/DX2 analytically  !
 ! R13   R(8,20)                 1.0928         calculate D2E/DX2 analytically  !
 ! R14   R(8,21)                 1.0916         calculate D2E/DX2 analytically  !
 ! R15   R(9,10)                 1.3644         calculate D2E/DX2 analytically  !
 ! R16   R(9,13)                 1.3718         calculate D2E/DX2 analytically  !
 ! R17   R(10,11)                1.381          calculate D2E/DX2 analytically  !
 ! R18   R(10,22)                1.0805         calculate D2E/DX2 analytically  !
 ! R19   R(11,12)                1.3101         calculate D2E/DX2 analytically  !
 ! R20   R(12,13)                1.3558         calculate D2E/DX2 analytically  !
 ! R21   R(12,23)                1.076          calculate D2E/DX2 analytically  !
 ! R22   R(13,24)                1.0136         calculate D2E/DX2 analytically  !
 ! R23   R(14,15)                1.5289         calculate D2E/DX2 analytically  !
 ! R24   R(14,25)                1.0939         calculate D2E/DX2 analytically  !
 ! R25   R(14,26)                1.0962         calculate D2E/DX2 analytically  !
 ! R26   R(15,16)                1.4614         calculate D2E/DX2 analytically  !
 ! R27   R(15,27)                1.0914         calculate D2E/DX2 analytically  !
 ! R28   R(15,28)                1.0891         calculate D2E/DX2 analytically  !
 ! R29   R(16,29)                1.0138         calculate D2E/DX2 analytically  !
 ! R30   R(16,30)                1.0142         calculate D2E/DX2 analytically  !
 ! A1    A(1,2,3)              121.5484         calculate D2E/DX2 analytically  !
 ! A2    A(1,2,14)             122.6579         calculate D2E/DX2 analytically  !
 ! A3    A(3,2,14)             115.7913         calculate D2E/DX2 analytically  !
 ! A4    A(2,3,4)              121.2506         calculate D2E/DX2 analytically  !
 ! A5    A(2,3,17)             119.3924         calculate D2E/DX2 analytically  !
 ! A6    A(4,3,17)             116.2863         calculate D2E/DX2 analytically  !
 ! A7    A(3,4,5)              109.175          calculate D2E/DX2 analytically  !
 ! A8    A(3,4,8)              113.6491         calculate D2E/DX2 analytically  !
 ! A9    A(3,4,18)             107.922          calculate D2E/DX2 analytically  !
 ! A10   A(5,4,8)              107.9384         calculate D2E/DX2 analytically  !
 ! A11   A(5,4,18)             108.9258         calculate D2E/DX2 analytically  !
 ! A12   A(8,4,18)             109.1496         calculate D2E/DX2 analytically  !
 ! A13   A(4,5,6)              111.317          calculate D2E/DX2 analytically  !
 ! A14   A(4,5,7)              125.5017         calculate D2E/DX2 analytically  !
 ! A15   A(6,5,7)              123.1454         calculate D2E/DX2 analytically  !
 ! A16   A(5,6,19)             106.0485         calculate D2E/DX2 analytically  !
 ! A17   A(4,8,9)              115.5387         calculate D2E/DX2 analytically  !
 ! A18   A(4,8,20)             107.1636         calculate D2E/DX2 analytically  !
 ! A19   A(4,8,21)             110.0055         calculate D2E/DX2 analytically  !
 ! A20   A(9,8,20)             109.4183         calculate D2E/DX2 analytically  !
 ! A21   A(9,8,21)             108.3769         calculate D2E/DX2 analytically  !
 ! A22   A(20,8,21)            105.9131         calculate D2E/DX2 analytically  !
 ! A23   A(8,9,10)             130.4895         calculate D2E/DX2 analytically  !
 ! A24   A(8,9,13)             124.5113         calculate D2E/DX2 analytically  !
 ! A25   A(10,9,13)            104.9555         calculate D2E/DX2 analytically  !
 ! A26   A(9,10,11)            110.8288         calculate D2E/DX2 analytically  !
 ! A27   A(9,10,22)            128.1563         calculate D2E/DX2 analytically  !
 ! A28   A(11,10,22)           121.0148         calculate D2E/DX2 analytically  !
 ! A29   A(10,11,12)           104.7504         calculate D2E/DX2 analytically  !
 ! A30   A(11,12,13)           111.9587         calculate D2E/DX2 analytically  !
 ! A31   A(11,12,23)           126.3198         calculate D2E/DX2 analytically  !
 ! A32   A(13,12,23)           121.7214         calculate D2E/DX2 analytically  !
 ! A33   A(9,13,12)            107.5037         calculate D2E/DX2 analytically  !
 ! A34   A(9,13,24)            125.8148         calculate D2E/DX2 analytically  !
 ! A35   A(12,13,24)           126.3288         calculate D2E/DX2 analytically  !
 ! A36   A(2,14,15)            113.0179         calculate D2E/DX2 analytically  !
 ! A37   A(2,14,25)            109.2018         calculate D2E/DX2 analytically  !
 ! A38   A(2,14,26)            107.6311         calculate D2E/DX2 analytically  !
 ! A39   A(15,14,25)           110.8868         calculate D2E/DX2 analytically  !
 ! A40   A(15,14,26)           108.8199         calculate D2E/DX2 analytically  !
 ! A41   A(25,14,26)           107.0571         calculate D2E/DX2 analytically  !
 ! A42   A(14,15,16)           114.5457         calculate D2E/DX2 analytically  !
 ! A43   A(14,15,27)           110.0138         calculate D2E/DX2 analytically  !
 ! A44   A(14,15,28)           108.7903         calculate D2E/DX2 analytically  !
 ! A45   A(16,15,27)           107.476          calculate D2E/DX2 analytically  !
 ! A46   A(16,15,28)           108.7849         calculate D2E/DX2 analytically  !
 ! A47   A(27,15,28)           106.9591         calculate D2E/DX2 analytically  !
 ! A48   A(15,16,29)           110.346          calculate D2E/DX2 analytically  !
 ! A49   A(15,16,30)           110.1652         calculate D2E/DX2 analytically  !
 ! A50   A(29,16,30)           106.5732         calculate D2E/DX2 analytically  !
 ! D1    D(1,2,3,4)             -9.0351         calculate D2E/DX2 analytically  !
 ! D2    D(1,2,3,17)          -168.4865         calculate D2E/DX2 analytically  !
 ! D3    D(14,2,3,4)           170.4087         calculate D2E/DX2 analytically  !
 ! D4    D(14,2,3,17)           10.9574         calculate D2E/DX2 analytically  !
 ! D5    D(1,2,14,15)          -33.549          calculate D2E/DX2 analytically  !
 ! D6    D(1,2,14,25)         -157.4765         calculate D2E/DX2 analytically  !
 ! D7    D(1,2,14,26)           86.6363         calculate D2E/DX2 analytically  !
 ! D8    D(3,2,14,15)          147.014          calculate D2E/DX2 analytically  !
 ! D9    D(3,2,14,25)           23.0865         calculate D2E/DX2 analytically  !
 ! D10   D(3,2,14,26)          -92.8008         calculate D2E/DX2 analytically  !
 ! D11   D(2,3,4,5)           -125.8807         calculate D2E/DX2 analytically  !
 ! D12   D(2,3,4,8)            113.5711         calculate D2E/DX2 analytically  !
 ! D13   D(2,3,4,18)            -7.6271         calculate D2E/DX2 analytically  !
 ! D14   D(17,3,4,5)            34.1759         calculate D2E/DX2 analytically  !
 ! D15   D(17,3,4,8)           -86.3724         calculate D2E/DX2 analytically  !
 ! D16   D(17,3,4,18)          152.4295         calculate D2E/DX2 analytically  !
 ! D17   D(3,4,5,6)            164.2008         calculate D2E/DX2 analytically  !
 ! D18   D(3,4,5,7)            -17.9287         calculate D2E/DX2 analytically  !
 ! D19   D(8,4,5,6)            -71.8144         calculate D2E/DX2 analytically  !
 ! D20   D(8,4,5,7)            106.0562         calculate D2E/DX2 analytically  !
 ! D21   D(18,4,5,6)            46.5777         calculate D2E/DX2 analytically  !
 ! D22   D(18,4,5,7)          -135.5517         calculate D2E/DX2 analytically  !
 ! D23   D(3,4,8,9)            -58.5958         calculate D2E/DX2 analytically  !
 ! D24   D(3,4,8,20)           179.1816         calculate D2E/DX2 analytically  !
 ! D25   D(3,4,8,21)            64.4837         calculate D2E/DX2 analytically  !
 ! D26   D(5,4,8,9)           -179.8379         calculate D2E/DX2 analytically  !
 ! D27   D(5,4,8,20)            57.9396         calculate D2E/DX2 analytically  !
 ! D28   D(5,4,8,21)           -56.7584         calculate D2E/DX2 analytically  !
 ! D29   D(18,4,8,9)            61.9133         calculate D2E/DX2 analytically  !
 ! D30   D(18,4,8,20)          -60.3092         calculate D2E/DX2 analytically  !
 ! D31   D(18,4,8,21)         -175.0072         calculate D2E/DX2 analytically  !
 ! D32   D(4,5,6,19)           178.314          calculate D2E/DX2 analytically  !
 ! D33   D(7,5,6,19)             0.3845         calculate D2E/DX2 analytically  !
 ! D34   D(4,8,9,10)           163.5485         calculate D2E/DX2 analytically  !
 ! D35   D(4,8,9,13)           -19.2303         calculate D2E/DX2 analytically  !
 ! D36   D(20,8,9,10)          -75.4396         calculate D2E/DX2 analytically  !
 ! D37   D(20,8,9,13)          101.7816         calculate D2E/DX2 analytically  !
 ! D38   D(21,8,9,10)           39.6128         calculate D2E/DX2 analytically  !
 ! D39   D(21,8,9,13)         -143.166          calculate D2E/DX2 analytically  !
 ! D40   D(8,9,10,11)          178.0604         calculate D2E/DX2 analytically  !
 ! D41   D(8,9,10,22)           -1.8368         calculate D2E/DX2 analytically  !
 ! D42   D(13,9,10,11)           0.4303         calculate D2E/DX2 analytically  !
 ! D43   D(13,9,10,22)        -179.4669         calculate D2E/DX2 analytically  !
 ! D44   D(8,9,13,12)         -178.3463         calculate D2E/DX2 analytically  !
 ! D45   D(8,9,13,24)            8.1382         calculate D2E/DX2 analytically  !
 ! D46   D(10,9,13,12)          -0.5334         calculate D2E/DX2 analytically  !
 ! D47   D(10,9,13,24)        -174.049          calculate D2E/DX2 analytically  !
 ! D48   D(9,10,11,12)          -0.1528         calculate D2E/DX2 analytically  !
 ! D49   D(22,10,11,12)        179.7528         calculate D2E/DX2 analytically  !
 ! D50   D(10,11,12,13)         -0.201          calculate D2E/DX2 analytically  !
 ! D51   D(10,11,12,23)        179.7219         calculate D2E/DX2 analytically  !
 ! D52   D(11,12,13,9)           0.4761         calculate D2E/DX2 analytically  !
 ! D53   D(11,12,13,24)        173.949          calculate D2E/DX2 analytically  !
 ! D54   D(23,12,13,9)        -179.4508         calculate D2E/DX2 analytically  !
 ! D55   D(23,12,13,24)         -5.978          calculate D2E/DX2 analytically  !
 ! D56   D(2,14,15,16)         175.1479         calculate D2E/DX2 analytically  !
 ! D57   D(2,14,15,27)         -63.6736         calculate D2E/DX2 analytically  !
 ! D58   D(2,14,15,28)          53.1883         calculate D2E/DX2 analytically  !
 ! D59   D(25,14,15,16)        -61.8547         calculate D2E/DX2 analytically  !
 ! D60   D(25,14,15,27)         59.3238         calculate D2E/DX2 analytically  !
 ! D61   D(25,14,15,28)        176.1857         calculate D2E/DX2 analytically  !
 ! D62   D(26,14,15,16)         55.645          calculate D2E/DX2 analytically  !
 ! D63   D(26,14,15,27)        176.8234         calculate D2E/DX2 analytically  !
 ! D64   D(26,14,15,28)        -66.3147         calculate D2E/DX2 analytically  !
 ! D65   D(14,15,16,29)         59.4691         calculate D2E/DX2 analytically  !
 ! D66   D(14,15,16,30)        -57.9352         calculate D2E/DX2 analytically  !
 ! D67   D(27,15,16,29)        -63.0946         calculate D2E/DX2 analytically  !
 ! D68   D(27,15,16,30)        179.5011         calculate D2E/DX2 analytically  !
 ! D69   D(28,15,16,29)       -178.5683         calculate D2E/DX2 analytically  !
 ! D70   D(28,15,16,30)         64.0274         calculate D2E/DX2 analytically  !
 --------------------------------------------------------------------------------
 Trust Radius=3.00D-01 FncErr=1.00D-07 GrdErr=1.00D-06
 Number of steps in this run=    160 maximum allowed number of steps=    180.
 GradGradGradGradGradGradGradGradGradGradGradGradGradGradGradGradGradGrad

                          Input orientation:                          
 ---------------------------------------------------------------------
 Center     Atomic      Atomic             Coordinates (Angstroms)
 Number     Number       Type             X           Y           Z
 ---------------------------------------------------------------------
      1          8           0        0.929043   -1.241963   -0.873004
      2          6           0        1.148453   -0.107229   -0.445265
      3          7           0        0.227295    0.878910   -0.548664
      4          6           0       -0.974618    0.703315   -1.332629
      5          6           0       -1.084293    1.832158   -2.333541
      6          8           0       -1.977728    1.543869   -3.301668
      7          8           0       -0.492986    2.878356   -2.274390
      8          6           0       -2.260494    0.688548   -0.493701
      9          6           0       -2.330413   -0.373288    0.564662
     10          6           0       -3.149524   -0.490207    1.649530
     11          7           0       -2.890995   -1.660122    2.336198
     12          6           0       -1.926786   -2.236516    1.661995
     13          7           0       -1.556443   -1.505777    0.581748
     14          6           0        2.456413    0.279321    0.212533
     15          6           0        3.086444   -0.864276    1.007965
     16          7           0        4.403718   -0.563113    1.564429
     17          1           0        0.496774    1.831061   -0.350975
     18          1           0       -0.888672   -0.239080   -1.871181
     19          1           0       -2.006809    2.318387   -3.877224
     20          1           0       -3.096390    0.566200   -1.186873
     21          1           0       -2.406602    1.659641   -0.017086
     22          1           0       -3.915536    0.194263    1.984460
     23          1           0       -1.455054   -3.173967    1.899627
     24          1           0       -0.779216   -1.702408   -0.038411
     25          1           0        2.294314    1.154066    0.848976
     26          1           0        3.149944    0.582658   -0.580398
     27          1           0        2.436040   -1.144321    1.838451
     28          1           0        3.169914   -1.736868    0.361604
     29          1           0        4.348596    0.232922    2.189758
     30          1           0        5.045691   -0.304669    0.823024
 ---------------------------------------------------------------------
                    Distance matrix (angstroms):
                    1          2          3          4          5
     1  O    0.000000
     2  C    1.232365   0.000000
     3  N    2.257377   1.353401   0.000000
     4  C    2.760306   2.439637   1.445694   0.000000
     5  C    3.954354   3.508841   2.411375   1.512660   0.000000
     6  O    4.701977   4.545126   3.589335   2.364291   1.348557
     7  O    4.578546   3.867007   2.737648   2.418612   1.203193
     8  C    3.747518   3.500932   2.495667   1.535413   2.465016
     9  C    3.666815   3.632251   3.057673   2.568456   3.849206
    10  C    4.854176   4.796607   4.255520   3.879173   5.052070
    11  N    5.006648   5.144429   4.949025   4.766406   6.104642
    12  C    3.946025   4.293192   4.385540   4.303139   5.764391
    13  N    2.891979   3.213588   3.185324   2.980511   4.456865
    14  C    2.413619   1.514225   2.430616   3.786723   4.629298
    15  C    2.887053   2.537875   3.692767   4.942464   5.985940
    16  N    4.298288   3.852720   4.897663   6.238853   7.144912
    17  H    3.146880   2.047082   1.009104   2.097726   2.535812
    18  H    2.303523   2.490080   2.060178   1.088821   2.131213
    19  H    5.506419   5.255248   4.259416   3.185724   1.862904
    20  H    4.424034   4.361442   3.398820   2.131187   2.639323
    21  H    4.503158   3.992941   2.798130   2.166978   2.672869
    22  H    5.804979   5.624805   4.903928   4.462198   5.416989
    23  H    4.135703   4.656355   5.024962   5.070662   6.566465
    24  H    1.956197   2.534963   2.817203   2.738739   4.225382
    25  H    3.251175   2.139842   2.510314   3.955818   4.690758
    26  H    2.889163   2.121361   2.937796   4.194332   4.750108
    27  H    3.103637   2.819361   3.830188   5.010200   6.217531
    28  H    2.605895   2.719019   4.041025   5.099222   6.172522
    29  H    4.821737   4.159323   4.990128   6.400398   7.248040
    30  H    4.549926   4.103170   5.147749   6.473561   7.218493
                    6          7          8          9         10
     6  O    0.000000
     7  O    2.245131   0.000000
     8  C    2.948933   3.330194   0.000000
     9  C    4.329940   4.691432   1.500838   0.000000
    10  C    5.479500   5.813911   2.602552   1.364387   0.000000
    11  N    6.548675   6.899692   3.731235   2.260207   1.380960
    12  C    6.239539   6.611567   3.648888   2.199698   2.131862
    13  N    4.955677   5.339390   2.543097   1.371806   2.170126
    14  C    5.797439   4.651745   4.787007   4.843923   5.838121
    15  C    7.072336   6.131352   5.766802   5.457099   6.280034
    16  N    8.297055   7.110412   7.086203   6.810586   7.554073
    17  H    3.861636   2.403327   2.988015   3.700072   4.762961
    18  H    2.532043   3.168209   2.154028   2.833718   4.191649
    19  H    0.965395   2.274709   3.764167   5.203862   6.303888
    20  H    2.584491   3.647803   1.092785   2.130078   3.027210
    21  H    3.314486   3.200408   1.091573   2.115901   2.819821
    22  H    5.789618   6.087364   3.020722   2.202397   1.080487
    23  H    7.041635   7.414756   4.614734   3.223692   3.183762
    24  H    4.756426   5.105383   2.849236   2.129899   3.152290
    25  H    5.969098   4.527432   4.771348   4.878703   5.742811
    26  H    5.884068   4.627178   5.412168   5.679727   6.768080
    27  H    7.288932   6.455741   5.554797   4.993606   5.626906
    28  H    7.119060   6.454889   6.008620   5.670465   6.568730
    29  H    8.479193   7.097032   7.147630   6.900550   7.552256
    30  H    8.352161   7.099476   7.490032   7.380946   8.238876
                   11         12         13         14         15
    11  N    0.000000
    12  C    1.310143   0.000000
    13  N    2.209738   1.355753   0.000000
    14  C    6.071751   5.257642   4.407482   0.000000
    15  C    6.174735   5.238633   4.706334   1.528877   0.000000
    16  N    7.417000   6.548670   6.113738   2.515813   1.461356
    17  H    5.557539   5.144986   4.027426   2.562347   3.977179
    18  H    4.871416   4.189363   2.840299   3.974946   4.947919
    19  H    7.430809   7.171923   5.891476   6.387821   7.741812
    20  H    4.172617   4.164041   3.129305   5.733607   6.714984
    21  H    4.097976   4.269610   3.331853   5.060328   6.131431
    22  H    2.147591   3.157181   3.228475   6.614278   7.148550
    23  H    2.131724   1.076018   2.128366   5.483707   5.172517
    24  H    3.178075   2.119804   1.013579   3.802567   4.091540
    25  H    6.084316   5.474918   4.687696   1.093853   2.174041
    26  H    7.073156   6.224890   5.278467   1.096239   2.149546
    27  H    5.375044   4.500919   4.201175   2.161199   1.091402
    28  H    6.374914   5.283656   4.737121   2.143903   1.089113
    29  H    7.484433   6.764398   6.362252   2.737139   2.047805
    30  H    8.192553   7.283635   6.714837   2.723620   2.045974
                   16         17         18         19         20
    16  N    0.000000
    17  H    4.966392   0.000000
    18  H    6.318054   2.918214   0.000000
    19  H    8.888728   4.351994   3.437306   0.000000
    20  H    8.068248   3.899926   2.447605   3.390476   0.000000
    21  H    7.336367   2.927535   3.057273   3.936299   1.743509
    22  H    8.364211   5.253745   4.920940   6.520312   3.296466
    23  H    6.422937   5.824530   4.811792   7.990143   5.119504
    24  H    5.543455   3.769782   2.347841   5.693001   3.440181
    25  H    2.812501   2.264808   4.412653   6.495558   5.792232
    26  H    2.735877   2.941166   4.318772   6.361912   6.275728
    27  H    2.069939   4.172198   5.063056   8.024848   6.533471
    28  H    2.084889   4.514816   4.868348   7.823759   6.853354
    29  H    1.013779   4.883227   6.644019   9.030427   8.181719
    30  H    1.014201   5.160645   6.517646   8.871894   8.431582
                   21         22         23         24         25
    21  H    0.000000
    22  H    2.903515   0.000000
    23  H    5.286114   4.172067   0.000000
    24  H    3.735267   4.186390   2.525516   0.000000
    25  H    4.806691   6.385356   5.821811   4.288763   0.000000
    26  H    5.687918   7.526642   6.439624   4.577508   1.761170
    27  H    5.895456   6.492737   4.389056   3.764564   2.506338
    28  H    6.540429   7.521072   5.081446   3.969487   3.059690
    29  H    7.248337   8.266772   6.735980   5.916477   2.620358
    30  H    7.752481   9.049942   7.186906   6.051883   3.114266
                   26         27         28         29         30
    26  H    0.000000
    27  H    3.056623   0.000000
    28  H    2.503591   1.752359   0.000000
    29  H    3.038559   2.382874   2.934538   0.000000
    30  H    2.520079   2.923421   2.404713   1.625701   0.000000
 Symmetry turned off by external request.
 Stoichiometry    C9H14N4O3
 Framework group  C1[X(C9H14N4O3)]
 Deg. of freedom    84
 Full point group                 C1      NOp   1
 Rotational constants (GHZ):      0.5050640      0.4053310      0.2477507
 Standard basis: 6-31G(d,p) (6D, 7F)
   310 basis functions,   546 primitive gaussians,   310 cartesian basis functions
    60 alpha electrons       60 beta electrons
       nuclear repulsion energy      1124.8072977319 Hartrees.
 NAtoms=   30 NActive=   30 NUniq=   30 SFac= 1.00D+00 NAtFMM=   60 NAOKFM=F Big=F
 Integral buffers will be    131072 words long.
 Raffenetti 2 integral format.
 Two-electron integral symmetry is turned off.
 Nuclear repulsion after empirical dispersion term =     1124.7532306770 Hartrees.
 One-electron integrals computed using PRISM.
 NBasis=   310 RedAO= T EigKep=  1.10D-03  NBF=   310
 NBsUse=   310 1.00D-06 EigRej= -1.00D+00 NBFU=   310
 ExpMin= 1.61D-01 ExpMax= 5.48D+03 ExpMxC= 8.25D+02 IAcc=3 IRadAn=         5 AccDes= 0.00D+00
 Harris functional with IExCor=  402 and IRadAn=       5 diagonalized for initial guess.
 HarFok:  IExCor=  402 AccDes= 0.00D+00 IRadAn=         5 IDoV= 1 UseB2=F ITyADJ=14
 ICtDFT=  3500011 ScaDFX=  1.000000  1.000000  1.000000  1.000000
 FoFCou: FMM=F IPFlag=           0 FMFlag=      100000 FMFlg1=           0
         NFxFlg=           0 DoJE=T BraDBF=F KetDBF=T FulRan=T
         wScrn=  0.000000 ICntrl=     500 IOpCl=  0 I1Cent=   200000004 NGrid=           0
         NMat0=    1 NMatS0=      1 NMatT0=    0 NMatD0=    1 NMtDS0=    0 NMtDT0=    0
 Symmetry not used in FoFCou.
 Requested convergence on RMS density matrix=1.00D-08 within 128 cycles.
 Requested convergence on MAX density matrix=1.00D-06.
 Requested convergence on             energy=1.00D-06.
 No special actions if energy rises.
 Integral accuracy reduced to 1.0D-05 until final iterations.
 Initial convergence to 1.0D-05 achieved.  Increase integral accuracy.
 SCF Done:  E(RB3LYP) =  -796.168489925     A.U. after   14 cycles
            NFock= 14  Conv=0.66D-08     -V/T= 2.0088
 DoSCS=F DFT=T ScalE2(SS,OS)=  1.000000  1.000000
 Range of M.O.s used for correlation:     1   310
 NBasis=   310 NAE=    60 NBE=    60 NFC=     0 NFV=     0
 NROrb=    310 NOA=    60 NOB=    60 NVA=   250 NVB=   250
 Symmetrizing basis deriv contribution to polar:
 IMax=3 JMax=2 DiffMx= 0.00D+00
 G2DrvN: will do    31 centers at a time, making    1 passes.
 Calling FoFCou, ICntrl=  3107 FMM=F I1Cent=   0 AccDes= 0.00D+00.
 End of G2Drv F.D. properties file   721 does not exist.
 End of G2Drv F.D. properties file   722 does not exist.
 End of G2Drv F.D. properties file   788 does not exist.
          IDoAtm=111111111111111111111111111111
          Differentiating once with respect to nuclear coordinates.
          There are    93 degrees of freedom in the 1st order CPHF.  IDoFFX=6 NUNeed=     0.
     87 vectors produced by pass  0 Test12= 1.61D-14 1.08D-09 XBig12= 1.43D-01 9.14D-02.
 AX will form    87 AO Fock derivatives at one time.
     87 vectors produced by pass  1 Test12= 1.61D-14 1.08D-09 XBig12= 2.63D-02 4.74D-02.
     87 vectors produced by pass  2 Test12= 1.61D-14 1.08D-09 XBig12= 1.87D-04 2.64D-03.
     87 vectors produced by pass  3 Test12= 1.61D-14 1.08D-09 XBig12= 9.47D-07 1.22D-04.
     87 vectors produced by pass  4 Test12= 1.61D-14 1.08D-09 XBig12= 1.45D-09 5.23D-06.
     71 vectors produced by pass  5 Test12= 1.61D-14 1.08D-09 XBig12= 1.44D-12 1.99D-07.
     18 vectors produced by pass  6 Test12= 1.61D-14 1.08D-09 XBig12= 1.20D-15 4.02D-09.
 InvSVY:  IOpt=1 It=  1 EMax= 5.00D-16
 Solved reduced A of dimension   524 with    93 vectors.
 End of Minotr F.D. properties file   721 does not exist.
 End of Minotr F.D. properties file   722 does not exist.
 End of Minotr F.D. properties file   788 does not exist.

 **********************************************************************

            Population analysis using the SCF density.

 **********************************************************************

 Alpha  occ. eigenvalues --  -19.22321 -19.17033 -19.13834 -14.38405 -14.36975
 Alpha  occ. eigenvalues --  -14.31954 -14.29496 -10.34741 -10.31020 -10.26189
 Alpha  occ. eigenvalues --  -10.22022 -10.21642 -10.21635 -10.20927 -10.20863
 Alpha  occ. eigenvalues --  -10.18039  -1.13822  -1.06065  -1.04856  -1.00152
 Alpha  occ. eigenvalues --   -0.95298  -0.89051  -0.85521  -0.81875  -0.77033
 Alpha  occ. eigenvalues --   -0.74297  -0.67969  -0.65783  -0.61946  -0.61255
 Alpha  occ. eigenvalues --   -0.59361  -0.57758  -0.54663  -0.52098  -0.51780
 Alpha  occ. eigenvalues --   -0.51231  -0.49969  -0.48956  -0.47994  -0.46331
 Alpha  occ. eigenvalues --   -0.44681  -0.44123  -0.43129  -0.42198  -0.41987
 Alpha  occ. eigenvalues --   -0.41202  -0.39943  -0.39318  -0.39049  -0.38595
 Alpha  occ. eigenvalues --   -0.37384  -0.35271  -0.34782  -0.30954  -0.28653
 Alpha  occ. eigenvalues --   -0.27895  -0.26444  -0.25022  -0.24097  -0.21151
 Alpha virt. eigenvalues --   -0.01650  -0.00036   0.04463   0.05832   0.06791
 Alpha virt. eigenvalues --    0.07690   0.07803   0.10491   0.12152   0.12204
 Alpha virt. eigenvalues --    0.13639   0.14275   0.15212   0.15592   0.17363
 Alpha virt. eigenvalues --    0.17654   0.18088   0.19049   0.19136   0.20224
 Alpha virt. eigenvalues --    0.20813   0.22892   0.23081   0.24850   0.26322
 Alpha virt. eigenvalues --    0.28756   0.30171   0.30504   0.33272   0.34531
 Alpha virt. eigenvalues --    0.35805   0.38828   0.40881   0.45480   0.49453
 Alpha virt. eigenvalues --    0.50324   0.51743   0.52493   0.53302   0.54180
 Alpha virt. eigenvalues --    0.54660   0.56276   0.56442   0.57062   0.58846
 Alpha virt. eigenvalues --    0.60280   0.61916   0.62467   0.63136   0.63965
 Alpha virt. eigenvalues --    0.65023   0.65724   0.66286   0.66981   0.67770
 Alpha virt. eigenvalues --    0.69749   0.71066   0.71974   0.72830   0.73489
 Alpha virt. eigenvalues --    0.74112   0.77247   0.78118   0.79020   0.79504
 Alpha virt. eigenvalues --    0.79721   0.81306   0.82138   0.83311   0.83804
 Alpha virt. eigenvalues --    0.84497   0.85095   0.86183   0.87267   0.87823
 Alpha virt. eigenvalues --    0.88124   0.88684   0.89190   0.89493   0.89790
 Alpha virt. eigenvalues --    0.91426   0.92456   0.92813   0.94179   0.94883
 Alpha virt. eigenvalues --    0.99017   0.99671   1.02397   1.04191   1.04651
 Alpha virt. eigenvalues --    1.05171   1.07697   1.10559   1.10803   1.12234
 Alpha virt. eigenvalues --    1.13213   1.19232   1.19989   1.23275   1.25063
 Alpha virt. eigenvalues --    1.27631   1.29671   1.30560   1.32117   1.33519
 Alpha virt. eigenvalues --    1.34831   1.37345   1.38970   1.39279   1.41558
 Alpha virt. eigenvalues --    1.42938   1.44771   1.46192   1.48816   1.50632
 Alpha virt. eigenvalues --    1.51821   1.52562   1.53768   1.55743   1.60297
 Alpha virt. eigenvalues --    1.61369   1.63735   1.65556   1.68793   1.71471
 Alpha virt. eigenvalues --    1.72454   1.72521   1.73762   1.74820   1.75380
 Alpha virt. eigenvalues --    1.77249   1.79113   1.80558   1.82226   1.84593
 Alpha virt. eigenvalues --    1.85435   1.85889   1.86677   1.88059   1.91053
 Alpha virt. eigenvalues --    1.92010   1.93341   1.94138   1.95576   1.97533
 Alpha virt. eigenvalues --    1.98843   2.00916   2.01332   2.04296   2.07303
 Alpha virt. eigenvalues --    2.08489   2.09547   2.10275   2.11009   2.11826
 Alpha virt. eigenvalues --    2.14553   2.14819   2.16004   2.17663   2.20094
 Alpha virt. eigenvalues --    2.20546   2.21480   2.22476   2.23402   2.25830
 Alpha virt. eigenvalues --    2.27350   2.28063   2.28565   2.28856   2.30703
 Alpha virt. eigenvalues --    2.32646   2.34450   2.36295   2.39026   2.41623
 Alpha virt. eigenvalues --    2.43255   2.46453   2.46701   2.47037   2.48795
 Alpha virt. eigenvalues --    2.49315   2.51549   2.52828   2.54030   2.56449
 Alpha virt. eigenvalues --    2.56943   2.58037   2.59021   2.61592   2.63410
 Alpha virt. eigenvalues --    2.64382   2.66105   2.67111   2.67697   2.69169
 Alpha virt. eigenvalues --    2.69677   2.70585   2.71995   2.73247   2.74362
 Alpha virt. eigenvalues --    2.77805   2.79380   2.80868   2.83994   2.86236
 Alpha virt. eigenvalues --    2.87246   2.87760   2.90329   2.90836   2.91289
 Alpha virt. eigenvalues --    2.92951   2.95964   2.98720   2.99133   3.00924
 Alpha virt. eigenvalues --    3.01734   3.06125   3.11019   3.18184   3.24747
 Alpha virt. eigenvalues --    3.26375   3.28951   3.29762   3.31664   3.32292
 Alpha virt. eigenvalues --    3.36836   3.37768   3.42672   3.47934   3.50491
 Alpha virt. eigenvalues --    3.52458   3.57725   3.58785   3.71210   3.94434
 Alpha virt. eigenvalues --    3.98933   4.01687   4.08673   4.12903   4.16135
 Alpha virt. eigenvalues --    4.25260   4.25623   4.33889   4.39149   4.43166
 Alpha virt. eigenvalues --    4.48206   4.51113   4.62446   4.69014   4.81965
          Condensed to atoms (all electrons):
               1          2          3          4          5          6
     1  O    8.160912   0.508294  -0.099846  -0.004687   0.000444  -0.000001
     2  C    0.508294   4.449382   0.266588  -0.025208   0.004330  -0.000014
     3  N   -0.099846   0.266588   7.020157   0.237166  -0.042551   0.002196
     4  C   -0.004687  -0.025208   0.237166   5.143737   0.291676  -0.100889
     5  C    0.000444   0.004330  -0.042551   0.291676   4.392007   0.265261
     6  O   -0.000001  -0.000014   0.002196  -0.100889   0.265261   8.108560
     7  O   -0.000004   0.000594  -0.008252  -0.078818   0.588126  -0.085558
     8  C    0.000098  -0.001319  -0.057194   0.317299  -0.037420   0.002094
     9  C   -0.000790   0.001013   0.001213  -0.026581   0.001497   0.000082
    10  C    0.000010  -0.000114  -0.000211   0.002684  -0.000134  -0.000001
    11  N   -0.000008  -0.000017   0.000007  -0.000151   0.000002   0.000000
    12  C    0.000155   0.000164  -0.000015   0.000104   0.000006   0.000000
    13  N   -0.020739   0.003776   0.000457  -0.003775   0.000141   0.000001
    14  C   -0.085833   0.272482  -0.094505   0.006408  -0.000208   0.000000
    15  C    0.001827  -0.019466   0.001501  -0.000121  -0.000001   0.000000
    16  N    0.000193   0.005629  -0.000083   0.000001   0.000000   0.000000
    17  H    0.003065  -0.017931   0.331858  -0.038413  -0.003570   0.000442
    18  H    0.021036  -0.002173  -0.054625   0.373779  -0.020724   0.002558
    19  H    0.000000   0.000001  -0.000267   0.010584  -0.011468   0.272921
    20  H   -0.000011   0.000069   0.004919  -0.039136  -0.002316   0.005828
    21  H   -0.000023  -0.000123  -0.003876  -0.031170  -0.003173  -0.000177
    22  H    0.000000   0.000001  -0.000011   0.000027   0.000003   0.000000
    23  H   -0.000003   0.000015  -0.000001  -0.000004   0.000000   0.000000
    24  H    0.052396  -0.003944  -0.006169   0.001788  -0.000087   0.000002
    25  H    0.002795  -0.029826   0.002167   0.000394  -0.000049   0.000000
    26  H   -0.000189  -0.019143  -0.001569  -0.000347   0.000045   0.000000
    27  H    0.000664   0.000462   0.000070  -0.000012   0.000000   0.000000
    28  H    0.009982  -0.002303   0.000393   0.000010   0.000000   0.000000
    29  H    0.000001   0.000118  -0.000003   0.000000   0.000000   0.000000
    30  H    0.000012   0.000202  -0.000003   0.000000   0.000000   0.000000
               7          8          9         10         11         12
     1  O   -0.000004   0.000098  -0.000790   0.000010  -0.000008   0.000155
     2  C    0.000594  -0.001319   0.001013  -0.000114  -0.000017   0.000164
     3  N   -0.008252  -0.057194   0.001213  -0.000211   0.000007  -0.000015
     4  C   -0.078818   0.317299  -0.026581   0.002684  -0.000151   0.000104
     5  C    0.588126  -0.037420   0.001497  -0.000134   0.000002   0.000006
     6  O   -0.085558   0.002094   0.000082  -0.000001   0.000000   0.000000
     7  O    8.017141  -0.003107  -0.000090   0.000000   0.000000   0.000000
     8  C   -0.003107   5.086799   0.339462  -0.060277   0.006808   0.006875
     9  C   -0.000090   0.339462   4.753676   0.567725  -0.043161  -0.091137
    10  C    0.000000  -0.060277   0.567725   4.888871   0.425764  -0.125992
    11  N    0.000000   0.006808  -0.043161   0.425764   6.686207   0.538340
    12  C    0.000000   0.006875  -0.091137  -0.125992   0.538340   4.675375
    13  N    0.000000  -0.070326   0.363243  -0.068231  -0.088620   0.365839
    14  C   -0.000076  -0.000250  -0.000052   0.000000   0.000000   0.000000
    15  C    0.000000   0.000010   0.000003   0.000001   0.000000  -0.000012
    16  N    0.000000   0.000000   0.000000   0.000000   0.000000   0.000000
    17  H    0.019886   0.000818  -0.000237   0.000006  -0.000001   0.000005
    18  H    0.001926  -0.037128  -0.007185  -0.000043  -0.000007   0.000001
    19  H    0.009150  -0.000196   0.000013   0.000000   0.000000   0.000000
    20  H    0.000121   0.371897  -0.033531  -0.002830   0.000011   0.000188
    21  H    0.001786   0.370696  -0.035555  -0.003674   0.000067  -0.000014
    22  H    0.000000  -0.001440  -0.060452   0.392553  -0.042121   0.007311
    23  H    0.000000  -0.000198   0.003256   0.007361  -0.038786   0.391840
    24  H   -0.000001  -0.004053  -0.028165   0.008519   0.004039  -0.021244
    25  H   -0.000007  -0.000005   0.000009   0.000000   0.000000  -0.000001
    26  H    0.000003  -0.000007   0.000000   0.000000   0.000000   0.000000
    27  H    0.000000  -0.000001  -0.000002  -0.000002   0.000000   0.000070
    28  H    0.000000   0.000000   0.000000   0.000000   0.000000  -0.000001
    29  H    0.000000   0.000000   0.000000   0.000000   0.000000   0.000000
    30  H    0.000000   0.000000   0.000000   0.000000   0.000000   0.000000
              13         14         15         16         17         18
     1  O   -0.020739  -0.085833   0.001827   0.000193   0.003065   0.021036
     2  C    0.003776   0.272482  -0.019466   0.005629  -0.017931  -0.002173
     3  N    0.000457  -0.094505   0.001501  -0.000083   0.331858  -0.054625
     4  C   -0.003775   0.006408  -0.000121   0.000001  -0.038413   0.373779
     5  C    0.000141  -0.000208  -0.000001   0.000000  -0.003570  -0.020724
     6  O    0.000001   0.000000   0.000000   0.000000   0.000442   0.002558
     7  O    0.000000  -0.000076   0.000000   0.000000   0.019886   0.001926
     8  C   -0.070326  -0.000250   0.000010   0.000000   0.000818  -0.037128
     9  C    0.363243  -0.000052   0.000003   0.000000  -0.000237  -0.007185
    10  C   -0.068231   0.000000   0.000001   0.000000   0.000006  -0.000043
    11  N   -0.088620   0.000000   0.000000   0.000000  -0.000001  -0.000007
    12  C    0.365839   0.000000  -0.000012   0.000000   0.000005   0.000001
    13  N    6.807384  -0.000223  -0.000051   0.000000   0.000025   0.001779
    14  C   -0.000223   5.297240   0.335568  -0.061212  -0.001249   0.001235
    15  C   -0.000051   0.335568   4.788313   0.324215  -0.000004  -0.000028
    16  N    0.000000  -0.061212   0.324215   6.707585  -0.000003   0.000000
    17  H    0.000025  -0.001249  -0.000004  -0.000003   0.419718   0.004856
    18  H    0.001779   0.001235  -0.000028   0.000000   0.004856   0.547800
    19  H    0.000000   0.000000   0.000000   0.000000  -0.000047  -0.000364
    20  H    0.000251   0.000004   0.000000   0.000000  -0.000151  -0.003780
    21  H    0.002760  -0.000002   0.000000   0.000000   0.001757   0.005711
    22  H    0.004906   0.000000   0.000000   0.000000   0.000000   0.000001
    23  H   -0.056704   0.000000   0.000000   0.000000   0.000000   0.000003
    24  H    0.304453   0.000710   0.000195   0.000001   0.000000   0.000243
    25  H    0.000034   0.354979  -0.035552   0.001249   0.002035  -0.000034
    26  H   -0.000001   0.362877  -0.032417  -0.001709   0.000326  -0.000016
    27  H    0.000086  -0.051760   0.393965  -0.038081  -0.000004  -0.000001
    28  H    0.000013  -0.052206   0.393644  -0.035966  -0.000006  -0.000007
    29  H    0.000000  -0.003450  -0.045037   0.344008   0.000002   0.000000
    30  H    0.000000  -0.003349  -0.048440   0.346284   0.000000   0.000000
              19         20         21         22         23         24
     1  O    0.000000  -0.000011  -0.000023   0.000000  -0.000003   0.052396
     2  C    0.000001   0.000069  -0.000123   0.000001   0.000015  -0.003944
     3  N   -0.000267   0.004919  -0.003876  -0.000011  -0.000001  -0.006169
     4  C    0.010584  -0.039136  -0.031170   0.000027  -0.000004   0.001788
     5  C   -0.011468  -0.002316  -0.003173   0.000003   0.000000  -0.000087
     6  O    0.272921   0.005828  -0.000177   0.000000   0.000000   0.000002
     7  O    0.009150   0.000121   0.001786   0.000000   0.000000  -0.000001
     8  C   -0.000196   0.371897   0.370696  -0.001440  -0.000198  -0.004053
     9  C    0.000013  -0.033531  -0.035555  -0.060452   0.003256  -0.028165
    10  C    0.000000  -0.002830  -0.003674   0.392553   0.007361   0.008519
    11  N    0.000000   0.000011   0.000067  -0.042121  -0.038786   0.004039
    12  C    0.000000   0.000188  -0.000014   0.007311   0.391840  -0.021244
    13  N    0.000000   0.000251   0.002760   0.004906  -0.056704   0.304453
    14  C    0.000000   0.000004  -0.000002   0.000000   0.000000   0.000710
    15  C    0.000000   0.000000   0.000000   0.000000   0.000000   0.000195
    16  N    0.000000   0.000000   0.000000   0.000000   0.000000   0.000001
    17  H   -0.000047  -0.000151   0.001757   0.000000   0.000000   0.000000
    18  H   -0.000364  -0.003780   0.005711   0.000001   0.000003   0.000243
    19  H    0.390262  -0.000051  -0.000107   0.000000   0.000000   0.000000
    20  H   -0.000051   0.588666  -0.035596   0.000247   0.000003  -0.000078
    21  H   -0.000107  -0.035596   0.608321   0.001587   0.000004  -0.000103
    22  H    0.000000   0.000247   0.001587   0.619601  -0.000177  -0.000098
    23  H    0.000000   0.000003   0.000004  -0.000177   0.586258   0.000201
    24  H    0.000000  -0.000078  -0.000103  -0.000098   0.000201   0.403514
    25  H    0.000000   0.000000   0.000002   0.000000   0.000000  -0.000108
    26  H    0.000000   0.000000   0.000000   0.000000   0.000000   0.000002
    27  H    0.000000   0.000000   0.000000   0.000000   0.000012   0.000032
    28  H    0.000000   0.000000   0.000000   0.000000   0.000000  -0.000036
    29  H    0.000000   0.000000   0.000000   0.000000   0.000000   0.000000
    30  H    0.000000   0.000000   0.000000   0.000000   0.000000   0.000000
              25         26         27         28         29         30
     1  O    0.002795  -0.000189   0.000664   0.009982   0.000001   0.000012
     2  C   -0.029826  -0.019143   0.000462  -0.002303   0.000118   0.000202
     3  N    0.002167  -0.001569   0.000070   0.000393  -0.000003  -0.000003
     4  C    0.000394  -0.000347  -0.000012   0.000010   0.000000   0.000000
     5  C   -0.000049   0.000045   0.000000   0.000000   0.000000   0.000000
     6  O    0.000000   0.000000   0.000000   0.000000   0.000000   0.000000
     7  O   -0.000007   0.000003   0.000000   0.000000   0.000000   0.000000
     8  C   -0.000005  -0.000007  -0.000001   0.000000   0.000000   0.000000
     9  C    0.000009   0.000000  -0.000002   0.000000   0.000000   0.000000
    10  C    0.000000   0.000000  -0.000002   0.000000   0.000000   0.000000
    11  N    0.000000   0.000000   0.000000   0.000000   0.000000   0.000000
    12  C   -0.000001   0.000000   0.000070  -0.000001   0.000000   0.000000
    13  N    0.000034  -0.000001   0.000086   0.000013   0.000000   0.000000
    14  C    0.354979   0.362877  -0.051760  -0.052206  -0.003450  -0.003349
    15  C   -0.035552  -0.032417   0.393965   0.393644  -0.045037  -0.048440
    16  N    0.001249  -0.001709  -0.038081  -0.035966   0.344008   0.346284
    17  H    0.002035   0.000326  -0.000004  -0.000006   0.000002   0.000000
    18  H   -0.000034  -0.000016  -0.000001  -0.000007   0.000000   0.000000
    19  H    0.000000   0.000000   0.000000   0.000000   0.000000   0.000000
    20  H    0.000000   0.000000   0.000000   0.000000   0.000000   0.000000
    21  H    0.000002   0.000000   0.000000   0.000000   0.000000   0.000000
    22  H    0.000000   0.000000   0.000000   0.000000   0.000000   0.000000
    23  H    0.000000   0.000000   0.000012   0.000000   0.000000   0.000000
    24  H   -0.000108   0.000002   0.000032  -0.000036   0.000000   0.000000
    25  H    0.627468  -0.032707  -0.005073   0.005737   0.004649  -0.000284
    26  H   -0.032707   0.585936   0.005484  -0.004437  -0.000468   0.005798
    27  H   -0.005073   0.005484   0.604465  -0.030335  -0.005582   0.006800
    28  H    0.005737  -0.004437  -0.030335   0.577002   0.006310  -0.004926
    29  H    0.004649  -0.000468  -0.005582   0.006310   0.500027  -0.035865
    30  H   -0.000284   0.005798   0.006800  -0.004926  -0.035865   0.498988
 Mulliken charges:
               1
     1  O   -0.549749
     2  C    0.608462
     3  N   -0.499511
     4  C   -0.036343
     5  C    0.578164
     6  O   -0.473306
     7  O   -0.462820
     8  C   -0.229938
     9  C    0.295742
    10  C   -0.031984
    11  N   -0.448373
    12  C    0.252143
    13  N   -0.546477
    14  C   -0.277128
    15  C   -0.058111
    16  N   -0.592111
    17  H    0.276816
    18  H    0.165188
    19  H    0.329569
    20  H    0.145275
    21  H    0.120903
    22  H    0.078062
    23  H    0.106921
    24  H    0.287991
    25  H    0.102129
    26  H    0.132538
    27  H    0.118743
    28  H    0.137133
    29  H    0.235289
    30  H    0.234783
 Sum of Mulliken charges =   0.00000
 Mulliken charges with hydrogens summed into heavy atoms:
               1
     1  O   -0.549749
     2  C    0.608462
     3  N   -0.222695
     4  C    0.128845
     5  C    0.578164
     6  O   -0.143737
     7  O   -0.462820
     8  C    0.036240
     9  C    0.295742
    10  C    0.046078
    11  N   -0.448373
    12  C    0.359064
    13  N   -0.258486
    14  C   -0.042462
    15  C    0.197765
    16  N   -0.122039
 APT charges:
               1
     1  O   -0.355785
     2  C    0.176683
     3  N   -0.589616
     4  C   -0.375636
     5  C   -0.285031
     6  O   -0.903241
     7  O    0.151623
     8  C   -0.983888
     9  C   -0.374847
    10  C   -0.305114
    11  N    0.253570
    12  C   -0.462830
    13  N   -0.565287
    14  C   -0.668895
    15  C   -0.562520
    16  N   -1.119604
    17  H    0.551908
    18  H    0.331515
    19  H    1.155616
    20  H    0.585061
    21  H    0.405292
    22  H    0.710003
    23  H    0.570597
    24  H    0.163043
    25  H    0.262295
    26  H    0.507058
    27  H    0.217004
    28  H    0.386036
    29  H    0.468911
    30  H    0.656078
 Sum of APT charges =   0.00000
 APT charges with hydrogens summed into heavy atoms:
               1
     1  O   -0.355785
     2  C    0.176683
     3  N   -0.037708
     4  C   -0.044120
     5  C   -0.285031
     6  O    0.252375
     7  O    0.151623
     8  C    0.006465
     9  C   -0.374847
    10  C    0.404889
    11  N    0.253570
    12  C    0.107766
    13  N   -0.402245
    14  C    0.100458
    15  C    0.040520
    16  N    0.005385
 Electronic spatial extent (au):  <R**2>=           4425.1895
 Charge=              0.0000 electrons
 Dipole moment (field-independent basis, Debye):
    X=              1.8387    Y=              4.1900    Z=             -3.6390  Tot=              5.8463
 Quadrupole moment (field-independent basis, Debye-Ang):
   XX=            -97.1353   YY=            -96.3324   ZZ=            -96.1411
   XY=             -2.8138   XZ=             11.2174   YZ=              3.4323
 Traceless Quadrupole moment (field-independent basis, Debye-Ang):
   XX=             -0.5990   YY=              0.2038   ZZ=              0.3952
   XY=             -2.8138   XZ=             11.2174   YZ=              3.4323
 Octapole moment (field-independent basis, Debye-Ang**2):
  XXX=            116.5024  YYY=            -10.7152  ZZZ=            -43.6850  XYY=             20.3190
  XXY=             73.8570  XXZ=            -49.9845  XZZ=             30.6754  YZZ=             46.0350
  YYZ=              3.8133  XYZ=              9.2718
 Hexadecapole moment (field-independent basis, Debye-Ang**3):
 XXXX=          -3081.5495 YYYY=          -1142.9685 ZZZZ=          -1381.2812 XXXY=             39.3978
 XXXZ=           -119.3019 YYYX=             -4.8395 YYYZ=            475.0952 ZZZX=             62.0307
 ZZZY=            406.6700 XXYY=           -738.1207 XXZZ=           -840.4016 YYZZ=           -410.4598
 XXYZ=            262.7111 YYXZ=             30.8999 ZZXY=            -86.1188
 N-N= 1.124753230677D+03 E-N=-4.106141894996D+03  KE= 7.892283074234D+02
  Exact polarizability:   0.000   0.000   0.000   0.000   0.000   0.000
 Approx polarizability: 173.214 -10.044 196.248  -8.944 -11.005 167.767
 Calling FoFJK, ICntrl=    100147 FMM=F ISym2X=0 I1Cent= 0 IOpClX= 0 NMat=1 NMatS=1 NMatT=0.
 -------------------------------------------------------------------
 Center     Atomic                   Forces (Hartrees/Bohr)
 Number     Number              X              Y              Z
 -------------------------------------------------------------------
      1        8           0.000228054   -0.006923788    0.001806252
      2        6           0.004271511   -0.000299657   -0.002523076
      3        7          -0.003087510    0.003458827   -0.000815915
      4        6          -0.001001580    0.002355700    0.002027521
      5        6          -0.006358544   -0.009064099   -0.005479687
      6        8           0.000644506   -0.004935434    0.003385798
      7        8           0.008683908    0.011573386    0.002814551
      8        6          -0.007760728   -0.005717324    0.004402099
      9        6           0.003806863    0.009430521   -0.009053457
     10        6          -0.006500924   -0.001773579    0.011460361
     11        7          -0.007133608    0.003175756    0.004053540
     12        6           0.002181697   -0.005387179    0.002337309
     13        7           0.006016083   -0.002699189   -0.007720925
     14        6          -0.002932794    0.001775292   -0.001189270
     15        6           0.005277654    0.000550904    0.003429803
     16        7          -0.001045639   -0.003830346    0.000281492
     17        1          -0.000096698    0.002088588    0.000733629
     18        1           0.001553216   -0.001946782   -0.001209512
     19        1          -0.001604103    0.005332789   -0.004817513
     20        1          -0.001408374    0.000183811   -0.002747612
     21        1           0.001446826    0.003355697    0.000691862
     22        1          -0.000276852    0.000996241   -0.000178621
     23        1           0.001415646   -0.003260649    0.001641435
     24        1           0.003473422   -0.000753680   -0.002457267
     25        1           0.001535729    0.001685514    0.001413326
     26        1           0.000365194    0.000823949   -0.001578410
     27        1          -0.003000035   -0.001128665    0.000741121
     28        1          -0.000607083   -0.002209169   -0.001299485
     29        1          -0.000118363    0.002473485    0.001728184
     30        1           0.002032528    0.000669079   -0.001877535
 -------------------------------------------------------------------
 Cartesian Forces:  Max     0.011573386 RMS     0.004012200
 FormGI is forming the generalized inverse of G from B-inverse, IUseBI=4.
 GSVD:  received Info=                   1 from GESDD.

 GradGradGradGradGradGradGradGradGradGradGradGradGradGradGradGradGradGrad
 Berny optimization.
 Internal  Forces:  Max     0.014469700 RMS     0.002886138
 Search for a local minimum.
 Step number   1 out of a maximum of  160
 All quantities printed in internal units (Hartrees-Bohrs-Radians)
 Mixed Optimization -- RFO/linear search
 Second derivative matrix not updated -- analytic derivatives used.
 ITU=  0
     Eigenvalues ---   -0.00010   0.00059   0.00242   0.00247   0.00335
     Eigenvalues ---    0.00517   0.00541   0.00860   0.00966   0.01558
     Eigenvalues ---    0.01942   0.02133   0.02189   0.02810   0.02978
     Eigenvalues ---    0.03595   0.03741   0.04176   0.04213   0.04410
     Eigenvalues ---    0.04490   0.04697   0.04897   0.05289   0.05431
     Eigenvalues ---    0.05867   0.06165   0.06300   0.07802   0.08461
     Eigenvalues ---    0.08611   0.10782   0.10937   0.11526   0.11790
     Eigenvalues ---    0.11998   0.12921   0.13667   0.14596   0.15345
     Eigenvalues ---    0.16197   0.17471   0.18280   0.18486   0.19029
     Eigenvalues ---    0.21091   0.21522   0.22600   0.23530   0.23668
     Eigenvalues ---    0.25090   0.25187   0.25933   0.28066   0.28904
     Eigenvalues ---    0.31081   0.33293   0.33695   0.33920   0.34056
     Eigenvalues ---    0.34435   0.34696   0.34804   0.35040   0.35498
     Eigenvalues ---    0.36550   0.37432   0.37914   0.38310   0.38508
     Eigenvalues ---    0.42992   0.43204   0.44305   0.45521   0.45788
     Eigenvalues ---    0.47286   0.47536   0.49156   0.49983   0.53743
     Eigenvalues ---    0.61136   0.67565   0.81775   0.93757
 RFO step:  Lambda=-3.77645347D-03 EMin=-9.70706700D-05
 Linear search not attempted -- first point.
 Iteration  1 RMS(Cart)=  0.08765305 RMS(Int)=  0.00357572
 Iteration  2 RMS(Cart)=  0.00539022 RMS(Int)=  0.00011571
 Iteration  3 RMS(Cart)=  0.00002191 RMS(Int)=  0.00011542
 Iteration  4 RMS(Cart)=  0.00000000 RMS(Int)=  0.00011542
 Variable       Old X    -DE/DX   Delta X   Delta X   Delta X     New X
                                 (Linear)    (Quad)   (Total)
    R1        2.32883   0.00571   0.00000   0.00689   0.00689   2.33572
    R2        2.55756   0.00883   0.00000   0.01105   0.01105   2.56861
    R3        2.86147   0.00223   0.00000   0.00481   0.00481   2.86628
    R4        2.73197   0.00270   0.00000   0.00639   0.00639   2.73836
    R5        1.90693   0.00209   0.00000   0.00452   0.00452   1.91145
    R6        2.85851   0.00478   0.00000   0.01527   0.01527   2.87379
    R7        2.90151   0.00532   0.00000   0.02438   0.02438   2.92589
    R8        2.05757   0.00241   0.00000   0.00854   0.00854   2.06611
    R9        2.54840   0.00158   0.00000  -0.00558  -0.00558   2.54282
   R10        2.27370   0.01447   0.00000   0.01627   0.01627   2.28997
   R11        1.82433   0.00720   0.00000   0.01330   0.01330   1.83763
   R12        2.83617   0.00011   0.00000  -0.00505  -0.00505   2.83112
   R13        2.06506   0.00280   0.00000   0.00779   0.00779   2.07285
   R14        2.06277   0.00309   0.00000   0.00866   0.00866   2.07144
   R15        2.57832   0.01277   0.00000   0.02381   0.02378   2.60209
   R16        2.59234   0.00996   0.00000   0.01901   0.01913   2.61146
   R17        2.60964   0.00051   0.00000  -0.00686  -0.00700   2.60264
   R18        2.04182   0.00077   0.00000   0.00235   0.00235   2.04418
   R19        2.47581   0.00940   0.00000   0.01471   0.01466   2.49047
   R20        2.56200   0.01024   0.00000   0.01781   0.01791   2.57991
   R21        2.03338   0.00382   0.00000   0.00915   0.00915   2.04253
   R22        1.91539   0.00431   0.00000   0.01143   0.01143   1.92681
   R23        2.88916   0.00521   0.00000   0.02280   0.02280   2.91195
   R24        2.06708   0.00194   0.00000   0.00502   0.00502   2.07211
   R25        2.07159   0.00160   0.00000   0.00417   0.00417   2.07576
   R26        2.76156   0.00069   0.00000  -0.00535  -0.00535   2.75622
   R27        2.06245   0.00264   0.00000   0.00810   0.00810   2.07055
   R28        2.05813   0.00249   0.00000   0.00681   0.00681   2.06493
   R29        1.91576   0.00301   0.00000   0.00673   0.00673   1.92250
   R30        1.91656   0.00283   0.00000   0.00609   0.00609   1.92265
    A1        2.12142   0.00308   0.00000   0.01000   0.00990   2.13132
    A2        2.14078  -0.00333   0.00000  -0.01535  -0.01545   2.12534
    A3        2.02094   0.00027   0.00000   0.00558   0.00548   2.02642
    A4        2.11622   0.00313   0.00000   0.01556   0.01551   2.13173
    A5        2.08379  -0.00038   0.00000  -0.00081  -0.00085   2.08294
    A6        2.02958  -0.00241   0.00000  -0.00932  -0.00938   2.02019
    A7        1.90546  -0.00289   0.00000  -0.02062  -0.02069   1.88478
    A8        1.98355  -0.00068   0.00000   0.00713   0.00723   1.99078
    A9        1.88359   0.00056   0.00000  -0.00701  -0.00706   1.87653
   A10        1.88388   0.00415   0.00000   0.01580   0.01582   1.89970
   A11        1.90111  -0.00018   0.00000   0.00282   0.00265   1.90376
   A12        1.90502  -0.00099   0.00000   0.00176   0.00172   1.90674
   A13        1.94285   0.00169   0.00000   0.00965   0.00965   1.95249
   A14        2.19042  -0.00401   0.00000  -0.01905  -0.01905   2.17137
   A15        2.14929   0.00232   0.00000   0.00934   0.00934   2.15863
   A16        1.85090   0.00264   0.00000   0.01449   0.01449   1.86538
   A17        2.01653  -0.00510   0.00000  -0.00782  -0.00788   2.00865
   A18        1.87036   0.00109   0.00000  -0.00591  -0.00588   1.86448
   A19        1.91996  -0.00055   0.00000  -0.02363  -0.02373   1.89623
   A20        1.90971   0.00236   0.00000   0.02520   0.02517   1.93488
   A21        1.89153   0.00270   0.00000   0.00435   0.00403   1.89557
   A22        1.84853  -0.00013   0.00000   0.00967   0.00944   1.85797
   A23        2.27747   0.00101   0.00000  -0.00109  -0.00122   2.27625
   A24        2.17313  -0.00089   0.00000   0.00314   0.00301   2.17615
   A25        1.83182  -0.00012   0.00000  -0.00259  -0.00243   1.82939
   A26        1.93433   0.00057   0.00000   0.00388   0.00384   1.93817
   A27        2.23675  -0.00098   0.00000  -0.01135  -0.01134   2.22541
   A28        2.11211   0.00041   0.00000   0.00747   0.00748   2.11959
   A29        1.82824   0.00161   0.00000   0.00256   0.00248   1.83072
   A30        1.95405   0.00033   0.00000   0.00194   0.00209   1.95614
   A31        2.20470  -0.00096   0.00000  -0.00708  -0.00716   2.19753
   A32        2.12444   0.00063   0.00000   0.00513   0.00504   2.12948
   A33        1.87629  -0.00238   0.00000  -0.00583  -0.00608   1.87021
   A34        2.19588   0.00120   0.00000  -0.00158  -0.00230   2.19358
   A35        2.20485   0.00115   0.00000   0.00092   0.00018   2.20503
   A36        1.97253  -0.00254   0.00000  -0.02100  -0.02098   1.95155
   A37        1.90593   0.00229   0.00000   0.02313   0.02307   1.92900
   A38        1.87852  -0.00014   0.00000  -0.00174  -0.00174   1.87677
   A39        1.93534  -0.00049   0.00000  -0.00705  -0.00695   1.92839
   A40        1.89926   0.00162   0.00000   0.00969   0.00966   1.90892
   A41        1.86850  -0.00065   0.00000  -0.00208  -0.00210   1.86640
   A42        1.99920   0.00227   0.00000   0.01534   0.01535   2.01455
   A43        1.92010  -0.00174   0.00000  -0.01770  -0.01785   1.90225
   A44        1.89875  -0.00064   0.00000  -0.00785  -0.00799   1.89076
   A45        1.87581   0.00058   0.00000   0.01338   0.01347   1.88928
   A46        1.89866  -0.00047   0.00000   0.00479   0.00482   1.90347
   A47        1.86679  -0.00013   0.00000  -0.00924  -0.00945   1.85734
   A48        1.92590  -0.00006   0.00000   0.00148   0.00148   1.92739
   A49        1.92274   0.00049   0.00000   0.00185   0.00185   1.92460
   A50        1.86005  -0.00017   0.00000  -0.00164  -0.00164   1.85841
    D1       -0.15769  -0.00197   0.00000  -0.02376  -0.02385  -0.18154
    D2       -2.94064  -0.00255   0.00000  -0.03933  -0.03948  -2.98013
    D3        2.97419  -0.00024   0.00000   0.00140   0.00155   2.97575
    D4        0.19124  -0.00082   0.00000  -0.01417  -0.01408   0.17716
    D5       -0.58554   0.00033   0.00000  -0.06649  -0.06667  -0.65221
    D6       -2.74848   0.00105   0.00000  -0.05980  -0.05980  -2.80828
    D7        1.51209   0.00070   0.00000  -0.06848  -0.06856   1.44353
    D8        2.56588  -0.00146   0.00000  -0.09212  -0.09213   2.47375
    D9        0.40293  -0.00074   0.00000  -0.08543  -0.08526   0.31768
   D10       -1.61968  -0.00109   0.00000  -0.09411  -0.09402  -1.71370
   D11       -2.19703  -0.00017   0.00000  -0.04417  -0.04423  -2.24126
   D12        1.98219  -0.00296   0.00000  -0.05435  -0.05433   1.92786
   D13       -0.13312  -0.00167   0.00000  -0.05621  -0.05613  -0.18925
   D14        0.59648   0.00074   0.00000  -0.02759  -0.02768   0.56881
   D15       -1.50748  -0.00205   0.00000  -0.03777  -0.03778  -1.54526
   D16        2.66040  -0.00076   0.00000  -0.03963  -0.03958   2.62082
   D17        2.86584  -0.00020   0.00000   0.01710   0.01714   2.88299
   D18       -0.31291  -0.00022   0.00000   0.01550   0.01555  -0.29737
   D19       -1.25340  -0.00019   0.00000   0.02306   0.02299  -1.23041
   D20        1.85103  -0.00021   0.00000   0.02145   0.02139   1.87242
   D21        0.81293   0.00087   0.00000   0.03565   0.03567   0.84860
   D22       -2.36582   0.00085   0.00000   0.03404   0.03407  -2.33176
   D23       -1.02269   0.00002   0.00000   0.02827   0.02821  -0.99448
   D24        3.12731  -0.00046   0.00000   0.00537   0.00541   3.13272
   D25        1.12545  -0.00062   0.00000   0.00917   0.00924   1.13469
   D26       -3.13876   0.00118   0.00000   0.03862   0.03852  -3.10024
   D27        1.01124   0.00069   0.00000   0.01572   0.01573   1.02696
   D28       -0.99062   0.00054   0.00000   0.01952   0.01956  -0.97106
   D29        1.08059  -0.00041   0.00000   0.02529   0.02521   1.10580
   D30       -1.05259  -0.00090   0.00000   0.00239   0.00241  -1.05018
   D31       -3.05445  -0.00105   0.00000   0.00619   0.00624  -3.04821
   D32        3.11217  -0.00057   0.00000  -0.01843  -0.01844   3.09372
   D33        0.00671  -0.00039   0.00000  -0.01616  -0.01615  -0.00944
   D34        2.85446  -0.00096   0.00000  -0.05289  -0.05291   2.80155
   D35       -0.33563  -0.00103   0.00000  -0.07001  -0.07004  -0.40567
   D36       -1.31667  -0.00128   0.00000  -0.04670  -0.04678  -1.36345
   D37        1.77642  -0.00135   0.00000  -0.06382  -0.06392   1.71251
   D38        0.69137   0.00129   0.00000  -0.01947  -0.01935   0.67202
   D39       -2.49872   0.00122   0.00000  -0.03659  -0.03649  -2.53520
   D40        3.10774  -0.00038   0.00000  -0.01603  -0.01602   3.09172
   D41       -0.03206  -0.00011   0.00000  -0.01110  -0.01110  -0.04316
   D42        0.00751  -0.00029   0.00000  -0.00155  -0.00157   0.00594
   D43       -3.13229  -0.00003   0.00000   0.00338   0.00335  -3.12894
   D44       -3.11273   0.00009   0.00000   0.00931   0.00936  -3.10337
   D45        0.14204   0.00028   0.00000   0.06865   0.06858   0.21062
   D46       -0.00931   0.00007   0.00000  -0.00417  -0.00414  -0.01345
   D47       -3.03773   0.00026   0.00000   0.05517   0.05508  -2.98265
   D48       -0.00267   0.00043   0.00000   0.00682   0.00684   0.00417
   D49        3.13728   0.00018   0.00000   0.00227   0.00224   3.13952
   D50       -0.00351  -0.00039   0.00000  -0.00964  -0.00967  -0.01318
   D51        3.13674  -0.00035   0.00000  -0.01614  -0.01615   3.12059
   D52        0.00831   0.00021   0.00000   0.00902   0.00898   0.01729
   D53        3.03598   0.00003   0.00000  -0.05092  -0.05095   2.98503
   D54       -3.13201   0.00017   0.00000   0.01519   0.01518  -3.11683
   D55       -0.10434  -0.00001   0.00000  -0.04475  -0.04475  -0.14909
   D56        3.05691  -0.00061   0.00000   0.00567   0.00565   3.06256
   D57       -1.11131   0.00043   0.00000   0.02055   0.02040  -1.09092
   D58        0.92831  -0.00109   0.00000  -0.00516  -0.00513   0.92318
   D59       -1.07957   0.00016   0.00000   0.01529   0.01536  -1.06421
   D60        1.03539   0.00120   0.00000   0.03017   0.03010   1.06550
   D61        3.07502  -0.00031   0.00000   0.00446   0.00458   3.07960
   D62        0.97119   0.00007   0.00000   0.01453   0.01457   0.98576
   D63        3.08615   0.00111   0.00000   0.02941   0.02931   3.11546
   D64       -1.15741  -0.00041   0.00000   0.00370   0.00379  -1.15362
   D65        1.03793  -0.00028   0.00000  -0.01309  -0.01306   1.02488
   D66       -1.01116  -0.00033   0.00000  -0.01310  -0.01307  -1.02423
   D67       -1.10121   0.00001   0.00000  -0.01049  -0.01055  -1.11176
   D68        3.13288  -0.00003   0.00000  -0.01050  -0.01057   3.12232
   D69       -3.11660   0.00010   0.00000  -0.00914  -0.00911  -3.12571
   D70        1.11749   0.00005   0.00000  -0.00915  -0.00912   1.10837
         Item               Value     Threshold  Converged?
 Maximum Force            0.014470     0.000450     NO 
 RMS     Force            0.002886     0.000300     NO 
 Maximum Displacement     0.320199     0.001800     NO 
 RMS     Displacement     0.089243     0.001200     NO 
 Predicted change in Energy=-2.082235D-03
 GradGradGradGradGradGradGradGradGradGradGradGradGradGradGradGradGradGrad

                          Input orientation:                          
 ---------------------------------------------------------------------
 Center     Atomic      Atomic             Coordinates (Angstroms)
 Number     Number       Type             X           Y           Z
 ---------------------------------------------------------------------
      1          8           0        0.916656   -1.269427   -0.835148
      2          6           0        1.147156   -0.109940   -0.474345
      3          7           0        0.227800    0.883000   -0.602459
      4          6           0       -0.992790    0.709866   -1.364044
      5          6           0       -1.101773    1.866055   -2.345882
      6          8           0       -2.018690    1.627481   -3.301388
      7          8           0       -0.473378    2.898658   -2.260346
      8          6           0       -2.275973    0.665945   -0.498715
      9          6           0       -2.292195   -0.393930    0.560012
     10          6           0       -3.056316   -0.505416    1.700069
     11          7           0       -2.786836   -1.682127    2.363069
     12          6           0       -1.863557   -2.277355    1.634973
     13          7           0       -1.536384   -1.550374    0.526681
     14          6           0        2.468996    0.281899    0.157948
     15          6           0        3.009956   -0.823232    1.085603
     16          7           0        4.328835   -0.572314    1.655601
     17          1           0        0.504091    1.840032   -0.426752
     18          1           0       -0.902385   -0.225797   -1.922391
     19          1           0       -2.060032    2.423698   -3.858124
     20          1           0       -3.119935    0.542103   -1.188347
     21          1           0       -2.408281    1.642289   -0.018290
     22          1           0       -3.789086    0.197441    2.073145
     23          1           0       -1.392189   -3.223861    1.859027
     24          1           0       -0.765789   -1.738991   -0.113823
     25          1           0        2.368353    1.226910    0.704904
     26          1           0        3.185697    0.457841   -0.655662
     27          1           0        2.303430   -0.974879    1.909230
     28          1           0        3.036111   -1.760573    0.524592
     29          1           0        4.324051    0.289651    2.195952
     30          1           0        5.014535   -0.444781    0.914858
 ---------------------------------------------------------------------
                    Distance matrix (angstroms):
                    1          2          3          4          5
     1  O    0.000000
     2  C    1.236010   0.000000
     3  N    2.271918   1.359249   0.000000
     4  C    2.800592   2.458254   1.449077   0.000000
     5  C    4.023384   3.530565   2.402849   1.520742   0.000000
     6  O    4.805276   4.586217   3.589594   2.376509   1.345602
     7  O    4.619125   3.855851   2.702428   2.421560   1.211802
     8  C    3.748564   3.510043   2.515304   1.548316   2.496204
     9  C    3.606895   3.602733   3.054875   2.570760   3.868960
    10  C    4.774468   4.749069   4.244378   3.888938   5.080731
    11  N    4.910679   5.098921   4.945934   4.778243   6.132149
    12  C    3.853181   4.267471   4.400876   4.321553   5.796150
    13  N    2.819736   3.205977   3.210702   2.996500   4.484695
    14  C    2.408861   1.516771   2.441824   3.805729   4.639947
    15  C    2.875808   2.532241   3.674394   4.936915   5.992801
    16  N    4.281677   3.856623   4.902577   6.251554   7.172797
    17  H    3.163184   2.053823   1.011494   2.096770   2.502506
    18  H    2.362239   2.512147   2.061303   1.093339   2.143582
    19  H    5.624787   5.306160   4.266999   3.208842   1.875127
    20  H    4.438520   4.375275   3.415670   2.140972   2.676885
    21  H    4.494503   3.989916   2.804763   2.164274   2.678567
    22  H    5.723101   5.563334   4.874856   4.460507   5.434494
    23  H    4.050821   4.646440   5.054659   5.101167   6.608543
    24  H    1.889821   2.538335   2.846194   2.758892   4.253391
    25  H    3.272748   2.160814   2.531687   3.980597   4.664501
    26  H    2.857309   2.123887   2.988770   4.245594   4.818953
    27  H    3.088933   2.786848   3.750805   4.941432   6.145917
    28  H    2.565581   2.700114   4.018126   5.089406   6.205976
    29  H    4.819609   4.169271   4.996243   6.412406   7.249336
    30  H    4.531575   4.122938   5.194043   6.527982   7.306272
                    6          7          8          9         10
     6  O    0.000000
     7  O    2.255581   0.000000
     8  C    2.974176   3.367149   0.000000
     9  C    4.367072   4.701451   1.498166   0.000000
    10  C    5.535386   5.826163   2.610685   1.376968   0.000000
    11  N    6.605273   6.907361   3.736874   2.270493   1.377257
    12  C    6.295988   6.625496   3.658650   2.210556   2.136978
    13  N    4.998549   5.356433   2.551568   1.381928   2.186086
    14  C    5.823824   4.620945   4.805562   4.825696   5.790257
    15  C    7.109076   6.097659   5.715658   5.345404   6.105589
    16  N    8.348767   7.102361   7.056759   6.713433   7.385587
    17  H    3.830553   2.331995   3.018677   3.712614   4.764556
    18  H    2.565620   3.171825   2.169977   2.849941   4.223722
    19  H    0.972433   2.301293   3.797625   5.245269   6.361274
    20  H    2.618345   3.702269   1.096906   2.148969   3.073157
    21  H    3.306166   3.217006   1.096157   2.119928   2.825835
    22  H    5.836516   6.088484   3.020508   2.209067   1.081733
    23  H    7.110408   7.436308   4.633639   3.241290   3.191320
    24  H    4.802445   5.118677   2.865749   2.143166   3.171502
    25  H    5.954576   4.434284   4.830439   4.936479   5.780859
    26  H    5.954290   4.682032   5.467886   5.675445   6.740924
    27  H    7.252830   6.332480   5.427838   4.824693   5.384331
    28  H    7.188049   6.463809   5.929029   5.500892   6.330468
    29  H    8.499465   7.048463   7.138848   6.849694   7.439613
    30  H    8.457969   7.167823   7.508888   7.315518   8.109184
                   11         12         13         14         15
    11  N    0.000000
    12  C    1.317902   0.000000
    13  N    2.225604   1.365231   0.000000
    14  C    6.028576   5.244273   4.419984   0.000000
    15  C    5.997701   5.115408   4.637923   1.540940   0.000000
    16  N    7.236364   6.422873   6.052425   2.536069   1.458527
    17  H    5.569462   5.177773   4.070310   2.574977   3.957215
    18  H    4.902777   4.217532   2.855593   3.993968   4.971053
    19  H    7.489278   7.232746   5.940872   6.420921   7.790235
    20  H    4.203655   4.183176   3.134871   5.754682   6.679113
    21  H    4.106813   4.288777   3.354145   5.066513   6.054310
    22  H    2.149729   3.166113   3.243621   6.545129   6.945789
    23  H    2.139169   1.080862   2.143944   5.485688   5.073468
    24  H    3.197321   2.133826   1.019626   3.823832   4.066138
    25  H    6.147193   5.572608   4.795001   1.096511   2.181667
    26  H    7.025906   6.182497   5.265824   1.098443   2.168879
    27  H    5.159165   4.374407   4.121505   2.161919   1.095690
    28  H    6.106789   5.050421   4.577324   2.151218   1.092714
    29  H    7.381095   6.722404   6.365285   2.755858   2.048959
    30  H    8.030550   7.154372   6.654889   2.753315   2.047124
                   16         17         18         19         20
    16  N    0.000000
    17  H    4.978381   0.000000
    18  H    6.347265   2.912518   0.000000
    19  H    8.955159   4.323159   3.479516   0.000000
    20  H    8.050723   3.924056   2.458865   3.433876   0.000000
    21  H    7.286639   2.947517   3.063180   3.933981   1.756672
    22  H    8.165017   5.232491   4.947371   6.567024   3.347221
    23  H    6.308898   5.870577   4.850507   8.063916   5.143353
    24  H    5.517897   3.810502   2.362062   5.746550   3.449638
    25  H    2.825690   2.265399   4.439681   6.470248   5.845910
    26  H    2.776675   3.025535   4.334095   6.452753   6.328653
    27  H    2.080541   4.076537   5.051702   7.990776   6.427216
    28  H    2.088606   4.503392   4.884160   7.917512   6.792156
    29  H    1.017343   4.886139   6.673985   9.053315   8.181085
    30  H    1.017423   5.231098   6.565659   9.003278   8.459729
                   21         22         23         24         25
    21  H    0.000000
    22  H    2.892803   0.000000
    23  H    5.313772   4.182854   0.000000
    24  H    3.760314   4.203918   2.547420   0.000000
    25  H    4.848895   6.391083   5.939952   4.392007   0.000000
    26  H    5.753412   7.494117   6.390276   4.553449   1.763706
    27  H    5.724083   6.206445   4.326434   3.754559   2.510477
    28  H    6.443260   7.267403   4.850955   3.855189   3.066508
    29  H    7.215040   8.114591   6.718161   5.946168   2.631813
    30  H    7.766906   8.902686   7.047045   6.012096   3.137023
                   26         27         28         29         30
    26  H    0.000000
    27  H    3.067532   0.000000
    28  H    2.517287   1.752529   0.000000
    29  H    3.075035   2.400866   2.942049   0.000000
    30  H    2.574083   2.935961   2.407857   1.630141   0.000000
 Symmetry turned off by external request.
 Stoichiometry    C9H14N4O3
 Framework group  C1[X(C9H14N4O3)]
 Deg. of freedom    84
 Full point group                 C1      NOp   1
 Rotational constants (GHZ):      0.5026485      0.4094207      0.2490804
 Standard basis: 6-31G(d,p) (6D, 7F)
   310 basis functions,   546 primitive gaussians,   310 cartesian basis functions
    60 alpha electrons       60 beta electrons
       nuclear repulsion energy      1123.3893840372 Hartrees.
 NAtoms=   30 NActive=   30 NUniq=   30 SFac= 1.00D+00 NAtFMM=   60 NAOKFM=F Big=F
 Integral buffers will be    131072 words long.
 Raffenetti 2 integral format.
 Two-electron integral symmetry is turned off.
 Nuclear repulsion after empirical dispersion term =     1123.3353271892 Hartrees.
 One-electron integrals computed using PRISM.
 NBasis=   310 RedAO= T EigKep=  1.15D-03  NBF=   310
 NBsUse=   310 1.00D-06 EigRej= -1.00D+00 NBFU=   310
 Initial guess from the checkpoint file:  "conf-640.chk"
[...]
 0378955,0.06995795,-0.07659426,-0.03943237,-0.00004459,-0.00018700,0.0
 0063250,-0.00010745,0.00056213,-0.00029902,0.00024099,-0.00028357,0.00
 036316,0.00001031,-0.00004524,-0.00028642,0.00006261,-0.00032891,0.000
 91446,0.00004077,0.00000095,0.00003202,-0.00017147,0.00015243,0.000001
 34,-0.00021914,0.00006705,0.00003293,0.00064874,0.00068650,-0.00119354
 ,-0.00011935,-0.00064864,-0.00041879,-0.07107287,0.07619898,-0.0026829
 8,-0.00752216,-0.00356110,-0.00172000,0.00956025,0.00333369,0.00246178
 ,-0.00343431,-0.00076251,-0.00094150,0.00045008,0.00066691,-0.00004626
 ,0.00009292,-0.00066128,0.00028149,-0.00015687,0.00019695,0.00012525,-
 0.00019452,0.00031326,-0.00119423,-0.00097785,0.00072811,-0.00330247,-
 0.00528138,0.00362574,-0.00053239,0.00220395,0.00356433,0.00059616,0.0
 0602578,-0.00228766,0.01165955,-0.01221652,-0.01324510,0.18183150,-0.0
 4418668,-0.25427436,-0.00009825,-0.00082412,-0.00120864,-0.00048922,-0
 .00067453,0.00082044,-0.00000448,0.00034830,-0.00059635,0.00003756,-0.
 00006587,0.00035715,-0.00015279,0.00120861,-0.00098303,-0.00004358,0.0
 0002331,0.00002724,-0.00003906,0.00046461,-0.00048336,0.00009922,0.000
 13702,-0.00026018,0.00067917,0.00043123,0.00095723,-0.00110031,-0.0001
 9100,0.00006188,-0.18532622,0.05504892,0.26396298,-0.00636961,-0.00266
 443,-0.00494632,0.00319807,-0.02898679,-0.00393675,-0.00008803,0.00092
 353,0.00051065,0.00034197,0.00021368,0.00029781,-0.00005021,-0.0001484
 8,-0.00003595,0.00007000,0.00002684,0.00006781,0.00007181,0.00011605,0
 .00004425,0.00004825,-0.00001246,0.00001499,0.00010143,-0.00013215,-0.
 00002858,-0.00001026,0.00001526,0.00007016,-0.00004618,0.00006867,0.00
 010834,-0.00001029,0.00008790,-0.00018532,-0.00015388,-0.00004482,0.00
 022786,-0.05399631,-0.01343106,-0.00304448,-0.00030362,0.00202931,0.00
 012991,0.00034592,0.00036859,0.00093241,-0.00160930,0.00053416,-0.0011
 4234,0.00032808,-0.00025205,0.00010411,-0.00000800,-0.00000219,-0.0000
 0558,0.00001650,0.00000517,-0.00001252,-0.00002205,0.00001452,0.000001
 01,-0.00001390,0.00000196,0.00000970,-0.00000143,-0.00000105,-0.000002
 64,0.00035755,0.00011917,-0.00035999,0.05415807,-0.00217825,0.00154473
 ,-0.00080689,0.00436273,-0.00740241,0.00040013,0.00088536,0.00090012,0
 .00110265,-0.00052682,0.00057731,-0.00019281,-0.00019238,-0.00027518,0
 .00000348,0.00005811,0.00006949,0.00002719,0.00012941,0.00017686,0.000
 01059,0.00001959,-0.00002193,-0.00001692,0.00008883,-0.00009486,-0.000
 01565,0.00000954,0.00001497,0.00004623,-0.00006401,0.00006033,0.000067
 98,0.00000526,0.00003478,-0.00015529,-0.00014148,-0.00004105,0.0001476
 4,-0.01779212,-0.28685135,-0.06777750,-0.00222056,-0.01948643,-0.00542
 935,0.00001789,0.00259071,-0.00057056,-0.00032269,0.00108205,-0.000226
 20,0.00017866,0.00009489,0.00016427,-0.00001242,-0.00000611,-0.0000113
 3,-0.00000402,0.00000339,-0.00001563,-0.00002770,0.00001994,0.00000191
 ,-0.00001984,0.00000856,0.00000803,0.00002509,0.00003654,-0.00000787,0
 .00026016,0.00004984,-0.00012307,0.01748337,0.31298739,-0.00608348,-0.
 00171325,-0.00056613,0.00476457,-0.01656459,-0.00552223,0.00023423,0.0
 0091073,0.00022710,0.00018229,0.00026081,-0.00002075,-0.00016629,-0.00
 030665,0.00001787,0.00006566,0.00008177,0.00003831,0.00016757,0.000190
 44,-0.00002986,0.00005022,0.00002478,0.00002503,0.00007210,-0.00014028
 ,-0.00001623,-0.00002142,-0.00001678,0.00004971,-0.00004433,0.00005348
 ,0.00010893,-0.00002432,0.00012164,-0.00014768,-0.00018881,-0.00003679
 ,0.00023976,-0.00524365,-0.06453298,-0.06483055,0.00162256,0.02865808,
 0.00666637,0.00181786,-0.00098889,0.00240946,-0.00123882,0.00033519,0.
 00027858,0.00018126,-0.00009727,0.00008866,-0.00001890,-0.00000140,-0.
 00000545,0.00000751,-0.00000574,-0.00001462,-0.00000986,0.00000343,0.0
 0001244,0.00000148,0.00000036,0.00000956,-0.00001811,-0.00002628,0.000
 00089,0.00037265,0.00014776,-0.00041496,0.00736644,0.06985965,0.069837
 59,0.00366960,0.00014381,-0.00245770,-0.02297744,0.00908790,0.02011823
 ,-0.00369143,-0.00155851,-0.00313651,0.00045384,0.00124653,-0.00071258
 ,-0.00034198,-0.00063823,0.00012821,-0.00014754,0.00025604,-0.00028217
 ,0.00005685,0.00020885,-0.00013967,0.00013070,0.00003797,-0.00000170,-
 0.00002690,0.00001359,-0.00001122,0.00001409,-0.00001555,-0.00005980,0
 .00001711,-0.00005998,0.00003340,0.00001386,0.00000193,0.00000662,0.00
 001732,0.00003652,-0.00008142,-0.19952459,0.04405866,0.12194676,0.0008
 0609,-0.00090644,-0.00124653,0.00207165,-0.00043509,-0.00061240,-0.000
 18232,-0.00041657,0.00043432,-0.00008404,0.00001573,-0.00004060,-0.000
 03554,0.00000469,-0.00001515,-0.00003435,-0.00001567,0.00002448,-0.000
 00914,-0.00000292,0.00002066,0.00000141,0.00000178,-0.00000292,0.00000
 057,-0.00000312,0.00000525,-0.00008753,0.00002877,0.00016872,0.0029818
 6,-0.00075437,-0.00255198,0.21572369,-0.00027423,-0.00036244,-0.001063
 20,-0.00206750,0.00004474,0.00462825,0.00026440,0.00024490,0.00038601,
 -0.00008875,0.00030181,0.00022052,-0.00000527,0.00004460,-0.00006806,0
 .00001063,-0.00000834,0.00002686,-0.00002010,-0.00001360,0.00007204,0.
 00000124,-0.00003935,-0.00001342,0.00003590,-0.00003959,0.00000470,0.0
 0001114,-0.00000098,0.00002058,-0.00001833,0.00000839,0.00001351,-0.00
 002947,0.00005265,-0.00006213,-0.00006700,-0.00005025,0.00004687,0.044
 55530,-0.06181949,-0.04141839,-0.01584264,0.00324825,0.01545450,-0.001
 11111,0.00031758,-0.00208573,-0.00029908,0.00042617,-0.00067832,0.0001
 5986,-0.00001893,0.00007453,0.00000736,-0.00000439,-0.00000910,0.00000
 164,0.00000958,-0.00000724,-0.00001310,0.00001042,-0.00000831,-0.00000
 880,0.00000135,0.00000402,0.00000495,0.00001132,0.00000660,0.00012944,
 0.00007279,0.00000379,0.02406244,-0.00608646,-0.01801137,-0.05033918,0
 .06399582,0.00121227,0.00105084,-0.00066119,-0.01520143,0.00320205,0.0
 1168523,-0.00182039,-0.00020567,-0.00187350,0.00001544,0.00082962,-0.0
 0080677,-0.00028012,-0.00029408,-0.00001436,-0.00004529,0.00012989,-0.
 00010969,0.00005821,0.00008299,-0.00002481,0.00013626,0.00003198,0.000
 03372,-0.00001716,-0.00001639,-0.00002681,-0.00000817,0.00001111,0.000
 00247,0.00003181,0.00001397,0.00006412,0.00002137,-0.00003274,-0.00001
 913,0.00002263,0.00003624,0.00000652,0.12260679,-0.04149128,-0.1409243
 4,0.02224667,-0.00441985,-0.02026258,0.00055621,-0.00112888,0.00352568
 ,-0.00029022,-0.00003271,0.00017063,0.00002849,-0.00000009,0.00000971,
 -0.00002247,0.00000745,-0.00002949,0.00000867,-0.00000777,0.00001113,-
 0.00001226,-0.00000082,0.00000745,-0.00000508,-0.00000384,-0.00000158,
 -0.00001561,-0.00002631,-0.00000486,0.00001692,0.00001870,-0.00000252,
 0.00536438,-0.00124323,-0.00476369,-0.13160478,0.03949052,0.15691988,0
 .00018553,0.00018592,0.00022931,0.00012771,-0.00031060,-0.00023275,0.0
 0050627,-0.00018121,0.00013708,-0.00007325,-0.00004924,-0.00001874,0.0
 0000692,0.00004646,-0.00000939,0.00001647,-0.00002071,0.00001663,0.000
 01048,-0.00002294,0.00000455,0.00000434,-0.00000924,0.00004854,-0.0000
 6970,0.00000351,-0.00004857,-0.00001079,0.00005688,0.00001296,-0.00000
 092,0.00004944,-0.00002165,0.00007250,-0.00012702,0.00001986,-0.000062
 84,-0.00003614,-0.00007952,0.00290458,-0.00058594,-0.00011500,-0.19695
 488,0.04003306,0.11865010,-0.03017868,0.00939642,0.01262920,0.00001564
 ,0.00001771,0.00009131,0.00000171,-0.00000300,0.00000416,-0.00000062,0
 .00000130,0.00000452,0.00001564,0.00000303,-0.00001626,0.00000921,-0.0
 0000203,-0.00000280,0.00001259,-0.00000008,0.00000283,0.00000491,0.000
 03691,0.00000789,-0.00002754,0.00000592,0.00010217,0.00002557,-0.00017
 141,0.00008071,0.00079701,0.00057147,-0.00116278,0.22336336,-0.0001614
 8,0.00027895,-0.00007356,-0.00149315,0.00037028,-0.00034503,0.00010173
 ,-0.00009232,-0.00046617,0.00009290,-0.00007346,0.00007970,0.00000010,
 0.00007741,-0.00000054,-0.00001479,-0.00001027,-0.00000221,-0.00001707
 ,-0.00005930,-0.00002291,0.00003573,0.00008604,-0.00008306,-0.00012381
 ,-0.00010572,-0.00002702,-0.00015382,-0.00007965,-0.00002102,0.0000511
 6,0.00022006,0.00014145,0.00028266,-0.00015232,0.00016083,0.00015032,0
 .00032002,-0.00012979,-0.01395755,0.00319135,0.01580794,0.04268378,-0.
 06472943,-0.03626641,-0.00355923,0.00217769,0.00187306,-0.00001803,-0.
 00006046,0.00018864,-0.00002527,0.00000158,-0.00002574,-0.00000194,0.0
 0000322,-0.00000368,-0.00001506,-0.00002686,0.00004810,0.00001427,-0.0
 0002619,0.00001281,0.00003663,-0.00002037,-0.00000082,-0.00010149,-0.0
 0015795,-0.00003937,0.00000955,-0.00001998,-0.00021482,-0.00049645,0.0
 0094833,-0.00090144,0.00017390,-0.00158625,0.00396200,-0.04606045,0.06
 317459,-0.00115579,-0.00058753,-0.00005908,0.00376880,0.00016878,0.000
 11264,-0.00114778,0.00028918,0.00056069,-0.00006142,0.00007202,-0.0000
 8032,0.00000617,0.00011392,-0.00004216,-0.00000686,-0.00002194,0.00002
 109,-0.00004984,-0.00007368,0.00003426,0.00000679,0.00004958,-0.000101
 67,-0.00016112,0.00020741,-0.00009155,-0.00003125,-0.00002973,0.000074
 05,0.00002051,0.00002637,-0.00002832,-0.00007116,-0.00023056,0.0002928
 4,0.00034113,0.00013033,-0.00000983,0.01772546,-0.00497447,-0.01913257
 ,0.12462262,-0.03650334,-0.14774221,-0.01911487,0.00609451,0.01212869,
 0.00017487,0.00007949,-0.00024311,0.00004296,-0.00000611,0.00001107,0.
 00000842,-0.00000315,-0.00001351,-0.00000019,-0.00001770,0.00004432,-0
 .00001288,-0.00000814,0.00001168,0.00000714,-0.00000992,-0.00000509,-0
 .00002778,-0.00005567,-0.00000485,0.00002850,-0.00006443,-0.00029239,-
 0.00035133,0.00011174,0.00128716,-0.00086736,0.00373020,-0.00365033,-0
 .12608829,0.03374287,0.16168352,-0.00067733,-0.00086018,-0.00005360,0.
 00022601,0.00208074,0.00066824,0.00016438,-0.00041715,-0.00041480,0.00
 003120,-0.00003207,-0.00004602,-0.00001872,0.00009694,-0.00006857,0.00
 001121,-0.00002161,0.00002866,-0.00001146,-0.00007068,0.00002146,0.000
 02575,0.00002616,0.00000425,-0.00004845,0.00005301,-0.00000906,-0.0000
 1557,-0.00008387,-0.00001034,0.00006022,0.00000544,-0.00005103,-0.0000
 2119,-0.00002076,0.00021407,0.00015120,0.00006873,-0.00010548,0.001000
 74,-0.00036260,0.00126593,-0.05256765,-0.01395177,-0.00080921,-0.00624
 361,-0.03040561,-0.01626346,0.00007578,-0.00002787,0.00011923,-0.00005
 170,0.00002727,-0.00002183,-0.00000152,0.00000112,-0.00000662,0.000009
 09,-0.00000756,0.00000982,0.00001174,-0.00001677,0.00000646,0.00001530
 ,-0.00001559,-0.00000511,-0.00006174,-0.00010921,0.00001366,-0.0002121
 3,0.00002782,-0.00015535,0.00049996,-0.00008609,-0.00077391,0.00023455
 ,-0.00049835,-0.00054051,0.00320961,0.02424714,0.00661183,0.05906353,-
 0.00031983,0.00298218,-0.00065749,-0.00169896,-0.00395517,-0.00173876,
 0.00018459,0.00054810,0.00032200,-0.00004138,0.00005762,-0.00012401,-0
 .00006736,-0.00011154,0.00000927,0.00004347,0.00002372,0.00003125,0.00
 007242,0.00009434,0.00000332,0.00001171,-0.00003396,0.00004915,0.00006
 227,-0.00006770,0.00000719,0.00000491,0.00005117,0.00002310,-0.0000543
 3,0.00002114,0.00002865,0.00001873,0.00000969,-0.00016575,-0.00012881,
 -0.00005451,0.00007034,0.00096387,-0.02056487,-0.00214491,-0.01892478,
 -0.29150077,-0.07341492,-0.00240079,0.00045657,-0.00252396,-0.00020938
 ,0.00016895,-0.00000712,0.00007687,-0.00000896,0.00004171,-0.00000580,
 -0.00000197,-0.00000223,0.00001241,0.00001179,-0.00002793,-0.00001086,
 0.00001376,-0.00000564,-0.00001530,0.00001046,0.00000541,0.00004133,0.
 00008394,-0.00000904,0.00018281,-0.00000297,0.00010222,0.00002571,-0.0
 0089193,0.00348096,-0.00027538,0.00110172,-0.00024548,0.00007122,-0.00
 487315,-0.00139038,0.02303716,0.31449607,0.00034920,-0.00166582,-0.000
 47120,0.00094459,0.00321349,0.00180849,-0.00024946,-0.00062212,-0.0001
 2568,-0.00003797,-0.00008492,0.00002656,0.00004939,0.00006046,-0.00001
 907,-0.00001899,-0.00001520,-0.00001738,-0.00004310,-0.00004369,0.0000
 1515,-0.00004694,-0.00004112,0.00000185,-0.00002121,0.00011190,0.00001
 293,0.00003232,0.00006230,-0.00004208,-0.00000946,-0.00003330,-0.00006
 325,-0.00002145,-0.00013146,0.00002102,-0.00000547,-0.00006540,-0.0000
 2571,0.00065271,0.02815516,0.00404451,-0.00323970,-0.07290973,-0.06907
 250,-0.00461244,-0.01848535,-0.00913462,0.00038579,-0.00012624,-0.0000
 2944,-0.00010022,0.00002950,-0.00003733,0.00000320,0.00000022,0.000004
 01,-0.00000733,0.00000844,-0.00001129,0.00000416,0.00000896,-0.0000111
 0,-0.00001165,0.00001221,-0.00000435,0.00007073,0.00010345,0.00001432,
 -0.00016479,-0.00004814,0.00020416,-0.00094524,0.00375696,-0.00447974,
 0.00039057,-0.00059605,0.00152162,-0.00173457,-0.01836255,-0.00496304,
 0.01203447,0.07748656,0.08042517,0.00004956,0.00073096,-0.00014307,-0.
 00016921,-0.00077155,0.00001492,-0.00008833,0.00017128,0.00014952,-0.0
 0000892,0.00001390,-0.00001983,-0.00002625,-0.00001611,-0.00002623,0.0
 0001780,0.00000409,0.00002178,0.00000958,0.00001624,0.00002284,0.00000
 410,-0.00000872,-0.00000915,0.00002673,-0.00003036,-0.00001688,0.00000
 688,0.00003721,0.00000977,0.00000265,0.00002410,0.00004782,0.00002810,
 -0.00002463,-0.00007938,-0.00005216,0.00000616,0.00005346,0.00075216,-
 0.00057079,0.00064884,-0.00361060,-0.03589076,-0.01143149,-0.06568119,
 -0.03272490,-0.01189189,-0.00001935,0.00002608,-0.00010917,0.00002001,
 0.00000022,0.00001150,-0.00000102,-0.00000070,-0.00000753,0.00000101,0
 .00000393,0.00000352,-0.00001003,0.00000840,-0.00000365,-0.00001785,0.
 00000302,-0.00000094,0.00001413,0.00002464,-0.00001046,0.00006283,-0.0
 0002156,0.00002934,0.00013261,0.00090614,-0.00042074,-0.00000885,0.000
 22511,0.00005783,0.00060126,-0.00009418,0.00071781,-0.00576430,-0.0002
 7508,-0.00383948,0.06985145,-0.00000342,0.00011625,-0.00000722,0.00039
 304,-0.00030822,0.00038548,-0.00018119,0.00013566,0.00000426,0.0000891
 9,0.00001534,0.00003761,0.00004565,-0.00002929,0.00006256,-0.00004604,
 0.00001604,-0.00004796,-0.00003366,0.00001916,-0.00003325,-0.00000085,
 0.00000243,-0.00002345,0.00001358,-0.00003284,-0.00001105,-0.00000091,
 0.00001733,-0.00000760,-0.00000979,0.00000764,0.00005641,0.00002501,-0
 .00000704,-0.00007238,-0.00006474,0.00000498,0.00006202,0.00112117,0.0
 0250598,0.00047615,0.00270937,-0.00552903,0.00609996,-0.03244246,-0.38
 062023,-0.14699152,0.00003890,-0.00003333,-0.00000706,-0.00000001,-0.0
 0000798,-0.00000087,0.00000783,-0.00000292,0.00000538,-0.00001295,-0.0
 0000389,0.00000702,-0.00000063,0.00000350,0.00000257,-0.00000552,0.000
 00551,-0.00000130,0.00001470,0.00001590,-0.00000858,0.00007865,0.00000
 619,-0.00000080,-0.00012528,0.00014934,-0.00083086,-0.00001448,-0.0000
 8290,-0.00005002,-0.00038310,0.00016094,0.00002941,-0.00202056,0.00191
 059,-0.00023114,0.03526688,0.39174937,0.00077417,0.00103671,0.00027523
 ,-0.00202059,-0.00052245,-0.00025849,0.00096618,-0.00025076,0.00004100
 ,-0.00025024,-0.00010198,-0.00022029,-0.00013937,0.00008811,-0.0002017
 2,0.00014656,-0.00005124,0.00015181,0.00011670,-0.00005475,0.00009584,
 0.00000651,-0.00002476,0.00013491,-0.00002247,0.00009015,0.00005244,0.
 00000244,-0.00000834,0.00001509,-0.00000004,-0.00000151,-0.00016759,-0
 .00002624,-0.00003413,0.00014703,0.00016463,-0.00002930,-0.00018766,0.
 00208231,-0.00241450,0.00170908,-0.00686705,-0.01954460,-0.01206779,-0
 .00566768,-0.09501748,-0.05174417,-0.00013489,0.00013639,0.00005854,-0
 .00001200,0.00004183,0.00000594,-0.00002519,0.00000867,-0.00001068,0.0
 0005484,0.00002201,-0.00004700,0.00000403,-0.00000472,-0.00001361,0.00
 001089,-0.00000653,0.00000324,-0.00000264,0.00000553,0.00000899,-0.000
 22483,-0.00009099,0.00014964,-0.00035957,0.00087557,-0.00037547,-0.000
 02029,0.00007933,-0.00037169,0.00064311,0.00091914,0.00073033,-0.00254
 315,0.00078909,-0.00006095,0.01535032,0.13703776,0.07241952,0.00034976
 ,0.00027102,0.00001050,-0.00030915,-0.00069341,0.00012497,0.00060453,-
 0.00004211,0.00008013,-0.00005984,-0.00009527,-0.00003716,-0.00002211,
 0.00002294,-0.00005422,0.00004585,-0.00001895,0.00004733,0.00003710,-0
 .00000694,0.00002723,-0.00000264,-0.00002791,0.00006692,0.00001942,0.0
 0000245,0.00003878,0.00001770,-0.00000641,-0.00000972,-0.00001987,-0.0
 0002266,-0.00006228,-0.00002042,0.00004824,0.00000238,-0.00001711,-0.0
 0005543,-0.00005629,0.00210721,0.00040778,0.00121328,-0.02881572,0.005
 87569,0.02279621,-0.27882622,0.06509571,0.15801985,-0.00004752,0.00002
 411,0.00004391,-0.00001130,0.00001162,0.00000176,-0.00000699,0.0000027
 8,0.00000037,0.00001802,0.00001292,-0.00002780,0.00000367,0.00000197,-
 0.00000729,-0.00000053,0.00000173,0.00000119,0.00001091,0.00002315,0.0
 0000539,-0.00006916,-0.00000797,0.00011718,0.00000539,0.00008405,-0.00
 018249,0.00016144,0.00064202,-0.00135766,-0.00451210,-0.00158610,-0.00
 493507,0.00090509,-0.00038145,0.00019232,0.00387721,-0.00445838,-0.002
 00646,0.30457739,-0.00035248,-0.00062637,-0.00028434,0.00084105,0.0007
 5866,0.00054073,-0.00055304,-0.00004034,-0.00015003,0.00014128,0.00011
 033,0.00010777,0.00010537,-0.00006764,0.00015841,-0.00011309,0.0000353
 4,-0.00012845,-0.00008206,0.00003216,-0.00007522,0.00000348,0.00000939
 ,-0.00005794,0.00001962,-0.00006203,-0.00000749,0.00001078,-0.00002039
 ,-0.00001625,-0.00001987,-0.00004976,0.00005512,-0.00002551,0.00010712
 ,-0.00008113,-0.00012953,-0.00003619,0.00007417,-0.00015468,-0.0002775
 9,-0.00185533,-0.00045022,0.00044582,0.00711397,0.03558504,-0.05302065
 ,-0.05362593,0.00006641,-0.00009570,-0.00000541,0.00000634,-0.00001809
 ,-0.00000028,0.00001683,-0.00000293,0.00001378,-0.00003384,-0.00000955
 ,0.00001709,0.00000070,0.00000043,0.00000948,0.00000310,0.00000351,0.0
 0000147,0.00000107,0.00000782,0.00000459,0.00013713,0.00010480,-0.0000
 3651,0.00020090,-0.00019191,0.00004548,0.00011883,0.00022089,0.0003317
 9,-0.00251614,0.00106323,-0.00086905,-0.00066326,0.00002568,0.00045262
 ,0.03296099,-0.01018451,-0.02297224,-0.06512518,0.06177849,0.00042110,
 0.00031954,0.00014320,-0.00086905,-0.00038952,-0.00046601,0.00051867,-
 0.00007285,0.00008093,-0.00012287,-0.00009885,-0.00004735,-0.00007735,
 0.00007136,-0.00012854,0.00009138,-0.00003526,0.00010223,0.00006183,-0
 .00003875,0.00006464,-0.00000600,-0.00001530,0.00004768,-0.00000315,0.
 00003420,0.00001481,0.00000219,0.00001483,0.00000514,0.00001925,0.0000
 1979,-0.00004675,0.00001184,-0.00003940,0.00004619,0.00006511,0.000002
 17,-0.00006105,-0.00140928,0.00002746,0.00256100,-0.02343557,0.0082351
 8,0.00705149,0.18968713,-0.08318862,-0.16596537,-0.00005177,0.00006634
 ,-0.00000126,-0.00000991,0.00001470,-0.00000005,-0.00001437,0.00000461
 ,-0.00001054,0.00002491,0.00000992,-0.00001479,-0.00000003,0.00000003,
 -0.00001013,-0.00000567,-0.00000318,-0.00000186,-0.00000174,-0.0000019
 2,0.,-0.00011369,-0.00005788,0.00006372,0.00010678,0.00000829,-0.00011
 006,0.00056751,-0.00024149,-0.00041084,-0.00315462,0.00004960,-0.00053
 230,0.00087999,0.00000740,0.00046895,0.01087061,0.00405845,-0.01027149
 ,-0.17405325,0.07123918,0.16742844\\-0.00000059,0.00000427,-0.00000092
 ,-0.00000108,-0.00000654,0.00000524,0.00000076,0.00000090,-0.00000480,
 -0.00000008,0.00000064,-0.00000316,0.00000096,-0.00000045,-0.00000036,
 0.00000100,0.00000061,-0.00000092,0.00000121,-0.00000058,-0.00000097,-
 0.00000137,0.00000018,-0.00000008,0.00000045,0.00000041,-0.00000128,-0
 .00000026,0.00000082,-0.00000077,0.00000044,0.00000082,-0.00000090,-0.
 00000019,0.00000036,0.00000048,-0.00000010,0.00000082,-0.00000107,-0.0
 0000229,-0.00000046,0.00000739,0.00000243,-0.00000114,-0.00000389,-0.0
 0000031,0.00000018,0.00000166,-0.00000053,0.00000004,0.00000126,0.0000
 0043,-0.00000040,0.00000011,0.00000147,-0.00000049,-0.00000087,0.00000
 104,0.00000029,0.00000077,0.00000091,0.00000120,-0.00000076,-0.0000006
 3,0.00000103,-0.00000089,-0.00000127,0.00000074,0.00000044,-0.00000325
 ,-0.00000057,0.00000249,0.00000143,-0.00000143,-0.00000154,0.00000233,
 -0.00000146,-0.00000004,-0.00000088,0.00000018,0.00000022,-0.00000145,
 0.00000117,0.00000147,0.00000006,-0.00000034,0.00000044,-0.00000066,-0
 .00000080,0.00000124\\\@


 At the touch of love, everyone becomves a poet.
                                -- Plato
 Job cpu time:       0 days  1 hours 22 minutes 25.9 seconds.
 File lengths (MBytes):  RWF=    320 Int=      0 D2E=      0 Chk=      9 Scr=      1
 Normal termination of Gaussian 09 at Sat Jul 24 01:31:49 2021.
