 Entering Gaussian System, Link 0=g09
 Input=opt_freq-conf-273.com
 Output=opt_freq-conf-273.log
 Initial command:
 /aerosol/software/g09/l1.exe "/scratch/nicole/10373/Gau-73552.inp" -scrdir="/scratch/nicole/10373/"
 Entering Link 1 = /aerosol/software/g09/l1.exe PID=     73557.
  
 Copyright (c) 1988,1990,1992,1993,1995,1998,2003,2009,2013,
            Gaussian, Inc.  All Rights Reserved.
  
 This is part of the Gaussian(R) 09 program.  It is based on
 the Gaussian(R) 03 system (copyright 2003, Gaussian, Inc.),
 the Gaussian(R) 98 system (copyright 1998, Gaussian, Inc.),
 the Gaussian(R) 94 system (copyright 1995, Gaussian, Inc.),
 the Gaussian 92(TM) system (copyright 1992, Gaussian, Inc.),
 the Gaussian 90(TM) system (copyright 1990, Gaussian, Inc.),
 the Gaussian 88(TM) system (copyright 1988, Gaussian, Inc.),
 the Gaussian 86(TM) system (copyright 1986, Carnegie Mellon
 University), and the Gaussian 82(TM) system (copyright 1983,
 Carnegie Mellon University). Gaussian is a federally registered
 trademark of Gaussian, Inc.
  
 This software contains proprietary and confidential information,
 including trade secrets, belonging to Gaussian, Inc.
  
 This software is provided under written license and may be
 used, copied, transmitted, or stored only in accord with that
 written license.
  
 The following legend is applicable only to US Government
 contracts under FAR:
  
                    RESTRICTED RIGHTS LEGEND
  
 Use, reproduction and disclosure by the US Government is
 subject to restrictions as set forth in subparagraphs (a)
 and (c) of the Commercial Computer Software - Restricted
 Rights clause in FAR 52.227-19.
  
 Gaussian, Inc.
 340 Quinnipiac St., Bldg. 40, Wallingford CT 06492
  
  
 ---------------------------------------------------------------
 Warning -- This program may not be used in any manner that
 competes with the business of Gaussian, Inc. or will provide
 assistance to any competitor of Gaussian, Inc.  The licensee
 of this program is prohibited from giving any competitor of
 Gaussian, Inc. access to this program.  By using this program,
 the user acknowledges that Gaussian, Inc. is engaged in the
 business of creating and licensing software in the field of
 computational chemistry and represents and warrants to the
 licensee that it is not a competitor of Gaussian, Inc. and that
 it will not use this program in any manner prohibited above.
 ---------------------------------------------------------------
  

 Cite this work as:
 Gaussian 09, Revision D.01,
 M. J. Frisch, G. W. Trucks, H. B. Schlegel, G. E. Scuseria, 
 M. A. Robb, J. R. Cheeseman, G. Scalmani, V. Barone, B. Mennucci, 
 G. A. Petersson, H. Nakatsuji, M. Caricato, X. Li, H. P. Hratchian, 
 A. F. Izmaylov, J. Bloino, G. Zheng, J. L. Sonnenberg, M. Hada, 
 M. Ehara, K. Toyota, R. Fukuda, J. Hasegawa, M. Ishida, T. Nakajima, 
 Y. Honda, O. Kitao, H. Nakai, T. Vreven, J. A. Montgomery, Jr., 
 J. E. Peralta, F. Ogliaro, M. Bearpark, J. J. Heyd, E. Brothers, 
 K. N. Kudin, V. N. Staroverov, T. Keith, R. Kobayashi, J. Normand, 
 K. Raghavachari, A. Rendell, J. C. Burant, S. S. Iyengar, J. Tomasi, 
 M. Cossi, N. Rega, J. M. Millam, M. Klene, J. E. Knox, J. B. Cross, 
 V. Bakken, C. Adamo, J. Jaramillo, R. Gomperts, R. E. Stratmann, 
 O. Yazyev, A. J. Austin, R. Cammi, C. Pomelli, J. W. Ochterski, 
 R. L. Martin, K. Morokuma, V. G. Zakrzewski, G. A. Voth, 
 P. Salvador, J. J. Dannenberg, S. Dapprich, A. D. Daniels, 
 O. Farkas, J. B. Foresman, J. V. Ortiz, J. Cioslowski, 
 and D. J. Fox, Gaussian, Inc., Wallingford CT, 2013.
 
 ******************************************
 Gaussian 09:  ES64L-G09RevD.01 24-Apr-2013
                24-Jul-2021 
 ******************************************
 %mem=2gb
 %nproc=4
 Will use up to    4 processors via shared memory.
 %chk=conf-273.chk
 ----------------------------------------------------------------------
 # B3LYP/6-31G(d,p) EmpiricalDispersion=GD3BJ opt=calcfc freq=noraman n
 osymm integral(ultrafinegrid)
 ----------------------------------------------------------------------
 1/10=4,14=-1,18=20,19=15,26=4,38=1/1,3;
 2/9=110,12=2,15=1,17=6,18=5,40=1/2;
 3/5=1,6=6,7=101,11=2,16=1,25=1,30=1,71=2,74=-5,75=-5,124=41,140=1/1,2,3;
 4//1;
 5/5=2,38=5/2;
 8/6=4,10=90,11=11/1;
 11/6=1,8=1,9=11,15=111,16=1,31=1/1,2,10;
 10/6=1,13=1,31=1/2;
 6/7=2,8=2,9=2,10=2,28=1/1;
 7/10=1,18=20,25=1,30=1/1,2,3,16;
 1/10=4,14=-1,18=20,19=15,26=4/3(2);
 2/9=110,15=1/2;
 99//99;
 2/9=110,15=1/2;
 3/5=1,6=6,7=101,11=2,16=1,25=1,30=1,71=1,74=-5,75=-5,124=41/1,2,3;
 4/5=5,16=3,69=1/1;
 5/5=2,38=5/2;
 7/30=1/1,2,3,16;
 1/14=-1,18=20,19=15,26=4/3(-5);
 2/9=110,15=1/2;
 6/7=2,8=2,9=2,10=2,19=2,28=1/1;
 99/9=1/99;
 ------------------------------------------------------------
 Candidate Structure: Conf:273 OPT and FREQ calc in gas phase
 ------------------------------------------------------------
 Symbolic Z-matrix:
 Charge =  0 Multiplicity = 1
 O                     0.4812   -1.43972   1.72308 
 C                     0.87057  -0.53629   0.98255 
 N                     0.37138  -0.40017  -0.26514 
 C                    -0.75721  -1.20762  -0.73001 
 C                    -0.28914  -2.59703  -1.19228 
 O                     0.31533  -3.3194   -0.24345 
 O                    -0.45011  -3.01646  -2.30615 
 C                    -1.5072   -0.49074  -1.84649 
 C                    -2.27544   0.70244  -1.37059 
 C                    -2.84205   1.05063  -0.17757 
 N                    -3.45652   2.28666  -0.27192 
 C                    -3.26679   2.67362  -1.51053 
 N                    -2.55969   1.75405  -2.21919 
 C                     1.89393   0.48386   1.40872 
 C                     2.97956  -0.12216   2.28608 
 N                     3.8968    0.93726   2.718 
 H                     0.69071   0.34962  -0.85265 
 H                    -1.42108  -1.35943   0.12342 
 H                     0.33923  -2.81473   0.59778 
 H                    -2.17872  -1.20279  -2.32839 
 H                    -0.79593  -0.19651  -2.61834 
 H                    -2.8511    0.49833   0.75013 
 H                    -3.61409   3.59393  -1.94694 
 H                    -2.28316   1.82072  -3.18404 
 H                     2.33103   0.96023   0.52862 
 H                     1.38125   1.26432   1.97735 
 H                     2.50784  -0.56404   3.1651 
 H                     3.4804   -0.9333    1.74249 
 H                     4.56161   0.56728   3.38681 
 H                     4.44738   1.25773   1.92958 
 

 GradGradGradGradGradGradGradGradGradGradGradGradGradGradGradGradGradGrad
 Berny optimization.
 Initialization pass.
                           ----------------------------
                           !    Initial Parameters    !
                           ! (Angstroms and Degrees)  !
 --------------------------                            --------------------------
 ! Name  Definition              Value          Derivative Info.                !
 --------------------------------------------------------------------------------
 ! R1    R(1,2)                  1.2313         calculate D2E/DX2 analytically  !
 ! R2    R(2,3)                  1.3507         calculate D2E/DX2 analytically  !
 ! R3    R(2,14)                 1.5065         calculate D2E/DX2 analytically  !
 ! R4    R(3,4)                  1.4635         calculate D2E/DX2 analytically  !
 ! R5    R(3,17)                 1.0047         calculate D2E/DX2 analytically  !
 ! R6    R(4,5)                  1.5373         calculate D2E/DX2 analytically  !
 ! R7    R(4,8)                  1.5241         calculate D2E/DX2 analytically  !
 ! R8    R(4,18)                 1.0918         calculate D2E/DX2 analytically  !
 ! R9    R(5,6)                  1.337          calculate D2E/DX2 analytically  !
 ! R10   R(5,7)                  1.2011         calculate D2E/DX2 analytically  !
 ! R11   R(6,19)                 0.9813         calculate D2E/DX2 analytically  !
 ! R12   R(8,9)                  1.4968         calculate D2E/DX2 analytically  !
 ! R13   R(8,20)                 1.091          calculate D2E/DX2 analytically  !
 ! R14   R(8,21)                 1.0901         calculate D2E/DX2 analytically  !
 ! R15   R(9,10)                 1.3659         calculate D2E/DX2 analytically  !
 ! R16   R(9,13)                 1.3809         calculate D2E/DX2 analytically  !
 ! R17   R(10,11)                1.3836         calculate D2E/DX2 analytically  !
 ! R18   R(10,22)                1.0797         calculate D2E/DX2 analytically  !
 ! R19   R(11,12)                1.3114         calculate D2E/DX2 analytically  !
 ! R20   R(12,13)                1.3593         calculate D2E/DX2 analytically  !
 ! R21   R(12,23)                1.0761         calculate D2E/DX2 analytically  !
 ! R22   R(13,24)                1.0059         calculate D2E/DX2 analytically  !
 ! R23   R(14,15)                1.5217         calculate D2E/DX2 analytically  !
 ! R24   R(14,25)                1.092          calculate D2E/DX2 analytically  !
 ! R25   R(14,26)                1.0933         calculate D2E/DX2 analytically  !
 ! R26   R(15,16)                1.4664         calculate D2E/DX2 analytically  !
 ! R27   R(15,27)                1.0911         calculate D2E/DX2 analytically  !
 ! R28   R(15,28)                1.0974         calculate D2E/DX2 analytically  !
 ! R29   R(16,29)                1.013          calculate D2E/DX2 analytically  !
 ! R30   R(16,30)                1.0136         calculate D2E/DX2 analytically  !
 ! A1    A(1,2,3)              120.8376         calculate D2E/DX2 analytically  !
 ! A2    A(1,2,14)             122.7858         calculate D2E/DX2 analytically  !
 ! A3    A(3,2,14)             116.3669         calculate D2E/DX2 analytically  !
 ! A4    A(2,3,4)              121.5214         calculate D2E/DX2 analytically  !
 ! A5    A(2,3,17)             119.8628         calculate D2E/DX2 analytically  !
 ! A6    A(4,3,17)             118.1074         calculate D2E/DX2 analytically  !
 ! A7    A(3,4,5)              111.0619         calculate D2E/DX2 analytically  !
 ! A8    A(3,4,8)              110.6495         calculate D2E/DX2 analytically  !
 ! A9    A(3,4,18)             107.2961         calculate D2E/DX2 analytically  !
 ! A10   A(5,4,8)              110.7731         calculate D2E/DX2 analytically  !
 ! A11   A(5,4,18)             107.1284         calculate D2E/DX2 analytically  !
 ! A12   A(8,4,18)             109.8029         calculate D2E/DX2 analytically  !
 ! A13   A(4,5,6)              114.3675         calculate D2E/DX2 analytically  !
 ! A14   A(4,5,7)              123.6204         calculate D2E/DX2 analytically  !
 ! A15   A(6,5,7)              122.0113         calculate D2E/DX2 analytically  !
 ! A16   A(5,6,19)             109.9703         calculate D2E/DX2 analytically  !
 ! A17   A(4,8,9)              113.2417         calculate D2E/DX2 analytically  !
 ! A18   A(4,8,20)             108.631          calculate D2E/DX2 analytically  !
 ! A19   A(4,8,21)             108.9394         calculate D2E/DX2 analytically  !
 ! A20   A(9,8,20)             110.1707         calculate D2E/DX2 analytically  !
 ! A21   A(9,8,21)             110.1741         calculate D2E/DX2 analytically  !
 ! A22   A(20,8,21)            105.3689         calculate D2E/DX2 analytically  !
 ! A23   A(8,9,10)             133.9358         calculate D2E/DX2 analytically  !
 ! A24   A(8,9,13)             121.1542         calculate D2E/DX2 analytically  !
 ! A25   A(10,9,13)            104.9065         calculate D2E/DX2 analytically  !
 ! A26   A(9,10,11)            110.6353         calculate D2E/DX2 analytically  !
 ! A27   A(9,10,22)            128.5771         calculate D2E/DX2 analytically  !
 ! A28   A(11,10,22)           120.7875         calculate D2E/DX2 analytically  !
 ! A29   A(10,11,12)           105.2927         calculate D2E/DX2 analytically  !
 ! A30   A(11,12,13)           111.594          calculate D2E/DX2 analytically  !
 ! A31   A(11,12,23)           126.0626         calculate D2E/DX2 analytically  !
 ! A32   A(13,12,23)           122.3432         calculate D2E/DX2 analytically  !
 ! A33   A(9,13,12)            107.5703         calculate D2E/DX2 analytically  !
 ! A34   A(9,13,24)            125.686          calculate D2E/DX2 analytically  !
 ! A35   A(12,13,24)           126.7424         calculate D2E/DX2 analytically  !
 ! A36   A(2,14,15)            112.2127         calculate D2E/DX2 analytically  !
 ! A37   A(2,14,25)            109.8338         calculate D2E/DX2 analytically  !
 ! A38   A(2,14,26)            108.1789         calculate D2E/DX2 analytically  !
 ! A39   A(15,14,25)           110.6605         calculate D2E/DX2 analytically  !
 ! A40   A(15,14,26)           108.6005         calculate D2E/DX2 analytically  !
 ! A41   A(25,14,26)           107.1854         calculate D2E/DX2 analytically  !
 ! A42   A(14,15,16)           109.169          calculate D2E/DX2 analytically  !
 ! A43   A(14,15,27)           108.5023         calculate D2E/DX2 analytically  !
 ! A44   A(14,15,28)           109.5343         calculate D2E/DX2 analytically  !
 ! A45   A(16,15,27)           109.0103         calculate D2E/DX2 analytically  !
 ! A46   A(16,15,28)           113.2315         calculate D2E/DX2 analytically  !
 ! A47   A(27,15,28)           107.2794         calculate D2E/DX2 analytically  !
 ! A48   A(15,16,29)           109.9443         calculate D2E/DX2 analytically  !
 ! A49   A(15,16,30)           109.8204         calculate D2E/DX2 analytically  !
 ! A50   A(29,16,30)           105.8152         calculate D2E/DX2 analytically  !
 ! D1    D(1,2,3,4)              7.5256         calculate D2E/DX2 analytically  !
 ! D2    D(1,2,3,17)           179.1912         calculate D2E/DX2 analytically  !
 ! D3    D(14,2,3,4)          -171.3709         calculate D2E/DX2 analytically  !
 ! D4    D(14,2,3,17)            0.2946         calculate D2E/DX2 analytically  !
 ! D5    D(1,2,14,15)           37.429          calculate D2E/DX2 analytically  !
 ! D6    D(1,2,14,25)          160.9631         calculate D2E/DX2 analytically  !
 ! D7    D(1,2,14,26)          -82.3549         calculate D2E/DX2 analytically  !
 ! D8    D(3,2,14,15)         -143.698          calculate D2E/DX2 analytically  !
 ! D9    D(3,2,14,25)          -20.1639         calculate D2E/DX2 analytically  !
 ! D10   D(3,2,14,26)           96.5181         calculate D2E/DX2 analytically  !
 ! D11   D(2,3,4,5)            -81.7802         calculate D2E/DX2 analytically  !
 ! D12   D(2,3,4,8)            154.7647         calculate D2E/DX2 analytically  !
 ! D13   D(2,3,4,18)            34.9931         calculate D2E/DX2 analytically  !
 ! D14   D(17,3,4,5)           106.413          calculate D2E/DX2 analytically  !
 ! D15   D(17,3,4,8)           -17.0421         calculate D2E/DX2 analytically  !
 ! D16   D(17,3,4,18)         -136.8136         calculate D2E/DX2 analytically  !
 ! D17   D(3,4,5,6)             60.0601         calculate D2E/DX2 analytically  !
 ! D18   D(3,4,5,7)           -120.2636         calculate D2E/DX2 analytically  !
 ! D19   D(8,4,5,6)           -176.5556         calculate D2E/DX2 analytically  !
 ! D20   D(8,4,5,7)              3.1206         calculate D2E/DX2 analytically  !
 ! D21   D(18,4,5,6)           -56.816          calculate D2E/DX2 analytically  !
 ! D22   D(18,4,5,7)           122.8603         calculate D2E/DX2 analytically  !
 ! D23   D(3,4,8,9)            -70.7009         calculate D2E/DX2 analytically  !
 ! D24   D(3,4,8,20)           166.5599         calculate D2E/DX2 analytically  !
 ! D25   D(3,4,8,21)            52.268          calculate D2E/DX2 analytically  !
 ! D26   D(5,4,8,9)            165.6775         calculate D2E/DX2 analytically  !
 ! D27   D(5,4,8,20)            42.9384         calculate D2E/DX2 analytically  !
 ! D28   D(5,4,8,21)           -71.3536         calculate D2E/DX2 analytically  !
 ! D29   D(18,4,8,9)            47.5538         calculate D2E/DX2 analytically  !
 ! D30   D(18,4,8,20)          -75.1853         calculate D2E/DX2 analytically  !
 ! D31   D(18,4,8,21)          170.5227         calculate D2E/DX2 analytically  !
 ! D32   D(4,5,6,19)             0.5789         calculate D2E/DX2 analytically  !
 ! D33   D(7,5,6,19)          -179.1032         calculate D2E/DX2 analytically  !
 ! D34   D(4,8,9,10)           -26.9919         calculate D2E/DX2 analytically  !
 ! D35   D(4,8,9,13)           153.7973         calculate D2E/DX2 analytically  !
 ! D36   D(20,8,9,10)           94.8898         calculate D2E/DX2 analytically  !
 ! D37   D(20,8,9,13)          -84.3209         calculate D2E/DX2 analytically  !
 ! D38   D(21,8,9,10)         -149.2757         calculate D2E/DX2 analytically  !
 ! D39   D(21,8,9,13)           31.5136         calculate D2E/DX2 analytically  !
 ! D40   D(8,9,10,11)         -179.6436         calculate D2E/DX2 analytically  !
 ! D41   D(8,9,10,22)            0.4783         calculate D2E/DX2 analytically  !
 ! D42   D(13,9,10,11)          -0.3425         calculate D2E/DX2 analytically  !
 ! D43   D(13,9,10,22)         179.7794         calculate D2E/DX2 analytically  !
 ! D44   D(8,9,13,12)          179.6556         calculate D2E/DX2 analytically  !
 ! D45   D(8,9,13,24)           -0.7376         calculate D2E/DX2 analytically  !
 ! D46   D(10,9,13,12)           0.2438         calculate D2E/DX2 analytically  !
 ! D47   D(10,9,13,24)         179.8506         calculate D2E/DX2 analytically  !
 ! D48   D(9,10,11,12)           0.3093         calculate D2E/DX2 analytically  !
 ! D49   D(22,10,11,12)       -179.8017         calculate D2E/DX2 analytically  !
 ! D50   D(10,11,12,13)         -0.1475         calculate D2E/DX2 analytically  !
 ! D51   D(10,11,12,23)        179.6907         calculate D2E/DX2 analytically  !
 ! D52   D(11,12,13,9)          -0.0609         calculate D2E/DX2 analytically  !
 ! D53   D(11,12,13,24)       -179.6624         calculate D2E/DX2 analytically  !
 ! D54   D(23,12,13,9)        -179.9061         calculate D2E/DX2 analytically  !
 ! D55   D(23,12,13,24)          0.4924         calculate D2E/DX2 analytically  !
 ! D56   D(2,14,15,16)        -177.0867         calculate D2E/DX2 analytically  !
 ! D57   D(2,14,15,27)         -58.4021         calculate D2E/DX2 analytically  !
 ! D58   D(2,14,15,28)          58.4108         calculate D2E/DX2 analytically  !
 ! D59   D(25,14,15,16)         59.8434         calculate D2E/DX2 analytically  !
 ! D60   D(25,14,15,27)        178.5279         calculate D2E/DX2 analytically  !
 ! D61   D(25,14,15,28)        -64.6592         calculate D2E/DX2 analytically  !
 ! D62   D(26,14,15,16)        -57.549          calculate D2E/DX2 analytically  !
 ! D63   D(26,14,15,27)         61.1356         calculate D2E/DX2 analytically  !
 ! D64   D(26,14,15,28)        177.9485         calculate D2E/DX2 analytically  !
 ! D65   D(14,15,16,29)        173.5694         calculate D2E/DX2 analytically  !
 ! D66   D(14,15,16,30)        -70.3925         calculate D2E/DX2 analytically  !
 ! D67   D(27,15,16,29)         55.2023         calculate D2E/DX2 analytically  !
 ! D68   D(27,15,16,30)        171.2403         calculate D2E/DX2 analytically  !
 ! D69   D(28,15,16,29)        -64.1236         calculate D2E/DX2 analytically  !
 ! D70   D(28,15,16,30)         51.9144         calculate D2E/DX2 analytically  !
 --------------------------------------------------------------------------------
 Trust Radius=3.00D-01 FncErr=1.00D-07 GrdErr=1.00D-06
 Number of steps in this run=    160 maximum allowed number of steps=    180.
 GradGradGradGradGradGradGradGradGradGradGradGradGradGradGradGradGradGrad

                          Input orientation:                          
 ---------------------------------------------------------------------
 Center     Atomic      Atomic             Coordinates (Angstroms)
 Number     Number       Type             X           Y           Z
 ---------------------------------------------------------------------
      1          8           0        0.481202   -1.439721    1.723084
      2          6           0        0.870569   -0.536285    0.982547
      3          7           0        0.371376   -0.400166   -0.265140
      4          6           0       -0.757209   -1.207622   -0.730012
      5          6           0       -0.289136   -2.597034   -1.192279
      6          8           0        0.315334   -3.319401   -0.243452
      7          8           0       -0.450114   -3.016463   -2.306155
      8          6           0       -1.507203   -0.490736   -1.846491
      9          6           0       -2.275445    0.702441   -1.370589
     10          6           0       -2.842052    1.050633   -0.177570
     11          7           0       -3.456524    2.286661   -0.271915
     12          6           0       -3.266792    2.673623   -1.510526
     13          7           0       -2.559690    1.754054   -2.219192
     14          6           0        1.893930    0.483862    1.408723
     15          6           0        2.979560   -0.122160    2.286081
     16          7           0        3.896800    0.937264    2.718000
     17          1           0        0.690707    0.349622   -0.852654
     18          1           0       -1.421075   -1.359428    0.123420
     19          1           0        0.339230   -2.814735    0.597781
     20          1           0       -2.178716   -1.202789   -2.328392
     21          1           0       -0.795931   -0.196509   -2.618341
     22          1           0       -2.851101    0.498330    0.750134
     23          1           0       -3.614090    3.593930   -1.946937
     24          1           0       -2.283164    1.820720   -3.184039
     25          1           0        2.331031    0.960230    0.528621
     26          1           0        1.381250    1.264319    1.977355
     27          1           0        2.507837   -0.564041    3.165097
     28          1           0        3.480396   -0.933305    1.742493
     29          1           0        4.561608    0.567281    3.386808
     30          1           0        4.447377    1.257728    1.929579
 ---------------------------------------------------------------------
                    Distance matrix (angstroms):
                    1          2          3          4          5
     1  O    0.000000
     2  C    1.231340   0.000000
     3  N    2.246280   1.350721   0.000000
     4  C    2.757755   2.456260   1.463488   0.000000
     5  C    3.229882   3.212705   2.474287   1.537286   0.000000
     6  O    2.725431   3.091455   2.919854   2.417995   1.336963
     7  O    4.425860   4.325627   3.418421   2.418768   1.201064
     8  C    4.194782   3.695854   2.457221   1.524120   2.519559
     9  C    4.664631   4.119357   3.073015   2.522642   3.855354
    10  C    4.567096   4.200921   3.526840   3.122736   4.566453
    11  N    5.776819   5.316619   4.676741   4.439163   5.893208
    12  C    6.436093   5.799714   4.922949   4.687352   6.061975
    13  N    5.915131   5.221443   4.129180   3.773344   5.014174
    14  C    2.407239   1.506518   2.429299   3.803137   4.585075
    15  C    2.880056   2.513671   3.659049   4.923260   5.376650
    16  N    4.278577   3.786980   4.807958   6.176497   6.730795
    17  H    3.143258   2.045763   1.004653   2.129909   3.123815
    18  H    2.486772   2.582111   2.069793   1.091838   2.131671
    19  H    1.782449   2.371012   2.564334   2.355424   1.909595
    20  H    4.852398   4.550240   3.377008   2.139047   2.608675
    21  H    4.693040   3.982345   2.634699   2.142344   2.837784
    22  H    3.975792   3.869790   3.496060   3.079852   4.462949
    23  H    7.455074   6.764076   5.887714   5.718180   7.067735
    24  H    6.507846   5.732535   4.527570   4.185887   5.240211
    25  H    3.257049   2.139756   2.514156   3.977558   4.741403
    26  H    2.861218   2.119578   2.969703   4.244212   5.267525
    27  H    2.636942   2.728541   4.044483   5.123143   5.562629
    28  H    3.041710   2.747060   3.739096   4.913841   5.058681
    29  H    4.842080   4.541156   5.641872   6.956170   7.383132
    30  H    4.800980   4.112044   4.917234   6.343429   6.858553
                    6          7          8          9         10
     6  O    0.000000
     7  O    2.220906   0.000000
     8  C    3.727294   2.776333   0.000000
     9  C    4.915057   4.247042   1.496780   0.000000
    10  C    5.391718   5.176245   2.634945   1.365861   0.000000
    11  N    6.756897   6.426489   3.740732   2.260926   1.383561
    12  C    7.096015   6.398732   3.636233   2.210861   2.142725
    13  N    6.157049   5.216868   2.507133   1.380874   2.177785
    14  C    4.436943   5.616685   4.807699   5.015580   5.026637
    15  C    4.870215   6.420926   6.111059   6.454942   6.429322
    16  N    6.302087   7.731090   7.216440   7.407314   7.335482
    17  H    3.738150   3.839879   2.554354   3.031633   3.664361
    18  H    2.644089   3.096993   2.154668   2.685762   2.813923
    19  H    0.981292   3.016058   3.845094   4.804324   5.065845
    20  H    3.879085   2.505588   1.090953   2.134630   3.184959
    21  H    4.077678   2.858180   1.090059   2.134000   3.420429
    22  H    5.058517   5.240173   3.086547   2.206923   1.079701
    23  H    8.132428   7.337376   4.597125   3.238033   3.192971
    24  H    6.466846   5.246818   2.781003   2.130542   3.153450
    25  H    4.793159   5.620037   4.741150   4.989296   5.221845
    26  H    5.203715   6.326725   5.103447   4.989574   4.746118
    27  H    4.900744   6.685690   6.421988   6.712392   6.511674
    28  H    4.433402   6.014983   6.160586   6.745121   6.898986
    29  H    6.805581   8.388707   8.083148   8.330449   8.231196
    30  H    6.538039   7.758581   7.264493   7.509713   7.590701
                   11         12         13         14         15
    11  N    0.000000
    12  C    1.311447   0.000000
    13  N    2.209042   1.359341   0.000000
    14  C    5.890839   6.320611   5.883017   0.000000
    15  C    7.332730   7.826080   7.382476   1.521713   0.000000
    16  N    8.051822   8.497789   8.168798   2.435419   1.466377
    17  H    4.613990   4.636332   3.795384   2.565072   3.913194
    18  H    4.194438   4.726727   4.059316   4.004871   5.057027
    19  H    6.417815   6.897131   6.100238   3.735701   4.131786
    20  H    4.247135   4.108453   2.983285   5.779037   7.004922
    21  H    4.330197   3.945892   2.659861   4.890349   6.189767
    22  H    2.146916   3.164693   3.237076   4.790540   6.061415
    23  H    2.130605   1.076121   2.137996   7.160395   8.672023
    24  H    3.174010   2.120286   1.005903   6.350494   7.835385
    25  H    5.991333   6.199150   5.665667   1.092045   2.163521
    26  H    5.432168   5.979610   5.777703   1.093296   2.138277
    27  H    7.450715   8.104952   7.748804   2.135376   1.091078
    28  H    7.908659   8.313640   7.707106   2.153286   1.097397
    29  H    8.979586   9.471241   9.140490   3.322090   2.046901
    30  H    8.269034   8.564314   8.158286   2.718501   2.045892
                   16         17         18         19         20
    16  N    0.000000
    17  H    4.834659   0.000000
    18  H    6.347160   2.886728   0.000000
    19  H    5.588302   3.498636   2.332726   0.000000
    20  H    8.182774   3.580694   2.570980   4.183409   0.000000
    21  H    7.196090   2.371920   3.043097   4.299667   1.734578
    22  H    7.042679   3.890431   2.426728   4.601936   3.580954
    23  H    9.232171   5.500388   5.799263   7.948290   5.021387
    24  H    8.591072   4.055046   4.668600   6.531964   3.143986
    25  H    2.691754   2.229669   4.429820   4.268772   5.760121
    26  H    2.642634   3.053272   4.263115   4.430317   6.107326
    27  H    2.093569   4.503228   5.031977   4.044699   7.249151
    28  H    2.150356   4.020330   5.179518   3.836284   6.976409
    29  H    1.012996   5.744936   7.081978   6.086475   9.012692
    30  H    1.013627   4.762147   6.674612   5.935951   8.251640
                   21         22         23         24         25
    21  H    0.000000
    22  H    4.006638   0.000000
    23  H    4.770769   4.176013   0.000000
    24  H    2.569259   4.189151   2.538909   0.000000
    25  H    4.584682   5.207390   6.957674   5.984571   0.000000
    26  H    5.290989   4.472763   6.766134   6.354329   1.758802
    27  H    6.670691   5.973181   8.994420   8.303752   3.050519
    28  H    6.151969   6.566751   9.189096   8.066846   2.525866
    29  H    8.083837   7.867977  10.220150   9.570687   3.646795
    30  H    7.091591   7.432063   9.245132   8.471495   2.555408
                   26         27         28         29         30
    26  H    0.000000
    27  H    2.454145   0.000000
    28  H    3.048135   1.762393   0.000000
    29  H    3.547830   2.355211   2.474782   0.000000
    30  H    3.066506   2.933797   2.402223   1.616565   0.000000
 Symmetry turned off by external request.
 Stoichiometry    C9H14N4O3
 Framework group  C1[X(C9H14N4O3)]
 Deg. of freedom    84
 Full point group                 C1      NOp   1
 Rotational constants (GHZ):      0.6081288      0.3132744      0.2274180
 Standard basis: 6-31G(d,p) (6D, 7F)
   310 basis functions,   546 primitive gaussians,   310 cartesian basis functions
    60 alpha electrons       60 beta electrons
       nuclear repulsion energy      1109.6886056220 Hartrees.
 NAtoms=   30 NActive=   30 NUniq=   30 SFac= 1.00D+00 NAtFMM=   60 NAOKFM=F Big=F
 Integral buffers will be    131072 words long.
 Raffenetti 2 integral format.
 Two-electron integral symmetry is turned off.
 Nuclear repulsion after empirical dispersion term =     1109.6350884491 Hartrees.
 One-electron integrals computed using PRISM.
 NBasis=   310 RedAO= T EigKep=  1.12D-03  NBF=   310
 NBsUse=   310 1.00D-06 EigRej= -1.00D+00 NBFU=   310
 ExpMin= 1.61D-01 ExpMax= 5.48D+03 ExpMxC= 8.25D+02 IAcc=3 IRadAn=         5 AccDes= 0.00D+00
 Harris functional with IExCor=  402 and IRadAn=       5 diagonalized for initial guess.
 HarFok:  IExCor=  402 AccDes= 0.00D+00 IRadAn=         5 IDoV= 1 UseB2=F ITyADJ=14
 ICtDFT=  3500011 ScaDFX=  1.000000  1.000000  1.000000  1.000000
 FoFCou: FMM=F IPFlag=           0 FMFlag=      100000 FMFlg1=           0
         NFxFlg=           0 DoJE=T BraDBF=F KetDBF=T FulRan=T
         wScrn=  0.000000 ICntrl=     500 IOpCl=  0 I1Cent=   200000004 NGrid=           0
         NMat0=    1 NMatS0=      1 NMatT0=    0 NMatD0=    1 NMtDS0=    0 NMtDT0=    0
 Symmetry not used in FoFCou.
 Requested convergence on RMS density matrix=1.00D-08 within 128 cycles.
 Requested convergence on MAX density matrix=1.00D-06.
 Requested convergence on             energy=1.00D-06.
 No special actions if energy rises.
 Integral accuracy reduced to 1.0D-05 until final iterations.
 Initial convergence to 1.0D-05 achieved.  Increase integral accuracy.
 SCF Done:  E(RB3LYP) =  -796.162167156     A.U. after   14 cycles
            NFock= 14  Conv=0.63D-08     -V/T= 2.0088
 DoSCS=F DFT=T ScalE2(SS,OS)=  1.000000  1.000000
 Range of M.O.s used for correlation:     1   310
 NBasis=   310 NAE=    60 NBE=    60 NFC=     0 NFV=     0
 NROrb=    310 NOA=    60 NOB=    60 NVA=   250 NVB=   250
 Symmetrizing basis deriv contribution to polar:
 IMax=3 JMax=2 DiffMx= 0.00D+00
 G2DrvN: will do    31 centers at a time, making    1 passes.
 Calling FoFCou, ICntrl=  3107 FMM=F I1Cent=   0 AccDes= 0.00D+00.
 End of G2Drv F.D. properties file   721 does not exist.
 End of G2Drv F.D. properties file   722 does not exist.
 End of G2Drv F.D. properties file   788 does not exist.
          IDoAtm=111111111111111111111111111111
          Differentiating once with respect to nuclear coordinates.
          There are    93 degrees of freedom in the 1st order CPHF.  IDoFFX=6 NUNeed=     0.
     87 vectors produced by pass  0 Test12= 1.61D-14 1.08D-09 XBig12= 1.81D-01 9.63D-02.
 AX will form    87 AO Fock derivatives at one time.
     87 vectors produced by pass  1 Test12= 1.61D-14 1.08D-09 XBig12= 8.02D-03 2.03D-02.
     87 vectors produced by pass  2 Test12= 1.61D-14 1.08D-09 XBig12= 1.00D-04 2.33D-03.
     87 vectors produced by pass  3 Test12= 1.61D-14 1.08D-09 XBig12= 3.16D-07 8.18D-05.
     87 vectors produced by pass  4 Test12= 1.61D-14 1.08D-09 XBig12= 5.02D-10 3.18D-06.
     70 vectors produced by pass  5 Test12= 1.61D-14 1.08D-09 XBig12= 5.26D-13 7.70D-08.
     15 vectors produced by pass  6 Test12= 1.61D-14 1.08D-09 XBig12= 4.28D-16 1.94D-09.
 InvSVY:  IOpt=1 It=  1 EMax= 3.89D-16
 Solved reduced A of dimension   520 with    93 vectors.
 End of Minotr F.D. properties file   721 does not exist.
 End of Minotr F.D. properties file   722 does not exist.
 End of Minotr F.D. properties file   788 does not exist.

 **********************************************************************

            Population analysis using the SCF density.

 **********************************************************************

 Alpha  occ. eigenvalues --  -19.17758 -19.14544 -19.13349 -14.39799 -14.39244
 Alpha  occ. eigenvalues --  -14.32273 -14.31423 -10.31556 -10.31419 -10.25848
 Alpha  occ. eigenvalues --  -10.24248 -10.22753 -10.22125 -10.21996 -10.21018
 Alpha  occ. eigenvalues --  -10.19990  -1.09753  -1.06638  -1.02135  -1.01513
 Alpha  occ. eigenvalues --   -0.95615  -0.89334  -0.87509  -0.82082  -0.77724
 Alpha  occ. eigenvalues --   -0.74222  -0.68280  -0.64690  -0.62145  -0.61076
 Alpha  occ. eigenvalues --   -0.60489  -0.59258  -0.56199  -0.53373  -0.52723
 Alpha  occ. eigenvalues --   -0.51315  -0.49958  -0.47165  -0.45902  -0.45702
 Alpha  occ. eigenvalues --   -0.44308  -0.43939  -0.43272  -0.42636  -0.42268
 Alpha  occ. eigenvalues --   -0.41395  -0.41155  -0.39917  -0.39095  -0.37289
 Alpha  occ. eigenvalues --   -0.36932  -0.36228  -0.30978  -0.30335  -0.28504
 Alpha  occ. eigenvalues --   -0.28331  -0.26840  -0.26187  -0.24679  -0.23046
 Alpha virt. eigenvalues --   -0.00723   0.01262   0.02327   0.05200   0.06179
 Alpha virt. eigenvalues --    0.06690   0.07084   0.09801   0.10752   0.12932
 Alpha virt. eigenvalues --    0.13270   0.13733   0.14370   0.15151   0.16487
 Alpha virt. eigenvalues --    0.17104   0.18325   0.18789   0.20251   0.20817
 Alpha virt. eigenvalues --    0.21782   0.22132   0.22874   0.24130   0.26277
 Alpha virt. eigenvalues --    0.26905   0.27871   0.31390   0.33125   0.36707
 Alpha virt. eigenvalues --    0.37606   0.38645   0.41139   0.45225   0.49045
 Alpha virt. eigenvalues --    0.49807   0.50840   0.51337   0.53001   0.53641
 Alpha virt. eigenvalues --    0.54164   0.54908   0.56163   0.57496   0.58326
 Alpha virt. eigenvalues --    0.59874   0.62087   0.62224   0.62873   0.63590
 Alpha virt. eigenvalues --    0.64290   0.64816   0.65263   0.66730   0.67202
 Alpha virt. eigenvalues --    0.68386   0.71080   0.71393   0.71662   0.74446
 Alpha virt. eigenvalues --    0.75544   0.76771   0.78214   0.78651   0.79079
 Alpha virt. eigenvalues --    0.79711   0.80353   0.81607   0.82751   0.83379
 Alpha virt. eigenvalues --    0.83789   0.84280   0.85129   0.85247   0.86218
 Alpha virt. eigenvalues --    0.87044   0.87560   0.88883   0.90102   0.90521
 Alpha virt. eigenvalues --    0.91939   0.92822   0.93417   0.93974   0.96491
 Alpha virt. eigenvalues --    0.97534   0.99719   1.01155   1.02644   1.03756
 Alpha virt. eigenvalues --    1.06767   1.08395   1.10078   1.13492   1.15409
 Alpha virt. eigenvalues --    1.16342   1.18193   1.20595   1.23520   1.24246
 Alpha virt. eigenvalues --    1.26695   1.28175   1.29971   1.30689   1.33364
 Alpha virt. eigenvalues --    1.34921   1.36037   1.36768   1.39582   1.40833
 Alpha virt. eigenvalues --    1.42094   1.42349   1.46074   1.47113   1.48306
 Alpha virt. eigenvalues --    1.53004   1.53832   1.54924   1.58819   1.61226
 Alpha virt. eigenvalues --    1.64085   1.64653   1.65834   1.67163   1.68449
 Alpha virt. eigenvalues --    1.71195   1.71691   1.73197   1.74285   1.77149
 Alpha virt. eigenvalues --    1.78669   1.80052   1.81311   1.83528   1.84615
 Alpha virt. eigenvalues --    1.84914   1.86232   1.86971   1.88892   1.89376
 Alpha virt. eigenvalues --    1.89603   1.90669   1.93216   1.94836   1.96415
 Alpha virt. eigenvalues --    1.98665   2.00025   2.02866   2.03637   2.04796
 Alpha virt. eigenvalues --    2.05869   2.06177   2.06878   2.07675   2.09663
 Alpha virt. eigenvalues --    2.10660   2.13425   2.15175   2.17452   2.18662
 Alpha virt. eigenvalues --    2.19535   2.22175   2.22899   2.23648   2.25759
 Alpha virt. eigenvalues --    2.26354   2.27303   2.28187   2.32705   2.34329
 Alpha virt. eigenvalues --    2.35041   2.37588   2.38710   2.40341   2.41236
 Alpha virt. eigenvalues --    2.43756   2.44567   2.44841   2.47208   2.48246
 Alpha virt. eigenvalues --    2.49897   2.51084   2.52776   2.55717   2.56499
 Alpha virt. eigenvalues --    2.57231   2.58532   2.59418   2.60798   2.61614
 Alpha virt. eigenvalues --    2.62687   2.64308   2.65224   2.66285   2.66744
 Alpha virt. eigenvalues --    2.68998   2.70504   2.71692   2.75421   2.76556
 Alpha virt. eigenvalues --    2.78363   2.80254   2.80922   2.83184   2.84064
 Alpha virt. eigenvalues --    2.85885   2.86731   2.89670   2.92846   2.93409
 Alpha virt. eigenvalues --    2.94902   2.95461   2.96483   2.97091   3.01512
 Alpha virt. eigenvalues --    3.03238   3.08501   3.12084   3.19101   3.21513
 Alpha virt. eigenvalues --    3.24857   3.26795   3.29599   3.30646   3.32254
 Alpha virt. eigenvalues --    3.36808   3.38763   3.49716   3.50458   3.51701
 Alpha virt. eigenvalues --    3.54605   3.55437   3.57035   3.67070   3.98300
 Alpha virt. eigenvalues --    3.98984   4.05134   4.09921   4.13017   4.16627
 Alpha virt. eigenvalues --    4.23458   4.26908   4.33237   4.41972   4.47053
 Alpha virt. eigenvalues --    4.48907   4.53726   4.65455   4.69702   4.78553
          Condensed to atoms (all electrons):
               1          2          3          4          5          6
     1  O    8.175612   0.487587  -0.102122   0.009213  -0.004299  -0.022805
     2  C    0.487587   4.418959   0.282557  -0.028041  -0.002902   0.006948
     3  N   -0.102122   0.282557   7.010927   0.224495  -0.040473   0.003210
     4  C    0.009213  -0.028041   0.224495   5.206105   0.273508  -0.105707
     5  C   -0.004299  -0.002902  -0.040473   0.273508   4.353131   0.302126
     6  O   -0.022805   0.006948   0.003210  -0.105707   0.302126   8.124625
     7  O   -0.000014  -0.000041   0.000610  -0.098829   0.588081  -0.074882
     8  C    0.000893   0.005656  -0.040144   0.306445  -0.029827   0.003945
     9  C   -0.000047  -0.000013  -0.002657  -0.031365   0.004772  -0.000020
    10  C   -0.000059   0.000369   0.000801  -0.003233   0.000222  -0.000003
    11  N    0.000000  -0.000002  -0.000009  -0.000009  -0.000001   0.000000
    12  C    0.000000  -0.000001   0.000034  -0.000119   0.000002   0.000000
    13  N    0.000000  -0.000004  -0.000174   0.001955  -0.000068   0.000000
    14  C   -0.077572   0.311927  -0.099194   0.006200  -0.000265  -0.000019
    15  C    0.000338  -0.021152   0.001986  -0.000132   0.000017  -0.000009
    16  N    0.000165   0.003659  -0.000042   0.000000   0.000000   0.000000
    17  H    0.003476  -0.019427   0.342372  -0.032937   0.001087  -0.000154
    18  H    0.010953  -0.003182  -0.053255   0.380586  -0.038341   0.001692
    19  H    0.064900  -0.002872  -0.009224   0.010313  -0.022913   0.263634
    20  H    0.000003  -0.000052   0.003765  -0.034543  -0.000307   0.000186
    21  H   -0.000010   0.000030  -0.007771  -0.031265  -0.005597   0.000024
    22  H    0.000065   0.000275  -0.000301   0.000471  -0.000004   0.000001
    23  H    0.000000   0.000000   0.000000   0.000002   0.000000   0.000000
    24  H    0.000000   0.000000  -0.000006  -0.000030  -0.000002   0.000000
    25  H    0.002966  -0.037869   0.001305   0.000331   0.000009   0.000015
    26  H   -0.000684  -0.016657  -0.001417  -0.000273  -0.000001  -0.000001
    27  H    0.008994  -0.006251   0.000447   0.000002   0.000001   0.000005
    28  H    0.000297   0.005777   0.000065  -0.000024   0.000004   0.000003
    29  H    0.000005  -0.000211   0.000002   0.000000   0.000000   0.000000
    30  H    0.000000  -0.000284   0.000002   0.000000   0.000000   0.000000
               7          8          9         10         11         12
     1  O   -0.000014   0.000893  -0.000047  -0.000059   0.000000   0.000000
     2  C   -0.000041   0.005656  -0.000013   0.000369  -0.000002  -0.000001
     3  N    0.000610  -0.040144  -0.002657   0.000801  -0.000009   0.000034
     4  C   -0.098829   0.306445  -0.031365  -0.003233  -0.000009  -0.000119
     5  C    0.588081  -0.029827   0.004772   0.000222  -0.000001   0.000002
     6  O   -0.074882   0.003945  -0.000020  -0.000003   0.000000   0.000000
     7  O    8.012283   0.008121   0.001288   0.000008   0.000000   0.000000
     8  C    0.008121   5.148771   0.266786  -0.067526   0.007375   0.006687
     9  C    0.001288   0.266786   4.863225   0.582769  -0.046558  -0.091168
    10  C    0.000008  -0.067526   0.582769   4.863384   0.423559  -0.120309
    11  N    0.000000   0.007375  -0.046558   0.423559   6.676084   0.541756
    12  C    0.000000   0.006687  -0.091168  -0.120309   0.541756   4.677373
    13  N    0.000000  -0.055545   0.329432  -0.075118  -0.083851   0.347120
    14  C    0.000000  -0.000141  -0.000034  -0.000006   0.000000   0.000000
    15  C    0.000000   0.000000   0.000000   0.000000   0.000000   0.000000
    16  N    0.000000   0.000000   0.000000   0.000000   0.000000   0.000000
    17  H   -0.000021  -0.003679   0.001866   0.000477  -0.000018  -0.000022
    18  H    0.001735  -0.035223  -0.004460   0.001355  -0.000084   0.000000
    19  H    0.003067   0.000142  -0.000039   0.000004   0.000000   0.000000
    20  H    0.008111   0.380460  -0.032216  -0.000966  -0.000030   0.000137
    21  H    0.003456   0.363325  -0.035140   0.003640  -0.000164   0.000074
    22  H    0.000001  -0.001178  -0.057863   0.393351  -0.039942   0.007118
    23  H    0.000000  -0.000128   0.003326   0.006761  -0.036723   0.392231
    24  H    0.000000  -0.003132  -0.030649   0.008837   0.005377  -0.024450
    25  H    0.000000  -0.000037  -0.000002   0.000000   0.000000   0.000000
    26  H    0.000000   0.000004   0.000012   0.000024   0.000000   0.000000
    27  H    0.000000   0.000000   0.000000   0.000000   0.000000   0.000000
    28  H    0.000000   0.000000   0.000000   0.000000   0.000000   0.000000
    29  H    0.000000   0.000000   0.000000   0.000000   0.000000   0.000000
    30  H    0.000000   0.000000   0.000000   0.000000   0.000000   0.000000
              13         14         15         16         17         18
     1  O    0.000000  -0.077572   0.000338   0.000165   0.003476   0.010953
     2  C   -0.000004   0.311927  -0.021152   0.003659  -0.019427  -0.003182
     3  N   -0.000174  -0.099194   0.001986  -0.000042   0.342372  -0.053255
     4  C    0.001955   0.006200  -0.000132   0.000000  -0.032937   0.380586
     5  C   -0.000068  -0.000265   0.000017   0.000000   0.001087  -0.038341
     6  O    0.000000  -0.000019  -0.000009   0.000000  -0.000154   0.001692
     7  O    0.000000   0.000000   0.000000   0.000000  -0.000021   0.001735
     8  C   -0.055545  -0.000141   0.000000   0.000000  -0.003679  -0.035223
     9  C    0.329432  -0.000034   0.000000   0.000000   0.001866  -0.004460
    10  C   -0.075118  -0.000006   0.000000   0.000000   0.000477   0.001355
    11  N   -0.083851   0.000000   0.000000   0.000000  -0.000018  -0.000084
    12  C    0.347120   0.000000   0.000000   0.000000  -0.000022   0.000000
    13  N    6.791830  -0.000001   0.000000   0.000000  -0.000018   0.000182
    14  C   -0.000001   5.193614   0.338342  -0.057818  -0.000422   0.000570
    15  C    0.000000   0.338342   4.801955   0.294181  -0.000050  -0.000035
    16  N    0.000000  -0.057818   0.294181   6.771628  -0.000009   0.000000
    17  H   -0.000018  -0.000422  -0.000050  -0.000009   0.426011   0.003791
    18  H    0.000182   0.000570  -0.000035   0.000000   0.003791   0.570346
    19  H    0.000000   0.001127   0.000079   0.000001   0.000041  -0.001234
    20  H   -0.001021   0.000004   0.000000   0.000000   0.000107  -0.002259
    21  H   -0.005132  -0.000019   0.000000   0.000000   0.003871   0.005578
    22  H    0.004608  -0.000002   0.000000   0.000000  -0.000029   0.002630
    23  H   -0.057181   0.000000   0.000000   0.000000   0.000000   0.000000
    24  H    0.338223   0.000000   0.000000   0.000000   0.000005   0.000006
    25  H    0.000000   0.366959  -0.039762  -0.002402   0.002943  -0.000012
    26  H    0.000000   0.361360  -0.028155   0.005791   0.000154   0.000047
    27  H    0.000000  -0.030484   0.390539  -0.037225  -0.000009  -0.000002
    28  H    0.000000  -0.062249   0.387355  -0.046643   0.000009   0.000002
    29  H    0.000000   0.005963  -0.032823   0.339428   0.000000   0.000000
    30  H    0.000000  -0.005308  -0.035863   0.336157   0.000001   0.000000
              19         20         21         22         23         24
     1  O    0.064900   0.000003  -0.000010   0.000065   0.000000   0.000000
     2  C   -0.002872  -0.000052   0.000030   0.000275   0.000000   0.000000
     3  N   -0.009224   0.003765  -0.007771  -0.000301   0.000000  -0.000006
     4  C    0.010313  -0.034543  -0.031265   0.000471   0.000002  -0.000030
     5  C   -0.022913  -0.000307  -0.005597  -0.000004   0.000000  -0.000002
     6  O    0.263634   0.000186   0.000024   0.000001   0.000000   0.000000
     7  O    0.003067   0.008111   0.003456   0.000001   0.000000   0.000000
     8  C    0.000142   0.380460   0.363325  -0.001178  -0.000128  -0.003132
     9  C   -0.000039  -0.032216  -0.035140  -0.057863   0.003326  -0.030649
    10  C    0.000004  -0.000966   0.003640   0.393351   0.006761   0.008837
    11  N    0.000000  -0.000030  -0.000164  -0.039942  -0.036723   0.005377
    12  C    0.000000   0.000137   0.000074   0.007118   0.392231  -0.024450
    13  N    0.000000  -0.001021  -0.005132   0.004608  -0.057181   0.338223
    14  C    0.001127   0.000004  -0.000019  -0.000002   0.000000   0.000000
    15  C    0.000079   0.000000   0.000000   0.000000   0.000000   0.000000
    16  N    0.000001   0.000000   0.000000   0.000000   0.000000   0.000000
    17  H    0.000041   0.000107   0.003871  -0.000029   0.000000   0.000005
    18  H   -0.001234  -0.002259   0.005578   0.002630   0.000000   0.000006
    19  H    0.345536  -0.000006  -0.000033  -0.000007   0.000000   0.000000
    20  H   -0.000006   0.549672  -0.032422   0.000082   0.000003   0.000165
    21  H   -0.000033  -0.032422   0.627080  -0.000033  -0.000009   0.002862
    22  H   -0.000007   0.000082  -0.000033   0.595960  -0.000163  -0.000097
    23  H    0.000000   0.000003  -0.000009  -0.000163   0.577771   0.000261
    24  H    0.000000   0.000165   0.002862  -0.000097   0.000261   0.440155
    25  H   -0.000113   0.000000   0.000000   0.000000   0.000000   0.000000
    26  H    0.000004   0.000000   0.000001   0.000009   0.000000   0.000000
    27  H   -0.000056   0.000000   0.000000   0.000000   0.000000   0.000000
    28  H    0.000042   0.000000   0.000000   0.000000   0.000000   0.000000
    29  H    0.000000   0.000000   0.000000   0.000000   0.000000   0.000000
    30  H    0.000000   0.000000   0.000000   0.000000   0.000000   0.000000
              25         26         27         28         29         30
     1  O    0.002966  -0.000684   0.008994   0.000297   0.000005   0.000000
     2  C   -0.037869  -0.016657  -0.006251   0.005777  -0.000211  -0.000284
     3  N    0.001305  -0.001417   0.000447   0.000065   0.000002   0.000002
     4  C    0.000331  -0.000273   0.000002  -0.000024   0.000000   0.000000
     5  C    0.000009  -0.000001   0.000001   0.000004   0.000000   0.000000
     6  O    0.000015  -0.000001   0.000005   0.000003   0.000000   0.000000
     7  O    0.000000   0.000000   0.000000   0.000000   0.000000   0.000000
     8  C   -0.000037   0.000004   0.000000   0.000000   0.000000   0.000000
     9  C   -0.000002   0.000012   0.000000   0.000000   0.000000   0.000000
    10  C    0.000000   0.000024   0.000000   0.000000   0.000000   0.000000
    11  N    0.000000   0.000000   0.000000   0.000000   0.000000   0.000000
    12  C    0.000000   0.000000   0.000000   0.000000   0.000000   0.000000
    13  N    0.000000   0.000000   0.000000   0.000000   0.000000   0.000000
    14  C    0.366959   0.361360  -0.030484  -0.062249   0.005963  -0.005308
    15  C   -0.039762  -0.028155   0.390539   0.387355  -0.032823  -0.035863
    16  N   -0.002402   0.005791  -0.037225  -0.046643   0.339428   0.336157
    17  H    0.002943   0.000154  -0.000009   0.000009   0.000000   0.000001
    18  H   -0.000012   0.000047  -0.000002   0.000002   0.000000   0.000000
    19  H   -0.000113   0.000004  -0.000056   0.000042   0.000000   0.000000
    20  H    0.000000   0.000000   0.000000   0.000000   0.000000   0.000000
    21  H    0.000000   0.000001   0.000000   0.000000   0.000000   0.000000
    22  H    0.000000   0.000009   0.000000   0.000000   0.000000   0.000000
    23  H    0.000000   0.000000   0.000000   0.000000   0.000000   0.000000
    24  H    0.000000   0.000000   0.000000   0.000000   0.000000   0.000000
    25  H    0.638503  -0.031510   0.005793  -0.006080  -0.000040   0.004691
    26  H   -0.031510   0.549008  -0.006612   0.006541  -0.000021  -0.000850
    27  H    0.005793  -0.006612   0.577997  -0.043057  -0.004606   0.006204
    28  H   -0.006080   0.006541  -0.043057   0.676883  -0.002100  -0.006760
    29  H   -0.000040  -0.000021  -0.004606  -0.002100   0.484919  -0.034209
    30  H    0.004691  -0.000850   0.006204  -0.006760  -0.034209   0.501072
 Mulliken charges:
               1
     1  O   -0.557855
     2  C    0.615218
     3  N   -0.515789
     4  C   -0.053120
     5  C    0.622039
     6  O   -0.502816
     7  O   -0.452974
     8  C   -0.262050
     9  C    0.278756
    10  C   -0.018339
    11  N   -0.446761
    12  C    0.263536
    13  N   -0.535235
    14  C   -0.252532
    15  C   -0.056811
    16  N   -0.606871
    17  H    0.270584
    18  H    0.158616
    19  H    0.347608
    20  H    0.161132
    21  H    0.107655
    22  H    0.095048
    23  H    0.113849
    24  H    0.262476
    25  H    0.094314
    26  H    0.163228
    27  H    0.138322
    28  H    0.089934
    29  H    0.243692
    30  H    0.235146
 Sum of Mulliken charges =   0.00000
 Mulliken charges with hydrogens summed into heavy atoms:
               1
     1  O   -0.557855
     2  C    0.615218
     3  N   -0.245205
     4  C    0.105496
     5  C    0.622039
     6  O   -0.155208
     7  O   -0.452974
     8  C    0.006737
     9  C    0.278756
    10  C    0.076709
    11  N   -0.446761
    12  C    0.377386
    13  N   -0.272760
    14  C    0.005010
    15  C    0.171445
    16  N   -0.128032
 APT charges:
               1
     1  O   -0.241023
     2  C    0.066790
     3  N   -0.464644
     4  C   -0.373986
     5  C   -0.623440
     6  O    0.027397
     7  O    0.521942
     8  C   -0.991656
     9  C   -0.163425
    10  C   -0.305153
    11  N   -0.224928
    12  C   -0.326691
    13  N   -0.849331
    14  C   -0.482939
    15  C   -0.566076
    16  N   -1.707635
    17  H    0.416074
    18  H    0.334955
    19  H    0.135786
    20  H    0.638022
    21  H    0.314633
    22  H    0.209083
    23  H    0.992943
    24  H    0.741526
    25  H    0.254632
    26  H    0.362631
    27  H    0.412408
    28  H    0.349525
    29  H    1.073388
    30  H    0.469194
 Sum of APT charges =   0.00000
 APT charges with hydrogens summed into heavy atoms:
               1
     1  O   -0.241023
     2  C    0.066790
     3  N   -0.048570
     4  C   -0.039032
     5  C   -0.623440
     6  O    0.163182
     7  O    0.521942
     8  C   -0.039001
     9  C   -0.163425
    10  C   -0.096070
    11  N   -0.224928
    12  C    0.666252
    13  N   -0.107805
    14  C    0.134323
    15  C    0.195857
    16  N   -0.165052
 Electronic spatial extent (au):  <R**2>=           4807.0691
 Charge=              0.0000 electrons
 Dipole moment (field-independent basis, Debye):
    X=              3.0975    Y=              3.7431    Z=             -2.5196  Tot=              5.4730
 Quadrupole moment (field-independent basis, Debye-Ang):
   XX=            -88.3387   YY=           -112.1908   ZZ=            -89.9281
   XY=              4.1987   XZ=              9.9586   YZ=            -19.0137
 Traceless Quadrupole moment (field-independent basis, Debye-Ang):
   XX=              8.4805   YY=            -15.3716   ZZ=              6.8911
   XY=              4.1987   XZ=              9.9586   YZ=            -19.0137
 Octapole moment (field-independent basis, Debye-Ang**2):
  XXX=            196.4727  YYY=            107.9557  ZZZ=             14.1232  XYY=             24.3857
  XXY=             -8.6760  XXZ=             14.5474  XZZ=             13.8884  YZZ=             55.6135
  YYZ=             13.3902  XYZ=             15.2427
 Hexadecapole moment (field-independent basis, Debye-Ang**3):
 XXXX=          -2698.7153 YYYY=          -1983.6538 ZZZZ=          -1445.6223 XXXY=            440.3401
 XXXZ=           -560.3512 YYYX=            314.8993 YYYZ=           -229.8191 ZZZX=           -660.4457
 ZZZY=           -201.4606 XXYY=           -799.2337 XXZZ=           -591.9411 YYZZ=           -604.3294
 XXYZ=           -111.7204 YYXZ=           -215.4365 ZZXY=              3.7193
 N-N= 1.109635088449D+03 E-N=-4.075786034292D+03  KE= 7.891867633905D+02
  Exact polarizability:   0.000   0.000   0.000   0.000   0.000   0.000
 Approx polarizability: 142.260 -12.609 178.973   0.363  -7.844 214.176
 Calling FoFJK, ICntrl=    100147 FMM=F ISym2X=0 I1Cent= 0 IOpClX= 0 NMat=1 NMatS=1 NMatT=0.
 -------------------------------------------------------------------
 Center     Atomic                   Forces (Hartrees/Bohr)
 Number     Number              X              Y              Z
 -------------------------------------------------------------------
      1        8          -0.000991103   -0.010433577    0.007393600
      2        6           0.000809078    0.007489711   -0.003914536
      3        7          -0.004566995   -0.003635052   -0.001665826
      4        6          -0.002325170    0.002926900   -0.004842651
      5        6           0.004288099   -0.000013750    0.011157284
      6        8           0.001069552   -0.003148925   -0.001585606
      7        8          -0.002634101   -0.003019823   -0.013381781
      8        6          -0.005477393    0.002333150    0.002690641
      9        6           0.008392577   -0.005786621   -0.006099638
     10        6          -0.003626756    0.005637602    0.005812699
     11        7          -0.001581241   -0.000989912    0.003934477
     12        6          -0.003631037    0.004038959    0.002840385
     13        7           0.003340228   -0.002336544   -0.002490154
     14        6          -0.001141686   -0.000191602    0.000736095
     15        6           0.005498559    0.003541503    0.001932566
     16        7          -0.004437308    0.000407963    0.002027768
     17        1           0.000954158    0.002996384   -0.002108266
     18        1          -0.000966874   -0.000414276    0.002889101
     19        1          -0.000097596    0.002239057    0.005460006
     20        1           0.000524645   -0.003812730   -0.000526270
     21        1           0.003391630    0.000266398   -0.004104914
     22        1           0.000828773   -0.000620475    0.000488136
     23        1          -0.001249937    0.003264994   -0.001184306
     24        1           0.000274917    0.000058486   -0.002535701
     25        1           0.001578570    0.002324925   -0.002015998
     26        1          -0.000686879    0.001996489    0.000627095
     27        1          -0.000247226   -0.000862815    0.000668117
     28        1          -0.000482914   -0.004022923   -0.001636443
     29        1           0.001484747   -0.001389362    0.002483441
     30        1           0.001708686    0.001155865   -0.003049319
 -------------------------------------------------------------------
 Cartesian Forces:  Max     0.013381781 RMS     0.003743530
 FormGI is forming the generalized inverse of G from B-inverse, IUseBI=4.
 GSVD:  received Info=                   1 from GESDD.

 GradGradGradGradGradGradGradGradGradGradGradGradGradGradGradGradGradGrad
 Berny optimization.
 Internal  Forces:  Max     0.013818030 RMS     0.002564274
 Search for a local minimum.
 Step number   1 out of a maximum of  160
 All quantities printed in internal units (Hartrees-Bohrs-Radians)
 Mixed Optimization -- RFO/linear search
 Second derivative matrix not updated -- analytic derivatives used.
 ITU=  0
     Eigenvalues ---   -0.00048   0.00033   0.00110   0.00229   0.00247
     Eigenvalues ---    0.00269   0.00472   0.00509   0.00876   0.00986
     Eigenvalues ---    0.01932   0.01972   0.02486   0.03182   0.03236
     Eigenvalues ---    0.03566   0.03851   0.04008   0.04295   0.04335
     Eigenvalues ---    0.04638   0.04833   0.05178   0.05205   0.05241
     Eigenvalues ---    0.06193   0.06466   0.07023   0.07647   0.08289
     Eigenvalues ---    0.08317   0.10275   0.10774   0.11057   0.11849
     Eigenvalues ---    0.11897   0.12086   0.13584   0.15038   0.15701
     Eigenvalues ---    0.16716   0.17453   0.18549   0.18912   0.19683
     Eigenvalues ---    0.20849   0.21314   0.22432   0.23284   0.23615
     Eigenvalues ---    0.24142   0.25076   0.27151   0.29356   0.30489
     Eigenvalues ---    0.31507   0.32085   0.32881   0.33897   0.34052
     Eigenvalues ---    0.34230   0.34543   0.34631   0.34701   0.34800
     Eigenvalues ---    0.35391   0.36803   0.37714   0.38307   0.38320
     Eigenvalues ---    0.41953   0.42384   0.45646   0.46089   0.46206
     Eigenvalues ---    0.47343   0.48765   0.48852   0.49532   0.51702
     Eigenvalues ---    0.60199   0.62284   0.83129   0.94470
 RFO step:  Lambda=-4.84308790D-03 EMin=-4.78907338D-04
 Linear search not attempted -- first point.
 Iteration  1 RMS(Cart)=  0.20392995 RMS(Int)=  0.04509618
 Iteration  2 RMS(Cart)=  0.12257083 RMS(Int)=  0.00845910
 Iteration  3 RMS(Cart)=  0.01286449 RMS(Int)=  0.00023916
 Iteration  4 RMS(Cart)=  0.00009940 RMS(Int)=  0.00023250
 Iteration  5 RMS(Cart)=  0.00000001 RMS(Int)=  0.00023250
 Variable       Old X    -DE/DX   Delta X   Delta X   Delta X     New X
                                 (Linear)    (Quad)   (Total)
    R1        2.32689   0.01242   0.00000   0.01862   0.01862   2.34552
    R2        2.55249   0.00599   0.00000   0.00380   0.00380   2.55630
    R3        2.84691   0.00473   0.00000   0.01062   0.01062   2.85753
    R4        2.76559  -0.00027   0.00000   0.00461   0.00461   2.77020
    R5        1.89852   0.00377   0.00000   0.00886   0.00886   1.90737
    R6        2.90505   0.00387   0.00000   0.01568   0.01568   2.92073
    R7        2.88017   0.00124   0.00000  -0.00213  -0.00213   2.87804
    R8        2.06327   0.00290   0.00000   0.01154   0.01154   2.07481
    R9        2.52649   0.00368   0.00000  -0.00665  -0.00665   2.51984
   R10        2.26968   0.01382   0.00000   0.01640   0.01640   2.28608
   R11        1.85437   0.00583   0.00000   0.02117   0.02117   1.87554
   R12        2.82850   0.00144   0.00000  -0.00363  -0.00363   2.82487
   R13        2.06160   0.00240   0.00000   0.00802   0.00802   2.06963
   R14        2.05991   0.00519   0.00000   0.01572   0.01572   2.07563
   R15        2.58110   0.00925   0.00000   0.01943   0.01943   2.60054
   R16        2.60947   0.00379   0.00000   0.00683   0.00685   2.61632
   R17        2.61455   0.00032   0.00000  -0.00548  -0.00550   2.60905
   R18        2.04034   0.00073   0.00000   0.00234   0.00234   2.04268
   R19        2.47828   0.00309   0.00000   0.00480   0.00478   2.48306
   R20        2.56878   0.00953   0.00000   0.01861   0.01862   2.58740
   R21        2.03357   0.00368   0.00000   0.00898   0.00898   2.04256
   R22        1.90088   0.00251   0.00000   0.00552   0.00552   1.90640
   R23        2.87562   0.00438   0.00000   0.01467   0.01467   2.89029
   R24        2.06367   0.00327   0.00000   0.00922   0.00922   2.07289
   R25        2.06603   0.00207   0.00000   0.00639   0.00639   2.07242
   R26        2.77105  -0.00022   0.00000  -0.00623  -0.00623   2.76482
   R27        2.06184   0.00099   0.00000   0.00332   0.00332   2.06515
   R28        2.07378   0.00356   0.00000   0.01118   0.01118   2.08496
   R29        1.91429   0.00312   0.00000   0.00649   0.00649   1.92078
   R30        1.91548   0.00367   0.00000   0.00783   0.00783   1.92331
    A1        2.10901   0.00064   0.00000   0.00276   0.00276   2.11178
    A2        2.14302  -0.00243   0.00000  -0.01402  -0.01402   2.12900
    A3        2.03098   0.00181   0.00000   0.01128   0.01128   2.04226
    A4        2.12095   0.00140   0.00000   0.00854   0.00699   2.12794
    A5        2.09200  -0.00039   0.00000  -0.01046  -0.01204   2.07996
    A6        2.06136  -0.00101   0.00000  -0.01106  -0.01263   2.04873
    A7        1.93840  -0.00043   0.00000   0.00805   0.00806   1.94645
    A8        1.93120  -0.00126   0.00000  -0.00387  -0.00389   1.92731
    A9        1.87267  -0.00044   0.00000  -0.00725  -0.00725   1.86542
   A10        1.93336   0.00241   0.00000   0.00034   0.00034   1.93370
   A11        1.86974  -0.00079   0.00000  -0.00118  -0.00117   1.86857
   A12        1.91642   0.00044   0.00000   0.00380   0.00379   1.92021
   A13        1.99609  -0.00052   0.00000   0.00764   0.00763   2.00372
   A14        2.15758  -0.00206   0.00000  -0.02169  -0.02169   2.13589
   A15        2.12950   0.00257   0.00000   0.01402   0.01401   2.14351
   A16        1.91934   0.00124   0.00000   0.00097   0.00097   1.92032
   A17        1.97644  -0.00316   0.00000  -0.01627  -0.01618   1.96026
   A18        1.89597  -0.00203   0.00000  -0.02403  -0.02388   1.87208
   A19        1.90135   0.00149   0.00000  -0.00167  -0.00163   1.89972
   A20        1.92284   0.00426   0.00000   0.03428   0.03406   1.95691
   A21        1.92290   0.00022   0.00000   0.01116   0.01101   1.93391
   A22        1.83903  -0.00063   0.00000  -0.00324  -0.00364   1.83540
   A23        2.33762  -0.00092   0.00000  -0.00568  -0.00570   2.33192
   A24        2.11454   0.00360   0.00000   0.01402   0.01399   2.12853
   A25        1.83096  -0.00269   0.00000  -0.00826  -0.00823   1.82274
   A26        1.93095   0.00269   0.00000   0.00831   0.00829   1.93924
   A27        2.24409  -0.00204   0.00000  -0.01344  -0.01346   2.23063
   A28        2.10814  -0.00065   0.00000   0.00511   0.00509   2.11323
   A29        1.83770   0.00001   0.00000  -0.00048  -0.00051   1.83719
   A30        1.94768  -0.00014   0.00000  -0.00022  -0.00022   1.94746
   A31        2.20021  -0.00026   0.00000   0.00047   0.00046   2.20067
   A32        2.13529   0.00040   0.00000  -0.00024  -0.00024   2.13505
   A33        1.87746   0.00013   0.00000   0.00071   0.00066   1.87812
   A34        2.19363   0.00003   0.00000   0.00237   0.00226   2.19590
   A35        2.21207  -0.00016   0.00000  -0.00292  -0.00303   2.20904
   A36        1.95848  -0.00114   0.00000  -0.00297  -0.00298   1.95550
   A37        1.91696   0.00115   0.00000   0.00986   0.00985   1.92681
   A38        1.88808   0.00021   0.00000  -0.00316  -0.00316   1.88492
   A39        1.93139   0.00002   0.00000   0.00425   0.00424   1.93563
   A40        1.89544   0.00038   0.00000   0.00044   0.00043   1.89587
   A41        1.87074  -0.00060   0.00000  -0.00907  -0.00905   1.86169
   A42        1.90536   0.00086   0.00000   0.00712   0.00706   1.91242
   A43        1.89372  -0.00019   0.00000  -0.00840  -0.00844   1.88528
   A44        1.91173  -0.00120   0.00000  -0.00790  -0.00811   1.90362
   A45        1.90259  -0.00081   0.00000  -0.00410  -0.00404   1.89854
   A46        1.97626   0.00171   0.00000   0.02393   0.02393   2.00020
   A47        1.87238  -0.00046   0.00000  -0.01221  -0.01230   1.86008
   A48        1.91889  -0.00057   0.00000  -0.00289  -0.00288   1.91600
   A49        1.91673  -0.00022   0.00000   0.00330   0.00330   1.92003
   A50        1.84682   0.00055   0.00000   0.00422   0.00422   1.85105
    D1        0.13135   0.00209   0.00000   0.08239   0.08233   0.21368
    D2        3.12748   0.00202   0.00000  -0.02432  -0.02425   3.10323
    D3       -2.99099   0.00109   0.00000   0.08117   0.08110  -2.90989
    D4        0.00514   0.00101   0.00000  -0.02554  -0.02548  -0.02034
    D5        0.65326  -0.00063   0.00000  -0.02668  -0.02668   0.62658
    D6        2.80934  -0.00057   0.00000  -0.01609  -0.01608   2.79326
    D7       -1.43736  -0.00054   0.00000  -0.02333  -0.02334  -1.46070
    D8       -2.50800   0.00043   0.00000  -0.02522  -0.02523  -2.53323
    D9       -0.35193   0.00049   0.00000  -0.01464  -0.01463  -0.36656
   D10        1.68456   0.00053   0.00000  -0.02187  -0.02189   1.66267
   D11       -1.42733   0.00226   0.00000   0.03671   0.03679  -1.39055
   D12        2.70115   0.00036   0.00000   0.03335   0.03343   2.73458
   D13        0.61075   0.00082   0.00000   0.03540   0.03545   0.64620
   D14        1.85726   0.00229   0.00000   0.14161   0.14155   1.99880
   D15       -0.29744   0.00039   0.00000   0.13824   0.13819  -0.15926
   D16       -2.38785   0.00085   0.00000   0.14029   0.14021  -2.24764
   D17        1.04825   0.00013   0.00000  -0.00743  -0.00745   1.04080
   D18       -2.09900  -0.00003   0.00000  -0.01359  -0.01358  -2.11257
   D19       -3.08148  -0.00007   0.00000  -0.00646  -0.00647  -3.08795
   D20        0.05447  -0.00024   0.00000  -0.01263  -0.01260   0.04186
   D21       -0.99163   0.00136   0.00000  -0.00238  -0.00240  -0.99403
   D22        2.14432   0.00120   0.00000  -0.00855  -0.00853   2.13578
   D23       -1.23396   0.00223   0.00000   0.17118   0.17123  -1.06273
   D24        2.90702   0.00039   0.00000   0.15573   0.15570   3.06272
   D25        0.91225   0.00144   0.00000   0.17314   0.17313   1.08537
   D26        2.89162   0.00197   0.00000   0.16336   0.16341   3.05503
   D27        0.74942   0.00013   0.00000   0.14792   0.14788   0.89730
   D28       -1.24535   0.00117   0.00000   0.16532   0.16531  -1.08004
   D29        0.82997   0.00119   0.00000   0.16224   0.16229   0.99226
   D30       -1.31223  -0.00064   0.00000   0.14680   0.14676  -1.16548
   D31        2.97618   0.00040   0.00000   0.16420   0.16418   3.14037
   D32        0.01010   0.00046   0.00000  -0.02317  -0.02322  -0.01311
   D33       -3.12594   0.00064   0.00000  -0.01698  -0.01693   3.14031
   D34       -0.47110   0.00112   0.00000   0.39837   0.39845  -0.07265
   D35        2.68427   0.00103   0.00000   0.38898   0.38906   3.07333
   D36        1.65614  -0.00060   0.00000   0.38106   0.38081   2.03695
   D37       -1.47168  -0.00069   0.00000   0.37167   0.37142  -1.10026
   D38       -2.60535   0.00126   0.00000   0.40376   0.40392  -2.20143
   D39        0.55002   0.00117   0.00000   0.39436   0.39453   0.94455
   D40       -3.13537   0.00044   0.00000   0.00187   0.00198  -3.13339
   D41        0.00835   0.00029   0.00000   0.01406   0.01408   0.02243
   D42       -0.00598   0.00055   0.00000   0.01032   0.01034   0.00436
   D43        3.13774   0.00040   0.00000   0.02251   0.02244  -3.12301
   D44        3.13558  -0.00047   0.00000  -0.00414  -0.00408   3.13150
   D45       -0.01287   0.00009   0.00000   0.01934   0.01943   0.00656
   D46        0.00425  -0.00053   0.00000  -0.01111  -0.01107  -0.00682
   D47        3.13898   0.00002   0.00000   0.01237   0.01244  -3.13176
   D48        0.00540  -0.00037   0.00000  -0.00549  -0.00550  -0.00010
   D49       -3.13813  -0.00023   0.00000  -0.01661  -0.01668   3.12837
   D50       -0.00257   0.00002   0.00000  -0.00184  -0.00186  -0.00443
   D51        3.13619   0.00009   0.00000   0.00261   0.00265   3.13885
   D52       -0.00106   0.00032   0.00000   0.00832   0.00838   0.00731
   D53       -3.13570  -0.00025   0.00000  -0.01551  -0.01539   3.13209
   D54       -3.13995   0.00026   0.00000   0.00407   0.00406  -3.13589
   D55        0.00859  -0.00031   0.00000  -0.01976  -0.01971  -0.01111
   D56       -3.09075   0.00126   0.00000   0.03994   0.03992  -3.05082
   D57       -1.01931   0.00067   0.00000   0.03421   0.03417  -0.98514
   D58        1.01946  -0.00066   0.00000   0.01045   0.01052   1.02998
   D59        1.04446   0.00057   0.00000   0.02617   0.02615   1.07061
   D60        3.11590  -0.00002   0.00000   0.02044   0.02040   3.13630
   D61       -1.12852  -0.00135   0.00000  -0.00332  -0.00326  -1.13177
   D62       -1.00442   0.00106   0.00000   0.03446   0.03445  -0.96997
   D63        1.06702   0.00047   0.00000   0.02874   0.02870   1.09571
   D64        3.10579  -0.00086   0.00000   0.00498   0.00504   3.11083
   D65        3.02936  -0.00037   0.00000  -0.02006  -0.02014   3.00921
   D66       -1.22858  -0.00016   0.00000  -0.01470  -0.01479  -1.24337
   D67        0.96346  -0.00016   0.00000  -0.01167  -0.01168   0.95178
   D68        2.98871   0.00005   0.00000  -0.00631  -0.00632   2.98239
   D69       -1.11917  -0.00012   0.00000  -0.00869  -0.00859  -1.12776
   D70        0.90608   0.00009   0.00000  -0.00333  -0.00323   0.90285
         Item               Value     Threshold  Converged?
 Maximum Force            0.013818     0.000450     NO 
 RMS     Force            0.002564     0.000300     NO 
 Maximum Displacement     2.035176     0.001800     NO 
 RMS     Displacement     0.297488     0.001200     NO 
 Predicted change in Energy=-4.509066D-03
 GradGradGradGradGradGradGradGradGradGradGradGradGradGradGradGradGradGrad

                          Input orientation:                          
 ---------------------------------------------------------------------
 Center     Atomic      Atomic             Coordinates (Angstroms)
 Number     Number       Type             X           Y           Z
 ---------------------------------------------------------------------
      1          8           0        0.589424   -1.629888    1.616442
      2          6           0        0.864590   -0.626374    0.939830
      3          7           0        0.331072   -0.447918   -0.290374
      4          6           0       -0.781398   -1.267921   -0.779197
      5          6           0       -0.292718   -2.645983   -1.280161
      6          8           0        0.329404   -3.386498   -0.362188
      7          8           0       -0.474206   -3.024447   -2.414753
      8          6           0       -1.542079   -0.532961   -1.874968
      9          6           0       -2.132270    0.752670   -1.391828
     10          6           0       -2.192079    1.366555   -0.161648
     11          7           0       -2.871770    2.565948   -0.236953
     12          6           0       -3.223827    2.685497   -1.497231
     13          7           0       -2.797297    1.619119   -2.242618
     14          6           0        1.784174    0.458504    1.453609
     15          6           0        2.921716   -0.108564    2.304328
     16          7           0        3.702806    0.989938    2.873362
     17          1           0        0.547295    0.394252   -0.802979
     18          1           0       -1.442098   -1.452558    0.078043
     19          1           0        0.374949   -2.893751    0.498142
     20          1           0       -2.305237   -1.219222   -2.257192
     21          1           0       -0.864017   -0.357350   -2.721031
     22          1           0       -1.774132    1.019753    0.772954
     23          1           0       -3.778335    3.507127   -1.928200
     24          1           0       -2.949931    1.476195   -3.229532
     25          1           0        2.177750    1.052683    0.619766
     26          1           0        1.190043    1.140964    2.073252
     27          1           0        2.478681   -0.684815    3.120376
     28          1           0        3.505607   -0.820847    1.696854
     29          1           0        4.379575    0.623028    3.537058
     30          1           0        4.244272    1.447169    2.142873
 ---------------------------------------------------------------------
                    Distance matrix (angstroms):
                    1          2          3          4          5
     1  O    0.000000
     2  C    1.241194   0.000000
     3  N    2.258262   1.352734   0.000000
     4  C    2.783749   2.464936   1.465927   0.000000
     5  C    3.193890   3.216604   2.490036   1.545583   0.000000
     6  O    2.658621   3.098380   2.939458   2.428198   1.333444
     7  O    4.396208   4.335477   3.435107   2.419668   1.209741
     8  C    4.235150   3.704574   2.454967   1.522996   2.525779
     9  C    4.704668   4.039748   2.953417   2.506584   3.866169
    10  C    4.458367   3.811594   3.110495   3.051533   4.578111
    11  N    5.746301   5.053328   4.398232   4.400254   5.907962
    12  C    6.546632   5.798526   4.890000   4.702186   6.087955
    13  N    6.076041   5.345992   4.227363   3.813195   5.038882
    14  C    2.411498   1.512139   2.444296   3.814201   4.628695
    15  C    2.868310   2.522251   3.682265   4.956338   5.442393
    16  N    4.258696   3.795588   4.842029   6.208639   6.814388
    17  H    3.154761   2.044440   1.009339   2.128100   3.190039
    18  H    2.554447   2.597319   2.071030   1.097942   2.142442
    19  H    1.701160   2.361321   2.570172   2.368977   1.915601
    20  H    4.853118   4.540949   3.378374   2.123423   2.653388
    21  H    4.748212   4.057383   2.710080   2.146318   2.764114
    22  H    3.649448   3.114552   2.777879   2.937371   4.455052
    23  H    7.617791   6.846034   5.933977   5.753515   7.101425
    24  H    6.757089   6.029506   4.806854   4.270463   5.277611
    25  H    3.272970   2.155473   2.547621   4.012338   4.836637
    26  H    2.871766   2.124629   2.974744   4.222058   5.271141
    27  H    2.593120   2.713574   4.037519   5.116131   5.558017
    28  H    3.027398   2.754247   3.763751   4.970826   5.159555
    29  H    4.809329   4.545517   5.673318   6.988662   7.464741
    30  H    4.806592   4.143567   4.982487   6.416195   7.003951
                    6          7          8          9         10
     6  O    0.000000
     7  O    2.233807   0.000000
     8  C    3.732777   2.763915   0.000000
     9  C    4.924705   4.249961   1.494857   0.000000
    10  C    5.384200   5.225751   2.639342   1.376145   0.000000
    11  N    6.759794   6.460932   3.748921   2.273449   1.380650
    12  C    7.126212   6.403571   3.650950   2.222257   2.141937
    13  N    6.194229   5.195102   2.518370   1.384499   2.181860
    14  C    4.494165   5.674104   4.808990   4.849906   4.386821
    15  C    4.957343   6.504183   6.129608   6.320291   5.865826
    16  N    6.403267   7.843908   7.237035   7.231615   6.640994
    17  H    3.812590   3.915199   2.524751   2.766817   2.976718
    18  H    2.659351   3.101884   2.160997   2.738593   2.926999
    19  H    0.992492   3.036956   3.857457   4.811915   5.017486
    20  H    3.902494   2.576109   1.095199   2.160354   3.330217
    21  H    4.020463   2.712778   1.098376   2.146483   3.359470
    22  H    5.012830   5.311011   3.078353   2.210403   1.080941
    23  H    8.176061   7.335902   4.618007   3.253345   3.196711
    24  H    6.528513   5.200851   2.802427   2.137571   3.162005
    25  H    4.907845   5.732728   4.751325   4.765794   4.450228
    26  H    5.212483   6.345279   5.084776   4.816152   4.060101
    27  H    4.903747   6.695601   6.414283   6.609631   6.065954
    28  H    4.572798   6.131890   6.190308   6.618276   6.379842
    29  H    6.905383   8.502195   8.105080   8.167917   7.577592
    30  H    6.705659   7.939228   7.317500   7.323710   6.836953
                   11         12         13         14         15
    11  N    0.000000
    12  C    1.313977   0.000000
    13  N    2.219172   1.369194   0.000000
    14  C    5.383041   6.224711   5.999917   0.000000
    15  C    6.868450   7.747666   7.507777   1.529474   0.000000
    16  N    7.441970   8.363925   8.295810   2.445255   1.463082
    17  H    4.089823   4.466895   3.841765   2.574138   3.942849
    18  H    4.276865   4.772792   4.081328   3.994142   5.079915
    19  H    6.394518   6.932583   6.159619   3.759847   4.183970
    20  H    4.327798   4.082668   2.880714   5.771316   7.025814
    21  H    4.329825   4.040459   2.805866   5.010604   6.296658
    22  H    2.148358   3.167027   3.240337   3.666038   5.066478
    23  H    2.137287   1.080875   2.150783   7.188341   8.710809
    24  H    3.185781   2.130329   1.008823   6.736413   8.222610
    25  H    5.340561   6.027005   5.767598   1.096925   2.177092
    26  H    4.885279   5.883552   5.895273   1.096677   2.147884
    27  H    7.103974   8.074645   7.868021   2.137201   1.092832
    28  H    7.475355   8.232977   7.823009   2.158527   1.103313
    29  H    8.402387   9.349309   9.268460   3.332257   2.044555
    30  H    7.586388   8.399780   8.297336   2.739457   2.048298
                   16         17         18         19         20
    16  N    0.000000
    17  H    4.881350   0.000000
    18  H    6.344260   2.853873   0.000000
    19  H    5.639091   3.540280   2.356943   0.000000
    20  H    8.203631   3.585383   2.500555   4.192768   0.000000
    21  H    7.346311   2.497124   3.060796   4.281522   1.742150
    22  H    5.865957   2.874690   2.589492   4.473208   3.804848
    23  H    9.238978   5.446760   5.837936   8.006756   4.961514
    24  H    9.041055   4.391964   4.668106   6.636777   2.937064
    25  H    2.721843   2.261884   4.435425   4.340418   5.790994
    26  H    2.641394   3.040298   4.199450   4.407298   6.044849
    27  H    2.089090   4.504148   5.021725   4.022586   7.217319
    28  H    2.168410   4.059217   5.243986   3.941429   7.039822
    29  H    1.016431   5.794362   7.082706   6.135127   9.036257
    30  H    1.017772   4.842966   6.708706   6.043210   8.328642
                   21         22         23         24         25
    21  H    0.000000
    22  H    3.864279   0.000000
    23  H    4.904693   4.183311   0.000000
    24  H    2.823385   4.196515   2.550373   0.000000
    25  H    4.733018   3.954987   6.927581   6.425696   0.000000
    26  H    5.426717   3.239105   6.804052   6.735821   1.759540
    27  H    6.738167   5.148044   9.067014   8.629086   3.059822
    28  H    6.231063   5.667190   9.215649   8.439174   2.536422
    29  H    8.223143   6.757646  10.234187  10.011808   3.680113
    30  H    7.280691   6.187128   9.229262   8.978872   2.597304
                   26         27         28         29         30
    26  H    0.000000
    27  H    2.467899   0.000000
    28  H    3.058139   1.760539   0.000000
    29  H    3.547408   2.344670   2.496988   0.000000
    30  H    3.070329   2.935674   2.426614   1.625198   0.000000
 Symmetry turned off by external request.
 Stoichiometry    C9H14N4O3
 Framework group  C1[X(C9H14N4O3)]
 Deg. of freedom    84
 Full point group                 C1      NOp   1
 Rotational constants (GHZ):      0.5882166      0.3336853      0.2273940
 Standard basis: 6-31G(d,p) (6D, 7F)
   310 basis functions,   546 primitive gaussians,   310 cartesian basis functions
    60 alpha electrons       60 beta electrons
       nuclear repulsion energy      1113.1495659177 Hartrees.
 NAtoms=   30 NActive=   30 NUniq=   30 SFac= 1.00D+00 NAtFMM=   60 NAOKFM=F Big=F
 Integral buffers will be    131072 words long.
 Raffenetti 2 integral format.
 Two-electron integral symmetry is turned off.
 Nuclear repulsion after empirical dispersion term =     1113.0951475781 Hartrees.
 One-electron integrals computed using PRISM.
 NBasis=   310 RedAO= T EigKep=  1.13D-03  NBF=   310
 NBsUse=   310 1.00D-06 EigRej= -1.00D+00 NBFU=   310
[...]
 46,-0.00004835,0.00001833,-0.00001296,0.00001199,-0.00001167,-0.000018
 81,-0.00001963,-0.00008232,0.00009239,0.00003552,-0.00007766,0.0000916
 2,-0.00011814,0.00004964,0.00006248,0.00012454,-0.00009605,-0.00080066
 ,0.00011759,0.00055804,-0.00006244,-0.00016646,0.00044823,0.00131546,0
 .00073453,-0.00014279,-0.00051953,0.00075324,-0.01190166,0.05715062,0.
 00004910,-0.00009954,0.00012199,-0.00012050,0.00008810,-0.00028284,0.0
 0020649,-0.00009781,0.00020207,-0.00003550,-0.00011550,-0.00026410,-0.
 00005507,0.00027565,0.00022675,0.00009453,-0.00018054,-0.00000268,0.00
 005621,-0.00015261,-0.00013630,0.00017366,-0.00011575,0.00076897,0.003
 09078,-0.00702745,-0.00870982,-0.00105273,0.00104818,-0.00132145,-0.00
 005517,-0.00223963,0.00011472,-0.00223737,0.00500478,-0.00682410,-0.04
 994071,-0.05568002,-0.44702529,0.00001744,-0.00000404,0.00003829,-0.00
 005124,0.00001173,-0.00002223,0.00003025,0.00001068,0.00002791,-0.0001
 1545,0.00003969,-0.00000461,0.00001853,0.00000052,0.00001602,-0.000030
 46,0.00004593,-0.00002077,-0.00009695,0.00029703,0.00012790,-0.0000419
 8,0.00030697,0.00009426,-0.00017506,-0.00045816,-0.00005934,0.00028903
 ,-0.00004420,0.00014924,0.04997054,0.05909378,0.46279766,-0.00091603,-
 0.00517842,-0.00274627,-0.00466796,-0.00648832,0.01873784,0.00032758,0
 .00016263,-0.00142732,0.00013530,0.00024245,0.00022300,0.00046195,-0.0
 0037870,0.00051952,-0.00036191,-0.00011179,-0.00092345,-0.00015721,0.0
 0007623,-0.00029861,0.00005828,0.00000298,-0.00000360,0.00001710,-0.00
 002753,-0.00009353,0.00009842,0.00000653,0.00007020,0.00001998,0.00007
 798,-0.00001336,-0.00003050,0.00002667,-0.00002143,0.00001135,0.000014
 37,0.00002793,-0.07446891,-0.04703331,0.05560934,0.00896769,0.01684663
 ,-0.02204875,0.00181389,0.00059814,0.00126934,-0.00125703,-0.00065883,
 -0.00113057,0.00005384,0.00001722,0.00005316,0.00019643,0.00076539,0.0
 0100808,0.00001261,0.00000013,0.00001668,-0.00001800,-0.00000552,-0.00
 001602,-0.00001035,-0.00005267,0.00003893,-0.00000612,0.00000030,0.000
 00085,-0.00001305,-0.00001402,-0.00000547,0.07870274,-0.00401047,-0.00
 485675,-0.00323184,-0.00427084,-0.01474213,0.02273466,0.00193550,0.001
 04937,-0.00078082,0.00005435,-0.00002135,-0.00038556,0.00040797,-0.000
 48133,0.00053125,-0.00026024,-0.00007523,-0.00093836,-0.00013022,0.000
 10466,-0.00028565,0.00002433,0.00004182,0.00000559,0.00000554,0.000023
 43,-0.00000650,0.00000733,0.00002208,0.00001669,-0.00000138,-0.0000158
 0,-0.00001443,-0.00000243,-0.00000103,0.00001762,0.00000649,0.00000457
 ,-0.00002129,-0.04752439,-0.13555906,0.11144932,-0.00384409,-0.0073867
 0,0.00884417,0.00010935,0.00083544,-0.00102119,-0.00150758,0.00052960,
 -0.00048708,0.00021084,0.00011615,0.00011206,-0.00000935,0.00070533,0.
 00104426,0.00002503,-0.00002015,0.00001409,-0.00002257,-0.00001448,-0.
 00003070,-0.00000927,-0.00000474,-0.00000290,-0.00000070,-0.00000055,0
 .00000122,-0.00001150,-0.00000091,-0.00000172,0.05155840,0.14785613,-0
 .00109219,-0.00363811,0.00014432,-0.00468914,-0.00720979,0.00843399,-0
 .00064640,-0.00081438,-0.00040203,0.00026798,0.00004850,0.00068562,0.0
 0001224,0.00001535,-0.00006235,0.00002938,-0.00006123,-0.00010944,0.00
 000301,-0.00000213,0.00004346,0.00006977,0.00010311,0.00000836,-0.0000
 0388,0.00001917,0.00004911,-0.00008252,0.00001280,-0.00005094,-0.00002
 004,-0.00005938,0.00001634,0.00001366,-0.00001173,0.00000840,-0.000013
 64,0.00000151,-0.00001550,0.05858950,0.11481531,-0.19230276,0.00552515
 ,0.01027057,-0.01336105,0.00069497,-0.00048280,0.00112463,-0.00016989,
 -0.00040473,0.00022044,-0.00009428,-0.00010946,0.00000783,-0.00005136,
 0.00010444,0.00020683,0.00001448,-0.00002669,0.00002459,0.00000567,-0.
 00000027,0.00001205,0.00000918,0.00002322,-0.00003391,0.00000667,0.000
 00081,0.00000042,0.00001152,0.00000956,0.00000344,-0.05954831,-0.12502
 708,0.20955265,-0.00183618,0.00010960,0.00130049,0.01385841,-0.0111471
 5,-0.01363039,-0.00172741,-0.00036033,-0.00050533,-0.00074436,0.000697
 86,0.00043241,0.00002122,0.00039054,0.00025479,0.00004442,-0.00009609,
 0.00004159,-0.00000266,-0.00009745,-0.00014486,-0.00016373,-0.00022363
 ,0.00001442,0.00005686,-0.00013949,-0.00010290,0.00002318,0.00011628,-
 0.00013480,0.00001694,0.00004450,0.00005295,-0.00001636,0.00003455,0.0
 0003133,0.00002086,-0.00003721,0.00014168,-0.12240133,0.07578331,0.090
 01007,-0.01781900,0.01718908,0.01647844,0.00257461,-0.00094037,0.00118
 770,-0.00000418,-0.00019653,-0.00039052,-0.00016261,-0.00009995,-0.000
 12297,-0.00006864,0.00012342,-0.00000166,-0.00004433,0.00008205,-0.000
 08332,0.00001224,0.00002970,0.00000137,-0.00008098,-0.00008119,0.00001
 247,-0.00000207,0.00000116,0.00001337,0.00000440,-0.00002148,0.0000030
 5,-0.00563099,0.00547805,0.00621058,0.13596448,-0.00336764,0.00079738,
 0.00173298,0.01465474,-0.01510492,-0.01607699,-0.00106453,-0.00024938,
 0.00082257,-0.00051763,0.00024907,-0.00012124,0.00004297,0.00020643,0.
 00012215,0.00002980,0.00002163,0.00012267,-0.00001207,-0.00003269,-0.0
 0003876,-0.00012555,-0.00012794,0.00002193,0.00002096,-0.00007478,-0.0
 0003182,-0.00006585,0.00010935,-0.00016772,-0.00001017,-0.00003476,0.0
 0004820,0.00000630,-0.00000617,0.00002856,0.00001309,0.00000163,0.0000
 6983,0.07995269,-0.12650980,-0.09179142,0.00978164,-0.00854613,-0.0071
 3387,-0.00173695,0.00104575,0.00005118,-0.00011943,-0.00007104,-0.0001
 8384,-0.00001135,-0.00001705,-0.00012626,-0.00009220,-0.00003618,-0.00
 007071,-0.00002569,0.00004566,-0.00004507,-0.00000060,0.00001048,-0.00
 000520,-0.00008374,0.00000136,-0.00001468,0.00000315,0.00000156,0.0000
 1032,0.00000674,-0.00001016,0.00000046,-0.01090716,0.01169017,0.012800
 81,-0.08771780,0.13688372,-0.00006725,0.00132960,0.00023163,0.00537387
 ,-0.00665336,-0.00909503,-0.00184900,-0.00093442,0.00035309,-0.0006051
 9,0.00031060,0.00033649,0.00000153,0.00029796,0.00000928,0.00007923,0.
 00000413,0.00016935,-0.00000932,-0.00003726,0.00000047,-0.00006033,-0.
 00017519,-0.00000741,0.00003869,-0.00012430,-0.00018557,0.00008762,0.0
 0017771,-0.00016479,0.00004942,0.00008905,0.00006528,-0.00002103,0.000
 02448,0.00001518,0.00003552,-0.00004709,0.00021388,0.09397280,-0.09078
 538,-0.14747865,-0.01129447,0.01041760,0.01074082,0.00112486,0.0003812
 7,0.00050742,0.00072621,-0.00040063,-0.00058485,-0.00018986,-0.0001258
 2,-0.00016117,-0.00012030,-0.00013995,-0.00017746,-0.00003752,0.000072
 33,-0.00003355,-0.00000191,0.00002978,0.00001694,-0.00020820,-0.000146
 22,0.00008256,-0.00000158,-0.00000148,0.00001764,0.00000292,-0.0000253
 7,-0.00001019,0.01268589,-0.01330164,-0.01479049,-0.09705686,0.0988608
 3,0.15989465,-0.00116626,-0.00080551,0.00069159,0.00096613,0.00123958,
 -0.00160952,0.00009027,-0.00047415,0.00075310,-0.00005474,-0.00013697,
 -0.00000334,-0.00011545,0.00005079,-0.00017533,0.00006959,0.00010930,0
 .00026557,0.00003603,0.00000403,0.00009878,0.00000060,0.00002515,0.000
 00328,-0.00000565,0.00001520,0.00002027,-0.00002483,0.00000098,-0.0000
 1757,-0.00000058,-0.00002693,0.00000814,0.00000948,-0.00001188,0.00000
 380,-0.00000144,-0.00000492,-0.00000427,0.00822929,0.01712609,-0.02114
 434,-0.07966745,-0.05138742,0.06846280,-0.00763807,-0.01434090,0.01095
 828,0.00039585,0.00016623,0.00027092,-0.00002980,-0.00001556,-0.000018
 30,-0.00000539,-0.00033796,-0.00026285,0.00000487,-0.00000640,0.000004
 38,0.00000529,-0.00000160,0.00000694,0.00000775,0.00001569,-0.00000580
 ,0.00000213,-0.00000091,0.00000055,0.00000329,0.00000566,-0.00000137,-
 0.00457258,0.00178164,-0.00365876,0.00150380,-0.00007377,0.00048860,0.
 08898944,-0.00091154,-0.00034198,-0.00142917,-0.00042657,-0.00058994,-
 0.00017354,0.00008357,-0.00013188,0.00047554,-0.00008898,-0.00002139,-
 0.00002405,0.00001253,-0.00000167,-0.00006851,0.00002129,-0.00000539,0
 .00005906,0.00000040,0.00001577,0.00005530,0.00000596,0.00000660,-0.00
 000757,-0.00000073,0.00001216,-0.00000237,0.00001527,-0.00000266,0.000
 01845,0.00000855,0.00000211,-0.00001203,0.00000024,-0.00000365,0.00000
 504,0.00000347,-0.00000244,-0.00001522,-0.00155376,-0.00703501,0.01058
 234,-0.05079290,-0.14036151,0.11090402,-0.01085787,-0.02017517,0.01765
 099,-0.00000024,0.00009479,-0.00003869,0.00000685,0.00002099,-0.000018
 77,-0.00003676,-0.00001529,-0.00007242,0.00000586,-0.00000340,0.000005
 29,-0.00000029,-0.00000308,-0.00000495,-0.00000739,0.00000069,0.000014
 15,-0.00000187,-0.00000089,-0.00000029,-0.00000472,0.00000008,-0.00000
 201,0.00151815,-0.00026404,0.00071452,-0.00054940,0.00015347,-0.000011
 96,0.06040184,0.15930081,0.00090385,-0.00164198,0.00225427,0.00106456,
 0.00386531,-0.00228623,-0.00012377,-0.00059416,0.00089850,-0.00000501,
 -0.00011726,-0.00008968,-0.00016978,0.00014719,-0.00031388,0.00012585,
 0.00003699,0.00038169,0.00005108,-0.00001850,0.00016802,-0.00002435,0.
 00000678,-0.00000019,-0.00000704,0.00002247,0.00002415,-0.00001927,-0.
 00000625,-0.00000035,-0.00000483,-0.00002614,-0.00000122,0.00001087,-0
 .00001397,0.00000747,-0.00000401,-0.00000822,-0.00001706,0.00405796,0.
 00946941,-0.01399619,0.06904715,0.11698137,-0.19687789,-0.00679573,-0.
 01242501,0.01381856,0.00023096,-0.00002171,0.00024286,-0.00004440,-0.0
 0000303,-0.00002271,-0.00004513,-0.00032589,-0.00036575,-0.00000142,-0
 .00000410,0.00000024,0.00001315,-0.00000596,0.00001470,0.00001256,0.00
 002115,-0.00000109,0.00000286,-0.00000069,-0.00000061,0.00000623,0.000
 00797,-0.00000191,-0.00338383,0.00080765,-0.00045981,-0.00005880,-0.00
 046544,0.00117393,-0.06927058,-0.12305962,0.20837733,0.00039943,-0.001
 66057,-0.00000930,0.00053357,0.00335294,0.00098170,-0.00018354,-0.0006
 1001,-0.00075820,0.00003054,0.00006417,0.00003818,-0.00024881,0.000287
 75,-0.00007171,0.00024199,-0.00018801,0.00000463,0.00008397,-0.0001031
 2,-0.00001913,-0.00004239,-0.00002744,0.00000933,0.00000079,0.00002123
 ,0.00006288,-0.00000403,-0.00006530,0.00007028,-0.00002469,-0.00001207
 ,-0.00004080,0.00000240,0.00000623,0.00000315,-0.00001657,0.00001116,-
 0.00008511,-0.01790214,0.01307674,0.01533045,-0.13354515,0.07194984,0.
 08388816,0.01222838,-0.01527603,-0.01509389,-0.00004096,0.00005493,0.0
 0021625,-0.00002969,-0.00000666,-0.00000287,-0.00020277,0.00013722,0.0
 0013008,-0.00001476,0.00000332,-0.00001765,0.00000926,0.00000669,-0.00
 000568,0.00005326,0.00003504,-0.00001444,-0.00000090,0.00000200,-0.000
 00755,-0.00000015,0.00000600,0.00001051,0.00137172,-0.00033414,-0.0002
 9125,-0.00384588,0.00183014,-0.00341427,-0.00578364,0.00609728,0.00650
 579,0.14399961,0.00009416,0.00060934,-0.00024638,-0.00022428,-0.001083
 21,-0.00001789,0.00001677,0.00034884,0.00039759,0.00002233,-0.00000028
 ,0.00004479,0.00014668,-0.00012297,0.00003069,-0.00012278,0.00006275,-
 0.00001186,-0.00005713,0.00004308,0.00000852,0.00002543,0.00000688,-0.
 00000836,-0.00000492,-0.00001683,-0.00002953,0.00000473,0.00001549,-0.
 00002701,0.00000884,0.00002363,0.00002573,-0.00000246,-0.00000216,-0.0
 0001656,0.00000175,0.00000136,0.00004933,0.01002709,-0.00523778,-0.005
 95823,0.07344115,-0.11710622,-0.07178790,0.00518396,-0.02293617,-0.022
 14872,0.00011339,-0.00005924,-0.00012261,0.00000342,-0.00000548,0.0000
 1345,0.00008286,-0.00001507,-0.00004501,0.00000343,0.00000132,0.000007
 81,-0.00000264,-0.00000062,0.00000938,-0.00001681,-0.00001954,0.000003
 06,-0.00000019,-0.00000076,0.00000144,0.00000506,-0.00000475,-0.000003
 46,-0.00056733,0.00005508,-0.00057934,0.00152928,-0.00021245,0.0008493
 9,-0.01046539,0.01144112,0.01072623,-0.07981621,0.13262794,-0.00021390
 ,0.00041693,0.00034031,0.00040254,0.00015467,0.00103963,0.00026220,0.0
 0004411,-0.00020725,0.00004461,0.00007599,0.00002717,0.00012597,-0.000
 11597,0.00013363,-0.00015011,0.00009698,-0.00005861,-0.00004492,0.0000
 2353,-0.00006074,0.00000304,0.00000644,0.00000986,-0.00000196,-0.00000
 490,0.00000788,-0.00000445,-0.00003195,0.00002287,-0.00000810,0.000016
 94,0.00000205,-0.00000301,0.00000416,-0.00001808,-0.00000603,0.0000152
 1,-0.00000560,-0.01212982,0.01002410,0.00977689,0.08637236,-0.07196511
 ,-0.13914085,0.00112627,-0.01591070,-0.00882818,-0.00001013,-0.0000178
 1,0.00000741,0.00000095,-0.00000210,0.00001895,0.00013829,-0.00005427,
 -0.00000776,0.00000167,0.00000033,-0.00000197,0.00000046,-0.00000263,0
 .00000185,0.00003189,0.00001081,-0.00001425,-0.00000172,0.00000063,-0.
 00000329,0.00000151,-0.00000292,0.00000259,0.00077813,-0.00031735,0.00
 109764,-0.00392065,0.00141554,-0.00109224,0.01560744,-0.01324036,-0.01
 422605,-0.08723839,0.08832415,0.15006567,-0.00005115,-0.00065724,0.000
 31020,-0.00029057,0.00208736,-0.00120711,-0.00063302,-0.00076279,-0.00
 044062,0.00016228,0.00010071,-0.00010603,-0.00007730,0.00015749,0.0001
 4946,-0.00001401,-0.00011908,-0.00010266,0.00000752,-0.00009414,-0.000
 14567,-0.00003703,-0.00008181,0.00000801,0.00000255,-0.00003186,0.0000
 1349,-0.00001055,-0.00002872,0.00000460,-0.00002733,0.00002627,0.00000
 403,-0.00000656,0.00001795,-0.00001831,-0.00001482,0.00001692,0.000004
 95,-0.00259516,-0.00565149,-0.00176634,-0.01399066,0.01372908,-0.00626
 441,-0.22768720,0.07859522,-0.19479201,0.00001931,-0.00006027,0.000111
 58,-0.00001812,-0.00001836,0.00000653,0.00003031,0.00019027,0.00012041
 ,-0.00002826,0.00002318,-0.00002910,0.00000337,0.00001119,0.00000593,0
 .00002837,0.00000015,-0.00002659,0.00000026,0.00000335,-0.00000394,0.0
 0000925,-0.00000526,0.00001004,0.00025036,0.00006933,0.00004636,0.0005
 7403,-0.00029992,0.00011549,0.00009603,-0.00007689,0.00048687,0.001333
 78,0.00010344,0.00028744,0.23158360,0.00022193,-0.00008102,0.00012562,
 -0.00105478,0.00119395,-0.00060487,-0.00014113,-0.00033707,-0.00014482
 ,0.00004415,-0.00005133,-0.00010852,-0.00008780,0.00006866,-0.00004369
 ,0.00005568,-0.00004385,0.00003549,0.00002900,-0.00002376,0.00000309,-
 0.00000992,-0.00001787,-0.00000135,0.00000396,-0.00000068,-0.00000282,
 0.00000443,0.00000441,-0.00000010,0.00000744,0.00000012,-0.00000073,-0
 .00000330,0.00000453,-0.00000047,0.00000409,-0.00000171,0.00000209,-0.
 00203399,-0.00407490,-0.00177257,-0.02374070,0.00717567,-0.02452541,0.
 08770788,-0.09777733,0.11757329,-0.00005601,-0.00002123,0.00005773,0.0
 0000219,0.00000836,0.00000076,-0.00002270,0.00002053,-0.00001125,-0.00
 000478,0.00000358,-0.00000467,-0.00000009,0.00000009,-0.00000168,-0.00
 000326,-0.00000385,0.00000115,-0.00000085,-0.00000010,0.00000102,-0.00
 000483,-0.00000053,-0.00000115,0.00012003,-0.00002207,-0.00029721,-0.0
 0004406,-0.00011797,0.00031334,0.00001805,0.00107014,0.00055134,-0.000
 13892,0.00011127,-0.00040780,-0.07985083,0.10148965,0.00023974,-0.0001
 0019,0.00002243,-0.00052530,0.00061200,0.00014534,0.00007078,0.0000007
 5,0.00009293,-0.00001458,-0.00001807,-0.00001812,-0.00003656,0.0000009
 4,-0.00006604,0.00005802,0.00000134,0.00002873,0.00002166,0.00001091,0
 .00003985,-0.00000201,0.00000717,-0.00000365,0.00000287,0.00001127,-0.
 00000269,0.00000668,0.00001359,-0.00000086,0.00001303,-0.00001165,-0.0
 0000716,0.00000065,-0.00000250,0.00001123,0.00000789,-0.00000780,-0.00
 000730,0.00003668,-0.00285748,0.00011520,-0.01193855,0.00414187,-0.011
 17318,-0.15162257,0.08735066,-0.17457331,-0.00003837,0.00001903,-0.000
 01280,0.00000830,0.00000791,-0.00000215,-0.00004440,-0.00002682,-0.000
 00664,0.00000541,-0.00000441,0.00000469,-0.00000046,-0.00000272,-0.000
 00424,-0.00001377,-0.00000171,0.00001086,-0.00000089,-0.00000113,0.000
 00205,-0.00000741,0.00000131,-0.00000269,0.00030490,-0.00014679,0.0002
 5361,-0.00009989,0.00008806,0.00014348,0.00065647,0.00042122,0.0012205
 9,0.00035562,0.00077278,-0.00024732,0.18452113,-0.10136835,0.20348022,
 -0.00005979,0.00089736,-0.00049120,-0.00015638,-0.00100072,-0.00027859
 ,0.00000363,0.00013561,-0.00003405,-0.00003966,-0.00000096,-0.00001994
 ,0.00008367,-0.00010877,0.00003746,-0.00006670,0.00007688,-0.00002142,
 -0.00002763,0.00004565,-0.00000122,0.00001110,-0.00000595,-0.00000106,
 0.00000344,-0.00001048,-0.00002691,0.00002383,0.00000401,0.00000220,0.
 00002505,0.00003021,0.00001490,-0.00000943,0.00000440,-0.00002280,0.00
 001016,0.00000831,0.00002884,0.00021763,-0.00095137,0.00182021,-0.0097
 2605,-0.00422535,0.01789393,-0.13606416,-0.12651784,0.12545047,-0.0000
 7708,-0.00003876,-0.00006220,0.00001555,0.00001115,0.00000304,0.000034
 21,-0.00004796,-0.00002198,0.00000490,0.00000459,0.00000290,-0.0000056
 8,-0.00000263,-0.00000507,-0.00001506,-0.00001834,0.00000625,-0.000004
 98,-0.00000180,0.00000073,-0.00001035,-0.00000752,-0.00000512,-0.00038
 858,0.00026500,-0.00114844,-0.00012476,-0.00011017,0.00015442,-0.00134
 397,-0.00287134,-0.00256177,0.00159738,0.00046637,-0.00145157,0.011380
 73,0.01897913,-0.02196507,0.13470898,-0.00011594,0.00015349,-0.0002683
 9,-0.00014822,-0.00051060,0.00010301,0.00011387,0.00003859,-0.00004576
 ,-0.00003269,-0.00000895,-0.00000030,-0.00006135,0.00005185,-0.0000465
 5,0.00007547,-0.00003560,0.00002343,0.00003143,-0.00001198,0.00002712,
 -0.00000631,0.00001356,-0.00000193,0.00000181,0.00001449,0.00001122,-0
 .00000985,0.00001074,-0.00000211,-0.00000790,-0.00003268,-0.00001287,0
 .00000611,-0.00000461,0.00002399,-0.00000020,-0.00001175,-0.00002177,0
 .00087774,0.00101270,-0.00008674,-0.01725277,-0.02107982,0.02191287,-0
 .08895402,-0.12086063,0.12146203,-0.00003918,0.00006488,0.00000557,0.0
 0000759,0.00000513,0.00000115,-0.00005024,0.00001179,0.00001480,0.0000
 0291,-0.00000687,0.00000154,0.00000029,-0.00000015,-0.00000439,0.00000
 010,0.00000872,0.00000505,0.00000397,0.00000053,0.00000162,0.00000130,
 0.00000726,0.00000010,-0.00061060,0.00043248,-0.00021535,0.00014277,-0
 .00006622,-0.00024800,-0.00286997,-0.00315932,-0.00390593,0.00129583,0
 .00147544,0.00144334,-0.00739325,-0.00857569,0.01108879,0.11499129,0.1
 5106322,-0.00018932,0.00013336,-0.00022431,0.00006123,-0.00030591,0.00
 007315,0.00009221,0.00007653,-0.00001501,-0.00004791,-0.00002023,-0.00
 001214,-0.00000366,-0.00002722,-0.00003873,0.00002295,0.00001010,0.000
 01614,0.00000932,0.00002170,0.00003464,-0.00000046,0.00001341,-0.00000
 053,0.00000362,0.00000846,-0.00000401,0.00000064,0.00001366,-0.0000024
 1,0.00000592,-0.00001661,-0.00000333,0.00000092,-0.00000247,0.00001135
 ,0.00000740,-0.00000641,-0.00000559,0.00044823,-0.00049384,0.00156342,
 -0.00947813,-0.01528773,0.01110987,0.11003470,0.15899918,-0.24132388,-
 0.00006613,0.00001877,-0.00002087,0.00001125,0.00000944,0.00000167,-0.
 00002317,-0.00001879,-0.00001348,0.00000692,-0.00000500,0.00000368,-0.
 00000201,-0.00000394,-0.00000542,-0.00000617,0.00000154,0.00000678,0.0
 0000053,-0.00000064,0.00000217,-0.00000551,0.00000223,-0.00000348,0.00
 031673,0.00042233,-0.00030544,0.00006624,0.00007692,-0.00019069,-0.002
 12886,-0.00272437,0.00007833,-0.00053676,-0.00026145,0.00135777,0.0186
 9626,0.01063254,-0.01944306,-0.11729696,-0.15126555,0.24735339\\0.0000
 0050,0.00000023,0.00000088,-0.00000062,-0.00000014,0.00000025,-0.00000
 036,-0.00000060,-0.00000063,-0.00000014,0.00000002,-0.00000073,-0.0000
 0036,0.00000023,0.00000016,-0.00000072,-0.00000058,0.,-0.00000081,-0.0
 0000021,-0.00000031,-0.00000015,0.00000045,0.00000054,-0.00000020,-0.0
 0000032,0.00000004,0.00000007,0.00000027,0.00000073,0.00000020,0.00000
 033,0.00000050,0.00000005,0.00000027,0.00000016,-0.00000014,0.00000042
 ,0.00000031,0.00000035,-0.00000032,-0.00000028,0.00000048,0.00000010,-
 0.00000032,0.00000013,-0.00000028,-0.00000044,-0.00000008,0.00000034,0
 .00000003,-0.00000036,0.00000048,0.00000044,0.00000060,0.00000024,-0.0
 0000012,-0.00000027,-0.00000014,0.00000032,-0.00000020,-0.00000012,0.0
 0000011,0.00000026,0.00000006,0.00000021,-0.00000007,0.00000036,0.0000
 0042,-0.00000033,0.00000014,0.00000036,0.00000030,0.00000005,-0.000000
 38,0.00000032,0.00000002,-0.00000010,0.00000031,-0.00000023,-0.0000003
 2,0.00000013,-0.00000049,-0.00000059,0.00000063,-0.00000039,-0.0000004
 8,0.00000048,-0.00000020,-0.00000076\\\@


 THE BEST WAY TO CONVINCE A FOOL THAT HE IS WRONG 
 IS TO LET HIM HAVE HIS OWN WAY.

                                         JOSH BILLINGS
 Job cpu time:       0 days  1 hours 17 minutes  8.2 seconds.
 File lengths (MBytes):  RWF=    320 Int=      0 D2E=      0 Chk=      9 Scr=      1
 Normal termination of Gaussian 09 at Sat Jul 24 01:28:57 2021.
