 Entering Gaussian System, Link 0=g09
 Input=opt_freq-conf-900.com
 Output=opt_freq-conf-900.log
 Initial command:
 /aerosol/software/g09/l1.exe "/scratch/nicole/10377/Gau-74145.inp" -scrdir="/scratch/nicole/10377/"
 Entering Link 1 = /aerosol/software/g09/l1.exe PID=     74152.
  
 Copyright (c) 1988,1990,1992,1993,1995,1998,2003,2009,2013,
            Gaussian, Inc.  All Rights Reserved.
  
 This is part of the Gaussian(R) 09 program.  It is based on
 the Gaussian(R) 03 system (copyright 2003, Gaussian, Inc.),
 the Gaussian(R) 98 system (copyright 1998, Gaussian, Inc.),
 the Gaussian(R) 94 system (copyright 1995, Gaussian, Inc.),
 the Gaussian 92(TM) system (copyright 1992, Gaussian, Inc.),
 the Gaussian 90(TM) system (copyright 1990, Gaussian, Inc.),
 the Gaussian 88(TM) system (copyright 1988, Gaussian, Inc.),
 the Gaussian 86(TM) system (copyright 1986, Carnegie Mellon
 University), and the Gaussian 82(TM) system (copyright 1983,
 Carnegie Mellon University). Gaussian is a federally registered
 trademark of Gaussian, Inc.
  
 This software contains proprietary and confidential information,
 including trade secrets, belonging to Gaussian, Inc.
  
 This software is provided under written license and may be
 used, copied, transmitted, or stored only in accord with that
 written license.
  
 The following legend is applicable only to US Government
 contracts under FAR:
  
                    RESTRICTED RIGHTS LEGEND
  
 Use, reproduction and disclosure by the US Government is
 subject to restrictions as set forth in subparagraphs (a)
 and (c) of the Commercial Computer Software - Restricted
 Rights clause in FAR 52.227-19.
  
 Gaussian, Inc.
 340 Quinnipiac St., Bldg. 40, Wallingford CT 06492
  
  
 ---------------------------------------------------------------
 Warning -- This program may not be used in any manner that
 competes with the business of Gaussian, Inc. or will provide
 assistance to any competitor of Gaussian, Inc.  The licensee
 of this program is prohibited from giving any competitor of
 Gaussian, Inc. access to this program.  By using this program,
 the user acknowledges that Gaussian, Inc. is engaged in the
 business of creating and licensing software in the field of
 computational chemistry and represents and warrants to the
 licensee that it is not a competitor of Gaussian, Inc. and that
 it will not use this program in any manner prohibited above.
 ---------------------------------------------------------------
  

 Cite this work as:
 Gaussian 09, Revision D.01,
 M. J. Frisch, G. W. Trucks, H. B. Schlegel, G. E. Scuseria, 
 M. A. Robb, J. R. Cheeseman, G. Scalmani, V. Barone, B. Mennucci, 
 G. A. Petersson, H. Nakatsuji, M. Caricato, X. Li, H. P. Hratchian, 
 A. F. Izmaylov, J. Bloino, G. Zheng, J. L. Sonnenberg, M. Hada, 
 M. Ehara, K. Toyota, R. Fukuda, J. Hasegawa, M. Ishida, T. Nakajima, 
 Y. Honda, O. Kitao, H. Nakai, T. Vreven, J. A. Montgomery, Jr., 
 J. E. Peralta, F. Ogliaro, M. Bearpark, J. J. Heyd, E. Brothers, 
 K. N. Kudin, V. N. Staroverov, T. Keith, R. Kobayashi, J. Normand, 
 K. Raghavachari, A. Rendell, J. C. Burant, S. S. Iyengar, J. Tomasi, 
 M. Cossi, N. Rega, J. M. Millam, M. Klene, J. E. Knox, J. B. Cross, 
 V. Bakken, C. Adamo, J. Jaramillo, R. Gomperts, R. E. Stratmann, 
 O. Yazyev, A. J. Austin, R. Cammi, C. Pomelli, J. W. Ochterski, 
 R. L. Martin, K. Morokuma, V. G. Zakrzewski, G. A. Voth, 
 P. Salvador, J. J. Dannenberg, S. Dapprich, A. D. Daniels, 
 O. Farkas, J. B. Foresman, J. V. Ortiz, J. Cioslowski, 
 and D. J. Fox, Gaussian, Inc., Wallingford CT, 2013.
 
 ******************************************
 Gaussian 09:  ES64L-G09RevD.01 24-Apr-2013
                24-Jul-2021 
 ******************************************
 %mem=2gb
 %nproc=4
 Will use up to    4 processors via shared memory.
 %chk=conf-900.chk
 ----------------------------------------------------------------------
 # B3LYP/6-31G(d,p) EmpiricalDispersion=GD3BJ opt=calcfc freq=noraman n
 osymm integral(ultrafinegrid)
 ----------------------------------------------------------------------
 1/10=4,14=-1,18=20,19=15,26=4,38=1/1,3;
 2/9=110,12=2,15=1,17=6,18=5,40=1/2;
 3/5=1,6=6,7=101,11=2,16=1,25=1,30=1,71=2,74=-5,75=-5,124=41,140=1/1,2,3;
 4//1;
 5/5=2,38=5/2;
 8/6=4,10=90,11=11/1;
 11/6=1,8=1,9=11,15=111,16=1,31=1/1,2,10;
 10/6=1,13=1,31=1/2;
 6/7=2,8=2,9=2,10=2,28=1/1;
 7/10=1,18=20,25=1,30=1/1,2,3,16;
 1/10=4,14=-1,18=20,19=15,26=4/3(2);
 2/9=110,15=1/2;
 99//99;
 2/9=110,15=1/2;
 3/5=1,6=6,7=101,11=2,16=1,25=1,30=1,71=1,74=-5,75=-5,124=41/1,2,3;
 4/5=5,16=3,69=1/1;
 5/5=2,38=5/2;
 7/30=1/1,2,3,16;
 1/14=-1,18=20,19=15,26=4/3(-5);
 2/9=110,15=1/2;
 6/7=2,8=2,9=2,10=2,19=2,28=1/1;
 99/9=1/99;
 ------------------------------------------------------------
 Candidate Structure: Conf:900 OPT and FREQ calc in gas phase
 ------------------------------------------------------------
 Symbolic Z-matrix:
 Charge =  0 Multiplicity = 1
 O                    -0.82672   0.57174  -0.96785 
 C                    -1.22909  -0.54922  -0.64952 
 N                    -0.43138  -1.42426  -0.00173 
 C                     0.95992  -1.12022   0.27281 
 C                     1.61867  -2.41781   0.68934 
 O                     2.92994  -2.25252   0.9456 
 O                     1.05262  -3.47689   0.78607 
 C                     1.13632  -0.01601   1.36123 
 C                     1.95978   1.13444   0.8748 
 C                     3.19006   1.59905   1.2347 
 N                     3.54237   2.69371   0.46381 
 C                     2.53244   2.87303  -0.35249 
 N                     1.55281   1.95523  -0.14982 
 C                    -2.63628  -1.03664  -0.95808 
 C                    -3.55512   0.07309  -1.43111 
 N                    -3.82051   1.00949  -0.33497 
 H                    -0.72051  -2.37758   0.15843 
 H                     1.43873  -0.80577  -0.66191 
 H                     3.27157  -3.11944   1.20092 
 H                     0.14997   0.336     1.65821 
 H                     1.60794  -0.42166   2.25634 
 H                     3.8462    1.20985   1.99991 
 H                     2.44361   3.63558  -1.10536 
 H                     0.68931   1.84637  -0.65881 
 H                    -3.04854  -1.50417  -0.05902 
 H                    -2.56143  -1.81752  -1.72349 
 H                    -4.50577  -0.3706   -1.73887 
 H                    -3.10828   0.55223  -2.31242 
 H                    -2.96873   1.53246  -0.16398 
 H                    -4.50977   1.68835  -0.63264 
 

 GradGradGradGradGradGradGradGradGradGradGradGradGradGradGradGradGradGrad
 Berny optimization.
 Initialization pass.
                           ----------------------------
                           !    Initial Parameters    !
                           ! (Angstroms and Degrees)  !
 --------------------------                            --------------------------
 ! Name  Definition              Value          Derivative Info.                !
 --------------------------------------------------------------------------------
 ! R1    R(1,2)                  1.2328         calculate D2E/DX2 analytically  !
 ! R2    R(2,3)                  1.3497         calculate D2E/DX2 analytically  !
 ! R3    R(2,14)                 1.5208         calculate D2E/DX2 analytically  !
 ! R4    R(3,4)                  1.4504         calculate D2E/DX2 analytically  !
 ! R5    R(3,17)                 1.009          calculate D2E/DX2 analytically  !
 ! R6    R(4,5)                  1.5137         calculate D2E/DX2 analytically  !
 ! R7    R(4,8)                  1.5605         calculate D2E/DX2 analytically  !
 ! R8    R(4,18)                 1.0963         calculate D2E/DX2 analytically  !
 ! R9    R(5,6)                  1.3463         calculate D2E/DX2 analytically  !
 ! R10   R(5,7)                  1.2047         calculate D2E/DX2 analytically  !
 ! R11   R(6,19)                 0.9661         calculate D2E/DX2 analytically  !
 ! R12   R(8,9)                  1.4961         calculate D2E/DX2 analytically  !
 ! R13   R(8,20)                 1.0886         calculate D2E/DX2 analytically  !
 ! R14   R(8,21)                 1.09           calculate D2E/DX2 analytically  !
 ! R15   R(9,10)                 1.3634         calculate D2E/DX2 analytically  !
 ! R16   R(9,13)                 1.3745         calculate D2E/DX2 analytically  !
 ! R17   R(10,11)                1.3844         calculate D2E/DX2 analytically  !
 ! R18   R(10,22)                1.0805         calculate D2E/DX2 analytically  !
 ! R19   R(11,12)                1.3109         calculate D2E/DX2 analytically  !
 ! R20   R(12,13)                1.3576         calculate D2E/DX2 analytically  !
 ! R21   R(12,23)                1.0753         calculate D2E/DX2 analytically  !
 ! R22   R(13,24)                1.0082         calculate D2E/DX2 analytically  !
 ! R23   R(14,15)                1.5164         calculate D2E/DX2 analytically  !
 ! R24   R(14,25)                1.094          calculate D2E/DX2 analytically  !
 ! R25   R(14,26)                1.096          calculate D2E/DX2 analytically  !
 ! R26   R(15,16)                1.4659         calculate D2E/DX2 analytically  !
 ! R27   R(15,27)                1.0933         calculate D2E/DX2 analytically  !
 ! R28   R(15,28)                1.0982         calculate D2E/DX2 analytically  !
 ! R29   R(16,29)                1.014          calculate D2E/DX2 analytically  !
 ! R30   R(16,30)                1.0122         calculate D2E/DX2 analytically  !
 ! A1    A(1,2,3)              121.3681         calculate D2E/DX2 analytically  !
 ! A2    A(1,2,14)             122.7535         calculate D2E/DX2 analytically  !
 ! A3    A(3,2,14)             115.8782         calculate D2E/DX2 analytically  !
 ! A4    A(2,3,4)              121.4608         calculate D2E/DX2 analytically  !
 ! A5    A(2,3,17)             121.2899         calculate D2E/DX2 analytically  !
 ! A6    A(4,3,17)             116.2892         calculate D2E/DX2 analytically  !
 ! A7    A(3,4,5)              106.8498         calculate D2E/DX2 analytically  !
 ! A8    A(3,4,8)              112.8802         calculate D2E/DX2 analytically  !
 ! A9    A(3,4,18)             108.5241         calculate D2E/DX2 analytically  !
 ! A10   A(5,4,8)              111.4368         calculate D2E/DX2 analytically  !
 ! A11   A(5,4,18)             106.8843         calculate D2E/DX2 analytically  !
 ! A12   A(8,4,18)             110.0208         calculate D2E/DX2 analytically  !
 ! A13   A(4,5,6)              111.7786         calculate D2E/DX2 analytically  !
 ! A14   A(4,5,7)              124.835          calculate D2E/DX2 analytically  !
 ! A15   A(6,5,7)              123.3863         calculate D2E/DX2 analytically  !
 ! A16   A(5,6,19)             106.5317         calculate D2E/DX2 analytically  !
 ! A17   A(4,8,9)              112.3075         calculate D2E/DX2 analytically  !
 ! A18   A(4,8,20)             108.4622         calculate D2E/DX2 analytically  !
 ! A19   A(4,8,21)             110.9981         calculate D2E/DX2 analytically  !
 ! A20   A(9,8,20)             109.8016         calculate D2E/DX2 analytically  !
 ! A21   A(9,8,21)             108.362          calculate D2E/DX2 analytically  !
 ! A22   A(20,8,21)            106.7591         calculate D2E/DX2 analytically  !
 ! A23   A(8,9,10)             132.2888         calculate D2E/DX2 analytically  !
 ! A24   A(8,9,13)             122.5895         calculate D2E/DX2 analytically  !
 ! A25   A(10,9,13)            105.0974         calculate D2E/DX2 analytically  !
 ! A26   A(9,10,11)            110.6144         calculate D2E/DX2 analytically  !
 ! A27   A(9,10,22)            127.7431         calculate D2E/DX2 analytically  !
 ! A28   A(11,10,22)           121.642          calculate D2E/DX2 analytically  !
 ! A29   A(10,11,12)           105.0013         calculate D2E/DX2 analytically  !
 ! A30   A(11,12,13)           111.7452         calculate D2E/DX2 analytically  !
 ! A31   A(11,12,23)           126.6302         calculate D2E/DX2 analytically  !
 ! A32   A(13,12,23)           121.6246         calculate D2E/DX2 analytically  !
 ! A33   A(9,13,12)            107.5381         calculate D2E/DX2 analytically  !
 ! A34   A(9,13,24)            124.433          calculate D2E/DX2 analytically  !
 ! A35   A(12,13,24)           127.9973         calculate D2E/DX2 analytically  !
 ! A36   A(2,14,15)            112.9165         calculate D2E/DX2 analytically  !
 ! A37   A(2,14,25)            108.5965         calculate D2E/DX2 analytically  !
 ! A38   A(2,14,26)            107.8686         calculate D2E/DX2 analytically  !
 ! A39   A(15,14,25)           109.924          calculate D2E/DX2 analytically  !
 ! A40   A(15,14,26)           110.1777         calculate D2E/DX2 analytically  !
 ! A41   A(25,14,26)           107.1681         calculate D2E/DX2 analytically  !
 ! A42   A(14,15,16)           110.1156         calculate D2E/DX2 analytically  !
 ! A43   A(14,15,27)           108.5228         calculate D2E/DX2 analytically  !
 ! A44   A(14,15,28)           108.8501         calculate D2E/DX2 analytically  !
 ! A45   A(16,15,27)           108.1986         calculate D2E/DX2 analytically  !
 ! A46   A(16,15,28)           113.2703         calculate D2E/DX2 analytically  !
 ! A47   A(27,15,28)           107.7561         calculate D2E/DX2 analytically  !
 ! A48   A(15,16,29)           107.666          calculate D2E/DX2 analytically  !
 ! A49   A(15,16,30)           109.3782         calculate D2E/DX2 analytically  !
 ! A50   A(29,16,30)           106.0034         calculate D2E/DX2 analytically  !
 ! D1    D(1,2,3,4)             -4.0497         calculate D2E/DX2 analytically  !
 ! D2    D(1,2,3,17)          -172.4215         calculate D2E/DX2 analytically  !
 ! D3    D(14,2,3,4)           175.7875         calculate D2E/DX2 analytically  !
 ! D4    D(14,2,3,17)            7.4157         calculate D2E/DX2 analytically  !
 ! D5    D(1,2,14,15)          -11.5739         calculate D2E/DX2 analytically  !
 ! D6    D(1,2,14,25)         -133.7551         calculate D2E/DX2 analytically  !
 ! D7    D(1,2,14,26)          110.4154         calculate D2E/DX2 analytically  !
 ! D8    D(3,2,14,15)          168.5914         calculate D2E/DX2 analytically  !
 ! D9    D(3,2,14,25)           46.4101         calculate D2E/DX2 analytically  !
 ! D10   D(3,2,14,26)          -69.4193         calculate D2E/DX2 analytically  !
 ! D11   D(2,3,4,5)           -166.4882         calculate D2E/DX2 analytically  !
 ! D12   D(2,3,4,8)             70.6718         calculate D2E/DX2 analytically  !
 ! D13   D(2,3,4,18)           -51.557          calculate D2E/DX2 analytically  !
 ! D14   D(17,3,4,5)             2.4357         calculate D2E/DX2 analytically  !
 ! D15   D(17,3,4,8)          -120.4043         calculate D2E/DX2 analytically  !
 ! D16   D(17,3,4,18)          117.3668         calculate D2E/DX2 analytically  !
 ! D17   D(3,4,5,6)            178.8366         calculate D2E/DX2 analytically  !
 ! D18   D(3,4,5,7)             -1.2448         calculate D2E/DX2 analytically  !
 ! D19   D(8,4,5,6)            -57.4281         calculate D2E/DX2 analytically  !
 ! D20   D(8,4,5,7)            122.4904         calculate D2E/DX2 analytically  !
 ! D21   D(18,4,5,6)            62.807          calculate D2E/DX2 analytically  !
 ! D22   D(18,4,5,7)          -117.2745         calculate D2E/DX2 analytically  !
 ! D23   D(3,4,8,9)           -124.279          calculate D2E/DX2 analytically  !
 ! D24   D(3,4,8,20)            -2.7444         calculate D2E/DX2 analytically  !
 ! D25   D(3,4,8,21)           114.2409         calculate D2E/DX2 analytically  !
 ! D26   D(5,4,8,9)            115.476          calculate D2E/DX2 analytically  !
 ! D27   D(5,4,8,20)          -122.9893         calculate D2E/DX2 analytically  !
 ! D28   D(5,4,8,21)            -6.004          calculate D2E/DX2 analytically  !
 ! D29   D(18,4,8,9)            -2.894          calculate D2E/DX2 analytically  !
 ! D30   D(18,4,8,20)          118.6406         calculate D2E/DX2 analytically  !
 ! D31   D(18,4,8,21)         -124.374          calculate D2E/DX2 analytically  !
 ! D32   D(4,5,6,19)          -179.9334         calculate D2E/DX2 analytically  !
 ! D33   D(7,5,6,19)             0.1467         calculate D2E/DX2 analytically  !
 ! D34   D(4,8,9,10)          -113.4026         calculate D2E/DX2 analytically  !
 ! D35   D(4,8,9,13)            64.522          calculate D2E/DX2 analytically  !
 ! D36   D(20,8,9,10)          125.8315         calculate D2E/DX2 analytically  !
 ! D37   D(20,8,9,13)          -56.2439         calculate D2E/DX2 analytically  !
 ! D38   D(21,8,9,10)            9.5732         calculate D2E/DX2 analytically  !
 ! D39   D(21,8,9,13)         -172.5022         calculate D2E/DX2 analytically  !
 ! D40   D(8,9,10,11)          178.7649         calculate D2E/DX2 analytically  !
 ! D41   D(8,9,10,22)           -0.9809         calculate D2E/DX2 analytically  !
 ! D42   D(13,9,10,11)           0.5759         calculate D2E/DX2 analytically  !
 ! D43   D(13,9,10,22)        -179.1699         calculate D2E/DX2 analytically  !
 ! D44   D(8,9,13,12)         -178.9923         calculate D2E/DX2 analytically  !
 ! D45   D(8,9,13,24)           -0.8995         calculate D2E/DX2 analytically  !
 ! D46   D(10,9,13,12)          -0.5824         calculate D2E/DX2 analytically  !
 ! D47   D(10,9,13,24)         177.5105         calculate D2E/DX2 analytically  !
 ! D48   D(9,10,11,12)          -0.3412         calculate D2E/DX2 analytically  !
 ! D49   D(22,10,11,12)        179.4226         calculate D2E/DX2 analytically  !
 ! D50   D(10,11,12,13)         -0.0436         calculate D2E/DX2 analytically  !
 ! D51   D(10,11,12,23)        179.9924         calculate D2E/DX2 analytically  !
 ! D52   D(11,12,13,9)           0.4032         calculate D2E/DX2 analytically  !
 ! D53   D(11,12,13,24)       -177.6006         calculate D2E/DX2 analytically  !
 ! D54   D(23,12,13,9)        -179.6307         calculate D2E/DX2 analytically  !
 ! D55   D(23,12,13,24)          2.3654         calculate D2E/DX2 analytically  !
 ! D56   D(2,14,15,16)         -68.0822         calculate D2E/DX2 analytically  !
 ! D57   D(2,14,15,27)         173.6574         calculate D2E/DX2 analytically  !
 ! D58   D(2,14,15,28)          56.6415         calculate D2E/DX2 analytically  !
 ! D59   D(25,14,15,16)         53.3511         calculate D2E/DX2 analytically  !
 ! D60   D(25,14,15,27)        -64.9094         calculate D2E/DX2 analytically  !
 ! D61   D(25,14,15,28)        178.0747         calculate D2E/DX2 analytically  !
 ! D62   D(26,14,15,16)        171.2363         calculate D2E/DX2 analytically  !
 ! D63   D(26,14,15,27)         52.9758         calculate D2E/DX2 analytically  !
 ! D64   D(26,14,15,28)        -64.0401         calculate D2E/DX2 analytically  !
 ! D65   D(14,15,16,29)         71.1881         calculate D2E/DX2 analytically  !
 ! D66   D(14,15,16,30)       -174.0572         calculate D2E/DX2 analytically  !
 ! D67   D(27,15,16,29)       -170.3521         calculate D2E/DX2 analytically  !
 ! D68   D(27,15,16,30)        -55.5974         calculate D2E/DX2 analytically  !
 ! D69   D(28,15,16,29)        -50.9567         calculate D2E/DX2 analytically  !
 ! D70   D(28,15,16,30)         63.7981         calculate D2E/DX2 analytically  !
 --------------------------------------------------------------------------------
 Trust Radius=3.00D-01 FncErr=1.00D-07 GrdErr=1.00D-06
 Number of steps in this run=    160 maximum allowed number of steps=    180.
 GradGradGradGradGradGradGradGradGradGradGradGradGradGradGradGradGradGrad

                          Input orientation:                          
 ---------------------------------------------------------------------
 Center     Atomic      Atomic             Coordinates (Angstroms)
 Number     Number       Type             X           Y           Z
 ---------------------------------------------------------------------
      1          8           0       -0.826723    0.571738   -0.967851
      2          6           0       -1.229094   -0.549225   -0.649519
      3          7           0       -0.431377   -1.424261   -0.001728
      4          6           0        0.959925   -1.120223    0.272813
      5          6           0        1.618670   -2.417810    0.689338
      6          8           0        2.929943   -2.252524    0.945600
      7          8           0        1.052621   -3.476888    0.786072
      8          6           0        1.136320   -0.016008    1.361235
      9          6           0        1.959780    1.134444    0.874800
     10          6           0        3.190060    1.599053    1.234702
     11          7           0        3.542369    2.693712    0.463813
     12          6           0        2.532436    2.873028   -0.352489
     13          7           0        1.552808    1.955230   -0.149818
     14          6           0       -2.636284   -1.036645   -0.958076
     15          6           0       -3.555117    0.073091   -1.431113
     16          7           0       -3.820507    1.009488   -0.334969
     17          1           0       -0.720507   -2.377581    0.158427
     18          1           0        1.438730   -0.805768   -0.661906
     19          1           0        3.271568   -3.119437    1.200919
     20          1           0        0.149967    0.336002    1.658207
     21          1           0        1.607938   -0.421655    2.256343
     22          1           0        3.846198    1.209845    1.999911
     23          1           0        2.443610    3.635583   -1.105356
     24          1           0        0.689308    1.846367   -0.658808
     25          1           0       -3.048535   -1.504174   -0.059019
     26          1           0       -2.561425   -1.817523   -1.723489
     27          1           0       -4.505767   -0.370602   -1.738872
     28          1           0       -3.108278    0.552227   -2.312420
     29          1           0       -2.968731    1.532462   -0.163977
     30          1           0       -4.509771    1.688346   -0.632639
 ---------------------------------------------------------------------
                    Distance matrix (angstroms):
                    1          2          3          4          5
     1  O    0.000000
     2  C    1.232799   0.000000
     3  N    2.252488   1.349694   0.000000
     4  C    2.755738   2.443059   1.450356   0.000000
     5  C    4.202810   3.659769   2.380631   1.513661   0.000000
     6  O    5.074474   4.768985   3.589139   2.369750   1.346263
     7  O    4.795785   3.979743   2.652576   2.413689   1.204747
     8  C    3.102196   3.150021   2.509684   1.560470   2.540228
     9  C    3.387713   3.914998   3.610111   2.538824   3.573411
    10  C    4.694802   5.262538   4.876883   3.645984   4.347629
    11  N    5.063734   5.875628   5.741522   4.609946   5.466180
    12  C    4.118077   5.094030   5.232008   4.337033   5.469309
    13  N    2.871480   3.776371   3.921719   3.160466   4.453313
    14  C    2.421053   1.520845   2.434432   3.801945   4.767203
    15  C    2.812009   2.531511   3.747393   4.971214   6.121190
    16  N    3.091102   3.040387   4.185736   5.268548   6.510010
    17  H    3.158838   2.062601   1.008992   2.101875   2.399007
    18  H    2.668970   2.680159   2.077419   1.096284   2.111141
    19  H    5.926578   5.503278   4.246385   3.194046   1.867102
    20  H    2.811703   2.830377   2.488347   2.167011   3.267916
    21  H    4.160509   4.063134   3.203578   2.200525   2.537766
    22  H    5.572341   5.989357   5.407654   4.091780   4.454140
    23  H    4.483429   5.586516   5.923307   5.168982   6.367497
    24  H    2.004629   3.069073   3.519189   3.121187   4.567758
    25  H    3.173616   2.137986   2.619005   4.040456   4.814309
    26  H    3.047745   2.130047   2.766988   4.107476   4.863669
    27  H    3.875286   3.457627   4.552859   5.872189   6.898985
    28  H    2.648346   2.740396   4.051123   5.102038   6.338431
    29  H    2.481412   2.755995   3.899577   4.760448   6.113677
    30  H    3.863163   3.971127   5.169107   6.214940   7.494393
                    6          7          8          9         10
     6  O    0.000000
     7  O    2.246965   0.000000
     8  C    2.896867   3.509346   0.000000
     9  C    3.523887   4.700553   1.496077   0.000000
    10  C    3.871161   5.525857   2.615776   1.363444   0.000000
    11  N    5.007237   6.661756   3.733231   2.259383   1.384438
    12  C    5.302295   6.618732   3.637653   2.203826   2.138845
    13  N    4.560881   5.534798   2.518437   1.374466   2.173557
    14  C    6.007097   4.754457   4.544605   5.403412   6.760286
    15  C    7.287883   6.224911   5.460286   6.071062   7.411649
    16  N    7.605863   6.718012   5.338435   5.906850   7.208295
    17  H    3.736450   2.178623   3.235981   4.475650   5.680186
    18  H    2.626955   3.062777   2.192777   2.529305   3.528094
    19  H    0.966145   2.285518   3.770445   4.463480   4.719315
    20  H    3.864782   4.014167   1.088575   2.127594   3.319159
    21  H    2.611096   3.435771   1.090042   2.110426   2.762267
    22  H    3.733510   5.589539   3.042049   2.197756   1.080530
    23  H    6.254018   7.489967   4.596433   3.226578   3.190692
    24  H    4.939177   5.527813   2.783672   2.114920   3.146475
    25  H    6.108313   4.628743   4.663129   5.737382   7.086876
    26  H    6.121142   4.702417   5.141429   5.992205   7.314607
    27  H    8.126364   6.849820   6.447445   7.134406   8.482184
    28  H    7.412248   6.568676   5.642273   6.015194   7.303902
    29  H    7.095888   6.493648   4.644941   5.052494   6.315968
    30  H    8.565666   7.722214   6.225648   6.665904   7.923531
                   11         12         13         14         15
    11  N    0.000000
    12  C    1.310904   0.000000
    13  N    2.209129   1.357608   0.000000
    14  C    7.356159   6.509066   5.210862   0.000000
    15  C    7.799532   6.786853   5.592411   1.516421   0.000000
    16  N    7.595170   6.620647   5.459050   2.444853   1.465880
    17  H    6.631996   6.197706   4.902675   2.591310   4.070313
    18  H    4.235433   3.850386   2.810402   4.092280   5.128604
    19  H    5.865949   6.234504   5.525475   6.625858   7.982698
    20  H    4.300437   4.019397   2.803358   4.061070   4.831218
    21  H    4.081751   4.302980   3.382637   5.359489   6.363902
    22  H    2.157259   3.166376   3.230568   7.471210   8.236722
    23  H    2.134639   1.075262   2.128419   6.903385   6.984425
    24  H    3.180916   2.131897   1.008243   4.411448   4.664344
    25  H    7.831706   7.098821   5.757437   1.094001   2.151054
    26  H    7.898850   7.058918   5.799744   1.096007   2.155766
    27  H    8.889001   7.872706   6.681387   2.132657   1.093305
    28  H    7.518280   6.406645   5.326442   2.140453   1.098152
    29  H    6.643572   5.665288   4.541283   2.709506   2.019714
    30  H    8.188402   7.146652   6.087628   3.322866   2.039111
                   16         17         18         19         20
    16  N    0.000000
    17  H    4.617973   0.000000
    18  H    5.573295   2.793894   0.000000
    19  H    8.348923   4.192112   3.490341   0.000000
    20  H    4.493440   3.220341   2.889199   4.679056   0.000000
    21  H    6.183130   3.694395   2.948280   3.340601   1.748568
    22  H    8.016868   6.092247   4.116293   4.439739   3.813461
    23  H    6.835864   6.911362   4.575154   7.185731   4.877019
    24  H    4.598225   4.527381   2.755987   5.897954   2.817915
    25  H    2.643972   2.495964   4.581135   6.643811   4.070078
    26  H    3.391941   2.691515   4.260499   6.653643   4.839957
    27  H    2.084508   4.685712   6.056919   8.757021   5.806488
    28  H    2.150970   4.515563   5.024303   8.156415   5.140894
    29  H    1.014033   4.521824   5.014077   7.902180   3.805017
    30  H    1.012196   5.613917   6.450281   9.328770   5.365629
                   21         22         23         24         25
    21  H    0.000000
    22  H    2.781610   0.000000
    23  H    5.334843   4.182600   0.000000
    24  H    3.806036   4.176111   2.545246   0.000000
    25  H    5.311826   7.690412   7.594445   5.055427   0.000000
    26  H    5.930523   8.005392   7.427573   5.012475   1.762363
    27  H    7.303544   9.286099   8.046410   5.750678   2.496080
    28  H    6.638128   8.209348   6.464329   4.339457   3.051257
    29  H    5.533754   7.157496   5.882411   3.704679   3.039497
    30  H    7.086938   8.773910   7.236346   5.201546   3.557588
                   26         27         28         29         30
    26  H    0.000000
    27  H    2.423691   0.000000
    28  H    2.502319   1.770183   0.000000
    29  H    3.717576   2.909369   2.365617   0.000000
    30  H    4.156576   2.337314   2.465079   1.618254   0.000000
 Symmetry turned off by external request.
 Stoichiometry    C9H14N4O3
 Framework group  C1[X(C9H14N4O3)]
 Deg. of freedom    84
 Full point group                 C1      NOp   1
 Rotational constants (GHZ):      0.6120385      0.3669297      0.2426803
 Standard basis: 6-31G(d,p) (6D, 7F)
   310 basis functions,   546 primitive gaussians,   310 cartesian basis functions
    60 alpha electrons       60 beta electrons
       nuclear repulsion energy      1127.3674257685 Hartrees.
 NAtoms=   30 NActive=   30 NUniq=   30 SFac= 1.00D+00 NAtFMM=   60 NAOKFM=F Big=F
 Integral buffers will be    131072 words long.
 Raffenetti 2 integral format.
 Two-electron integral symmetry is turned off.
 Nuclear repulsion after empirical dispersion term =     1127.3132326002 Hartrees.
 One-electron integrals computed using PRISM.
 NBasis=   310 RedAO= T EigKep=  1.23D-03  NBF=   310
 NBsUse=   310 1.00D-06 EigRej= -1.00D+00 NBFU=   310
 ExpMin= 1.61D-01 ExpMax= 5.48D+03 ExpMxC= 8.25D+02 IAcc=3 IRadAn=         5 AccDes= 0.00D+00
 Harris functional with IExCor=  402 and IRadAn=       5 diagonalized for initial guess.
 HarFok:  IExCor=  402 AccDes= 0.00D+00 IRadAn=         5 IDoV= 1 UseB2=F ITyADJ=14
 ICtDFT=  3500011 ScaDFX=  1.000000  1.000000  1.000000  1.000000
 FoFCou: FMM=F IPFlag=           0 FMFlag=      100000 FMFlg1=           0
         NFxFlg=           0 DoJE=T BraDBF=F KetDBF=T FulRan=T
         wScrn=  0.000000 ICntrl=     500 IOpCl=  0 I1Cent=   200000004 NGrid=           0
         NMat0=    1 NMatS0=      1 NMatT0=    0 NMatD0=    1 NMtDS0=    0 NMtDT0=    0
 Symmetry not used in FoFCou.
 Requested convergence on RMS density matrix=1.00D-08 within 128 cycles.
 Requested convergence on MAX density matrix=1.00D-06.
 Requested convergence on             energy=1.00D-06.
 No special actions if energy rises.
 Integral accuracy reduced to 1.0D-05 until final iterations.
 Initial convergence to 1.0D-05 achieved.  Increase integral accuracy.
 SCF Done:  E(RB3LYP) =  -796.171806329     A.U. after   14 cycles
            NFock= 14  Conv=0.56D-08     -V/T= 2.0089
 DoSCS=F DFT=T ScalE2(SS,OS)=  1.000000  1.000000
 Range of M.O.s used for correlation:     1   310
 NBasis=   310 NAE=    60 NBE=    60 NFC=     0 NFV=     0
 NROrb=    310 NOA=    60 NOB=    60 NVA=   250 NVB=   250
 Symmetrizing basis deriv contribution to polar:
 IMax=3 JMax=2 DiffMx= 0.00D+00
 G2DrvN: will do    31 centers at a time, making    1 passes.
 Calling FoFCou, ICntrl=  3107 FMM=F I1Cent=   0 AccDes= 0.00D+00.
 End of G2Drv F.D. properties file   721 does not exist.
 End of G2Drv F.D. properties file   722 does not exist.
 End of G2Drv F.D. properties file   788 does not exist.
          IDoAtm=111111111111111111111111111111
          Differentiating once with respect to nuclear coordinates.
          There are    93 degrees of freedom in the 1st order CPHF.  IDoFFX=6 NUNeed=     0.
     87 vectors produced by pass  0 Test12= 1.61D-14 1.08D-09 XBig12= 1.49D-01 9.20D-02.
 AX will form    87 AO Fock derivatives at one time.
     87 vectors produced by pass  1 Test12= 1.61D-14 1.08D-09 XBig12= 2.96D-02 5.25D-02.
     87 vectors produced by pass  2 Test12= 1.61D-14 1.08D-09 XBig12= 2.59D-04 3.09D-03.
     87 vectors produced by pass  3 Test12= 1.61D-14 1.08D-09 XBig12= 1.06D-06 1.17D-04.
     87 vectors produced by pass  4 Test12= 1.61D-14 1.08D-09 XBig12= 1.97D-09 4.33D-06.
     71 vectors produced by pass  5 Test12= 1.61D-14 1.08D-09 XBig12= 1.69D-12 1.36D-07.
     17 vectors produced by pass  6 Test12= 1.61D-14 1.08D-09 XBig12= 1.30D-15 3.73D-09.
 InvSVY:  IOpt=1 It=  1 EMax= 4.44D-16
 Solved reduced A of dimension   523 with    93 vectors.
 End of Minotr F.D. properties file   721 does not exist.
 End of Minotr F.D. properties file   722 does not exist.
 End of Minotr F.D. properties file   788 does not exist.

 **********************************************************************

            Population analysis using the SCF density.

 **********************************************************************

 Alpha  occ. eigenvalues --  -19.22145 -19.17010 -19.13716 -14.37588 -14.36512
 Alpha  occ. eigenvalues --  -14.30972 -14.29272 -10.34733 -10.30563 -10.25986
 Alpha  occ. eigenvalues --  -10.22001 -10.21373 -10.21083 -10.20360 -10.20334
 Alpha  occ. eigenvalues --  -10.17954  -1.13692  -1.05703  -1.04796  -0.99731
 Alpha  occ. eigenvalues --   -0.94583  -0.88304  -0.85137  -0.81047  -0.76597
 Alpha  occ. eigenvalues --   -0.73837  -0.68011  -0.65528  -0.61094  -0.60115
 Alpha  occ. eigenvalues --   -0.59323  -0.57432  -0.53725  -0.52780  -0.51228
 Alpha  occ. eigenvalues --   -0.50339  -0.49219  -0.48382  -0.47574  -0.46753
 Alpha  occ. eigenvalues --   -0.44781  -0.43595  -0.42796  -0.42269  -0.41191
 Alpha  occ. eigenvalues --   -0.39557  -0.39178  -0.38857  -0.38720  -0.37908
 Alpha  occ. eigenvalues --   -0.36696  -0.36257  -0.34658  -0.30796  -0.27909
 Alpha  occ. eigenvalues --   -0.27494  -0.25990  -0.24740  -0.23749  -0.21162
 Alpha virt. eigenvalues --   -0.01621   0.00786   0.04326   0.05784   0.07962
 Alpha virt. eigenvalues --    0.08341   0.09352   0.11236   0.11690   0.12683
 Alpha virt. eigenvalues --    0.13095   0.14403   0.15487   0.16023   0.16760
 Alpha virt. eigenvalues --    0.17439   0.18147   0.19298   0.19536   0.21784
 Alpha virt. eigenvalues --    0.23306   0.23452   0.24198   0.24612   0.25259
 Alpha virt. eigenvalues --    0.26387   0.28956   0.30885   0.33052   0.33649
 Alpha virt. eigenvalues --    0.36605   0.39331   0.40736   0.45653   0.50120
 Alpha virt. eigenvalues --    0.51693   0.51769   0.52553   0.53975   0.54462
 Alpha virt. eigenvalues --    0.55247   0.55302   0.56719   0.59001   0.59395
 Alpha virt. eigenvalues --    0.61196   0.61996   0.63229   0.63476   0.64761
 Alpha virt. eigenvalues --    0.65090   0.66044   0.66240   0.68395   0.68717
 Alpha virt. eigenvalues --    0.71338   0.71928   0.72248   0.73043   0.74047
 Alpha virt. eigenvalues --    0.74571   0.75089   0.77501   0.77927   0.79010
 Alpha virt. eigenvalues --    0.80529   0.80578   0.81539   0.83003   0.83519
 Alpha virt. eigenvalues --    0.84593   0.84954   0.85370   0.86084   0.86973
 Alpha virt. eigenvalues --    0.87480   0.88251   0.89310   0.90109   0.90988
 Alpha virt. eigenvalues --    0.92579   0.93187   0.94291   0.95195   0.96638
 Alpha virt. eigenvalues --    0.96966   0.97591   1.01541   1.02322   1.03685
 Alpha virt. eigenvalues --    1.05970   1.06973   1.10630   1.11483   1.13164
 Alpha virt. eigenvalues --    1.15356   1.17414   1.19731   1.24576   1.26309
 Alpha virt. eigenvalues --    1.30019   1.31218   1.31961   1.33181   1.34393
 Alpha virt. eigenvalues --    1.35781   1.37205   1.37649   1.38118   1.41513
 Alpha virt. eigenvalues --    1.43406   1.46210   1.47273   1.49783   1.50732
 Alpha virt. eigenvalues --    1.51818   1.53786   1.55263   1.55436   1.59962
 Alpha virt. eigenvalues --    1.63217   1.66031   1.67337   1.69868   1.70738
 Alpha virt. eigenvalues --    1.72494   1.73283   1.75220   1.76232   1.77444
 Alpha virt. eigenvalues --    1.78977   1.79479   1.81104   1.83192   1.83260
 Alpha virt. eigenvalues --    1.84333   1.85984   1.87685   1.88943   1.89472
 Alpha virt. eigenvalues --    1.90560   1.91054   1.93255   1.94456   1.96793
 Alpha virt. eigenvalues --    1.97832   1.99605   1.99710   2.03439   2.05268
 Alpha virt. eigenvalues --    2.07417   2.07680   2.10277   2.11676   2.12796
 Alpha virt. eigenvalues --    2.14205   2.16081   2.17095   2.17415   2.20283
 Alpha virt. eigenvalues --    2.21249   2.22688   2.24487   2.26087   2.28106
 Alpha virt. eigenvalues --    2.28309   2.28994   2.32106   2.32359   2.33233
 Alpha virt. eigenvalues --    2.34457   2.36865   2.38582   2.39367   2.41782
 Alpha virt. eigenvalues --    2.43380   2.45169   2.45430   2.46933   2.48040
 Alpha virt. eigenvalues --    2.48945   2.50747   2.52746   2.53211   2.55429
 Alpha virt. eigenvalues --    2.56349   2.56631   2.58459   2.60493   2.60920
 Alpha virt. eigenvalues --    2.62743   2.65044   2.65319   2.66396   2.68365
 Alpha virt. eigenvalues --    2.69538   2.71724   2.72726   2.75488   2.76831
 Alpha virt. eigenvalues --    2.78648   2.79970   2.81873   2.83629   2.84304
 Alpha virt. eigenvalues --    2.85995   2.87105   2.87357   2.90501   2.93946
 Alpha virt. eigenvalues --    2.95082   2.95924   2.97560   3.00021   3.01979
 Alpha virt. eigenvalues --    3.05895   3.07450   3.09455   3.21892   3.26972
 Alpha virt. eigenvalues --    3.28059   3.30190   3.31107   3.32032   3.33323
 Alpha virt. eigenvalues --    3.36078   3.40656   3.41510   3.46838   3.51670
 Alpha virt. eigenvalues --    3.53217   3.56689   3.58259   3.71681   3.96314
 Alpha virt. eigenvalues --    3.97944   4.01079   4.11212   4.11881   4.16919
 Alpha virt. eigenvalues --    4.24229   4.25490   4.31149   4.42012   4.44073
 Alpha virt. eigenvalues --    4.50737   4.57619   4.65810   4.73868   4.78074
          Condensed to atoms (all electrons):
               1          2          3          4          5          6
     1  O    8.148623   0.522624  -0.096190   0.008689   0.000621   0.000000
     2  C    0.522624   4.372484   0.287147  -0.022162   0.005561  -0.000040
     3  N   -0.096190   0.287147   7.057321   0.205599  -0.026869   0.001869
     4  C    0.008689  -0.022162   0.205599   5.124456   0.299602  -0.097363
     5  C    0.000621   0.005561  -0.026869   0.299602   4.389723   0.273151
     6  O    0.000000  -0.000040   0.001869  -0.097363   0.273151   8.092861
     7  O   -0.000005   0.000675  -0.013567  -0.082102   0.569778  -0.083167
     8  C    0.003385  -0.003928  -0.048791   0.293458  -0.022368   0.000328
     9  C   -0.003635  -0.000084   0.003147  -0.032803  -0.000665   0.000197
    10  C    0.000047   0.000004  -0.000034  -0.000224  -0.000114   0.000283
    11  N   -0.000009   0.000000   0.000001  -0.000062  -0.000001   0.000001
    12  C    0.000400   0.000017  -0.000015   0.000260   0.000005  -0.000001
    13  N   -0.013571   0.000961   0.000150  -0.004104   0.000182   0.000000
    14  C   -0.084920   0.344270  -0.113855   0.007126  -0.000174   0.000000
    15  C    0.005779  -0.031378   0.004601  -0.000167   0.000000   0.000000
    16  N   -0.006529  -0.003413  -0.000201   0.000009   0.000000   0.000000
    17  H    0.002801  -0.022797   0.330631  -0.041835  -0.005453   0.000726
    18  H    0.005682  -0.002402  -0.049331   0.389587  -0.026921   0.001935
    19  H    0.000000   0.000003  -0.000185   0.010323  -0.011684   0.275027
    20  H    0.001348   0.002403  -0.005363  -0.047585   0.001010   0.000208
    21  H    0.000138   0.000208   0.002946  -0.044226  -0.004225   0.004163
    22  H    0.000000   0.000000   0.000000  -0.000021   0.000006   0.000141
    23  H   -0.000009   0.000001   0.000000   0.000001   0.000000   0.000000
    24  H    0.038779  -0.002718  -0.000296   0.000510   0.000012   0.000000
    25  H    0.001471  -0.033542   0.001599   0.000158  -0.000025   0.000000
    26  H    0.000658  -0.026032  -0.001453  -0.000275  -0.000007   0.000000
    27  H    0.000386   0.004732  -0.000096   0.000001   0.000000   0.000000
    28  H    0.006620  -0.008958   0.000326  -0.000003   0.000000   0.000000
    29  H    0.014288   0.004185  -0.000039  -0.000009   0.000000   0.000000
    30  H    0.000110   0.000073   0.000004   0.000000   0.000000   0.000000
               7          8          9         10         11         12
     1  O   -0.000005   0.003385  -0.003635   0.000047  -0.000009   0.000400
     2  C    0.000675  -0.003928  -0.000084   0.000004   0.000000   0.000017
     3  N   -0.013567  -0.048791   0.003147  -0.000034   0.000001  -0.000015
     4  C   -0.082102   0.293458  -0.032803  -0.000224  -0.000062   0.000260
     5  C    0.569778  -0.022368  -0.000665  -0.000114  -0.000001   0.000005
     6  O   -0.083167   0.000328   0.000197   0.000283   0.000001  -0.000001
     7  O    8.035099   0.000681   0.000028   0.000000   0.000000   0.000000
     8  C    0.000681   5.109992   0.329992  -0.054353   0.006966   0.006641
     9  C    0.000028   0.329992   4.765197   0.578670  -0.046500  -0.093899
    10  C    0.000000  -0.054353   0.578670   4.855620   0.426048  -0.122525
    11  N    0.000000   0.006966  -0.046500   0.426048   6.698756   0.535087
    12  C    0.000000   0.006641  -0.093899  -0.122525   0.535087   4.677226
    13  N    0.000000  -0.072191   0.364179  -0.071046  -0.089777   0.362214
    14  C   -0.000079  -0.000212  -0.000005   0.000000   0.000000   0.000001
    15  C    0.000000   0.000015   0.000000   0.000000   0.000000   0.000000
    16  N    0.000000  -0.000009   0.000000   0.000000   0.000000   0.000000
    17  H    0.031045   0.003214  -0.000122   0.000001   0.000000   0.000000
    18  H    0.000857  -0.053084   0.000323   0.000523  -0.000134  -0.000114
    19  H    0.007740  -0.000235   0.000050   0.000020   0.000000   0.000000
    20  H   -0.000101   0.379134  -0.027293   0.001160  -0.000162   0.000139
    21  H    0.000070   0.374475  -0.026370  -0.003967  -0.000003  -0.000045
    22  H    0.000000  -0.001645  -0.057779   0.389805  -0.041893   0.007152
    23  H    0.000000  -0.000194   0.003550   0.007180  -0.038682   0.390721
    24  H    0.000000  -0.003526  -0.027194   0.008094   0.004217  -0.021296
    25  H   -0.000004  -0.000002   0.000001   0.000000   0.000000   0.000000
    26  H   -0.000001  -0.000004   0.000000   0.000000   0.000000   0.000000
    27  H    0.000000   0.000000   0.000000   0.000000   0.000000   0.000000
    28  H    0.000000  -0.000001   0.000000   0.000000   0.000000   0.000000
    29  H    0.000000   0.000019  -0.000004   0.000000   0.000000   0.000000
    30  H    0.000000   0.000000   0.000000   0.000000   0.000000   0.000000
              13         14         15         16         17         18
     1  O   -0.013571  -0.084920   0.005779  -0.006529   0.002801   0.005682
     2  C    0.000961   0.344270  -0.031378  -0.003413  -0.022797  -0.002402
     3  N    0.000150  -0.113855   0.004601  -0.000201   0.330631  -0.049331
     4  C   -0.004104   0.007126  -0.000167   0.000009  -0.041835   0.389587
     5  C    0.000182  -0.000174   0.000000   0.000000  -0.005453  -0.026921
     6  O    0.000000   0.000000   0.000000   0.000000   0.000726   0.001935
     7  O    0.000000  -0.000079   0.000000   0.000000   0.031045   0.000857
     8  C   -0.072191  -0.000212   0.000015  -0.000009   0.003214  -0.053084
     9  C    0.364179  -0.000005   0.000000   0.000000  -0.000122   0.000323
    10  C   -0.071046   0.000000   0.000000   0.000000   0.000001   0.000523
    11  N   -0.089777   0.000000   0.000000   0.000000   0.000000  -0.000134
    12  C    0.362214   0.000001   0.000000   0.000000   0.000000  -0.000114
    13  N    6.774574  -0.000019   0.000000   0.000000  -0.000002   0.003786
    14  C   -0.000019   5.208008   0.347442  -0.065506  -0.000360   0.000179
    15  C    0.000000   0.347442   4.773492   0.315166  -0.000047  -0.000007
    16  N    0.000000  -0.065506   0.315166   6.773942   0.000009   0.000001
    17  H   -0.000002  -0.000360  -0.000047   0.000009   0.412730   0.003893
    18  H    0.003786   0.000179  -0.000007   0.000001   0.003893   0.552619
    19  H    0.000000   0.000000   0.000000   0.000000  -0.000082  -0.000330
    20  H   -0.002928  -0.000218   0.000002   0.000009   0.000197   0.002577
    21  H    0.003778   0.000009   0.000000   0.000000  -0.000003   0.003971
    22  H    0.005029   0.000000   0.000000   0.000000   0.000000   0.000047
    23  H   -0.057223   0.000000   0.000000   0.000000   0.000000   0.000011
    24  H    0.317968   0.000311  -0.000015  -0.000007  -0.000019   0.000145
    25  H    0.000000   0.356495  -0.030086   0.006262   0.001258  -0.000006
    26  H    0.000000   0.352662  -0.025192   0.004142   0.001000   0.000022
    27  H    0.000000  -0.026134   0.378839  -0.041663  -0.000012   0.000000
    28  H    0.000001  -0.052571   0.379894  -0.043561  -0.000002  -0.000003
    29  H   -0.000013  -0.009209  -0.037823   0.334130  -0.000016  -0.000005
    30  H    0.000000   0.006712  -0.033866   0.337351   0.000000   0.000000
              19         20         21         22         23         24
     1  O    0.000000   0.001348   0.000138   0.000000  -0.000009   0.038779
     2  C    0.000003   0.002403   0.000208   0.000000   0.000001  -0.002718
     3  N   -0.000185  -0.005363   0.002946   0.000000   0.000000  -0.000296
     4  C    0.010323  -0.047585  -0.044226  -0.000021   0.000001   0.000510
     5  C   -0.011684   0.001010  -0.004225   0.000006   0.000000   0.000012
     6  O    0.275027   0.000208   0.004163   0.000141   0.000000   0.000000
     7  O    0.007740  -0.000101   0.000070   0.000000   0.000000   0.000000
     8  C   -0.000235   0.379134   0.374475  -0.001645  -0.000194  -0.003526
     9  C    0.000050  -0.027293  -0.026370  -0.057779   0.003550  -0.027194
    10  C    0.000020   0.001160  -0.003967   0.389805   0.007180   0.008094
    11  N    0.000000  -0.000162  -0.000003  -0.041893  -0.038682   0.004217
    12  C    0.000000   0.000139  -0.000045   0.007152   0.390721  -0.021296
    13  N    0.000000  -0.002928   0.003778   0.005029  -0.057223   0.317968
    14  C    0.000000  -0.000218   0.000009   0.000000   0.000000   0.000311
    15  C    0.000000   0.000002   0.000000   0.000000   0.000000  -0.000015
    16  N    0.000000   0.000009   0.000000   0.000000   0.000000  -0.000007
    17  H   -0.000082   0.000197  -0.000003   0.000000   0.000000  -0.000019
    18  H   -0.000330   0.002577   0.003971   0.000047   0.000011   0.000145
    19  H    0.388302   0.000008  -0.000347  -0.000001   0.000000   0.000000
    20  H    0.000008   0.581869  -0.026745  -0.000030  -0.000004   0.000778
    21  H   -0.000347  -0.026745   0.582790   0.002931   0.000004  -0.000017
    22  H   -0.000001  -0.000030   0.002931   0.617270  -0.000171  -0.000111
    23  H    0.000000  -0.000004   0.000004  -0.000171   0.590866   0.000039
    24  H    0.000000   0.000778  -0.000017  -0.000111   0.000039   0.396153
    25  H    0.000000   0.000001  -0.000003   0.000000   0.000000  -0.000008
    26  H    0.000000   0.000006   0.000000   0.000000   0.000000  -0.000007
    27  H    0.000000   0.000000   0.000000   0.000000   0.000000   0.000000
    28  H    0.000000   0.000000   0.000000   0.000000   0.000000  -0.000014
    29  H    0.000000   0.000094   0.000000   0.000000   0.000000   0.000141
    30  H    0.000000   0.000000   0.000000   0.000000   0.000000   0.000000
              25         26         27         28         29         30
     1  O    0.001471   0.000658   0.000386   0.006620   0.014288   0.000110
     2  C   -0.033542  -0.026032   0.004732  -0.008958   0.004185   0.000073
     3  N    0.001599  -0.001453  -0.000096   0.000326  -0.000039   0.000004
     4  C    0.000158  -0.000275   0.000001  -0.000003  -0.000009   0.000000
     5  C   -0.000025  -0.000007   0.000000   0.000000   0.000000   0.000000
     6  O    0.000000   0.000000   0.000000   0.000000   0.000000   0.000000
     7  O   -0.000004  -0.000001   0.000000   0.000000   0.000000   0.000000
     8  C   -0.000002  -0.000004   0.000000  -0.000001   0.000019   0.000000
     9  C    0.000001   0.000000   0.000000   0.000000  -0.000004   0.000000
    10  C    0.000000   0.000000   0.000000   0.000000   0.000000   0.000000
    11  N    0.000000   0.000000   0.000000   0.000000   0.000000   0.000000
    12  C    0.000000   0.000000   0.000000   0.000000   0.000000   0.000000
    13  N    0.000000   0.000000   0.000000   0.000001  -0.000013   0.000000
    14  C    0.356495   0.352662  -0.026134  -0.052571  -0.009209   0.006712
    15  C   -0.030086  -0.025192   0.378839   0.379894  -0.037823  -0.033866
    16  N    0.006262   0.004142  -0.041663  -0.043561   0.334130   0.337351
    17  H    0.001258   0.001000  -0.000012  -0.000002  -0.000016   0.000000
    18  H   -0.000006   0.000022   0.000000  -0.000003  -0.000005   0.000000
    19  H    0.000000   0.000000   0.000000   0.000000   0.000000   0.000000
    20  H    0.000001   0.000006   0.000000   0.000000   0.000094   0.000000
    21  H   -0.000003   0.000000   0.000000   0.000000   0.000000   0.000000
    22  H    0.000000   0.000000   0.000000   0.000000   0.000000   0.000000
    23  H    0.000000   0.000000   0.000000   0.000000   0.000000   0.000000
    24  H   -0.000008  -0.000007   0.000000  -0.000014   0.000141   0.000000
    25  H    0.584817  -0.025303  -0.004646   0.006964  -0.000831  -0.000089
    26  H   -0.025303   0.596862  -0.003980   0.001706  -0.000045  -0.000251
    27  H   -0.004646  -0.003980   0.638672  -0.046161   0.006995  -0.005281
    28  H    0.006964   0.001706  -0.046161   0.667692  -0.006700  -0.002600
    29  H   -0.000831  -0.000045   0.006995  -0.006700   0.476719  -0.031299
    30  H   -0.000089  -0.000251  -0.005281  -0.002600  -0.031299   0.491104
 Mulliken charges:
               1
     1  O   -0.557580
     2  C    0.612107
     3  N   -0.539055
     4  C    0.033160
     5  C    0.558855
     6  O   -0.470319
     7  O   -0.466949
     8  C   -0.247756
     9  C    0.271020
    10  C   -0.015192
    11  N   -0.453850
    12  C    0.258033
    13  N   -0.521946
    14  C   -0.269955
    15  C   -0.046651
    16  N   -0.610132
    17  H    0.283244
    18  H    0.166179
    19  H    0.331391
    20  H    0.139488
    21  H    0.130468
    22  H    0.079271
    23  H    0.103910
    24  H    0.288081
    25  H    0.135516
    26  H    0.125493
    27  H    0.098347
    28  H    0.097369
    29  H    0.249422
    30  H    0.238031
 Sum of Mulliken charges =   0.00000
 Mulliken charges with hydrogens summed into heavy atoms:
               1
     1  O   -0.557580
     2  C    0.612107
     3  N   -0.255811
     4  C    0.199340
     5  C    0.558855
     6  O   -0.138929
     7  O   -0.466949
     8  C    0.022200
     9  C    0.271020
    10  C    0.064079
    11  N   -0.453850
    12  C    0.361943
    13  N   -0.233865
    14  C   -0.008946
    15  C    0.149065
    16  N   -0.122679
 APT charges:
               1
     1  O   -0.593169
     2  C    0.375045
     3  N   -0.756965
     4  C   -0.303224
     5  C   -0.353529
     6  O   -0.961563
     7  O    0.272519
     8  C   -0.795988
     9  C   -0.575793
    10  C   -0.215866
    11  N    0.377097
    12  C   -0.514492
    13  N   -0.540652
    14  C   -0.761087
    15  C   -0.891480
    16  N   -1.035267
    17  H    0.674013
    18  H    0.313487
    19  H    1.161186
    20  H    0.239591
    21  H    0.533666
    22  H    0.683001
    23  H    0.668882
    24  H    0.142739
    25  H    0.400049
    26  H    0.483814
    27  H    0.759561
    28  H    0.260159
    29  H   -0.001106
    30  H    0.955368
 Sum of APT charges =   0.00000
 APT charges with hydrogens summed into heavy atoms:
               1
     1  O   -0.593169
     2  C    0.375045
     3  N   -0.082952
     4  C    0.010263
     5  C   -0.353529
     6  O    0.199623
     7  O    0.272519
     8  C   -0.022730
     9  C   -0.575793
    10  C    0.467135
    11  N    0.377097
    12  C    0.154391
    13  N   -0.397912
    14  C    0.122776
    15  C    0.128241
    16  N   -0.081005
 Electronic spatial extent (au):  <R**2>=           4454.2110
 Charge=              0.0000 electrons
 Dipole moment (field-independent basis, Debye):
    X=             -2.6469    Y=             -3.4265    Z=             -1.0955  Tot=              4.4662
 Quadrupole moment (field-independent basis, Debye-Ang):
   XX=           -101.3546   YY=            -95.1066   ZZ=            -89.1913
   XY=            -17.8624   XZ=              5.7634   YZ=             -5.0289
 Traceless Quadrupole moment (field-independent basis, Debye-Ang):
   XX=             -6.1371   YY=              0.1109   ZZ=              6.0262
   XY=            -17.8624   XZ=              5.7634   YZ=             -5.0289
 Octapole moment (field-independent basis, Debye-Ang**2):
  XXX=           -169.8709  YYY=              1.7856  ZZZ=            -19.7249  XYY=            -63.4937
  XXY=            -76.0220  XXZ=            -26.3412  XZZ=            -28.6951  YZZ=             -4.6645
  YYZ=            -26.9885  XYZ=            -21.1528
 Hexadecapole moment (field-independent basis, Debye-Ang**3):
 XXXX=          -3451.8560 YYYY=          -2000.1005 ZZZZ=           -529.5969 XXXY=           -585.0518
 XXXZ=           -295.8894 YYYX=           -382.6241 YYYZ=             -0.0304 ZZZX=           -410.8469
 ZZZY=             56.0376 XXYY=           -855.0763 XXZZ=           -585.8034 YYZZ=           -391.4887
 XXYZ=            -71.4821 YYXZ=           -148.9870 ZZXY=            -76.1707
 N-N= 1.127313232600D+03 E-N=-4.111677175902D+03  KE= 7.891659554589D+02
  Exact polarizability:   0.000   0.000   0.000   0.000   0.000   0.000
 Approx polarizability: 192.587  22.821 195.645  22.555 -28.165 147.442
 Calling FoFJK, ICntrl=    100147 FMM=F ISym2X=0 I1Cent= 0 IOpClX= 0 NMat=1 NMatS=1 NMatT=0.
 -------------------------------------------------------------------
 Center     Atomic                   Forces (Hartrees/Bohr)
 Number     Number              X              Y              Z
 -------------------------------------------------------------------
      1        8          -0.001382304    0.007481868   -0.002523045
      2        6          -0.000597645   -0.001662586   -0.000048900
      3        7           0.001127842   -0.001417968    0.000415050
      4        6          -0.004788723   -0.004204186   -0.001062585
      5        6           0.008635244    0.009545920   -0.000641236
      6        8          -0.003020031    0.005392229   -0.002085552
      7        8          -0.007186615   -0.013040295    0.001262536
      8        6           0.006248709    0.008853273   -0.003961492
      9        6          -0.006829042   -0.010473879    0.003935141
     10        6           0.010134736    0.007190686    0.000486576
     11        7           0.008016151   -0.000836464    0.006415514
     12        6          -0.000977042   -0.000411387   -0.001308375
     13        7          -0.005027026    0.001993648   -0.002722812
     14        6           0.002678967   -0.004130006    0.001055005
     15        6          -0.002310472    0.004769261    0.000974458
     16        7           0.000616189   -0.003832776    0.001330950
     17        1          -0.001235219   -0.002818005    0.001663622
     18        1           0.001519951    0.003250164    0.002105679
     19        1           0.002652108   -0.005006081    0.001766700
     20        1          -0.004408591   -0.001337719   -0.000397857
     21        1           0.001132414   -0.001356943    0.000448521
     22        1           0.000303809    0.000149663    0.000462683
     23        1           0.001128141    0.003694156   -0.002814117
     24        1          -0.005403397   -0.003667060   -0.001148161
     25        1          -0.001213136   -0.000361652    0.000658533
     26        1           0.000440297   -0.000990415   -0.000995035
     27        1          -0.000759481   -0.000607464   -0.000674907
     28        1           0.000590914   -0.000671832   -0.002384721
     29        1           0.003011113    0.001878861    0.000696180
     30        1          -0.003097860    0.002626989   -0.000908357
 -------------------------------------------------------------------
 Cartesian Forces:  Max     0.013040295 RMS     0.003972172
 FormGI is forming the generalized inverse of G from B-inverse, IUseBI=4.

 GradGradGradGradGradGradGradGradGradGradGradGradGradGradGradGradGradGrad
 Berny optimization.
 Internal  Forces:  Max     0.014941276 RMS     0.002622597
 Search for a local minimum.
 Step number   1 out of a maximum of  160
 All quantities printed in internal units (Hartrees-Bohrs-Radians)
 Mixed Optimization -- RFO/linear search
 Second derivative matrix not updated -- analytic derivatives used.
 ITU=  0
     Eigenvalues ---   -0.00011   0.00170   0.00269   0.00353   0.00377
     Eigenvalues ---    0.00425   0.00499   0.00691   0.00878   0.01374
     Eigenvalues ---    0.01986   0.02095   0.02246   0.02710   0.03420
     Eigenvalues ---    0.03630   0.04060   0.04163   0.04293   0.04411
     Eigenvalues ---    0.04489   0.04621   0.05236   0.05314   0.05439
     Eigenvalues ---    0.06134   0.06217   0.06330   0.07890   0.07896
     Eigenvalues ---    0.08435   0.10547   0.10988   0.11026   0.11715
     Eigenvalues ---    0.11855   0.12453   0.12762   0.14979   0.15366
     Eigenvalues ---    0.15530   0.17498   0.17846   0.19378   0.20154
     Eigenvalues ---    0.21445   0.22140   0.22597   0.23378   0.23536
     Eigenvalues ---    0.25037   0.25344   0.25501   0.27721   0.29850
     Eigenvalues ---    0.31569   0.32079   0.32776   0.33373   0.33725
     Eigenvalues ---    0.34135   0.34364   0.34660   0.35015   0.35376
     Eigenvalues ---    0.36818   0.37570   0.37795   0.38461   0.38725
     Eigenvalues ---    0.43030   0.43561   0.45818   0.45933   0.46281
     Eigenvalues ---    0.47254   0.47768   0.48053   0.49844   0.53503
     Eigenvalues ---    0.60873   0.67061   0.81619   0.92934
 RFO step:  Lambda=-3.28184787D-03 EMin=-1.11703312D-04
 Linear search not attempted -- first point.
 Iteration  1 RMS(Cart)=  0.15207049 RMS(Int)=  0.03644283
 Iteration  2 RMS(Cart)=  0.10980258 RMS(Int)=  0.00427509
 Iteration  3 RMS(Cart)=  0.00752565 RMS(Int)=  0.00010467
 Iteration  4 RMS(Cart)=  0.00001954 RMS(Int)=  0.00010415
 Iteration  5 RMS(Cart)=  0.00000000 RMS(Int)=  0.00010415
 Variable       Old X    -DE/DX   Delta X   Delta X   Delta X     New X
                                 (Linear)    (Quad)   (Total)
    R1        2.32965   0.00700   0.00000   0.00929   0.00929   2.33895
    R2        2.55055   0.00546   0.00000   0.00751   0.00751   2.55806
    R3        2.87398   0.00051   0.00000   0.00318   0.00318   2.87716
    R4        2.74078   0.00213   0.00000  -0.00217  -0.00217   2.73860
    R5        1.90672   0.00328   0.00000   0.00728   0.00728   1.91400
    R6        2.86040   0.00322   0.00000   0.00538   0.00538   2.86578
    R7        2.94886   0.00276   0.00000   0.02032   0.02032   2.96918
    R8        2.07168  -0.00020   0.00000  -0.00120  -0.00120   2.07047
    R9        2.54407  -0.00037   0.00000  -0.00613  -0.00613   2.53793
   R10        2.27664   0.01494   0.00000   0.01668   0.01668   2.29332
   R11        1.82575   0.00590   0.00000   0.01112   0.01112   1.83687
   R12        2.82718  -0.00215   0.00000  -0.01441  -0.01441   2.81277
   R13        2.05711   0.00345   0.00000   0.01154   0.01154   2.06864
   R14        2.05988   0.00136   0.00000   0.00443   0.00443   2.06431
   R15        2.57654   0.01250   0.00000   0.02237   0.02237   2.59891
   R16        2.59737   0.00441   0.00000   0.01293   0.01296   2.61032
   R17        2.61621  -0.00184   0.00000  -0.01072  -0.01074   2.60547
   R18        2.04190   0.00046   0.00000   0.00170   0.00170   2.04360
   R19        2.47725   0.00880   0.00000   0.01520   0.01519   2.49244
   R20        2.56551   0.00805   0.00000   0.01171   0.01172   2.57723
   R21        2.03195   0.00450   0.00000   0.01080   0.01080   2.04275
   R22        1.90530   0.00560   0.00000   0.01573   0.01573   1.92103
   R23        2.86562   0.00453   0.00000   0.01881   0.01881   2.88443
   R24        2.06736   0.00115   0.00000   0.00532   0.00532   2.07268
   R25        2.07115   0.00143   0.00000   0.00249   0.00249   2.07364
   R26        2.77011   0.00117   0.00000  -0.00371  -0.00371   2.76641
   R27        2.06605   0.00110   0.00000   0.00389   0.00389   2.06994
   R28        2.07521   0.00186   0.00000   0.00803   0.00803   2.08324
   R29        1.91624   0.00362   0.00000   0.00649   0.00649   1.92273
   R30        1.91277   0.00414   0.00000   0.00873   0.00873   1.92151
    A1        2.11827   0.00557   0.00000   0.01288   0.01286   2.13113
    A2        2.14245  -0.00325   0.00000  -0.00421  -0.00424   2.13821
    A3        2.02246  -0.00232   0.00000  -0.00863  -0.00866   2.01380
    A4        2.11989   0.00266   0.00000   0.01170   0.01169   2.13158
    A5        2.11691  -0.00122   0.00000  -0.00466  -0.00467   2.11224
    A6        2.02963  -0.00136   0.00000  -0.00557  -0.00559   2.02404
    A7        1.86488  -0.00104   0.00000   0.00414   0.00405   1.86894
    A8        1.97013   0.00119   0.00000   0.00760   0.00758   1.97771
    A9        1.89410   0.00130   0.00000   0.01232   0.01228   1.90638
   A10        1.94494   0.00070   0.00000   0.00363   0.00357   1.94851
   A11        1.86548   0.00070   0.00000   0.00945   0.00932   1.87480
   A12        1.92023  -0.00278   0.00000  -0.03552  -0.03548   1.88474
   A13        1.95090  -0.00148   0.00000  -0.00287  -0.00288   1.94802
   A14        2.17878   0.00055   0.00000  -0.00207  -0.00207   2.17671
   A15        2.15350   0.00093   0.00000   0.00493   0.00493   2.15843
   A16        1.85933   0.00119   0.00000   0.00746   0.00746   1.86678
   A17        1.96014   0.00346   0.00000   0.01371   0.01378   1.97392
   A18        1.89302  -0.00374   0.00000  -0.03402  -0.03414   1.85889
   A19        1.93728  -0.00097   0.00000  -0.00909  -0.00926   1.92802
   A20        1.91640   0.00128   0.00000   0.01814   0.01827   1.93466
   A21        1.89127  -0.00130   0.00000   0.00705   0.00705   1.89833
   A22        1.86330   0.00120   0.00000   0.00422   0.00379   1.86709
   A23        2.30888   0.00315   0.00000   0.02453   0.02450   2.33337
   A24        2.13959  -0.00325   0.00000  -0.02216  -0.02221   2.11738
   A25        1.83430   0.00011   0.00000  -0.00199  -0.00199   1.83231
   A26        1.93059   0.00125   0.00000   0.00378   0.00376   1.93435
   A27        2.22954  -0.00041   0.00000  -0.00279  -0.00279   2.22675
   A28        2.12305  -0.00084   0.00000  -0.00096  -0.00097   2.12209
   A29        1.83262  -0.00065   0.00000   0.00064   0.00060   1.83322
   A30        1.95032   0.00176   0.00000   0.00301   0.00302   1.95334
   A31        2.21011  -0.00252   0.00000  -0.01593  -0.01594   2.19418
   A32        2.12275   0.00076   0.00000   0.01292   0.01292   2.13567
   A33        1.87689  -0.00246   0.00000  -0.00533  -0.00535   1.87154
   A34        2.17176  -0.00212   0.00000  -0.02772  -0.02777   2.14399
   A35        2.23397   0.00456   0.00000   0.03241   0.03229   2.26626
   A36        1.97076  -0.00279   0.00000  -0.00165  -0.00182   1.96895
   A37        1.89537   0.00114   0.00000  -0.01224  -0.01235   1.88301
   A38        1.88266   0.00096   0.00000   0.01730   0.01721   1.89987
   A39        1.91854   0.00024   0.00000  -0.01312  -0.01322   1.90532
   A40        1.92296   0.00090   0.00000   0.01176   0.01166   1.93463
   A41        1.87044  -0.00030   0.00000  -0.00185  -0.00173   1.86870
   A42        1.92188  -0.00085   0.00000  -0.00053  -0.00053   1.92135
   A43        1.89408   0.00001   0.00000  -0.00775  -0.00776   1.88632
   A44        1.89979  -0.00042   0.00000  -0.00294  -0.00299   1.89680
   A45        1.88842   0.00067   0.00000   0.00586   0.00586   1.89428
   A46        1.97694   0.00104   0.00000   0.01538   0.01537   1.99231
   A47        1.88070  -0.00046   0.00000  -0.01113  -0.01121   1.86949
   A48        1.87913   0.00015   0.00000  -0.00687  -0.00686   1.87226
   A49        1.90901   0.00038   0.00000   0.00242   0.00242   1.91144
   A50        1.85011  -0.00001   0.00000   0.01099   0.01100   1.86111
    D1       -0.07068  -0.00022   0.00000   0.00959   0.00955  -0.06113
    D2       -3.00932  -0.00055   0.00000   0.00143   0.00139  -3.00793
    D3        3.06807   0.00009   0.00000   0.02210   0.02214   3.09022
    D4        0.12943  -0.00024   0.00000   0.01394   0.01398   0.14341
    D5       -0.20200   0.00011   0.00000   0.35799   0.35796   0.15596
    D6       -2.33447   0.00085   0.00000   0.38448   0.38440  -1.95006
    D7        1.92711   0.00011   0.00000   0.38387   0.38390   2.31101
    D8        2.94247  -0.00022   0.00000   0.34526   0.34528  -2.99543
    D9        0.81001   0.00052   0.00000   0.37175   0.37173   1.18174
   D10       -1.21160  -0.00022   0.00000   0.37114   0.37123  -0.84037
   D11       -2.90577   0.00018   0.00000   0.05448   0.05447  -2.85129
   D12        1.23346  -0.00073   0.00000   0.04223   0.04221   1.27567
   D13       -0.89984   0.00109   0.00000   0.07362   0.07365  -0.82619
   D14        0.04251   0.00049   0.00000   0.06224   0.06223   0.10474
   D15       -2.10145  -0.00042   0.00000   0.04998   0.04996  -2.05149
   D16        2.04844   0.00140   0.00000   0.08137   0.08140   2.12984
   D17        3.12129  -0.00005   0.00000  -0.02821  -0.02819   3.09309
   D18       -0.02173  -0.00007   0.00000  -0.03413  -0.03410  -0.05583
   D19       -1.00231   0.00117   0.00000  -0.01370  -0.01368  -1.01599
   D20        2.13786   0.00115   0.00000  -0.01962  -0.01959   2.11827
   D21        1.09619  -0.00138   0.00000  -0.04901  -0.04905   1.04713
   D22       -2.04683  -0.00140   0.00000  -0.05492  -0.05496  -2.10179
   D23       -2.16908  -0.00071   0.00000   0.01826   0.01830  -2.15078
   D24       -0.04790   0.00057   0.00000   0.02656   0.02642  -0.02148
   D25        1.99388  -0.00077   0.00000   0.00607   0.00620   2.00008
   D26        2.01544  -0.00070   0.00000   0.00499   0.00504   2.02048
   D27       -2.14657   0.00057   0.00000   0.01329   0.01316  -2.13341
   D28       -0.10479  -0.00076   0.00000  -0.00720  -0.00706  -0.11185
   D29       -0.05051  -0.00022   0.00000   0.01382   0.01382  -0.03669
   D30        2.07067   0.00106   0.00000   0.02212   0.02194   2.09261
   D31       -2.17074  -0.00028   0.00000   0.00163   0.00172  -2.16902
   D32       -3.14043  -0.00013   0.00000  -0.01052  -0.01053   3.13222
   D33        0.00256  -0.00011   0.00000  -0.00470  -0.00469  -0.00213
   D34       -1.97925  -0.00105   0.00000  -0.07294  -0.07298  -2.05223
   D35        1.12612  -0.00086   0.00000  -0.05680  -0.05677   1.06935
   D36        2.19617   0.00051   0.00000  -0.05145  -0.05148   2.14470
   D37       -0.98164   0.00070   0.00000  -0.03531  -0.03527  -1.01691
   D38        0.16708  -0.00090   0.00000  -0.07042  -0.07046   0.09662
   D39       -3.01073  -0.00071   0.00000  -0.05428  -0.05426  -3.06499
   D40        3.12004  -0.00009   0.00000   0.00777   0.00809   3.12813
   D41       -0.01712  -0.00017   0.00000   0.00166   0.00183  -0.01529
   D42        0.01005  -0.00019   0.00000  -0.00588  -0.00582   0.00423
   D43       -3.12710  -0.00027   0.00000  -0.01199  -0.01208  -3.13918
   D44       -3.12401   0.00020   0.00000  -0.00352  -0.00339  -3.12739
   D45       -0.01570  -0.00026   0.00000  -0.02229  -0.02171  -0.03741
   D46       -0.01016   0.00042   0.00000   0.00948   0.00938  -0.00078
   D47        3.09814  -0.00004   0.00000  -0.00929  -0.00894   3.08920
   D48       -0.00596  -0.00007   0.00000  -0.00005  -0.00010  -0.00605
   D49        3.13152   0.00000   0.00000   0.00562   0.00572   3.13723
   D50       -0.00076   0.00034   0.00000   0.00629   0.00631   0.00555
   D51        3.14146   0.00018   0.00000   0.00354   0.00377  -3.13796
   D52        0.00704  -0.00047   0.00000  -0.01017  -0.01014  -0.00310
   D53       -3.09972   0.00018   0.00000   0.01102   0.01151  -3.08821
   D54       -3.13515  -0.00033   0.00000  -0.00759  -0.00770   3.14034
   D55        0.04128   0.00032   0.00000   0.01360   0.01394   0.05523
   D56       -1.18826   0.00042   0.00000  -0.00705  -0.00706  -1.19531
   D57        3.03089   0.00009   0.00000  -0.00923  -0.00922   3.02167
   D58        0.98858   0.00086   0.00000   0.00994   0.00991   0.99849
   D59        0.93115   0.00014   0.00000  -0.03329  -0.03324   0.89791
   D60       -1.13288  -0.00019   0.00000  -0.03547  -0.03541  -1.16829
   D61        3.10799   0.00059   0.00000  -0.01630  -0.01628   3.09171
   D62        2.98864   0.00045   0.00000  -0.03641  -0.03644   2.95220
   D63        0.92460   0.00012   0.00000  -0.03860  -0.03861   0.88599
   D64       -1.11771   0.00090   0.00000  -0.01943  -0.01948  -1.13719
   D65        1.24247  -0.00015   0.00000  -0.02013  -0.02011   1.22236
   D66       -3.03787   0.00012   0.00000  -0.00961  -0.00959  -3.04746
   D67       -2.97321  -0.00022   0.00000  -0.02631  -0.02632  -2.99953
   D68       -0.97036   0.00004   0.00000  -0.01579  -0.01581  -0.98617
   D69       -0.88936   0.00029   0.00000  -0.02674  -0.02674  -0.91611
   D70        1.11349   0.00056   0.00000  -0.01622  -0.01623   1.09726
         Item               Value     Threshold  Converged?
 Maximum Force            0.014941     0.000450     NO 
 RMS     Force            0.002623     0.000300     NO 
 Maximum Displacement     1.179309     0.001800     NO 
 RMS     Displacement     0.253512     0.001200     NO 
 Predicted change in Energy=-1.925037D-03
 GradGradGradGradGradGradGradGradGradGradGradGradGradGradGradGradGradGrad

                          Input orientation:                          
 ---------------------------------------------------------------------
 Center     Atomic      Atomic             Coordinates (Angstroms)
 Number     Number       Type             X           Y           Z
 ---------------------------------------------------------------------
      1          8           0       -0.921348    0.626745   -0.820357
      2          6           0       -1.288957   -0.508186   -0.490602
      3          7           0       -0.443927   -1.402488    0.073809
      4          6           0        0.964746   -1.119117    0.262328
      5          6           0        1.655758   -2.444954    0.516205
      6          8           0        2.984005   -2.293836    0.645124
      7          8           0        1.088815   -3.514498    0.602282
      8          6           0        1.243030   -0.090233    1.416753
      9          6           0        2.010405    1.102046    0.963874
     10          6           0        3.242444    1.618947    1.289909
     11          7           0        3.504903    2.758519    0.559528
     12          6           0        2.444661    2.925365   -0.207057
     13          7           0        1.509837    1.953861   -0.001473
     14          6           0       -2.720644   -0.991240   -0.677763
     15          6           0       -3.569471   -0.023116   -1.497549
     16          7           0       -3.797278    1.209753   -0.741774
     17          1           0       -0.728438   -2.361589    0.232021
     18          1           0        1.377103   -0.706663   -0.665189
     19          1           0        3.354819   -3.176537    0.812976
     20          1           0        0.266111    0.203105    1.814124
     21          1           0        1.788300   -0.569954    2.232756
     22          1           0        3.950212    1.232405    2.010421
     23          1           0        2.301252    3.724712   -0.920495
     24          1           0        0.620732    1.796199   -0.468424
     25          1           0       -3.168747   -1.110164    0.316251
     26          1           0       -2.701706   -1.984654   -1.143477
     27          1           0       -4.537734   -0.498178   -1.688879
     28          1           0       -3.084580    0.130476   -2.475597
     29          1           0       -2.908560    1.702728   -0.692892
     30          1           0       -4.435607    1.810838   -1.256702
 ---------------------------------------------------------------------
                    Distance matrix (angstroms):
                    1          2          3          4          5
     1  O    0.000000
     2  C    1.237717   0.000000
     3  N    2.268315   1.353666   0.000000
     4  C    2.788834   2.453430   1.449206   0.000000
     5  C    4.226489   3.665525   2.385608   1.516507   0.000000
     6  O    5.092073   4.768293   3.587704   2.367256   1.343017
     7  O    4.818148   3.985738   2.662549   2.422563   1.213573
     8  C    3.194253   3.197443   2.524150   1.571223   2.554612
     9  C    3.464761   3.948941   3.617824   2.553260   3.592686
    10  C    4.772300   5.313050   4.919075   3.706861   4.430742
    11  N    5.102964   5.895356   5.757009   4.645082   5.522439
    12  C    4.121869   5.080312   5.210867   4.332240   5.475929
    13  N    2.888333   3.759544   3.884320   3.132078   4.431575
    14  C    2.423979   1.522530   2.432576   3.805551   4.763584
    15  C    2.809531   2.539682   3.760434   4.985731   6.101109
    16  N    2.935481   3.050587   4.328273   5.395251   6.683936
    17  H    3.174092   2.066754   1.012844   2.100364   2.402520
    18  H    2.661754   2.679132   2.084812   1.095648   2.120140
    19  H    5.951331   5.512174   4.257239   3.201349   1.873524
    20  H    2.920619   2.869831   2.471999   2.155095   3.260051
    21  H    4.253913   4.109745   3.215120   2.205086   2.545533
    22  H    5.666765   6.060830   5.477370   4.183120   4.584776
    23  H    4.471306   5.567031   5.900240   5.162170   6.367539
    24  H    1.967103   2.992924   3.414545   3.025130   4.475282
    25  H    3.059336   2.132370   2.751159   4.133855   5.009741
    26  H    3.177024   2.145242   2.630260   4.020984   4.685500
    27  H    3.885619   3.462734   4.547978   5.871121   6.856506
    28  H    2.768695   2.751792   3.977751   5.045271   6.168835
    29  H    2.263404   2.748122   4.037897   4.886487   6.284757
    30  H    3.733965   3.983239   5.294265   6.328974   7.639352
                    6          7          8          9         10
     6  O    0.000000
     7  O    2.254683   0.000000
     8  C    2.912434   3.523172   0.000000
     9  C    3.547043   4.721500   1.488454   0.000000
    10  C    3.973966   5.609207   2.633447   1.375283   0.000000
    11  N    5.079857   6.722355   3.737150   2.267360   1.378755
    12  C    5.315747   6.630625   3.629671   2.210011   2.141050
    13  N    4.542487   5.517675   2.502174   1.381323   2.186724
    14  C    5.999150   4.745242   4.572692   5.427674   6.800236
    15  C    7.259151   6.188592   5.626529   6.201582   7.541119
    16  N    7.757862   6.928127   5.635061   6.053926   7.338451
    17  H    3.735971   2.183735   3.232543   4.475896   5.721162
    18  H    2.611163   3.094112   2.175418   2.515223   3.565160
    19  H    0.972028   2.300735   3.788070   4.487370   4.820452
    20  H    3.871463   3.995745   1.094679   2.138594   3.337359
    21  H    2.630979   3.437742   1.092388   2.110681   2.791913
    22  H    3.902815   5.718701   3.070936   2.207964   1.081428
    23  H    6.256216   7.496334   4.597431   3.242502   3.194679
    24  H    4.853188   5.437740   2.738571   2.112940   3.161728
    25  H    6.274201   4.897905   4.659951   5.668943   7.035583
    26  H    5.968416   4.444788   5.069965   6.014369   7.364795
    27  H    8.077655   6.782747   6.574846   7.244028   8.595729
    28  H    7.241817   6.338486   5.824715   6.223567   7.511711
    29  H    7.244662   6.698950   4.990091   5.225123   6.463231
    30  H    8.689991   7.895206   6.558076   6.854518   8.091632
                   11         12         13         14         15
    11  N    0.000000
    12  C    1.318940   0.000000
    13  N    2.223170   1.363811   0.000000
    14  C    7.372178   6.499364   5.198842   0.000000
    15  C    7.875013   6.821195   5.652084   1.526375   0.000000
    16  N    7.577197   6.495464   5.409918   2.451043   1.463919
    17  H    6.651612   6.181685   4.866982   2.583495   4.065875
    18  H    4.246757   3.813292   2.745274   4.107636   5.062476
    19  H    5.942361   6.253164   5.512556   6.626392   7.951628
    20  H    4.312067   4.030131   2.812187   4.068988   5.072479
    21  H    4.101847   4.312859   3.382154   5.383231   6.551330
    22  H    2.152304   3.170174   3.244017   7.528030   8.392129
    23  H    2.138405   1.080979   2.146358   6.893371   6.988892
    24  H    3.209546   2.161028   1.016566   4.356424   4.682608
    25  H    7.717739   6.933232   5.601638   1.096815   2.152237
    26  H    7.994992   7.174277   5.878194   1.097324   2.173940
    27  H    8.963561   7.916457   6.740397   2.137120   1.095365
    28  H    7.716208   6.597740   5.527629   2.150094   1.102401
    29  H    6.619347   5.512517   4.479214   2.700556   2.015643
    30  H    8.200518   7.048547   6.078187   3.335853   2.042447
                   16         17         18         19         20
    16  N    0.000000
    17  H    4.808383   0.000000
    18  H    5.518400   2.824371   0.000000
    19  H    8.532836   4.204121   3.492364   0.000000
    20  H    4.904802   3.173300   2.865131   4.686619   0.000000
    21  H    6.573725   3.680607   2.930163   3.356193   1.757821
    22  H    8.221842   6.161921   4.188050   4.607292   3.830221
    23  H    6.599169   6.895679   4.533908   7.193203   4.901189
    24  H    4.465138   4.426973   2.622048   5.817673   2.806016
    25  H    2.626116   2.743769   4.668061   6.861017   3.970711
    26  H    3.400865   2.434720   4.301012   6.475321   4.726692
    27  H    2.088615   4.655416   6.006389   8.702027   5.986631
    28  H    2.163081   4.369553   4.887228   7.950906   5.443722
    29  H    1.017465   4.703942   4.916588   8.081137   4.314224
    30  H    1.016818   5.776552   6.362021   9.478830   5.841312
                   21         22         23         24         25
    21  H    0.000000
    22  H    2.823436   0.000000
    23  H    5.352594   4.185801   0.000000
    24  H    3.776012   4.189029   2.597629   0.000000
    25  H    5.342016   7.683581   7.404490   4.839713   0.000000
    26  H    5.793140   8.033962   7.594483   5.078301   1.764558
    27  H    7.443325   9.419393   8.074339   5.776111   2.503837
    28  H    6.812059   8.415872   6.659133   4.531304   3.056254
    29  H    5.982055   7.387276   5.593064   3.537658   2.999738
    30  H    7.522068   9.018350   7.011506   5.117438   3.551249
                   26         27         28         29         30
    26  H    0.000000
    27  H    2.424474   0.000000
    28  H    2.528817   1.767990   0.000000
    29  H    3.720564   2.913793   2.383484   0.000000
    30  H    4.174326   2.351333   2.476812   1.631393   0.000000
 Symmetry turned off by external request.
 Stoichiometry    C9H14N4O3
 Framework group  C1[X(C9H14N4O3)]
 Deg. of freedom    84
 Full point group                 C1      NOp   1
 Rotational constants (GHZ):      0.6059150      0.3644449      0.2380184
 Standard basis: 6-31G(d,p) (6D, 7F)
   310 basis functions,   546 primitive gaussians,   310 cartesian basis functions
    60 alpha electrons       60 beta electrons
       nuclear repulsion energy      1123.0662543555 Hartrees.
 NAtoms=   30 NActive=   30 NUniq=   30 SFac= 1.00D+00 NAtFMM=   60 NAOKFM=F Big=F
 Integral buffers will be    131072 words long.
 Raffenetti 2 integral format.
 Two-electron integral symmetry is turned off.
 Nuclear repulsion after empirical dispersion term =     1123.0122374379 Hartrees.
 One-electron integrals computed using PRISM.
 NBasis=   310 RedAO= T EigKep=  1.25D-03  NBF=   310
 NBsUse=   310 1.00D-06 EigRej= -1.00D+00 NBFU=   310
 Initial guess from the checkpoint file:  "conf-900.chk"
[...]
 5,0.00132094,-0.00048864,-0.00047434,0.00059967,-0.00002934,0.00034213
 ,-0.00045820,-0.00023620,-0.00022747,-0.00021347,0.00010781,0.00048803
 ,-0.00098451,-0.00019143,0.00006642,0.00001101,0.00004752,-0.00023733,
 -0.00008959,0.00027833,-0.00012076,-0.00013892,-0.00023004,0.00053674,
 0.00143441,0.00082166,0.00072558,-0.00051682,0.00001225,0.06694566,0.0
 5993584,-0.00164385,0.00155651,-0.00646376,0.00192573,-0.00273859,0.00
 216183,-0.00072688,0.00116431,-0.00141939,0.00057443,0.00040441,0.0007
 2040,0.00025859,0.00027951,-0.00023414,-0.00012457,-0.00007889,-0.0001
 0423,-0.00025639,-0.00017470,0.00006057,0.00056468,-0.00027329,0.00036
 592,-0.01578618,-0.01122775,-0.00839523,-0.00183785,0.00403360,-0.0032
 3368,0.00322778,0.00513473,0.00458297,0.00893046,-0.00830039,0.0064401
 0,-0.17431561,-0.01143977,-0.15254045,-0.00018734,0.00075600,0.0004185
 8,-0.00027036,0.00015757,0.00020342,0.00012502,-0.00011553,-0.00032637
 ,-0.00012764,-0.00004564,0.00002733,0.00010223,-0.00018771,0.00015202,
 -0.00001611,0.00002595,0.00003823,0.00040783,0.00039624,-0.00050474,0.
 00007696,-0.00050402,0.00002933,-0.00116792,0.00012777,0.00089626,0.00
 023052,-0.00020689,-0.00077609,0.17970544,0.02108063,0.15775786,-0.005
 20219,-0.00341699,-0.00299684,-0.00784332,-0.01286506,0.02918779,0.000
 36957,0.00062185,-0.00245547,0.00039221,-0.00017140,-0.00040059,-0.000
 04873,-0.00019948,0.00004256,0.00009994,0.00002803,0.00001515,0.000109
 10,0.00015280,-0.00006324,-0.00014046,0.00003697,-0.00001705,0.0000721
 2,-0.00009175,0.00013272,-0.00006461,-0.00004053,-0.00001158,-0.000143
 57,-0.00001085,-0.00010066,0.00013502,0.00020477,-0.00008921,-0.000338
 32,-0.00029417,-0.00004589,-0.08546665,-0.03987293,0.08189624,0.007738
 49,0.01011859,-0.01961344,0.00036405,-0.00181829,0.00031593,-0.0014652
 7,0.00065790,0.00011138,0.00016018,-0.00005015,0.00007419,-0.00000707,
 -0.00000470,0.00000458,-0.00001953,0.00000120,0.00005656,-0.00003524,-
 0.00001618,-0.00004270,-0.00001292,-0.00000183,-0.00000787,-0.00000261
 ,-0.00000434,0.00000302,0.00053249,0.00044870,0.00006010,0.09305241,-0
 .00324320,-0.00105820,-0.00124951,-0.00407074,-0.00743130,0.01025673,0
 .00173697,0.00019124,-0.00015322,-0.00010928,-0.00019010,-0.00069185,0
 .00001677,0.00011538,-0.00003855,-0.00000216,-0.00003580,0.00001170,-0
 .00001978,-0.00006630,0.00000012,-0.00012784,0.00000832,0.00003859,0.0
 0002758,-0.00006327,0.00004906,-0.00003221,-0.00002173,-0.00001678,-0.
 00005690,0.00001206,-0.00005067,0.00005834,0.00008549,-0.00003536,-0.0
 0014742,-0.00013972,-0.00003049,-0.04015628,-0.09135121,0.09183891,-0.
 00880164,-0.01056377,0.02188461,-0.00142806,0.00223615,-0.00062435,0.0
 0024348,0.00059957,0.00039664,0.00020784,-0.00002826,0.00005415,0.0000
 0213,0.00000202,0.00000776,-0.00000472,-0.00001194,-0.00000574,-0.0000
 0432,-0.00000431,-0.00001179,-0.00000752,-0.00000024,-0.00000268,0.000
 00086,0.00000157,0.00000112,0.00023472,0.00020828,0.00006796,0.0434292
 4,0.09857795,-0.00106242,-0.00219461,-0.00033252,-0.00390798,-0.001820
 24,0.00582250,-0.00094447,-0.00004946,0.00004716,0.00037004,-0.0001729
 4,0.00053877,0.00021124,0.00013877,-0.00002724,-0.00010621,-0.00003114
 ,0.00000168,-0.00011748,-0.00008961,-0.00000257,-0.00003045,0.00003541
 ,0.00001849,0.00000533,0.00000710,-0.00002264,0.00001317,0.00000210,0.
 00000247,-0.00000189,-0.00001915,0.00002247,-0.00002208,-0.00001223,-0
 .00001143,-0.00003374,-0.00003851,-0.00001356,0.08131669,0.09306301,-0
 .22697375,0.00303084,0.00456639,-0.01037124,0.00028006,-0.00118638,0.0
 0185798,0.00046765,-0.00037415,0.00004535,-0.00018063,-0.00005540,-0.0
 0002809,0.00002325,-0.00000218,0.00000040,0.00000640,0.00000134,-0.000
 01058,0.00000112,-0.00000971,-0.00001171,0.00000201,0.00000100,0.00000
 235,-0.00000417,-0.00000583,0.00000205,0.00002114,0.00005164,-0.000034
 61,-0.08513408,-0.10278247,0.24676544,-0.00381158,-0.00022928,0.002889
 66,0.00358884,-0.02348417,-0.02500789,-0.00135624,0.00137705,0.0010365
 3,-0.00021419,0.00051400,0.00088035,-0.00004683,-0.00038163,0.00014352
 ,-0.00013752,0.00014018,-0.00006818,-0.00003162,0.00019675,-0.00000470
 ,0.00010443,0.00016285,0.00010446,0.00002341,-0.00002518,0.00002991,0.
 00001982,-0.00001354,0.00001319,-0.00007617,-0.00005333,0.00000064,0.0
 0003522,0.00004130,-0.00002979,-0.00012616,-0.00006982,-0.00013891,-0.
 04637020,0.00552919,0.00335331,0.00036376,0.01133944,0.01672943,-0.003
 49988,0.00399438,-0.00118336,-0.00025225,-0.00009877,-0.00058902,-0.00
 020580,0.00004623,-0.00014532,-0.00001030,-0.00000470,-0.00002717,0.00
 002890,0.00002593,0.00005427,-0.00002918,-0.00001324,-0.00001632,-0.00
 000280,0.00000126,-0.00000208,-0.00000376,-0.00000582,0.00000470,0.000
 17206,0.00029976,0.00022266,-0.00059367,0.00920321,0.00817672,0.051398
 53,-0.00264226,0.00036337,0.00112085,0.00002777,-0.00973631,-0.0077582
 9,0.00092715,0.00033557,0.00102518,-0.00055875,0.00015794,0.00014834,-
 0.00003769,-0.00001142,-0.00003103,-0.00000327,0.00000723,0.00001337,0
 .00000759,-0.00000147,0.00001066,0.00014898,-0.00000839,0.00003483,0.0
 0003191,-0.00003229,0.00008035,-0.00002343,-0.00000462,-0.00000738,-0.
 00003848,0.00000866,-0.00003035,0.00004843,0.00005318,-0.00002134,-0.0
 0010181,-0.00004832,-0.00004647,0.00852407,-0.17207608,-0.12903349,-0.
 00109602,-0.01430159,-0.01904595,0.00486488,-0.00293659,0.00203517,0.0
 0017335,0.00004872,-0.00020466,0.00003127,-0.00000592,-0.00005722,-0.0
 0000220,-0.00000071,-0.00000835,0.00001250,-0.00001970,-0.00000130,0.0
 0001012,0.00002996,0.00002456,-0.00000324,-0.00000217,-0.00000278,0.00
 000301,-0.00000274,-0.00000340,0.00015143,0.00012915,0.00009164,0.0001
 2526,0.01106418,0.00995399,-0.00949496,0.18693037,0.00008747,0.0006395
 3,-0.00049970,0.00085457,-0.00314706,-0.00388259,-0.00124385,0.0004362
 1,0.00103698,-0.00028552,0.00026595,0.00022936,-0.00014187,-0.00034502
 ,0.00005556,0.00002847,0.00009636,-0.00002076,0.00008355,0.00021072,0.
 00002678,0.00009883,0.00006835,0.00000164,0.00000416,0.00001028,0.0000
 2966,0.00000200,0.00000052,0.00000599,-0.00002293,-0.00001421,-0.00000
 355,0.00001357,0.00001428,-0.00000480,-0.00004687,-0.00001734,-0.00001
 112,0.00756549,-0.12888077,-0.17752985,0.00020480,0.00806855,0.0075314
 2,-0.00079716,0.00073155,-0.00010467,-0.00023820,-0.00029137,-0.000904
 96,-0.00008686,0.00001607,-0.00005522,-0.00001814,-0.00000480,-0.00001
 653,0.00000830,0.00001452,0.00002264,-0.00000501,-0.00000569,-0.000007
 72,-0.00000038,-0.00000025,-0.00000264,0.00000117,-0.00000121,-0.00000
 016,0.00005610,0.00003881,-0.00000518,0.00014177,-0.01927001,-0.017879
 18,-0.00681679,0.14175433,0.19063984,-0.00011471,0.00044961,-0.0004739
 0,0.00001596,0.00301591,-0.00051205,-0.00162407,-0.00026739,-0.0004888
 7,0.00029476,0.00030965,-0.00017430,0.00013072,-0.00032206,0.00005544,
 -0.00019357,0.00011950,-0.00004846,-0.00010228,0.00016533,-0.00005605,
 -0.00005053,0.00005380,0.00001538,0.00003444,-0.00003401,0.00001781,0.
 00001367,-0.00000913,0.00000830,-0.00008162,-0.00005433,-0.00000887,0.
 00005069,0.00005945,-0.00001642,-0.00011622,-0.00005776,-0.00006455,-0
 .01787597,-0.00719223,-0.00213905,-0.26645289,-0.09080022,-0.03866267,
 0.00555231,0.00152734,0.00014680,-0.00003858,-0.00016945,0.00012835,-0
 .00001337,-0.00001725,0.00000618,0.00001231,-0.00000875,0.00000377,-0.
 00000736,0.00000407,0.00003834,-0.00002454,-0.00001996,-0.00002786,-0.
 00000282,0.00000345,-0.00000354,0.00000136,-0.00000160,0.00000331,0.00
 017828,0.00015031,0.00005789,0.00089093,-0.00018755,-0.00031732,0.0002
 6280,-0.00000501,0.00051990,0.28621944,-0.00056456,0.00130332,-0.00053
 054,0.00171798,-0.00604521,0.00223707,0.00188061,0.00093178,0.00034537
 ,-0.00003114,-0.00037855,0.00028554,0.00001785,0.00020297,-0.00001629,
 0.00011490,-0.00008634,0.00003620,0.00004081,-0.00006656,0.00002270,0.
 00006231,-0.00005745,-0.00002661,0.00000229,-0.00001248,0.00004650,-0.
 00002016,0.00000154,-0.00000547,-0.00000107,0.00002728,-0.00002650,0.0
 0003458,0.00001958,0.00000930,-0.00000799,0.00003938,0.00002250,0.0251
 9946,0.00922446,0.00436288,-0.08814908,-0.08510623,-0.01451737,-0.0229
 5878,-0.01311143,-0.00881195,0.00002889,0.00010661,-0.00010065,0.00000
 696,0.00000106,-0.00000690,0.00000971,-0.00000406,-0.00000141,0.000001
 22,-0.00000765,0.00000175,0.00000644,0.00002406,0.00001907,-0.00000138
 ,-0.00000170,-0.00000314,0.00000769,0.00000484,-0.00000571,0.00000265,
 -0.00010564,-0.00001976,-0.00061479,0.00095338,-0.00020933,-0.00058968
 ,0.00107096,-0.00041229,0.09634454,0.09837096,0.00071418,-0.00067875,0
 .00096928,0.00011673,0.00308532,-0.00019448,-0.00068076,-0.00034104,-0
 .00016777,-0.00000671,0.00007196,-0.00016830,-0.00001781,-0.00008878,0
 .00001864,-0.00001772,0.00003066,-0.00000623,0.00000726,0.00003710,-0.
 00001367,-0.00001125,0.00000315,-0.00002514,0.00000423,0.00000242,-0.0
 0000428,0.00000602,0.00000059,0.00000544,-0.00000435,-0.00000505,0.000
 00727,0.00000037,0.00000239,0.00000042,-0.00001447,0.00002293,0.000016
 54,-0.01099329,-0.00255358,-0.00249910,-0.03228211,-0.01420245,-0.0578
 5042,-0.02551055,-0.01336758,-0.00782929,-0.00004536,-0.00006413,0.000
 06140,0.00000003,-0.00000192,0.00000908,-0.00000350,-0.00000069,-0.000
 00042,-0.00000767,-0.00000992,0.00001439,-0.00001097,-0.00000509,-0.00
 000408,0.00000093,-0.00000020,-0.00000082,0.00000129,-0.00000387,-0.00
 000312,-0.00000288,-0.00004627,-0.00006111,-0.00008678,-0.00065502,0.0
 0012999,0.00062807,-0.00003498,0.00034943,0.04248739,0.02254962,0.0636
 8951,-0.00082459,-0.00074374,0.00030296,0.00110367,0.00103252,-0.00126
 276,0.00009003,-0.00066802,0.00048293,-0.00018932,-0.00008638,0.000102
 39,-0.00001596,0.00011474,-0.00001835,0.00002751,-0.00003638,0.0000059
 4,0.00000800,-0.00008390,0.00002033,-0.00000169,0.00000182,0.00000252,
 -0.00002859,0.00003262,-0.00004582,0.00001051,0.00000865,-0.00000215,0
 .00005549,0.00001817,0.00002289,-0.00005096,-0.00006375,0.00002179,0.0
 0009917,0.00004880,0.00002094,0.00677953,0.01038582,-0.01786301,-0.083
 30315,-0.03636132,0.07195425,0.00283998,0.00214900,0.00388144,0.000362
 30,-0.00004943,0.00001023,-0.00004623,0.00001755,-0.00002495,-0.000002
 96,0.00000455,0.00000149,0.00000650,0.00000515,-0.00002589,0.00001092,
 -0.00000244,0.00000627,0.00000280,0.00000032,0.00000340,-0.00000134,0.
 00000135,0.00000036,-0.00014634,-0.00009747,-0.00000951,-0.00243797,0.
 00319754,-0.00199454,0.00078716,-0.00069116,0.00042596,-0.00963768,-0.
 01293934,0.02506379,0.08432651,0.00014524,0.00148406,-0.00093591,-0.00
 206405,-0.00152052,0.00014593,0.00045646,0.00014574,0.00002245,-0.0001
 3318,-0.00003420,-0.00010216,-0.00014393,-0.00000769,-0.00000330,0.000
 12397,-0.00001615,0.00001845,0.00010613,0.00001718,0.00000027,0.000041
 52,-0.00003355,-0.00002188,-0.00000629,0.00000713,0.00001470,-0.000010
 66,0.00000198,-0.00000082,0.00002205,0.00002593,-0.00000827,0.00000083
 ,-0.00000506,0.00000558,0.00003385,0.00003004,0.00002669,-0.00760755,-
 0.01186755,0.02243484,-0.03490119,-0.09124436,0.08304620,0.00967219,0.
 00610941,-0.03009301,-0.00027762,0.00021803,-0.00001620,0.00006522,0.0
 0002693,0.00000970,-0.00001440,0.00000153,0.00000051,0.00000571,-0.000
 01787,-0.00000311,0.00000426,0.00001086,0.00001164,0.00000013,-0.00000
 209,-0.00000052,0.00000071,0.00000260,-0.00000254,-0.00005441,-0.00006
 068,-0.00002919,0.00397122,-0.00346769,0.00148428,-0.00056438,0.000294
 76,-0.00029881,-0.00362815,-0.00429755,0.00984114,0.03397859,0.1012272
 7,0.00034877,-0.00156772,0.00206185,0.00182260,0.00237613,-0.00117126,
 -0.00005041,-0.00065297,0.00041011,-0.00010062,-0.00002946,-0.00006013
 ,0.00000343,0.00005808,-0.00001591,-0.00001284,-0.00000977,0.00001569,
 -0.00000686,-0.00005451,0.00003605,0.00005443,-0.00000664,-0.00004330,
 -0.00001572,0.00004048,-0.00002601,0.00001639,0.00001286,0.00001332,0.
 00003234,-0.00000826,0.00004729,-0.00004981,-0.00003462,-0.00000536,0.
 00003097,0.00005532,0.00005600,0.00266210,0.00669799,-0.00833516,0.068
 58153,0.08406310,-0.21855900,0.00887988,-0.00466161,-0.02946603,0.0001
 7096,-0.00015014,-0.00001725,-0.00002823,0.00000354,0.00000127,0.00000
 340,-0.00000072,-0.00001158,-0.00000906,-0.00000997,0.00000107,0.00000
 255,0.00000021,0.00001200,0.00000806,-0.00000307,0.00000193,-0.0000034
 7,-0.00001340,-0.00000506,-0.00008828,-0.00009468,-0.00013590,-0.00093
 269,0.00116144,0.00050384,-0.00045057,0.00057043,0.00030537,-0.0011614
 3,-0.00141905,0.00590175,-0.08022356,-0.08613501,0.24663667,-0.0022819
 3,-0.00239896,0.00048038,0.00077830,0.00517051,-0.00135720,0.00033882,
 -0.00142568,0.00095496,-0.00048648,-0.00007782,-0.00010786,-0.00025700
 ,0.00025508,-0.00006631,0.00019758,-0.00009148,0.00004134,0.00013885,-
 0.00017700,0.00006246,0.00002117,-0.00004341,0.00001068,-0.00009775,0.
 00010197,-0.00012229,0.00001831,0.00003319,-0.00000448,0.00016517,0.00
 008622,0.00006868,-0.00015380,-0.00019526,0.00004847,0.00027679,0.0000
 5526,0.00005551,0.00047008,-0.00026693,-0.00033582,0.00353005,0.000283
 78,0.00242111,-0.32674075,-0.15265115,-0.02247989,0.00012480,0.0001273
 7,0.00011679,0.00002017,0.00004923,-0.00002168,-0.00002815,0.00001169,
 -0.00000529,0.00001568,0.00001272,-0.00011043,0.00005259,-0.00000190,0
 .00002446,0.00001065,-0.00000295,0.00000653,0.00000463,0.00000445,-0.0
 0000807,-0.00054166,-0.00014898,0.00002665,-0.00010205,-0.00003671,-0.
 00003612,-0.00026662,-0.00008815,-0.00000560,0.00182623,0.00103663,0.0
 0078134,0.00052578,0.00122372,0.00098277,0.34699997,-0.00118056,0.0029
 5056,0.00071703,0.00070890,-0.00574980,0.00125336,-0.00037035,0.001139
 10,-0.00080804,0.00056167,0.00007220,0.00005817,0.00033592,-0.00025445
 ,0.00005491,-0.00025211,0.00009756,-0.00004783,-0.00018671,0.00017474,
 -0.00005326,0.00006003,0.00007345,-0.00004373,0.00006240,-0.00000647,0
 .00002236,0.00003106,-0.00000496,0.00002903,-0.00010558,-0.00013804,0.
 00001584,0.00001277,0.00007977,-0.00006489,-0.00014736,-0.00019710,-0.
 00012116,-0.00106958,-0.00021392,-0.00020884,-0.02560299,-0.01446019,0
 .00244947,-0.17049569,-0.15637977,-0.02724409,-0.00011298,-0.00015152,
 -0.00007375,-0.00000466,-0.00004357,0.00003248,0.00003512,-0.00001295,
 0.00000436,-0.00002976,0.00001692,0.00012363,-0.00005954,-0.00001025,-
 0.00002128,-0.00000214,0.00000414,0.00000259,-0.00002611,-0.00001340,0
 .00002550,0.00031483,0.00051657,0.00009856,-0.00004982,-0.00008217,-0.
 00007020,0.00053772,0.00019332,0.00002479,0.00116850,-0.00331515,-0.00
 410814,0.00091735,0.00166163,-0.00012855,0.16803889,0.16090849,-0.0006
 3360,0.00176242,-0.00158697,-0.00069070,-0.00213441,0.00229866,-0.0002
 5248,0.00095725,-0.00104034,0.00029722,0.00008801,0.00017359,0.0000698
 0,0.00003945,-0.00002749,-0.00004129,-0.00000971,-0.00003031,-0.000074
 08,-0.00000756,-0.00002200,-0.00024823,0.00004301,0.00017705,-0.000018
 73,-0.00005948,-0.00001862,-0.00002815,-0.00002738,-0.00004154,-0.0000
 2619,0.00003458,-0.00005751,0.00003619,0.00000882,0.00001014,0.0000238
 5,-0.00012258,-0.00010936,0.00059306,0.00085390,0.00106990,-0.02790437
 ,-0.02129798,-0.00963745,0.02316785,0.00165677,-0.01955559,-0.00006577
 ,0.00003421,-0.00001700,0.00001901,-0.00004990,0.00000201,-0.00000494,
 0.00000790,0.00001500,0.00003050,0.00007969,-0.00008665,0.00003693,-0.
 00002967,-0.00004081,-0.00001142,0.00000441,-0.00000015,0.00000807,0.0
 0001974,0.00000529,0.00017223,0.00017917,0.00033278,0.00014816,0.00014
 489,-0.00012868,-0.00012888,0.00014356,-0.00013984,0.00100716,-0.00439
 868,-0.00365592,-0.00149731,0.00081916,0.00159509,0.01622573,0.0242531
 8,0.03422214,-0.00056977,0.00108771,0.00050147,-0.00035818,-0.00131684
 ,0.00044705,0.00009244,0.00022908,-0.00018633,0.00006953,-0.00001263,0
 .00000510,0.00002073,0.00000754,-0.00000749,-0.00000713,-0.00000154,0.
 00000290,-0.00001009,0.00000114,0.00000834,0.00002497,0.00000805,-0.00
 001403,0.00001162,0.00001046,-0.00000160,0.00000355,0.00000002,0.00000
 628,0.00000094,-0.00002594,0.00001432,-0.00001834,0.00000877,-0.000022
 20,-0.00000173,-0.00002794,0.00000322,0.00123549,-0.00090484,0.0005620
 5,-0.00055703,0.00032817,-0.00148425,-0.24170635,0.16259401,-0.0641331
 1,-0.00003510,0.00001939,-0.00004845,0.00000961,-0.00000723,0.00001046
 ,0.00000144,0.00000020,-0.00000293,-0.00000968,-0.00000321,0.00001919,
 -0.00000794,0.00000052,0.00000294,0.00000145,-0.00000124,0.00000322,-0
 .00001262,-0.00000632,0.00000773,0.00004207,0.00008573,-0.00002672,0.0
 0000767,0.00007765,-0.00003209,0.00024984,-0.00030129,-0.00038692,0.00
 085229,-0.00063755,-0.00011545,-0.00034906,-0.00044603,-0.00046663,-0.
 02455943,0.02691078,-0.01020964,0.26557882,-0.00017483,0.00128136,0.00
 025639,-0.00172205,-0.00102774,-0.00000610,0.00031330,0.00018343,0.000
 07984,-0.00010662,-0.00003193,-0.00000398,-0.00008439,0.00003848,-0.00
 002355,0.00007868,-0.00002157,0.00001883,0.00005752,-0.00001366,0.0000
 2645,0.00003654,-0.00001936,-0.00001426,-0.00000071,0.00000650,0.00000
 988,-0.00001013,0.00000214,-0.00000260,0.00001914,0.00001093,-0.000001
 69,-0.00000681,-0.00000247,-0.00000168,0.00002738,0.00002045,0.0000261
 1,-0.00014198,-0.00419631,-0.00613842,0.01824604,-0.01719270,0.0135741
 1,0.18944202,-0.21022379,0.03506733,-0.00006968,0.00007232,-0.00011847
 ,0.00002601,0.00000013,0.00000656,-0.00000961,0.00000264,-0.00000579,-
 0.00000255,-0.00001027,-0.00000182,0.00000496,0.00000965,0.00001188,0.
 00000077,-0.00000222,0.00000117,-0.00000340,-0.00000031,0.00000142,-0.
 00001679,-0.00004548,-0.00003328,-0.00027326,0.00046043,-0.00018148,0.
 00161922,-0.00149904,0.00029799,-0.00059661,0.00031384,0.00052018,-0.0
 0009121,0.00130990,-0.00005941,-0.01888435,0.01314524,-0.00299275,-0.1
 8767661,0.21742941,-0.00003350,0.00046118,-0.00002919,0.00032787,-0.00
 093883,-0.00014100,-0.00015444,0.00020221,-0.00005873,0.00014733,0.000
 05043,0.00004528,0.00011549,-0.00011972,0.00004201,-0.00009876,0.00004
 351,-0.00002803,-0.00006600,0.00007416,-0.00003681,0.00003108,0.000020
 06,-0.00001573,0.00002889,-0.00002780,0.00003836,0.00000293,-0.0000068
 6,0.00000078,-0.00006242,-0.00004138,-0.00003112,0.00005558,0.00004932
 ,0.00000182,-0.00008989,-0.00003610,-0.00005653,0.00002301,-0.00178987
 ,-0.00327523,0.02472505,-0.02264079,0.00004132,-0.10341587,0.06185099,
 -0.04758852,-0.00000536,-0.00007990,-0.00002480,-0.00001662,-0.0000092
 8,-0.00000127,0.00001372,-0.00000517,0.00000842,0.00001142,0.00000950,
 0.00005876,-0.00002792,0.00000311,-0.00000807,-0.00000641,0.00000516,-
 0.00000254,0.00000252,0.00000540,0.00000570,0.00014872,0.00007812,0.00
 004726,-0.00019205,-0.00029518,0.00008688,0.00034158,-0.00072025,0.000
 83380,-0.00034068,0.00057314,0.00131101,0.00063798,-0.00023078,0.00025
 267,0.00235318,0.00382850,-0.00370543,0.07554356,-0.04031288,0.0522289
 4\\0.00000179,0.00000123,0.00000173,0.00000239,-0.00000348,-0.00000177
 ,-0.00000216,0.00000246,0.00000040,-0.00000154,0.00000086,0.00000007,-
 0.00000168,-0.00000249,0.00000023,0.00000024,-0.00000061,0.00000024,0.
 00000233,0.00000218,-0.00000032,-0.00000038,-0.00000183,0.00000053,0.0
 0000151,0.00000229,0.00000026,-0.00000263,-0.00000162,-0.00000078,-0.0
 0000229,-0.00000010,-0.00000182,0.00000084,0.00000104,-0.00000018,-0.0
 0000130,-0.00000186,0.00000011,0.00000203,-0.00000224,0.00000169,-0.00
 000017,-0.00000039,0.00000070,-0.00000056,0.00000018,-0.00000019,0.000
 00134,0.00000131,-0.00000089,-0.00000031,-0.00000036,-0.00000045,-0.00
 000029,0.00000120,-0.00000043,0.00000118,0.00000026,-0.00000035,0.0000
 0002,0.00000025,-0.00000010,-0.00000010,0.00000022,-0.00000022,-0.0000
 0036,-0.00000046,0.00000041,0.00000092,0.00000082,0.00000030,-0.000000
 67,0.00000113,0.00000028,-0.00000069,0.00000144,-0.00000034,0.00000008
 ,-0.00000030,0.00000005,0.00000019,-0.00000027,-0.00000012,-0.00000011
 ,-0.00000035,0.00000070,0.00000034,-0.00000049,0.00000024\\\@


 THE PROGRESS OF RIVERS TO THE SEA IS NOT AS RAPID
 AS THAT OF MAN TO ERROR.
                                              -- VOLTAIRE
 Job cpu time:       0 days  1 hours 17 minutes 41.1 seconds.
 File lengths (MBytes):  RWF=    320 Int=      0 D2E=      0 Chk=      9 Scr=      1
 Normal termination of Gaussian 09 at Sat Jul 24 01:33:36 2021.
