 Entering Gaussian System, Link 0=g09
 Input=opt_freq-conf-422.com
 Output=opt_freq-conf-422.log
 Initial command:
 /aerosol/software/g09/l1.exe "/scratch/nicole/10366/Gau-72867.inp" -scrdir="/scratch/nicole/10366/"
 Entering Link 1 = /aerosol/software/g09/l1.exe PID=     72873.
  
 Copyright (c) 1988,1990,1992,1993,1995,1998,2003,2009,2013,
            Gaussian, Inc.  All Rights Reserved.
  
 This is part of the Gaussian(R) 09 program.  It is based on
 the Gaussian(R) 03 system (copyright 2003, Gaussian, Inc.),
 the Gaussian(R) 98 system (copyright 1998, Gaussian, Inc.),
 the Gaussian(R) 94 system (copyright 1995, Gaussian, Inc.),
 the Gaussian 92(TM) system (copyright 1992, Gaussian, Inc.),
 the Gaussian 90(TM) system (copyright 1990, Gaussian, Inc.),
 the Gaussian 88(TM) system (copyright 1988, Gaussian, Inc.),
 the Gaussian 86(TM) system (copyright 1986, Carnegie Mellon
 University), and the Gaussian 82(TM) system (copyright 1983,
 Carnegie Mellon University). Gaussian is a federally registered
 trademark of Gaussian, Inc.
  
 This software contains proprietary and confidential information,
 including trade secrets, belonging to Gaussian, Inc.
  
 This software is provided under written license and may be
 used, copied, transmitted, or stored only in accord with that
 written license.
  
 The following legend is applicable only to US Government
 contracts under FAR:
  
                    RESTRICTED RIGHTS LEGEND
  
 Use, reproduction and disclosure by the US Government is
 subject to restrictions as set forth in subparagraphs (a)
 and (c) of the Commercial Computer Software - Restricted
 Rights clause in FAR 52.227-19.
  
 Gaussian, Inc.
 340 Quinnipiac St., Bldg. 40, Wallingford CT 06492
  
  
 ---------------------------------------------------------------
 Warning -- This program may not be used in any manner that
 competes with the business of Gaussian, Inc. or will provide
 assistance to any competitor of Gaussian, Inc.  The licensee
 of this program is prohibited from giving any competitor of
 Gaussian, Inc. access to this program.  By using this program,
 the user acknowledges that Gaussian, Inc. is engaged in the
 business of creating and licensing software in the field of
 computational chemistry and represents and warrants to the
 licensee that it is not a competitor of Gaussian, Inc. and that
 it will not use this program in any manner prohibited above.
 ---------------------------------------------------------------
  

 Cite this work as:
 Gaussian 09, Revision D.01,
 M. J. Frisch, G. W. Trucks, H. B. Schlegel, G. E. Scuseria, 
 M. A. Robb, J. R. Cheeseman, G. Scalmani, V. Barone, B. Mennucci, 
 G. A. Petersson, H. Nakatsuji, M. Caricato, X. Li, H. P. Hratchian, 
 A. F. Izmaylov, J. Bloino, G. Zheng, J. L. Sonnenberg, M. Hada, 
 M. Ehara, K. Toyota, R. Fukuda, J. Hasegawa, M. Ishida, T. Nakajima, 
 Y. Honda, O. Kitao, H. Nakai, T. Vreven, J. A. Montgomery, Jr., 
 J. E. Peralta, F. Ogliaro, M. Bearpark, J. J. Heyd, E. Brothers, 
 K. N. Kudin, V. N. Staroverov, T. Keith, R. Kobayashi, J. Normand, 
 K. Raghavachari, A. Rendell, J. C. Burant, S. S. Iyengar, J. Tomasi, 
 M. Cossi, N. Rega, J. M. Millam, M. Klene, J. E. Knox, J. B. Cross, 
 V. Bakken, C. Adamo, J. Jaramillo, R. Gomperts, R. E. Stratmann, 
 O. Yazyev, A. J. Austin, R. Cammi, C. Pomelli, J. W. Ochterski, 
 R. L. Martin, K. Morokuma, V. G. Zakrzewski, G. A. Voth, 
 P. Salvador, J. J. Dannenberg, S. Dapprich, A. D. Daniels, 
 O. Farkas, J. B. Foresman, J. V. Ortiz, J. Cioslowski, 
 and D. J. Fox, Gaussian, Inc., Wallingford CT, 2013.
 
 ******************************************
 Gaussian 09:  ES64L-G09RevD.01 24-Apr-2013
                24-Jul-2021 
 ******************************************
 %mem=2gb
 %nproc=4
 Will use up to    4 processors via shared memory.
 %chk=conf-422.chk
 ----------------------------------------------------------------------
 # B3LYP/6-31G(d,p) EmpiricalDispersion=GD3BJ opt=calcfc freq=noraman n
 osymm integral(ultrafinegrid)
 ----------------------------------------------------------------------
 1/10=4,14=-1,18=20,19=15,26=4,38=1/1,3;
 2/9=110,12=2,15=1,17=6,18=5,40=1/2;
 3/5=1,6=6,7=101,11=2,16=1,25=1,30=1,71=2,74=-5,75=-5,124=41,140=1/1,2,3;
 4//1;
 5/5=2,38=5/2;
 8/6=4,10=90,11=11/1;
 11/6=1,8=1,9=11,15=111,16=1,31=1/1,2,10;
 10/6=1,13=1,31=1/2;
 6/7=2,8=2,9=2,10=2,28=1/1;
 7/10=1,18=20,25=1,30=1/1,2,3,16;
 1/10=4,14=-1,18=20,19=15,26=4/3(2);
 2/9=110,15=1/2;
 99//99;
 2/9=110,15=1/2;
 3/5=1,6=6,7=101,11=2,16=1,25=1,30=1,71=1,74=-5,75=-5,124=41/1,2,3;
 4/5=5,16=3,69=1/1;
 5/5=2,38=5/2;
 7/30=1/1,2,3,16;
 1/14=-1,18=20,19=15,26=4/3(-5);
 2/9=110,15=1/2;
 6/7=2,8=2,9=2,10=2,19=2,28=1/1;
 99/9=1/99;
 ------------------------------------------------------------
 Candidate Structure: Conf:422 OPT and FREQ calc in gas phase
 ------------------------------------------------------------
 Symbolic Z-matrix:
 Charge =  0 Multiplicity = 1
 O                     0.78587   0.73522   1.52987 
 C                     1.13924   0.16266   0.50415 
 N                     0.30312  -0.6476   -0.20788 
 C                    -0.93596  -1.13451   0.35649 
 C                    -0.81707  -2.6235    0.61379 
 O                    -1.7968   -3.06349   1.42956 
 O                     0.01444  -3.34827   0.13314 
 C                    -2.14447  -0.88748  -0.55894 
 C                    -2.4521    0.57028  -0.73406 
 C                    -1.92298   1.70746  -0.19576 
 N                    -2.57575   2.83084  -0.66942 
 C                    -3.49191   2.37231  -1.48728 
 N                    -3.46244   1.01624  -1.56355 
 C                     2.50615   0.36515  -0.11942 
 C                     3.56376   0.75402   0.90212 
 N                     4.8435    0.9524    0.2166 
 H                     0.71291  -1.23242  -0.92015 
 H                    -1.09373  -0.61786   1.30258 
 H                    -1.66124  -4.01486   1.51849 
 H                    -3.01463  -1.38629  -0.12674 
 H                    -1.97303  -1.34889  -1.5332 
 H                    -1.09974   1.7603    0.50126 
 H                    -4.19675   2.96499  -2.04443 
 H                    -4.06566   0.4341   -2.11923 
 H                     2.80637  -0.54103  -0.65153 
 H                     2.42751   1.16022  -0.8652 
 H                     3.59987  -0.00614   1.69242 
 H                     3.26508   1.69306   1.37245 
 H                     5.20434   0.0605   -0.10256 
 H                     5.53209   1.31249   0.86643 
 

 GradGradGradGradGradGradGradGradGradGradGradGradGradGradGradGradGradGrad
 Berny optimization.
 Initialization pass.
                           ----------------------------
                           !    Initial Parameters    !
                           ! (Angstroms and Degrees)  !
 --------------------------                            --------------------------
 ! Name  Definition              Value          Derivative Info.                !
 --------------------------------------------------------------------------------
 ! R1    R(1,2)                  1.2267         calculate D2E/DX2 analytically  !
 ! R2    R(2,3)                  1.3648         calculate D2E/DX2 analytically  !
 ! R3    R(2,14)                 1.516          calculate D2E/DX2 analytically  !
 ! R4    R(3,4)                  1.446          calculate D2E/DX2 analytically  !
 ! R5    R(3,17)                 1.0086         calculate D2E/DX2 analytically  !
 ! R6    R(4,5)                  1.5157         calculate D2E/DX2 analytically  !
 ! R7    R(4,8)                  1.5361         calculate D2E/DX2 analytically  !
 ! R8    R(4,18)                 1.0894         calculate D2E/DX2 analytically  !
 ! R9    R(5,6)                  1.3487         calculate D2E/DX2 analytically  !
 ! R10   R(5,7)                  1.2032         calculate D2E/DX2 analytically  !
 ! R11   R(6,19)                 0.9651         calculate D2E/DX2 analytically  !
 ! R12   R(8,9)                  1.5001         calculate D2E/DX2 analytically  !
 ! R13   R(8,20)                 1.0921         calculate D2E/DX2 analytically  !
 ! R14   R(8,21)                 1.0915         calculate D2E/DX2 analytically  !
 ! R15   R(9,10)                 1.3649         calculate D2E/DX2 analytically  !
 ! R16   R(9,13)                 1.3812         calculate D2E/DX2 analytically  !
 ! R17   R(10,11)                1.3829         calculate D2E/DX2 analytically  !
 ! R18   R(10,22)                1.08           calculate D2E/DX2 analytically  !
 ! R19   R(11,12)                1.3109         calculate D2E/DX2 analytically  !
 ! R20   R(12,13)                1.3585         calculate D2E/DX2 analytically  !
 ! R21   R(12,23)                1.0763         calculate D2E/DX2 analytically  !
 ! R22   R(13,24)                1.0058         calculate D2E/DX2 analytically  !
 ! R23   R(14,15)                1.521          calculate D2E/DX2 analytically  !
 ! R24   R(14,25)                1.0929         calculate D2E/DX2 analytically  !
 ! R25   R(14,26)                1.0929         calculate D2E/DX2 analytically  !
 ! R26   R(15,16)                1.4653         calculate D2E/DX2 analytically  !
 ! R27   R(15,27)                1.0971         calculate D2E/DX2 analytically  !
 ! R28   R(15,28)                1.0919         calculate D2E/DX2 analytically  !
 ! R29   R(16,29)                1.0137         calculate D2E/DX2 analytically  !
 ! R30   R(16,30)                1.013          calculate D2E/DX2 analytically  !
 ! A1    A(1,2,3)              122.4707         calculate D2E/DX2 analytically  !
 ! A2    A(1,2,14)             122.7738         calculate D2E/DX2 analytically  !
 ! A3    A(3,2,14)             114.6511         calculate D2E/DX2 analytically  !
 ! A4    A(2,3,4)              121.4169         calculate D2E/DX2 analytically  !
 ! A5    A(2,3,17)             117.6301         calculate D2E/DX2 analytically  !
 ! A6    A(4,3,17)             115.3752         calculate D2E/DX2 analytically  !
 ! A7    A(3,4,5)              109.2586         calculate D2E/DX2 analytically  !
 ! A8    A(3,4,8)              112.7937         calculate D2E/DX2 analytically  !
 ! A9    A(3,4,18)             107.659          calculate D2E/DX2 analytically  !
 ! A10   A(5,4,8)              108.7149         calculate D2E/DX2 analytically  !
 ! A11   A(5,4,18)             109.2572         calculate D2E/DX2 analytically  !
 ! A12   A(8,4,18)             109.1064         calculate D2E/DX2 analytically  !
 ! A13   A(4,5,6)              111.4804         calculate D2E/DX2 analytically  !
 ! A14   A(4,5,7)              125.3192         calculate D2E/DX2 analytically  !
 ! A15   A(6,5,7)              123.1704         calculate D2E/DX2 analytically  !
 ! A16   A(5,6,19)             105.9801         calculate D2E/DX2 analytically  !
 ! A17   A(4,8,9)              112.7792         calculate D2E/DX2 analytically  !
 ! A18   A(4,8,20)             108.5143         calculate D2E/DX2 analytically  !
 ! A19   A(4,8,21)             109.8992         calculate D2E/DX2 analytically  !
 ! A20   A(9,8,20)             109.065          calculate D2E/DX2 analytically  !
 ! A21   A(9,8,21)             109.8033         calculate D2E/DX2 analytically  !
 ! A22   A(20,8,21)            106.5766         calculate D2E/DX2 analytically  !
 ! A23   A(8,9,10)             133.1654         calculate D2E/DX2 analytically  !
 ! A24   A(8,9,13)             122.2672         calculate D2E/DX2 analytically  !
 ! A25   A(10,9,13)            104.5614         calculate D2E/DX2 analytically  !
 ! A26   A(9,10,11)            111.0225         calculate D2E/DX2 analytically  !
 ! A27   A(9,10,22)            126.2145         calculate D2E/DX2 analytically  !
 ! A28   A(11,10,22)           122.7606         calculate D2E/DX2 analytically  !
 ! A29   A(10,11,12)           105.0368         calculate D2E/DX2 analytically  !
 ! A30   A(11,12,13)           111.6547         calculate D2E/DX2 analytically  !
 ! A31   A(11,12,23)           126.0151         calculate D2E/DX2 analytically  !
 ! A32   A(13,12,23)           122.3301         calculate D2E/DX2 analytically  !
 ! A33   A(9,13,12)            107.7245         calculate D2E/DX2 analytically  !
 ! A34   A(9,13,24)            125.7077         calculate D2E/DX2 analytically  !
 ! A35   A(12,13,24)           126.5676         calculate D2E/DX2 analytically  !
 ! A36   A(2,14,15)            112.635          calculate D2E/DX2 analytically  !
 ! A37   A(2,14,25)            109.7065         calculate D2E/DX2 analytically  !
 ! A38   A(2,14,26)            108.2383         calculate D2E/DX2 analytically  !
 ! A39   A(15,14,25)           110.3638         calculate D2E/DX2 analytically  !
 ! A40   A(15,14,26)           108.8048         calculate D2E/DX2 analytically  !
 ! A41   A(25,14,26)           106.9003         calculate D2E/DX2 analytically  !
 ! A42   A(14,15,16)           109.1295         calculate D2E/DX2 analytically  !
 ! A43   A(14,15,27)           109.2413         calculate D2E/DX2 analytically  !
 ! A44   A(14,15,28)           108.6012         calculate D2E/DX2 analytically  !
 ! A45   A(16,15,27)           113.7074         calculate D2E/DX2 analytically  !
 ! A46   A(16,15,28)           108.9045         calculate D2E/DX2 analytically  !
 ! A47   A(27,15,28)           107.1327         calculate D2E/DX2 analytically  !
 ! A48   A(15,16,29)           109.8205         calculate D2E/DX2 analytically  !
 ! A49   A(15,16,30)           109.9805         calculate D2E/DX2 analytically  !
 ! A50   A(29,16,30)           105.8294         calculate D2E/DX2 analytically  !
 ! D1    D(1,2,3,4)            -14.8681         calculate D2E/DX2 analytically  !
 ! D2    D(1,2,3,17)          -167.3086         calculate D2E/DX2 analytically  !
 ! D3    D(14,2,3,4)           168.753          calculate D2E/DX2 analytically  !
 ! D4    D(14,2,3,17)           16.3125         calculate D2E/DX2 analytically  !
 ! D5    D(1,2,14,15)           27.4052         calculate D2E/DX2 analytically  !
 ! D6    D(1,2,14,25)          150.7604         calculate D2E/DX2 analytically  !
 ! D7    D(1,2,14,26)          -92.9343         calculate D2E/DX2 analytically  !
 ! D8    D(3,2,14,15)         -156.2282         calculate D2E/DX2 analytically  !
 ! D9    D(3,2,14,25)          -32.8731         calculate D2E/DX2 analytically  !
 ! D10   D(3,2,14,26)           83.4323         calculate D2E/DX2 analytically  !
 ! D11   D(2,3,4,5)           -109.934          calculate D2E/DX2 analytically  !
 ! D12   D(2,3,4,8)            129.0356         calculate D2E/DX2 analytically  !
 ! D13   D(2,3,4,18)             8.6119         calculate D2E/DX2 analytically  !
 ! D14   D(17,3,4,5)            43.0861         calculate D2E/DX2 analytically  !
 ! D15   D(17,3,4,8)           -77.9442         calculate D2E/DX2 analytically  !
 ! D16   D(17,3,4,18)          161.6321         calculate D2E/DX2 analytically  !
 ! D17   D(3,4,5,6)            164.7753         calculate D2E/DX2 analytically  !
 ! D18   D(3,4,5,7)            -17.1721         calculate D2E/DX2 analytically  !
 ! D19   D(8,4,5,6)            -71.7445         calculate D2E/DX2 analytically  !
 ! D20   D(8,4,5,7)            106.3081         calculate D2E/DX2 analytically  !
 ! D21   D(18,4,5,6)            47.2307         calculate D2E/DX2 analytically  !
 ! D22   D(18,4,5,7)          -134.7167         calculate D2E/DX2 analytically  !
 ! D23   D(3,4,8,9)            -65.9015         calculate D2E/DX2 analytically  !
 ! D24   D(3,4,8,20)           173.1523         calculate D2E/DX2 analytically  !
 ! D25   D(3,4,8,21)            56.9725         calculate D2E/DX2 analytically  !
 ! D26   D(5,4,8,9)            172.7591         calculate D2E/DX2 analytically  !
 ! D27   D(5,4,8,20)            51.8129         calculate D2E/DX2 analytically  !
 ! D28   D(5,4,8,21)           -64.3669         calculate D2E/DX2 analytically  !
 ! D29   D(18,4,8,9)            53.6893         calculate D2E/DX2 analytically  !
 ! D30   D(18,4,8,20)          -67.2569         calculate D2E/DX2 analytically  !
 ! D31   D(18,4,8,21)          176.5633         calculate D2E/DX2 analytically  !
 ! D32   D(4,5,6,19)           178.4285         calculate D2E/DX2 analytically  !
 ! D33   D(7,5,6,19)             0.3268         calculate D2E/DX2 analytically  !
 ! D34   D(4,8,9,10)            -3.9207         calculate D2E/DX2 analytically  !
 ! D35   D(4,8,9,13)           177.1137         calculate D2E/DX2 analytically  !
 ! D36   D(20,8,9,10)          116.711          calculate D2E/DX2 analytically  !
 ! D37   D(20,8,9,13)          -62.2546         calculate D2E/DX2 analytically  !
 ! D38   D(21,8,9,10)         -126.8482         calculate D2E/DX2 analytically  !
 ! D39   D(21,8,9,13)           54.1862         calculate D2E/DX2 analytically  !
 ! D40   D(8,9,10,11)         -179.1307         calculate D2E/DX2 analytically  !
 ! D41   D(8,9,10,22)            1.423          calculate D2E/DX2 analytically  !
 ! D42   D(13,9,10,11)          -0.0344         calculate D2E/DX2 analytically  !
 ! D43   D(13,9,10,22)        -179.4807         calculate D2E/DX2 analytically  !
 ! D44   D(8,9,13,12)          179.2645         calculate D2E/DX2 analytically  !
 ! D45   D(8,9,13,24)           -0.5735         calculate D2E/DX2 analytically  !
 ! D46   D(10,9,13,12)           0.044          calculate D2E/DX2 analytically  !
 ! D47   D(10,9,13,24)        -179.794          calculate D2E/DX2 analytically  !
 ! D48   D(9,10,11,12)           0.0111         calculate D2E/DX2 analytically  !
 ! D49   D(22,10,11,12)        179.4798         calculate D2E/DX2 analytically  !
 ! D50   D(10,11,12,13)          0.0182         calculate D2E/DX2 analytically  !
 ! D51   D(10,11,12,23)        179.9527         calculate D2E/DX2 analytically  !
 ! D52   D(11,12,13,9)          -0.0403         calculate D2E/DX2 analytically  !
 ! D53   D(11,12,13,24)        179.7959         calculate D2E/DX2 analytically  !
 ! D54   D(23,12,13,9)        -179.9776         calculate D2E/DX2 analytically  !
 ! D55   D(23,12,13,24)         -0.1414         calculate D2E/DX2 analytically  !
 ! D56   D(2,14,15,16)        -179.0201         calculate D2E/DX2 analytically  !
 ! D57   D(2,14,15,27)          56.1032         calculate D2E/DX2 analytically  !
 ! D58   D(2,14,15,28)         -60.4282         calculate D2E/DX2 analytically  !
 ! D59   D(25,14,15,16)         57.9915         calculate D2E/DX2 analytically  !
 ! D60   D(25,14,15,27)        -66.8853         calculate D2E/DX2 analytically  !
 ! D61   D(25,14,15,28)        176.5834         calculate D2E/DX2 analytically  !
 ! D62   D(26,14,15,16)        -59.007          calculate D2E/DX2 analytically  !
 ! D63   D(26,14,15,27)        176.1163         calculate D2E/DX2 analytically  !
 ! D64   D(26,14,15,28)         59.5849         calculate D2E/DX2 analytically  !
 ! D65   D(14,15,16,29)        -70.2728         calculate D2E/DX2 analytically  !
 ! D66   D(14,15,16,30)        173.651          calculate D2E/DX2 analytically  !
 ! D67   D(27,15,16,29)         51.9538         calculate D2E/DX2 analytically  !
 ! D68   D(27,15,16,30)        -64.1224         calculate D2E/DX2 analytically  !
 ! D69   D(28,15,16,29)        171.325          calculate D2E/DX2 analytically  !
 ! D70   D(28,15,16,30)         55.2488         calculate D2E/DX2 analytically  !
 --------------------------------------------------------------------------------
 Trust Radius=3.00D-01 FncErr=1.00D-07 GrdErr=1.00D-06
 Number of steps in this run=    160 maximum allowed number of steps=    180.
 GradGradGradGradGradGradGradGradGradGradGradGradGradGradGradGradGradGrad

                          Input orientation:                          
 ---------------------------------------------------------------------
 Center     Atomic      Atomic             Coordinates (Angstroms)
 Number     Number       Type             X           Y           Z
 ---------------------------------------------------------------------
      1          8           0        0.785871    0.735223    1.529867
      2          6           0        1.139240    0.162661    0.504155
      3          7           0        0.303118   -0.647601   -0.207881
      4          6           0       -0.935956   -1.134511    0.356493
      5          6           0       -0.817066   -2.623497    0.613794
      6          8           0       -1.796797   -3.063489    1.429557
      7          8           0        0.014438   -3.348268    0.133141
      8          6           0       -2.144474   -0.887478   -0.558942
      9          6           0       -2.452097    0.570279   -0.734056
     10          6           0       -1.922975    1.707460   -0.195764
     11          7           0       -2.575751    2.830835   -0.669422
     12          6           0       -3.491909    2.372307   -1.487278
     13          7           0       -3.462438    1.016238   -1.563554
     14          6           0        2.506147    0.365153   -0.119418
     15          6           0        3.563763    0.754017    0.902119
     16          7           0        4.843498    0.952401    0.216596
     17          1           0        0.712914   -1.232417   -0.920148
     18          1           0       -1.093734   -0.617860    1.302577
     19          1           0       -1.661238   -4.014865    1.518489
     20          1           0       -3.014626   -1.386288   -0.126735
     21          1           0       -1.973031   -1.348886   -1.533202
     22          1           0       -1.099736    1.760297    0.501259
     23          1           0       -4.196751    2.964992   -2.044427
     24          1           0       -4.065659    0.434098   -2.119228
     25          1           0        2.806372   -0.541031   -0.651533
     26          1           0        2.427514    1.160219   -0.865199
     27          1           0        3.599871   -0.006139    1.692423
     28          1           0        3.265084    1.693065    1.372450
     29          1           0        5.204337    0.060503   -0.102565
     30          1           0        5.532093    1.312491    0.866431
 ---------------------------------------------------------------------
                    Distance matrix (angstroms):
                    1          2          3          4          5
     1  O    0.000000
     2  C    1.226696   0.000000
     3  N    2.272667   1.364778   0.000000
     4  C    2.799535   2.451713   1.445995   0.000000
     5  C    3.832700   3.406146   2.415394   1.515724   0.000000
     6  O    4.594611   4.459230   3.595464   2.369277   1.348679
     7  O    4.384158   3.705327   2.737377   2.419474   1.203212
     8  C    3.947557   3.607734   2.484248   1.536086   2.480138
     9  C    3.954364   3.820605   3.057990   2.528693   3.832784
    10  C    3.355726   3.500493   3.240671   3.058757   4.542643
    11  N    4.530890   4.722033   4.538768   4.411961   5.872764
    12  C    5.484762   5.504170   5.015868   4.714887   6.043786
    13  N    5.262733   5.116587   4.334238   3.833460   4.998651
    14  C    2.411730   1.516008   2.426280   3.784648   4.529169
    15  C    2.848000   2.527131   3.718661   4.910368   5.539169
    16  N    4.270384   3.798408   4.832725   6.146288   6.707219
    17  H    3.143167   2.038782   1.008597   2.087623   2.574669
    18  H    2.327103   2.496571   2.057562   1.089449   2.138585
    19  H    5.343389   5.130621   4.263510   3.189468   1.861989
    20  H    4.657136   4.477931   3.399951   2.148900   2.628372
    21  H    4.619246   4.015199   2.725643   2.166201   2.751450
    22  H    2.379984   2.750539   2.875560   2.903049   4.394339
    23  H    6.524873   6.543786   6.055786   5.762215   7.051214
    24  H    6.078150   5.834962   4.889737   4.287746   5.231792
    25  H    3.235700   2.147120   2.544497   3.920887   4.366580
    26  H    2.934613   2.128356   2.865892   4.251029   5.199156
    27  H    2.914556   2.737732   3.858913   4.861240   5.246268
    28  H    2.662468   2.759580   4.092604   5.164890   5.989341
    29  H    4.758458   4.111393   4.953227   6.272319   6.631313
    30  H    4.827008   4.555273   5.686677   6.934228   7.474466
                    6          7          8          9         10
     6  O    0.000000
     7  O    2.245521   0.000000
     8  C    2.968170   3.345947   0.000000
     9  C    4.279593   4.710715   1.500118   0.000000
    10  C    5.041780   5.424217   2.629575   1.364884   0.000000
    11  N    6.305200   6.747925   3.744872   2.264858   1.382910
    12  C    6.397595   6.902551   3.647409   2.212658   2.138126
    13  N    5.327030   5.832354   2.523967   1.381208   2.172230
    14  C    5.715789   4.479050   4.836377   5.000405   4.628687
    15  C    6.602057   5.478848   6.116631   6.237099   5.676152
    16  N    7.854436   6.467034   7.267624   7.367188   6.820946
    17  H    3.895201   2.464571   2.900710   3.647141   4.014414
    18  H    2.547847   3.170292   2.154531   2.721158   2.887868
    19  H    0.965091   2.274078   3.785470   5.169426   5.979312
    20  H    2.591941   3.618305   1.092144   2.124484   3.281424
    21  H    3.427661   3.274791   1.091546   2.133386   3.336540
    22  H    4.961506   5.241595   3.037469   2.184268   1.079979
    23  H    7.360091   7.895135   4.610861   3.239682   3.188887
    24  H    5.474918   6.002220   2.805709   2.130922   3.148374
    25  H    5.646494   4.036234   4.963817   5.375251   5.256440
    26  H    6.399252   5.210189   5.018957   4.916892   4.435580
    27  H    6.208101   5.143589   6.232407   6.545714   6.083050
    28  H    6.946273   6.125163   6.297047   6.195496   5.419913
    29  H    7.818095   6.213721   7.423744   7.699327   7.315718
    30  H    8.554469   7.259814   8.111796   8.176780   7.540710
                   11         12         13         14         15
    11  N    0.000000
    12  C    1.310909   0.000000
    13  N    2.208721   1.358532   0.000000
    14  C    5.675190   6.471197   6.175229   0.000000
    15  C    6.669074   7.623031   7.450893   1.520955   0.000000
    16  N    7.704465   8.625447   8.494797   2.433305   1.465270
    17  H    5.233373   5.567424   4.785811   2.531617   3.923508
    18  H    4.240125   4.740848   4.061496   3.993436   4.871826
    19  H    7.244784   7.292596   6.168898   6.263737   7.100900
    20  H    4.274488   4.025657   2.834980   5.791937   6.993901
    21  H    4.310390   4.019500   2.795187   4.999975   6.403833
    22  H    2.166833   3.170383   3.224816   3.915873   4.787642
    23  H    2.129854   1.076333   2.137311   7.442692   8.590467
    24  H    3.172714   2.117830   1.005751   6.869689   8.212123
    25  H    6.351145   6.989589   6.523408   1.092909   2.159774
    26  H    5.278441   6.074184   5.932956   1.092933   2.139971
    27  H    7.194792   8.127783   7.843650   2.148687   1.097142
    28  H    6.291193   7.368607   7.371416   2.136588   1.091894
    29  H    8.278033   9.104206   8.840866   2.715386   2.044953
    30  H    8.390551   9.385935   9.321706   3.320497   2.046336
                   16         17         18         19         20
    16  N    0.000000
    17  H    4.809089   0.000000
    18  H    6.236649   2.929533   0.000000
    19  H    8.287354   4.396085   3.450843   0.000000
    20  H    8.205940   3.814149   2.514606   3.383465   0.000000
    21  H    7.404240   2.757480   3.057647   4.064169   1.750562
    22  H    6.004644   3.776563   2.509537   5.890886   3.736600
    23  H    9.533564   6.556451   5.802412   8.236601   4.899857
    24  H    9.224846   5.200944   4.652709   6.229566   2.896291
    25  H    2.670930   2.220976   4.362944   6.061028   5.905412
    26  H    2.655268   2.944075   4.501111   7.012942   6.053669
    27  H    2.154871   4.082132   4.749327   6.616601   6.997551
    28  H    2.091883   4.508660   4.934019   7.541249   7.152952
    29  H    1.013682   4.744783   6.488474   8.146936   8.345367
    30  H    1.012973   5.735234   6.915061   8.974961   9.017550
                   21         22         23         24         25
    21  H    0.000000
    22  H    3.816896   0.000000
    23  H    4.880147   4.186085   0.000000
    24  H    2.810970   4.174021   2.535391   0.000000
    25  H    4.926729   4.677897   7.954626   7.094350   0.000000
    26  H    5.109465   3.829985   6.966252   6.652904   1.755972
    27  H    6.577603   5.159988   9.142154   8.572213   2.531774
    28  H    6.718193   4.451420   8.304928   8.216848   3.049280
    29  H    7.453034   6.557075  10.029324   9.494173   2.532478
    30  H    8.316733   6.656954  10.288550  10.089726   3.628955
                   26         27         28         29         30
    26  H    0.000000
    27  H    3.045692   0.000000
    28  H    2.447963   1.761181   0.000000
    29  H    3.082488   2.408471   2.932854   0.000000
    30  H    3.558110   2.480832   2.353768   1.616741   0.000000
 Symmetry turned off by external request.
 Stoichiometry    C9H14N4O3
 Framework group  C1[X(C9H14N4O3)]
 Deg. of freedom    84
 Full point group                 C1      NOp   1
 Rotational constants (GHZ):      0.5777314      0.3337382      0.2304002
 Standard basis: 6-31G(d,p) (6D, 7F)
   310 basis functions,   546 primitive gaussians,   310 cartesian basis functions
    60 alpha electrons       60 beta electrons
       nuclear repulsion energy      1109.2545423011 Hartrees.
 NAtoms=   30 NActive=   30 NUniq=   30 SFac= 1.00D+00 NAtFMM=   60 NAOKFM=F Big=F
 Integral buffers will be    131072 words long.
 Raffenetti 2 integral format.
 Two-electron integral symmetry is turned off.
 Nuclear repulsion after empirical dispersion term =     1109.2013106689 Hartrees.
 One-electron integrals computed using PRISM.
 NBasis=   310 RedAO= T EigKep=  1.12D-03  NBF=   310
 NBsUse=   310 1.00D-06 EigRej= -1.00D+00 NBFU=   310
 ExpMin= 1.61D-01 ExpMax= 5.48D+03 ExpMxC= 8.25D+02 IAcc=3 IRadAn=         5 AccDes= 0.00D+00
 Harris functional with IExCor=  402 and IRadAn=       5 diagonalized for initial guess.
 HarFok:  IExCor=  402 AccDes= 0.00D+00 IRadAn=         5 IDoV= 1 UseB2=F ITyADJ=14
 ICtDFT=  3500011 ScaDFX=  1.000000  1.000000  1.000000  1.000000
 FoFCou: FMM=F IPFlag=           0 FMFlag=      100000 FMFlg1=           0
         NFxFlg=           0 DoJE=T BraDBF=F KetDBF=T FulRan=T
         wScrn=  0.000000 ICntrl=     500 IOpCl=  0 I1Cent=   200000004 NGrid=           0
         NMat0=    1 NMatS0=      1 NMatT0=    0 NMatD0=    1 NMtDS0=    0 NMtDT0=    0
 Symmetry not used in FoFCou.
 Requested convergence on RMS density matrix=1.00D-08 within 128 cycles.
 Requested convergence on MAX density matrix=1.00D-06.
 Requested convergence on             energy=1.00D-06.
 No special actions if energy rises.
 Integral accuracy reduced to 1.0D-05 until final iterations.
 Initial convergence to 1.0D-05 achieved.  Increase integral accuracy.
 SCF Done:  E(RB3LYP) =  -796.159488955     A.U. after   14 cycles
            NFock= 14  Conv=0.66D-08     -V/T= 2.0089
 DoSCS=F DFT=T ScalE2(SS,OS)=  1.000000  1.000000
 Range of M.O.s used for correlation:     1   310
 NBasis=   310 NAE=    60 NBE=    60 NFC=     0 NFV=     0
 NROrb=    310 NOA=    60 NOB=    60 NVA=   250 NVB=   250
 Symmetrizing basis deriv contribution to polar:
 IMax=3 JMax=2 DiffMx= 0.00D+00
 G2DrvN: will do    31 centers at a time, making    1 passes.
 Calling FoFCou, ICntrl=  3107 FMM=F I1Cent=   0 AccDes= 0.00D+00.
 End of G2Drv F.D. properties file   721 does not exist.
 End of G2Drv F.D. properties file   722 does not exist.
 End of G2Drv F.D. properties file   788 does not exist.
          IDoAtm=111111111111111111111111111111
          Differentiating once with respect to nuclear coordinates.
          There are    93 degrees of freedom in the 1st order CPHF.  IDoFFX=6 NUNeed=     0.
     87 vectors produced by pass  0 Test12= 1.61D-14 1.08D-09 XBig12= 1.66D-01 9.23D-02.
 AX will form    87 AO Fock derivatives at one time.
     87 vectors produced by pass  1 Test12= 1.61D-14 1.08D-09 XBig12= 3.20D-02 4.29D-02.
     87 vectors produced by pass  2 Test12= 1.61D-14 1.08D-09 XBig12= 2.68D-04 2.34D-03.
     87 vectors produced by pass  3 Test12= 1.61D-14 1.08D-09 XBig12= 1.21D-06 9.50D-05.
     87 vectors produced by pass  4 Test12= 1.61D-14 1.08D-09 XBig12= 1.96D-09 4.13D-06.
     69 vectors produced by pass  5 Test12= 1.61D-14 1.08D-09 XBig12= 1.97D-12 1.22D-07.
     16 vectors produced by pass  6 Test12= 1.61D-14 1.08D-09 XBig12= 1.80D-15 3.60D-09.
 InvSVY:  IOpt=1 It=  1 EMax= 4.16D-16
 Solved reduced A of dimension   520 with    93 vectors.
 End of Minotr F.D. properties file   721 does not exist.
 End of Minotr F.D. properties file   722 does not exist.
 End of Minotr F.D. properties file   788 does not exist.

 **********************************************************************

            Population analysis using the SCF density.

 **********************************************************************

 Alpha  occ. eigenvalues --  -19.21557 -19.16122 -19.11687 -14.38491 -14.36460
 Alpha  occ. eigenvalues --  -14.30981 -14.29992 -10.33744 -10.28927 -10.25119
 Alpha  occ. eigenvalues --  -10.22972 -10.21742 -10.21297 -10.20494 -10.19068
 Alpha  occ. eigenvalues --  -10.18049  -1.12985  -1.04190  -1.03582  -1.00783
 Alpha  occ. eigenvalues --   -0.93582  -0.87955  -0.86130  -0.81298  -0.75953
 Alpha  occ. eigenvalues --   -0.73681  -0.68046  -0.64549  -0.60871  -0.60452
 Alpha  occ. eigenvalues --   -0.59036  -0.57633  -0.54233  -0.51886  -0.50802
 Alpha  occ. eigenvalues --   -0.49867  -0.48306  -0.48035  -0.47256  -0.45070
 Alpha  occ. eigenvalues --   -0.44498  -0.43463  -0.42816  -0.41682  -0.41222
 Alpha  occ. eigenvalues --   -0.40295  -0.39569  -0.39150  -0.38186  -0.37719
 Alpha  occ. eigenvalues --   -0.35390  -0.34301  -0.33985  -0.29874  -0.27057
 Alpha  occ. eigenvalues --   -0.26680  -0.25512  -0.25228  -0.23342  -0.21640
 Alpha virt. eigenvalues --   -0.00825   0.01915   0.03621   0.06318   0.07397
 Alpha virt. eigenvalues --    0.07771   0.08275   0.08771   0.11593   0.13347
 Alpha virt. eigenvalues --    0.14366   0.14578   0.14825   0.16104   0.16861
 Alpha virt. eigenvalues --    0.18636   0.18932   0.19783   0.20702   0.21421
 Alpha virt. eigenvalues --    0.21972   0.23333   0.24002   0.24847   0.26105
 Alpha virt. eigenvalues --    0.28067   0.29578   0.32282   0.34109   0.34872
 Alpha virt. eigenvalues --    0.36435   0.38837   0.41953   0.44599   0.49874
 Alpha virt. eigenvalues --    0.50727   0.51774   0.52833   0.54241   0.54810
 Alpha virt. eigenvalues --    0.55977   0.56417   0.57310   0.58689   0.59193
 Alpha virt. eigenvalues --    0.61932   0.62680   0.63779   0.64286   0.64892
 Alpha virt. eigenvalues --    0.65661   0.66456   0.66999   0.67826   0.69376
 Alpha virt. eigenvalues --    0.69771   0.72794   0.73012   0.73200   0.75045
 Alpha virt. eigenvalues --    0.76254   0.77840   0.78931   0.79879   0.80885
 Alpha virt. eigenvalues --    0.81098   0.81528   0.81726   0.83586   0.84658
 Alpha virt. eigenvalues --    0.85003   0.85255   0.86646   0.87291   0.87497
 Alpha virt. eigenvalues --    0.88049   0.88510   0.89470   0.90714   0.92086
 Alpha virt. eigenvalues --    0.92453   0.93340   0.93734   0.95658   0.96124
 Alpha virt. eigenvalues --    0.98709   1.00669   1.01936   1.03174   1.05426
 Alpha virt. eigenvalues --    1.06705   1.07508   1.09645   1.11381   1.14116
 Alpha virt. eigenvalues --    1.16372   1.19904   1.20622   1.23924   1.24138
 Alpha virt. eigenvalues --    1.28811   1.29665   1.31066   1.32750   1.33721
 Alpha virt. eigenvalues --    1.34011   1.36253   1.38299   1.39835   1.42497
 Alpha virt. eigenvalues --    1.43065   1.45098   1.46539   1.49690   1.50630
 Alpha virt. eigenvalues --    1.52888   1.54892   1.56532   1.58943   1.60414
 Alpha virt. eigenvalues --    1.63188   1.64019   1.67004   1.69047   1.70359
 Alpha virt. eigenvalues --    1.72436   1.73081   1.73805   1.75719   1.77139
 Alpha virt. eigenvalues --    1.77993   1.79612   1.80038   1.82811   1.83821
 Alpha virt. eigenvalues --    1.85121   1.86949   1.87424   1.88929   1.91392
 Alpha virt. eigenvalues --    1.92844   1.94653   1.95955   1.96693   1.98093
 Alpha virt. eigenvalues --    1.99642   2.01025   2.04451   2.05566   2.06141
 Alpha virt. eigenvalues --    2.07241   2.07710   2.08380   2.10365   2.11697
 Alpha virt. eigenvalues --    2.12301   2.13525   2.15622   2.18334   2.19749
 Alpha virt. eigenvalues --    2.20725   2.22936   2.24551   2.24986   2.27343
 Alpha virt. eigenvalues --    2.27485   2.27937   2.29514   2.31263   2.34011
 Alpha virt. eigenvalues --    2.35549   2.36424   2.37542   2.39231   2.41174
 Alpha virt. eigenvalues --    2.45177   2.45770   2.46118   2.47581   2.49647
 Alpha virt. eigenvalues --    2.50881   2.52746   2.53077   2.54841   2.55637
 Alpha virt. eigenvalues --    2.58218   2.59015   2.60141   2.61613   2.62459
 Alpha virt. eigenvalues --    2.63463   2.65231   2.66597   2.67718   2.68391
 Alpha virt. eigenvalues --    2.71400   2.71757   2.72391   2.75314   2.76728
 Alpha virt. eigenvalues --    2.79627   2.80690   2.82271   2.82780   2.85766
 Alpha virt. eigenvalues --    2.86808   2.87946   2.89625   2.92116   2.94224
 Alpha virt. eigenvalues --    2.95355   2.96819   2.98402   2.99765   3.00931
 Alpha virt. eigenvalues --    3.04190   3.04638   3.12930   3.18656   3.24187
 Alpha virt. eigenvalues --    3.26679   3.28047   3.31137   3.31431   3.34197
 Alpha virt. eigenvalues --    3.38427   3.40322   3.42865   3.49535   3.51391
 Alpha virt. eigenvalues --    3.52598   3.57267   3.58513   3.68400   3.93040
 Alpha virt. eigenvalues --    4.00485   4.01553   4.09386   4.14399   4.17260
 Alpha virt. eigenvalues --    4.21979   4.27977   4.35226   4.38552   4.43725
 Alpha virt. eigenvalues --    4.47764   4.52953   4.62400   4.70823   4.82489
          Condensed to atoms (all electrons):
               1          2          3          4          5          6
     1  O    8.123551   0.527630  -0.094931  -0.004751   0.000182  -0.000004
     2  C    0.527630   4.408058   0.263015  -0.023899   0.002272   0.000029
     3  N   -0.094931   0.263015   7.016830   0.255858  -0.048648   0.002438
     4  C   -0.004751  -0.023899   0.255858   5.086781   0.294925  -0.099440
     5  C    0.000182   0.002272  -0.048648   0.294925   4.407966   0.258056
     6  O   -0.000004   0.000029   0.002438  -0.099440   0.258056   8.118021
     7  O   -0.000001   0.001374  -0.008616  -0.078100   0.590539  -0.086137
     8  C    0.000477   0.002330  -0.054091   0.337399  -0.039268   0.001405
     9  C   -0.000735   0.000161  -0.003129  -0.028606   0.002240   0.000038
    10  C   -0.008833   0.001660   0.003394  -0.005059   0.000315   0.000001
    11  N    0.000047  -0.000002  -0.000009  -0.000155  -0.000001   0.000000
    12  C   -0.000003  -0.000005   0.000038  -0.000080   0.000002   0.000000
    13  N   -0.000001  -0.000013  -0.000146   0.002746  -0.000101   0.000000
    14  C   -0.080819   0.301310  -0.108090   0.007373  -0.000306   0.000000
    15  C    0.002092  -0.022586   0.003140  -0.000141   0.000010   0.000000
    16  N    0.000222   0.003546  -0.000037   0.000001   0.000000   0.000000
    17  H    0.003204  -0.018082   0.331113  -0.037912  -0.004120   0.000324
    18  H    0.022998  -0.002576  -0.048670   0.371896  -0.023986   0.002780
    19  H    0.000001  -0.000006  -0.000296   0.010480  -0.010786   0.270937
    20  H   -0.000004   0.000007   0.004379  -0.034916  -0.001053   0.006061
    21  H   -0.000012  -0.000195  -0.004601  -0.028173  -0.002735   0.000012
    22  H    0.023440   0.001211  -0.006978   0.001572  -0.000040   0.000001
    23  H    0.000000   0.000000   0.000000   0.000002   0.000000   0.000000
    24  H    0.000000   0.000000   0.000000  -0.000061  -0.000002   0.000000
    25  H    0.003025  -0.029993   0.000832  -0.000236   0.000026   0.000000
    26  H   -0.001075  -0.018952  -0.001082  -0.000141  -0.000005   0.000000
    27  H    0.000745   0.005776   0.000088   0.000010   0.000000   0.000000
    28  H    0.008503  -0.005405   0.000330   0.000001   0.000000   0.000000
    29  H    0.000001  -0.000281  -0.000001   0.000000   0.000000   0.000000
    30  H    0.000007  -0.000192   0.000002   0.000000   0.000000   0.000000
               7          8          9         10         11         12
     1  O   -0.000001   0.000477  -0.000735  -0.008833   0.000047  -0.000003
     2  C    0.001374   0.002330   0.000161   0.001660  -0.000002  -0.000005
     3  N   -0.008616  -0.054091  -0.003129   0.003394  -0.000009   0.000038
     4  C   -0.078100   0.337399  -0.028606  -0.005059  -0.000155  -0.000080
     5  C    0.590539  -0.039268   0.002240   0.000315  -0.000001   0.000002
     6  O   -0.086137   0.001405   0.000038   0.000001   0.000000   0.000000
     7  O    8.018189  -0.002417  -0.000063  -0.000001   0.000000   0.000000
     8  C   -0.002417   5.092132   0.328607  -0.064366   0.008181   0.007052
     9  C   -0.000063   0.328607   4.786366   0.593897  -0.047626  -0.088054
    10  C   -0.000001  -0.064366   0.593897   4.882518   0.415769  -0.124481
    11  N    0.000000   0.008181  -0.047626   0.415769   6.691561   0.540553
    12  C    0.000000   0.007052  -0.088054  -0.124481   0.540553   4.682144
    13  N    0.000000  -0.061696   0.323775  -0.067707  -0.086706   0.346940
    14  C   -0.000148  -0.000255  -0.000041  -0.000252   0.000000   0.000000
    15  C    0.000001   0.000000   0.000000   0.000007   0.000000   0.000000
    16  N    0.000000   0.000000   0.000000   0.000000   0.000000   0.000000
    17  H    0.016096  -0.000551  -0.000255   0.000077   0.000002  -0.000001
    18  H    0.001765  -0.034253  -0.004907   0.001880  -0.000018  -0.000026
    19  H    0.009640  -0.000228   0.000016   0.000000   0.000000   0.000000
    20  H    0.000105   0.366804  -0.032141   0.000499  -0.000098   0.000212
    21  H    0.001297   0.355269  -0.033984   0.001238  -0.000131   0.000175
    22  H   -0.000001  -0.002439  -0.054824   0.377582  -0.035521   0.006182
    23  H    0.000000  -0.000124   0.003141   0.006872  -0.037124   0.391574
    24  H    0.000000  -0.002743  -0.032707   0.008983   0.005523  -0.025231
    25  H    0.000045  -0.000006   0.000001   0.000000   0.000000   0.000000
    26  H    0.000000   0.000025   0.000018   0.000136  -0.000001   0.000000
    27  H    0.000000   0.000000   0.000000   0.000000   0.000000   0.000000
    28  H    0.000000   0.000000   0.000000  -0.000002   0.000000   0.000000
    29  H    0.000000   0.000000   0.000000   0.000000   0.000000   0.000000
    30  H    0.000000   0.000000   0.000000   0.000000   0.000000   0.000000
              13         14         15         16         17         18
     1  O   -0.000001  -0.080819   0.002092   0.000222   0.003204   0.022998
     2  C   -0.000013   0.301310  -0.022586   0.003546  -0.018082  -0.002576
     3  N   -0.000146  -0.108090   0.003140  -0.000037   0.331113  -0.048670
     4  C    0.002746   0.007373  -0.000141   0.000001  -0.037912   0.371896
     5  C   -0.000101  -0.000306   0.000010   0.000000  -0.004120  -0.023986
     6  O    0.000000   0.000000   0.000000   0.000000   0.000324   0.002780
     7  O    0.000000  -0.000148   0.000001   0.000000   0.016096   0.001765
     8  C   -0.061696  -0.000255   0.000000   0.000000  -0.000551  -0.034253
     9  C    0.323775  -0.000041   0.000000   0.000000  -0.000255  -0.004907
    10  C   -0.067707  -0.000252   0.000007   0.000000   0.000077   0.001880
    11  N   -0.086706   0.000000   0.000000   0.000000   0.000002  -0.000018
    12  C    0.346940   0.000000   0.000000   0.000000  -0.000001  -0.000026
    13  N    6.803710   0.000000   0.000000   0.000000   0.000001   0.000086
    14  C    0.000000   5.220282   0.345671  -0.057248  -0.001655   0.001357
    15  C    0.000000   0.345671   4.789655   0.291442  -0.000130  -0.000006
    16  N    0.000000  -0.057248   0.291442   6.779203  -0.000012   0.000000
    17  H    0.000001  -0.001655  -0.000130  -0.000012   0.434513   0.005158
    18  H    0.000086   0.001357  -0.000006   0.000000   0.005158   0.528346
    19  H    0.000000   0.000000   0.000000   0.000000  -0.000035  -0.000407
    20  H   -0.002139   0.000004   0.000000   0.000000  -0.000138  -0.003240
    21  H   -0.002335  -0.000001   0.000000   0.000000   0.002623   0.005628
    22  H    0.004881   0.000507  -0.000027   0.000000   0.000019   0.000272
    23  H   -0.058022   0.000000   0.000000   0.000000   0.000000   0.000000
    24  H    0.338171   0.000000   0.000000   0.000000   0.000000   0.000003
    25  H    0.000000   0.359583  -0.040274  -0.002664   0.003526  -0.000084
    26  H    0.000000   0.362531  -0.027158   0.005646   0.000157  -0.000025
    27  H    0.000000  -0.062910   0.389983  -0.047365   0.000005  -0.000005
    28  H    0.000000  -0.029615   0.390035  -0.037914  -0.000004  -0.000008
    29  H    0.000000  -0.005264  -0.036324   0.335458   0.000000   0.000000
    30  H    0.000000   0.006079  -0.033860   0.338489   0.000000   0.000000
              19         20         21         22         23         24
     1  O    0.000001  -0.000004  -0.000012   0.023440   0.000000   0.000000
     2  C   -0.000006   0.000007  -0.000195   0.001211   0.000000   0.000000
     3  N   -0.000296   0.004379  -0.004601  -0.006978   0.000000   0.000000
     4  C    0.010480  -0.034916  -0.028173   0.001572   0.000002  -0.000061
     5  C   -0.010786  -0.001053  -0.002735  -0.000040   0.000000  -0.000002
     6  O    0.270937   0.006061   0.000012   0.000001   0.000000   0.000000
     7  O    0.009640   0.000105   0.001297  -0.000001   0.000000   0.000000
     8  C   -0.000228   0.366804   0.355269  -0.002439  -0.000124  -0.002743
     9  C    0.000016  -0.032141  -0.033984  -0.054824   0.003141  -0.032707
    10  C    0.000000   0.000499   0.001238   0.377582   0.006872   0.008983
    11  N    0.000000  -0.000098  -0.000131  -0.035521  -0.037124   0.005523
    12  C    0.000000   0.000212   0.000175   0.006182   0.391574  -0.025231
    13  N    0.000000  -0.002139  -0.002335   0.004881  -0.058022   0.338171
    14  C    0.000000   0.000004  -0.000001   0.000507   0.000000   0.000000
    15  C    0.000000   0.000000   0.000000  -0.000027   0.000000   0.000000
    16  N    0.000000   0.000000   0.000000   0.000000   0.000000   0.000000
    17  H   -0.000035  -0.000138   0.002623   0.000019   0.000000   0.000000
    18  H   -0.000407  -0.003240   0.005628   0.000272   0.000000   0.000003
    19  H    0.394685  -0.000118  -0.000072   0.000000   0.000000   0.000000
    20  H   -0.000118   0.600128  -0.040241  -0.000104   0.000000   0.000894
    21  H   -0.000072  -0.040241   0.634975  -0.000094  -0.000002   0.001281
    22  H    0.000000  -0.000104  -0.000094   0.564470  -0.000147  -0.000100
    23  H    0.000000   0.000000  -0.000002  -0.000147   0.585678   0.000346
    24  H    0.000000   0.000894   0.001281  -0.000100   0.000346   0.449697
    25  H    0.000000   0.000000  -0.000001   0.000001   0.000000   0.000000
    26  H    0.000000   0.000000  -0.000002  -0.000082   0.000000   0.000000
    27  H    0.000000   0.000000   0.000000   0.000000   0.000000   0.000000
    28  H    0.000000   0.000000   0.000000   0.000007   0.000000   0.000000
    29  H    0.000000   0.000000   0.000000   0.000000   0.000000   0.000000
    30  H    0.000000   0.000000   0.000000   0.000000   0.000000   0.000000
              25         26         27         28         29         30
     1  O    0.003025  -0.001075   0.000745   0.008503   0.000001   0.000007
     2  C   -0.029993  -0.018952   0.005776  -0.005405  -0.000281  -0.000192
     3  N    0.000832  -0.001082   0.000088   0.000330  -0.000001   0.000002
     4  C   -0.000236  -0.000141   0.000010   0.000001   0.000000   0.000000
     5  C    0.000026  -0.000005   0.000000   0.000000   0.000000   0.000000
     6  O    0.000000   0.000000   0.000000   0.000000   0.000000   0.000000
     7  O    0.000045   0.000000   0.000000   0.000000   0.000000   0.000000
     8  C   -0.000006   0.000025   0.000000   0.000000   0.000000   0.000000
     9  C    0.000001   0.000018   0.000000   0.000000   0.000000   0.000000
    10  C    0.000000   0.000136   0.000000  -0.000002   0.000000   0.000000
    11  N    0.000000  -0.000001   0.000000   0.000000   0.000000   0.000000
    12  C    0.000000   0.000000   0.000000   0.000000   0.000000   0.000000
    13  N    0.000000   0.000000   0.000000   0.000000   0.000000   0.000000
    14  C    0.359583   0.362531  -0.062910  -0.029615  -0.005264   0.006079
    15  C   -0.040274  -0.027158   0.389983   0.390035  -0.036324  -0.033860
    16  N   -0.002664   0.005646  -0.047365  -0.037914   0.335458   0.338489
    17  H    0.003526   0.000157   0.000005  -0.000004   0.000000   0.000000
    18  H   -0.000084  -0.000025  -0.000005  -0.000008   0.000000   0.000000
    19  H    0.000000   0.000000   0.000000   0.000000   0.000000   0.000000
    20  H    0.000000   0.000000   0.000000   0.000000   0.000000   0.000000
    21  H   -0.000001  -0.000002   0.000000   0.000000   0.000000   0.000000
    22  H    0.000001  -0.000082   0.000000   0.000007   0.000000   0.000000
    23  H    0.000000   0.000000   0.000000   0.000000   0.000000   0.000000
    24  H    0.000000   0.000000   0.000000   0.000000   0.000000   0.000000
    25  H    0.640255  -0.032969  -0.006102   0.005893   0.005011  -0.000015
    26  H   -0.032969   0.559582   0.006591  -0.007258  -0.000813  -0.000034
    27  H   -0.006102   0.006591   0.679584  -0.043744  -0.006740  -0.002204
    28  H    0.005893  -0.007258  -0.043744   0.584556   0.006341  -0.004608
    29  H    0.005011  -0.000813  -0.006740   0.006341   0.504425  -0.034588
    30  H   -0.000015  -0.000034  -0.002204  -0.004608  -0.034588   0.491526
 Mulliken charges:
               1
     1  O   -0.524957
     2  C    0.603810
     3  N   -0.502129
     4  C   -0.027372
     5  C    0.574517
     6  O   -0.474524
     7  O   -0.463566
     8  C   -0.237246
     9  C    0.288811
    10  C   -0.024127
    11  N   -0.454244
    12  C    0.263009
    13  N   -0.541445
    14  C   -0.258096
    15  C   -0.051531
    16  N   -0.608767
    17  H    0.266074
    18  H    0.176041
    19  H    0.326190
    20  H    0.135100
    21  H    0.110079
    22  H    0.120214
    23  H    0.107806
    24  H    0.255946
    25  H    0.094146
    26  H    0.154910
    27  H    0.086287
    28  H    0.132893
    29  H    0.232773
    30  H    0.239399
 Sum of Mulliken charges =   0.00000
 Mulliken charges with hydrogens summed into heavy atoms:
               1
     1  O   -0.524957
     2  C    0.603810
     3  N   -0.236055
     4  C    0.148669
     5  C    0.574517
     6  O   -0.148334
     7  O   -0.463566
     8  C    0.007934
     9  C    0.288811
    10  C    0.096086
    11  N   -0.454244
    12  C    0.370815
    13  N   -0.285499
    14  C   -0.009041
    15  C    0.167649
    16  N   -0.136595
 APT charges:
               1
     1  O   -0.295168
     2  C    0.122343
     3  N   -0.569347
     4  C   -0.357357
     5  C   -0.228532
     6  O   -0.852781
     7  O    0.082756
     8  C   -0.914091
     9  C   -0.102381
    10  C   -0.315125
    11  N   -0.380190
    12  C   -0.260248
    13  N   -0.905607
    14  C   -0.554997
    15  C   -0.443731
    16  N   -1.750346
    17  H    0.519875
    18  H    0.320188
    19  H    1.073441
    20  H    0.554643
    21  H    0.365668
    22  H    0.043981
    23  H    1.046008
    24  H    0.894660
    25  H    0.327563
    26  H    0.348609
    27  H    0.330398
    28  H    0.330902
    29  H    0.545206
    30  H    1.023663
 Sum of APT charges =   0.00000
 APT charges with hydrogens summed into heavy atoms:
               1
     1  O   -0.295168
     2  C    0.122343
     3  N   -0.049472
     4  C   -0.037170
     5  C   -0.228532
     6  O    0.220660
     7  O    0.082756
     8  C    0.006219
     9  C   -0.102381
    10  C   -0.271143
    11  N   -0.380190
    12  C    0.785760
    13  N   -0.010947
    14  C    0.121174
    15  C    0.217569
    16  N   -0.181478
 Electronic spatial extent (au):  <R**2>=           4708.7467
 Charge=              0.0000 electrons
 Dipole moment (field-independent basis, Debye):
    X=             -1.4027    Y=             -5.4458    Z=             -2.1909  Tot=              6.0352
 Quadrupole moment (field-independent basis, Debye-Ang):
   XX=            -71.5747   YY=           -101.1969   ZZ=            -89.6098
   XY=              7.1366   XZ=             12.3191   YZ=             -3.5448
 Traceless Quadrupole moment (field-independent basis, Debye-Ang):
   XX=             15.8857   YY=            -13.7365   ZZ=             -2.1493
   XY=              7.1366   XZ=             12.3191   YZ=             -3.5448
 Octapole moment (field-independent basis, Debye-Ang**2):
  XXX=             79.3010  YYY=            -62.6949  ZZZ=            -16.8209  XYY=             17.9855
  XXY=            -24.2118  XXZ=            -18.7234  XZZ=              6.3963  YZZ=             -8.1561
  YYZ=             22.5866  XYZ=             21.1625
 Hexadecapole moment (field-independent basis, Debye-Ang**3):
 XXXX=          -2973.7854 YYYY=          -1812.6080 ZZZZ=           -544.1718 XXXY=            -34.4807
 XXXZ=             31.9547 YYYX=            246.7812 YYYZ=             92.3800 ZZZX=           -283.8942
 ZZZY=            177.1471 XXYY=           -906.5364 XXZZ=           -580.1151 YYZZ=           -344.6738
 XXYZ=             68.4174 YYXZ=           -107.2747 ZZXY=              2.1612
 N-N= 1.109201310669D+03 E-N=-4.075844857886D+03  KE= 7.891737687375D+02
  Exact polarizability:   0.000   0.000   0.000   0.000   0.000   0.000
 Approx polarizability: 176.710  -0.111 196.560  12.931  17.976 161.387
 Calling FoFJK, ICntrl=    100147 FMM=F ISym2X=0 I1Cent= 0 IOpClX= 0 NMat=1 NMatS=1 NMatT=0.
 -------------------------------------------------------------------
 Center     Atomic                   Forces (Hartrees/Bohr)
 Number     Number              X              Y              Z
 -------------------------------------------------------------------
      1        8           0.000286254   -0.000649363    0.001722897
      2        6           0.001740497    0.005456997    0.001415150
      3        7          -0.003658490   -0.004500111   -0.000285193
      4        6           0.000660032    0.001999880   -0.004067358
      5        6          -0.007976812    0.004972653    0.006347471
      6        8          -0.001638171    0.005274034    0.000202754
      7        8           0.010121905   -0.007507837   -0.005976487
      8        6          -0.006797139    0.009608219   -0.000085180
      9        6           0.001270414   -0.008326834   -0.000412652
     10        6           0.005754689    0.005687827    0.004956211
     11        7           0.003136150    0.001265023    0.002783328
     12        6          -0.000895160    0.006665352    0.000001012
     13        7          -0.002468414   -0.009469521   -0.003467201
     14        6          -0.002013452    0.000352421    0.000724242
     15        6           0.003339603    0.000763744   -0.001432937
     16        7          -0.001967112    0.003488063   -0.001374977
     17        1           0.000850396   -0.001719103   -0.000977038
     18        1           0.000970587    0.001116852    0.001924494
     19        1          -0.000200807   -0.007425665    0.001408854
     20        1          -0.001434627   -0.003312167    0.001823552
     21        1           0.002619002   -0.003499096   -0.003540883
     22        1          -0.000190989    0.003038804    0.000864184
     23        1          -0.002418955    0.001998227   -0.001897830
     24        1          -0.001830649   -0.000955843   -0.001609263
     25        1           0.001301478   -0.002207328   -0.002123778
     26        1           0.000143256    0.001237509   -0.002247495
     27        1          -0.001175357   -0.001537960    0.003316024
     28        1          -0.000218341    0.000014476    0.000978816
     29        1           0.000926787   -0.003337540   -0.001288583
     30        1           0.001763424    0.001508290    0.002317867
 -------------------------------------------------------------------
 Cartesian Forces:  Max     0.010121905 RMS     0.003588327
 FormGI is forming the generalized inverse of G from B-inverse, IUseBI=4.

 GradGradGradGradGradGradGradGradGradGradGradGradGradGradGradGradGradGrad
 Berny optimization.
 Internal  Forces:  Max     0.013904961 RMS     0.002405524
 Search for a local minimum.
 Step number   1 out of a maximum of  160
 All quantities printed in internal units (Hartrees-Bohrs-Radians)
 Mixed Optimization -- RFO/linear search
 Second derivative matrix not updated -- analytic derivatives used.
 ITU=  0
     Eigenvalues ---   -0.00009   0.00108   0.00175   0.00220   0.00266
     Eigenvalues ---    0.00379   0.00456   0.00582   0.00671   0.00913
     Eigenvalues ---    0.01581   0.02081   0.02144   0.02790   0.03186
     Eigenvalues ---    0.03412   0.03894   0.04128   0.04179   0.04395
     Eigenvalues ---    0.04516   0.04625   0.05161   0.05186   0.05243
     Eigenvalues ---    0.05507   0.05765   0.06220   0.07702   0.08146
     Eigenvalues ---    0.08313   0.10356   0.10791   0.11347   0.11771
     Eigenvalues ---    0.12078   0.12319   0.13573   0.15035   0.15181
     Eigenvalues ---    0.15727   0.16758   0.18017   0.18296   0.18701
     Eigenvalues ---    0.20368   0.21535   0.22059   0.23413   0.23721
     Eigenvalues ---    0.24612   0.24828   0.25081   0.27143   0.30085
     Eigenvalues ---    0.30539   0.32107   0.33534   0.33728   0.33964
     Eigenvalues ---    0.34337   0.34487   0.34550   0.34861   0.34951
     Eigenvalues ---    0.35729   0.36876   0.37577   0.38157   0.38279
     Eigenvalues ---    0.41165   0.42820   0.43881   0.45603   0.46045
     Eigenvalues ---    0.46354   0.47477   0.47688   0.48943   0.50161
     Eigenvalues ---    0.53808   0.60458   0.82813   0.93696
 RFO step:  Lambda=-2.89983589D-03 EMin=-8.68781260D-05
 Linear search not attempted -- first point.
 Iteration  1 RMS(Cart)=  0.10762973 RMS(Int)=  0.00199202
 Iteration  2 RMS(Cart)=  0.00494357 RMS(Int)=  0.00009060
 Iteration  3 RMS(Cart)=  0.00000841 RMS(Int)=  0.00009050
 Iteration  4 RMS(Cart)=  0.00000000 RMS(Int)=  0.00009050
 Variable       Old X    -DE/DX   Delta X   Delta X   Delta X     New X
                                 (Linear)    (Quad)   (Total)
    R1        2.31812   0.00106   0.00000   0.00082   0.00082   2.31894
    R2        2.57906   0.00660   0.00000   0.01084   0.01084   2.58990
    R3        2.86484   0.00240   0.00000   0.00564   0.00564   2.87048
    R4        2.73253   0.00046   0.00000  -0.00258  -0.00258   2.72996
    R5        1.90597   0.00203   0.00000   0.00381   0.00381   1.90978
    R6        2.86430   0.00496   0.00000   0.01358   0.01358   2.87788
    R7        2.90278   0.00334   0.00000   0.01586   0.01586   2.91864
    R8        2.05876   0.00206   0.00000   0.00688   0.00688   2.06564
    R9        2.54863   0.00301   0.00000   0.00050   0.00050   2.54914
   R10        2.27374   0.01390   0.00000   0.01513   0.01513   2.28887
   R11        1.82376   0.00742   0.00000   0.01351   0.01351   1.83727
   R12        2.83481  -0.00072   0.00000  -0.00950  -0.00950   2.82531
   R13        2.06385   0.00338   0.00000   0.00963   0.00963   2.07348
   R14        2.06272   0.00505   0.00000   0.01498   0.01498   2.07770
   R15        2.57926   0.01170   0.00000   0.02032   0.02032   2.59958
   R16        2.61010   0.00491   0.00000   0.00892   0.00892   2.61902
   R17        2.61332   0.00068   0.00000  -0.00096  -0.00096   2.61236
   R18        2.04086   0.00056   0.00000   0.00115   0.00115   2.04201
   R19        2.47726   0.00482   0.00000   0.00463   0.00463   2.48189
   R20        2.56725   0.00959   0.00000   0.02011   0.02012   2.58737
   R21        2.03397   0.00367   0.00000   0.00904   0.00904   2.04301
   R22        1.90059   0.00254   0.00000   0.00483   0.00483   1.90542
   R23        2.87419   0.00378   0.00000   0.01153   0.01153   2.88571
   R24        2.06530   0.00322   0.00000   0.00948   0.00948   2.07478
   R25        2.06534   0.00242   0.00000   0.00713   0.00713   2.07247
   R26        2.76896   0.00102   0.00000  -0.00030  -0.00030   2.76866
   R27        2.07330   0.00342   0.00000   0.01077   0.01077   2.08407
   R28        2.06338   0.00049   0.00000   0.00172   0.00172   2.06510
   R29        1.91558   0.00367   0.00000   0.00816   0.00816   1.92374
   R30        1.91424   0.00322   0.00000   0.00700   0.00700   1.92124
    A1        2.13752  -0.00098   0.00000  -0.00128  -0.00129   2.13623
    A2        2.14281  -0.00125   0.00000  -0.00362  -0.00364   2.13917
    A3        2.00104   0.00225   0.00000   0.00544   0.00543   2.00647
    A4        2.11912   0.00009   0.00000   0.00387   0.00338   2.12251
    A5        2.05303   0.00016   0.00000   0.01080   0.01029   2.06333
    A6        2.01368   0.00001   0.00000   0.00922   0.00871   2.02239
    A7        1.90692  -0.00061   0.00000  -0.00353  -0.00355   1.90337
    A8        1.96862  -0.00007   0.00000   0.00259   0.00260   1.97122
    A9        1.87900  -0.00026   0.00000  -0.00914  -0.00916   1.86985
   A10        1.89743   0.00106   0.00000   0.00576   0.00575   1.90319
   A11        1.90690  -0.00022   0.00000  -0.00208  -0.00213   1.90477
   A12        1.90427   0.00008   0.00000   0.00615   0.00616   1.91042
   A13        1.94570   0.00116   0.00000   0.00643   0.00643   1.95213
   A14        2.18723  -0.00182   0.00000  -0.00959  -0.00959   2.17764
   A15        2.14973   0.00065   0.00000   0.00309   0.00308   2.15281
   A16        1.84970   0.00261   0.00000   0.01156   0.01156   1.86126
   A17        1.96837   0.00067   0.00000   0.00397   0.00397   1.97233
   A18        1.89393  -0.00090   0.00000  -0.00856  -0.00877   1.88516
   A19        1.91810  -0.00259   0.00000  -0.03094  -0.03101   1.88709
   A20        1.90354   0.00113   0.00000   0.02623   0.02617   1.92972
   A21        1.91643   0.00139   0.00000   0.00982   0.00972   1.92615
   A22        1.86011   0.00029   0.00000  -0.00046  -0.00093   1.85918
   A23        2.32418   0.00239   0.00000   0.01252   0.01251   2.33669
   A24        2.13396  -0.00296   0.00000  -0.01444  -0.01444   2.11953
   A25        1.82494   0.00057   0.00000   0.00187   0.00187   1.82681
   A26        1.93771  -0.00108   0.00000  -0.00386  -0.00386   1.93385
   A27        2.20286   0.00366   0.00000   0.02315   0.02315   2.22601
   A28        2.14258  -0.00258   0.00000  -0.01929  -0.01929   2.12329
   A29        1.83324   0.00224   0.00000   0.00798   0.00797   1.84121
   A30        1.94874   0.00008   0.00000  -0.00207  -0.00207   1.94667
   A31        2.19938  -0.00001   0.00000   0.00298   0.00298   2.20236
   A32        2.13506  -0.00006   0.00000  -0.00091  -0.00091   2.13415
   A33        1.88015  -0.00181   0.00000  -0.00392  -0.00392   1.87623
   A34        2.19401   0.00151   0.00000   0.00575   0.00575   2.19976
   A35        2.20902   0.00030   0.00000  -0.00183  -0.00183   2.20719
   A36        1.96585  -0.00223   0.00000  -0.01075  -0.01076   1.95510
   A37        1.91474   0.00132   0.00000   0.01112   0.01114   1.92588
   A38        1.88911   0.00054   0.00000  -0.00062  -0.00065   1.88847
   A39        1.92621   0.00052   0.00000   0.00727   0.00730   1.93351
   A40        1.89900   0.00065   0.00000   0.00014   0.00011   1.89912
   A41        1.86576  -0.00074   0.00000  -0.00733  -0.00733   1.85843
   A42        1.90467   0.00125   0.00000   0.01041   0.01034   1.91501
   A43        1.90662  -0.00070   0.00000  -0.00266  -0.00283   1.90379
   A44        1.89545  -0.00025   0.00000  -0.00777  -0.00778   1.88767
   A45        1.98457   0.00083   0.00000   0.01439   0.01435   1.99891
   A46        1.90074  -0.00070   0.00000  -0.00219  -0.00214   1.89861
   A47        1.86982  -0.00051   0.00000  -0.01358  -0.01361   1.85621
   A48        1.91673  -0.00032   0.00000  -0.00029  -0.00029   1.91644
   A49        1.91952  -0.00064   0.00000  -0.00585  -0.00585   1.91367
   A50        1.84707   0.00055   0.00000   0.00212   0.00211   1.84919
    D1       -0.25950   0.00141   0.00000   0.09166   0.09172  -0.16778
    D2       -2.92009   0.00078   0.00000   0.03384   0.03379  -2.88629
    D3        2.94530   0.00102   0.00000   0.08242   0.08247   3.02777
    D4        0.28471   0.00040   0.00000   0.02460   0.02454   0.30925
    D5        0.47831  -0.00039   0.00000  -0.02233  -0.02231   0.45600
    D6        2.63126  -0.00031   0.00000  -0.01232  -0.01232   2.61894
    D7       -1.62201  -0.00017   0.00000  -0.01536  -0.01537  -1.63738
    D8       -2.72670   0.00001   0.00000  -0.01296  -0.01295  -2.73965
    D9       -0.57374   0.00008   0.00000  -0.00295  -0.00296  -0.57670
   D10        1.45617   0.00022   0.00000  -0.00599  -0.00600   1.45016
   D11       -1.91871  -0.00011   0.00000  -0.09034  -0.09038  -2.00909
   D12        2.25210  -0.00098   0.00000  -0.09688  -0.09691   2.15519
   D13        0.15031  -0.00086   0.00000  -0.09999  -0.10000   0.05031
   D14        0.75199   0.00054   0.00000  -0.03328  -0.03327   0.71872
   D15       -1.36038  -0.00034   0.00000  -0.03983  -0.03980  -1.40018
   D16        2.82101  -0.00021   0.00000  -0.04293  -0.04289   2.77812
   D17        2.87587  -0.00019   0.00000   0.01138   0.01138   2.88725
   D18       -0.29971  -0.00028   0.00000   0.00905   0.00906  -0.29065
   D19       -1.25218   0.00002   0.00000   0.01602   0.01602  -1.23616
   D20        1.85543  -0.00007   0.00000   0.01370   0.01370   1.86913
   D21        0.82433   0.00060   0.00000   0.02563   0.02562   0.84995
   D22       -2.35125   0.00051   0.00000   0.02331   0.02330  -2.32795
   D23       -1.15020   0.00019   0.00000   0.01129   0.01125  -1.13895
   D24        3.02208  -0.00104   0.00000  -0.01841  -0.01829   3.00378
   D25        0.99436   0.00056   0.00000   0.00405   0.00399   0.99835
   D26        3.01521   0.00027   0.00000   0.01005   0.01001   3.02522
   D27        0.90431  -0.00096   0.00000  -0.01965  -0.01953   0.88477
   D28       -1.12341   0.00063   0.00000   0.00282   0.00275  -1.12067
   D29        0.93706  -0.00012   0.00000   0.00562   0.00557   0.94263
   D30       -1.17385  -0.00136   0.00000  -0.02408  -0.02397  -1.19783
   D31        3.08161   0.00024   0.00000  -0.00161  -0.00169   3.07992
   D32        3.11416  -0.00022   0.00000  -0.00632  -0.00633   3.10784
   D33        0.00570  -0.00008   0.00000  -0.00376  -0.00375   0.00195
   D34       -0.06843  -0.00111   0.00000  -0.09242  -0.09251  -0.16094
   D35        3.09122  -0.00103   0.00000  -0.08843  -0.08852   3.00270
   D36        2.03699  -0.00103   0.00000  -0.08250  -0.08251   1.95448
   D37       -1.08655  -0.00095   0.00000  -0.07851  -0.07852  -1.16507
   D38       -2.21392   0.00075   0.00000  -0.06245  -0.06235  -2.27627
   D39        0.94573   0.00083   0.00000  -0.05846  -0.05836   0.88736
   D40       -3.12642   0.00016   0.00000   0.00482   0.00485  -3.12157
   D41        0.02484  -0.00026   0.00000   0.00439   0.00440   0.02924
   D42       -0.00060   0.00006   0.00000   0.00118   0.00119   0.00058
   D43       -3.13253  -0.00036   0.00000   0.00075   0.00074  -3.13179
   D44        3.12876  -0.00009   0.00000  -0.00471  -0.00467   3.12408
   D45       -0.01001  -0.00003   0.00000  -0.00428  -0.00425  -0.01426
   D46        0.00077  -0.00006   0.00000  -0.00186  -0.00186  -0.00109
   D47       -3.13800   0.00000   0.00000  -0.00142  -0.00143  -3.13943
   D48        0.00019  -0.00004   0.00000  -0.00003  -0.00003   0.00017
   D49        3.13251   0.00040   0.00000   0.00065   0.00066   3.13317
   D50        0.00032   0.00001   0.00000  -0.00120  -0.00121  -0.00089
   D51        3.14077   0.00000   0.00000   0.00055   0.00055   3.14132
   D52       -0.00070   0.00003   0.00000   0.00198   0.00199   0.00128
   D53        3.13803  -0.00003   0.00000   0.00156   0.00158   3.13961
   D54       -3.14120   0.00004   0.00000   0.00031   0.00031  -3.14090
   D55       -0.00247  -0.00002   0.00000  -0.00011  -0.00011  -0.00257
   D56       -3.12449   0.00103   0.00000   0.05219   0.05218  -3.07230
   D57        0.97919  -0.00038   0.00000   0.02901   0.02903   1.00821
   D58       -1.05467   0.00076   0.00000   0.05102   0.05098  -1.00369
   D59        1.01214   0.00052   0.00000   0.04006   0.04006   1.05221
   D60       -1.16737  -0.00089   0.00000   0.01688   0.01691  -1.15046
   D61        3.08196   0.00025   0.00000   0.03889   0.03886   3.12082
   D62       -1.02987   0.00074   0.00000   0.04469   0.04470  -0.98516
   D63        3.07381  -0.00067   0.00000   0.02151   0.02155   3.09535
   D64        1.03995   0.00046   0.00000   0.04352   0.04350   1.08345
   D65       -1.22649  -0.00017   0.00000  -0.01266  -0.01272  -1.23921
   D66        3.03078  -0.00028   0.00000  -0.01167  -0.01173   3.01905
   D67        0.90677   0.00042   0.00000   0.00147   0.00155   0.90831
   D68       -1.11915   0.00031   0.00000   0.00246   0.00254  -1.11661
   D69        2.99019  -0.00018   0.00000  -0.00803  -0.00805   2.98214
   D70        0.96427  -0.00029   0.00000  -0.00704  -0.00706   0.95722
         Item               Value     Threshold  Converged?
 Maximum Force            0.013905     0.000450     NO 
 RMS     Force            0.002406     0.000300     NO 
 Maximum Displacement     0.414688     0.001800     NO 
 RMS     Displacement     0.109039     0.001200     NO 
 Predicted change in Energy=-1.613243D-03
 GradGradGradGradGradGradGradGradGradGradGradGradGradGradGradGradGradGrad

                          Input orientation:                          
 ---------------------------------------------------------------------
 Center     Atomic      Atomic             Coordinates (Angstroms)
 Number     Number       Type             X           Y           Z
 ---------------------------------------------------------------------
      1          8           0        0.783638    0.671514    1.530749
      2          6           0        1.130334    0.096641    0.503532
      3          7           0        0.302766   -0.761195   -0.172900
      4          6           0       -0.953887   -1.200828    0.387909
      5          6           0       -0.890711   -2.702560    0.632981
      6          8           0       -1.891186   -3.122996    1.434192
      7          8           0       -0.071842   -3.448534    0.143059
      8          6           0       -2.161547   -0.889224   -0.523066
      9          6           0       -2.402323    0.576510   -0.693197
     10          6           0       -1.887272    1.703201   -0.095141
     11          7           0       -2.476031    2.843977   -0.607998
     12          6           0       -3.337281    2.421380   -1.504977
     13          7           0       -3.334710    1.055496   -1.599852
     14          6           0        2.478665    0.337820   -0.153103
     15          6           0        3.529443    0.804838    0.851713
     16          7           0        4.779778    1.112314    0.152659
     17          1           0        0.710617   -1.367903   -0.870684
     18          1           0       -1.077102   -0.686531    1.344549
     19          1           0       -1.797376   -4.087398    1.514063
     20          1           0       -3.045309   -1.377710   -0.093790
     21          1           0       -1.985125   -1.363722   -1.499060
     22          1           0       -1.122943    1.753123    0.667077
     23          1           0       -3.983046    3.041026   -2.111471
     24          1           0       -3.907009    0.496360   -2.213465
     25          1           0        2.815347   -0.566449   -0.676923
     26          1           0        2.352956    1.112513   -0.919139
     27          1           0        3.624995    0.050293    1.650332
     28          1           0        3.161268    1.715269    1.331066
     29          1           0        5.214820    0.250752   -0.171028
     30          1           0        5.440095    1.531935    0.801913
 ---------------------------------------------------------------------
                    Distance matrix (angstroms):
                    1          2          3          4          5
     1  O    0.000000
     2  C    1.227131   0.000000
     3  N    2.277348   1.370515   0.000000
     4  C    2.798346   2.457798   1.444631   0.000000
     5  C    3.872183   3.454982   2.417173   1.522908   0.000000
     6  O    4.643524   4.512402   3.601981   2.380749   1.348946
     7  O    4.430838   3.760776   2.731657   2.426961   1.211218
     8  C    3.915121   3.586407   2.492357   1.544479   2.497930
     9  C    3.886556   3.760599   3.062299   2.534895   3.846560
    10  C    3.292667   3.470646   3.297811   3.088353   4.575371
    11  N    4.463102   4.667893   4.572559   4.434997   5.900622
    12  C    5.409218   5.422002   5.015292   4.731171   6.067234
    13  N    5.187379   5.027946   4.309036   3.835428   5.008159
    14  C    2.412431   1.518991   2.437778   3.800335   4.605923
    15  C    2.831661   2.525569   3.730112   4.933362   5.646896
    16  N    4.250009   3.804359   4.864121   6.187155   6.851162
    17  H    3.151418   2.051712   1.010613   2.093453   2.570324
    18  H    2.311128   2.488662   2.052379   1.093088   2.146029
    19  H    5.413793   5.205655   4.280194   3.211228   1.875133
    20  H    4.636732   4.468389   3.405283   2.153455   2.631676
    21  H    4.581264   3.981095   2.712228   2.156534   2.745147
    22  H    2.356026   2.801417   3.009984   2.971925   4.461861
    23  H    6.449933   6.454014   6.048399   5.780660   7.076958
    24  H    6.004330   5.737305   4.844332   4.285851   5.237690
    25  H    3.245644   2.161581   2.570025   3.967799   4.473665
    26  H    2.942650   2.133259   2.875924   4.242067   5.242636
    27  H    2.910932   2.746022   3.875551   4.911739   5.385611
    28  H    2.604308   2.725703   4.070113   5.131049   6.035152
    29  H    4.765339   4.142681   5.015209   6.361795   6.829786
    30  H    4.791046   4.552268   5.709717   6.965802   7.618306
                    6          7          8          9         10
     6  O    0.000000
     7  O    2.254554   0.000000
     8  C    2.982228   3.370557   0.000000
     9  C    4.298068   4.725617   1.495091   0.000000
    10  C    5.062711   5.467440   2.641782   1.375638   0.000000
    11  N    6.333826   6.777899   3.747387   2.270264   1.382401
    12  C    6.439721   6.916286   3.647821   2.221863   2.146147
    13  N    5.361807   5.828408   2.513507   1.385927   2.186036
    14  C    5.795890   4.574852   4.813946   4.916576   4.574825
    15  C    6.719403   5.618062   6.094853   6.133900   5.571749
    16  N    8.005120   6.658803   7.255671   7.251562   6.697769
    17  H    3.893864   2.443142   2.932456   3.674594   4.096604
    18  H    2.570434   3.175341   2.169122   2.739324   2.905151
    19  H    0.972241   2.294617   3.809308   5.195190   6.010712
    20  H    2.590897   3.631242   1.097238   2.142825   3.291362
    21  H    3.421672   3.271644   1.099472   2.141955   3.374400
    22  H    4.995518   5.332602   3.078496   2.207165   1.080586
    23  H    7.412339   7.905366   4.613866   3.253309   3.201193
    24  H    5.519844   5.985307   2.797129   2.140494   3.165928
    25  H    5.757099   4.161087   4.989723   5.341414   5.253989
    26  H    6.441308   5.273619   4.954247   4.790723   4.359749
    27  H    6.367475   5.308509   6.252234   6.488267   6.013640
    28  H    6.996194   6.207191   6.209150   6.028927   5.246138
    29  H    8.028339   6.460043   7.472233   7.641966   7.249488
    30  H    8.707229   7.457923   8.087184   8.040630   7.384060
                   11         12         13         14         15
    11  N    0.000000
    12  C    1.313359   0.000000
    13  N    2.218055   1.369177   0.000000
    14  C    5.571065   6.324082   6.033529   0.000000
    15  C    6.508038   7.437681   7.293120   1.527054   0.000000
    16  N    7.498268   8.387375   8.301774   2.447132   1.465114
    17  H    5.288068   5.580902   4.771710   2.559377   3.953889
    18  H    4.270121   4.784069   4.098896   3.991958   4.866962
    19  H    7.280638   7.338263   6.205580   6.375462   7.262760
    20  H    4.290820   4.063223   2.876190   5.784535   6.991770
    21  H    4.328939   4.019372   2.772030   4.963090   6.374892
    22  H    2.155603   3.172960   3.243079   3.955674   4.751634
    23  H    2.137838   1.081115   2.150447   7.272980   8.379647
    24  H    3.183791   2.128907   1.008305   6.711710   8.049304
    25  H    6.295589   6.889676   6.426952   1.097928   2.174187
    26  H    5.139445   5.868146   5.728539   1.096706   2.148187
    27  H    7.080060   8.003207   7.746717   2.156182   1.102841
    28  H    6.067379   7.125508   7.157046   2.136836   1.092802
    29  H    8.128035   8.923535   8.705379   2.737599   2.047806
    30  H    8.147046   9.118947   9.110032   3.332872   2.044931
                   16         17         18         19         20
    16  N    0.000000
    17  H    4.874094   0.000000
    18  H    6.241754   2.927023   0.000000
    19  H    8.494080   4.401443   3.480435   0.000000
    20  H    8.215410   3.835445   2.533848   3.388943   0.000000
    21  H    7.390727   2.768013   3.060916   4.066027   1.760390
    22  H    5.959646   3.932868   2.532387   5.940028   3.751870
    23  H    9.253827   6.558100   5.855192   8.290723   4.947284
    24  H    9.024313   5.157616   4.697559   6.273424   2.957649
    25  H    2.713935   2.260478   4.387702   6.202799   5.945206
    26  H    2.652965   2.975246   4.486217   7.084123   6.001973
    27  H    2.168971   4.106142   4.769291   6.822109   7.040889
    28  H    2.090879   4.512133   4.871612   7.634957   7.079430
    29  H    1.018001   4.837087   6.539400   8.416054   8.419476
    30  H    1.016676   5.794360   6.905788   9.190487   9.015010
                   21         22         23         24         25
    21  H    0.000000
    22  H    3.892329   0.000000
    23  H    4.875299   4.190371   0.000000
    24  H    2.768378   4.198570   2.547844   0.000000
    25  H    4.935189   4.764124   7.828790   6.977148   0.000000
    26  H    5.028617   3.874059   6.729468   6.422000   1.758235
    27  H    6.587227   5.139002   8.998774   8.476968   2.540082
    28  H    6.631376   4.335525   8.040517   8.000623   3.059071
    29  H    7.497293   6.567098   9.805697   9.350916   2.584805
    30  H    8.295372   6.568149   9.978014   9.875894   3.671440
                   26         27         28         29         30
    26  H    0.000000
    27  H    3.057544   0.000000
    28  H    2.465787   1.757588   0.000000
    29  H    3.081001   2.425917   2.935672   0.000000
    30  H    3.559265   2.491919   2.346629   1.624436   0.000000
 Symmetry turned off by external request.
 Stoichiometry    C9H14N4O3
 Framework group  C1[X(C9H14N4O3)]
 Deg. of freedom    84
 Full point group                 C1      NOp   1
 Rotational constants (GHZ):      0.5474683      0.3463029      0.2317557
 Standard basis: 6-31G(d,p) (6D, 7F)
   310 basis functions,   546 primitive gaussians,   310 cartesian basis functions
    60 alpha electrons       60 beta electrons
       nuclear repulsion energy      1107.4420251076 Hartrees.
 NAtoms=   30 NActive=   30 NUniq=   30 SFac= 1.00D+00 NAtFMM=   60 NAOKFM=F Big=F
 Integral buffers will be    131072 words long.
 Raffenetti 2 integral format.
 Two-electron integral symmetry is turned off.
 Nuclear repulsion after empirical dispersion term =     1107.3888931161 Hartrees.
 One-electron integrals computed using PRISM.
 NBasis=   310 RedAO= T EigKep=  1.15D-03  NBF=   310
 NBsUse=   310 1.00D-06 EigRej= -1.00D+00 NBFU=   310
 Initial guess from the checkpoint file:  "conf-422.chk"
 B after Tr=     0.000665   -0.028904    0.010971
[...]
 02443,-0.00000483,-0.00002119,0.00000118,0.00000357,0.00000588,-0.0000
 0413,-0.00001142,0.00000395,0.00002179,0.00000668,0.00002606,-0.000142
 82,0.00010123,-0.00010569,0.00001686,-0.00001237,0.00004055,-0.0000320
 0,-0.00021136,0.00031307,0.00038706,-0.00043453,-0.00049398,0.00001972
 ,0.00112494,0.00010996,0.00057948,-0.00006095,0.00072241,0.11577942,0.
 18151722,0.00003068,0.00015602,0.00005902,-0.00016795,-0.00028174,-0.0
 0018282,0.00038503,0.00018793,0.00005561,-0.00031955,-0.00015568,-0.00
 003919,-0.00009206,0.00034466,0.00017139,0.00007219,-0.00006271,0.0000
 0023,0.00011797,-0.00019248,-0.00012005,0.00104247,-0.00018970,0.00050
 060,-0.00015889,-0.01564599,-0.00881708,-0.00389106,0.00143987,-0.0024
 4921,-0.00233828,0.00146134,0.00406652,0.00666133,0.00104785,-0.000851
 46,-0.16722294,-0.14039769,-0.21595040,0.00002728,0.00003438,0.0000088
 1,-0.00002591,-0.00001203,-0.00001639,0.00002700,0.00002383,-0.0000178
 1,0.00001560,-0.00001074,0.00004619,0.00003080,-0.00004664,0.00002637,
 -0.00000560,0.00002047,-0.00001831,0.00002203,0.00057334,-0.00041979,-
 0.00017446,0.00016348,0.00003894,-0.00094645,-0.00088247,0.00084112,0.
 00046013,-0.00003112,-0.00056752,0.16642589,0.15246056,0.22361803,-0.0
 0546338,-0.00282705,0.00472673,-0.00380004,0.02864411,0.01188125,-0.00
 009127,-0.00139154,-0.00076075,0.00047003,-0.00044258,-0.00031784,-0.0
 0031574,0.00026317,0.00022943,0.00009380,-0.00007294,-0.00008232,0.000
 20559,-0.00012794,-0.00010335,0.00010673,0.00004295,-0.00004417,0.0000
 5340,0.00005145,0.00003591,0.00002228,0.00002139,0.00010563,-0.0000338
 5,-0.00002569,-0.00002564,-0.00001260,0.00000861,-0.00002044,-0.000051
 61,-0.00002179,-0.00008040,-0.07671281,0.06493705,0.03593279,0.0077836
 1,-0.02148463,-0.01160237,0.00216774,0.00043537,-0.00000517,-0.0020619
 4,-0.00101566,-0.00004190,0.00040421,0.00026725,0.00010079,-0.00002241
 ,-0.00001050,0.00001696,0.00002553,-0.00002158,0.00001637,-0.00003642,
 -0.00001443,-0.00003079,0.00011788,-0.00007663,-0.00001041,-0.00000735
 ,-0.00000252,-0.00000791,-0.00000699,0.00001066,0.00000469,0.08191286,
 -0.00091819,0.00073779,0.00204261,-0.00417680,0.00389016,0.00257682,-0
 .00049223,0.00001173,0.00055990,0.00036671,0.00060559,-0.00004298,0.00
 015733,-0.00010107,-0.00006942,-0.00004904,0.00001656,0.00003258,-0.00
 005951,0.00008101,0.00005752,-0.00000902,-0.00001894,-0.00002767,-0.00
 003634,-0.00004918,-0.00003260,-0.00000559,-0.00001250,-0.00006070,0.0
 0004565,0.00004281,0.00001319,-0.00001574,-0.00001720,-0.00001815,0.00
 004327,0.00003721,0.00008138,0.06731498,-0.21976853,-0.09905069,0.0035
 5701,-0.00887339,-0.00483125,0.00017893,0.00072872,0.00071390,-0.00013
 083,0.00061816,0.00034038,-0.00007147,0.00003196,0.00013413,0.00000382
 ,-0.00000089,-0.00001136,0.00000844,0.00001539,0.00000014,0.00001133,0
 .00002040,0.00001955,-0.00005411,-0.00000786,0.00003386,0.00000421,0.0
 0000037,0.00000433,0.00000860,-0.00000808,-0.00000739,-0.06990866,0.23
 899794,0.00430752,0.00120709,-0.00099457,0.00259064,-0.01416484,-0.010
 24793,-0.00143529,0.00037160,0.00048523,0.00005456,0.00062135,-0.00025
 864,0.00035822,-0.00017720,-0.00018660,-0.00012587,0.00001043,0.000105
 27,-0.00026775,0.00008274,0.00002452,-0.00012484,-0.00002553,0.0001060
 3,-0.00001029,-0.00003556,0.00000232,-0.00001790,-0.00002164,-0.000042
 16,0.00000119,0.00001602,0.00002082,0.00000276,0.00000604,0.00000286,0
 .00001892,0.00001826,0.00001920,0.03685420,-0.09800862,-0.10146421,0.0
 0779837,-0.01925049,-0.01094923,0.00071055,0.00125017,0.00084666,0.000
 34370,0.00006555,0.00112534,-0.00016623,-0.00008256,0.00002607,0.00002
 972,0.00001570,-0.00001009,-0.00003639,0.00001135,-0.00003512,0.000018
 91,-0.00000281,0.00001444,-0.00003924,0.00004018,-0.00003282,0.0000016
 5,0.00000254,0.00000178,0.00000124,-0.00000583,0.00000632,-0.04000643,
 0.11039952,0.11125436,-0.00274572,0.00271044,-0.00106925,0.00604851,-0
 .02366948,0.02173742,-0.00220530,0.00086907,-0.00123970,-0.00034977,0.
 00087221,-0.00103502,0.00020029,0.00025759,-0.00016217,-0.00004604,-0.
 00004486,0.00004098,0.00000165,-0.00014961,0.00001893,-0.00028496,-0.0
 0026816,0.00037232,0.00002188,-0.00019326,-0.00008079,0.00018267,0.000
 06370,0.00003147,-0.00001459,0.00011293,-0.00012021,-0.00004379,0.0000
 5394,-0.00002989,0.00003956,0.00002950,0.00002884,-0.04872026,0.022502
 28,-0.01949702,-0.00415123,0.01720968,-0.01814154,0.00181987,0.0006970
 9,0.00104745,-0.00003943,-0.00041171,0.00055309,0.00006584,0.00009857,
 0.00003610,0.00000769,0.00001431,-0.00001509,-0.00016849,0.00007145,-0
 .00009997,0.00000551,0.00000414,-0.00000197,0.00003729,-0.00011423,0.0
 0009860,-0.00000611,0.00000473,0.00000083,-0.00001509,-0.00001622,0.00
 001738,-0.00150413,0.00795867,-0.00759566,0.05384486,0.00058979,-0.000
 43565,-0.00085278,-0.00050871,-0.00425868,0.00300747,-0.00112543,0.000
 89997,-0.00031060,-0.00037705,0.00019284,-0.00034825,0.00017425,-0.000
 02033,-0.00007651,-0.00005385,0.00000301,0.00003940,-0.00010681,0.0000
 2732,-0.00000933,-0.00008875,-0.00004293,0.00015824,-0.00000996,-0.000
 05775,0.00000616,0.00000504,0.00001625,0.00002769,-0.00002193,-0.00000
 277,-0.00000938,0.00000168,0.00002274,0.00000895,0.00001175,0.00000795
 ,-0.00004871,0.02705839,-0.17961357,0.12927109,-0.00216727,0.00814088,
 -0.00819839,0.00073203,0.00006899,-0.00028099,0.00028939,-0.00050151,0
 .00074287,0.00000962,-0.00000712,-0.00001330,0.00001228,0.00000872,-0.
 00000026,-0.00003093,0.00001688,-0.00003859,-0.00001007,-0.00001965,-0
 .00001345,-0.00005043,0.00002832,-0.00003998,-0.00000191,0.00000352,0.
 00000238,-0.00001890,-0.00000457,0.00001267,0.00325005,-0.01904337,0.0
 1827008,-0.02607201,0.19311102,0.00223316,-0.00159362,0.00100951,-0.00
 158976,0.01027729,-0.01165544,-0.00042784,-0.00073496,0.00024775,0.000
 46883,-0.00004261,0.00011083,-0.00005473,-0.00000774,0.00004642,-0.000
 02647,-0.00005667,0.00003387,-0.00002807,-0.00001000,0.00001043,-0.000
 00830,0.00004479,-0.00007089,0.00003446,0.00004543,0.00003730,-0.00005
 259,-0.00003940,-0.00001652,-0.00001414,-0.00004909,0.00003973,0.00002
 220,0.00000399,0.00002819,-0.00003104,-0.00002779,-0.00004346,-0.02370
 810,0.12962355,-0.16884726,-0.00506367,0.01644567,-0.01898400,0.001797
 19,-0.00025166,0.00225824,0.00000592,-0.00003663,0.00008441,-0.0000749
 1,-0.00007049,-0.00002744,-0.00000791,-0.00000342,-0.00000263,0.000004
 04,-0.00002530,0.00000762,0.00000704,-0.00001003,0.00000206,0.00003352
 ,0.00006868,-0.00006228,-0.00000118,0.00000168,-0.00000066,0.00000330,
 0.00000328,0.00000344,0.00177943,-0.01171627,0.01148868,0.02696454,-0.
 13988917,0.18597104,-0.00004467,-0.00004486,0.00128232,0.00161470,0.00
 059929,-0.00236172,-0.00048317,-0.00034338,0.00028520,0.00013530,0.000
 01060,-0.00010695,-0.00003450,0.00011721,-0.00004725,-0.00003002,-0.00
 007127,0.00004923,0.00001442,-0.00007305,0.00003886,-0.00003491,-0.000
 00964,0.00001853,0.00001148,0.00001071,0.00002215,-0.00001584,-0.00001
 473,0.00000879,-0.00002163,-0.00000285,0.00001066,0.00000846,-0.000000
 02,0.00000316,-0.00001866,-0.00000541,-0.00000880,-0.00511771,0.016603
 09,-0.01607846,-0.05803374,0.02979613,-0.02768834,-0.00436099,-0.02532
 365,0.02800774,0.00003648,0.00016563,-0.00002801,-0.00002415,0.0000091
 3,0.00001480,-0.00000537,-0.00000270,-0.00000789,-0.00002459,0.0000011
 6,-0.00000590,0.00001220,0.00000449,0.00000289,0.00002208,0.00000828,-
 0.00002211,-0.00000028,0.00000017,-0.00000375,0.00001341,0.00000161,0.
 00000051,0.00089859,-0.00049341,0.00074794,-0.00340595,-0.00208570,-0.
 00330809,0.06648855,-0.00013379,0.00040482,-0.00096733,0.00001664,0.00
 075015,0.00104866,0.00028074,-0.00017169,-0.00018630,0.00003409,0.0000
 2736,0.00004165,0.00003986,-0.00004314,0.00003849,-0.00000911,0.000015
 81,-0.00003052,-0.00002996,0.00001891,-0.00002868,0.00002347,-0.000005
 02,-0.00000689,-0.00000003,-0.00001307,-0.00000051,-0.00000154,-0.0000
 0410,-0.00000025,0.00001775,0.00002271,-0.00000800,-0.00001459,-0.0000
 0303,-0.00001968,0.00000944,0.00002031,0.00001124,-0.00272115,0.007417
 68,-0.00882908,0.03229788,-0.17080344,0.11096377,-0.00688972,-0.002695
 54,0.00859942,-0.00003135,-0.00007171,0.00001629,0.00001854,-0.0000110
 9,0.00000506,0.00001504,0.00000689,0.00001426,0.00000395,0.00000449,0.
 00000156,-0.00000540,0.00000411,-0.00000513,-0.00000553,-0.00002724,0.
 00000715,-0.00000317,0.00000022,0.00000026,-0.00000288,-0.00000251,0.0
 0000611,0.00059629,0.00105931,0.00044958,-0.00225146,0.00045095,-0.001
 94033,-0.02579605,0.18117519,-0.00024462,0.00023522,0.00131612,0.00141
 465,-0.00003312,-0.00203638,-0.00048962,-0.00034742,0.00044409,0.00009
 410,-0.00007814,-0.00009922,-0.00018110,0.00019210,-0.00000179,0.00003
 186,-0.00007183,0.00002192,0.00012848,-0.00012266,0.00004491,-0.000037
 65,-0.00000874,0.00000825,0.00000934,0.00001612,0.00001532,-0.00002192
 ,-0.00000062,-0.00000480,-0.00001492,-0.00001334,0.00002144,0.00001083
 ,-0.00000396,0.00000616,-0.00001088,-0.00000804,0.00000683,-0.00774049
 ,0.01548969,-0.01545960,-0.02960027,0.11019697,-0.16089571,0.00886707,
 0.01304102,-0.01264763,-0.00001473,0.00021777,-0.00013516,-0.00002670,
 0.00002248,0.00001074,-0.00002896,-0.00001292,-0.00001136,-0.00002026,
 -0.00000013,-0.00000280,0.00001280,0.00000556,0.00000625,0.00000637,0.
 00000028,-0.00001561,0.00000434,-0.00000100,-0.00000237,0.00001341,0.0
 0000450,-0.00000697,0.00101363,0.00017497,0.00064365,-0.00289998,-0.00
 145192,-0.00227846,0.02769521,-0.12732670,0.17918263,-0.00143949,0.000
 85407,0.00099148,0.00075101,-0.00195597,-0.00179546,0.00039041,0.00073
 119,0.00094073,-0.00022665,0.00011459,0.00021150,0.00006390,-0.0001474
 1,-0.00000478,0.00000165,0.00005769,-0.00000686,-0.00005250,0.00009287
 ,0.00001154,0.00000772,0.00000036,-0.00002071,-0.00001748,-0.00001058,
 -0.00001905,-0.00002026,0.00000123,-0.00004966,0.00002688,-0.00000270,
 0.00002198,0.00000686,-0.00000566,0.00000970,0.00002918,0.00000710,0.0
 0004156,0.00838908,-0.02008149,-0.01152696,-0.07895537,0.07499846,0.04
 002859,-0.01522228,0.02321677,0.01806340,0.00046949,0.00020709,-0.0000
 2331,-0.00013381,-0.00009323,-0.00002287,0.00000092,-0.00000139,-0.000
 00155,0.00001747,0.00000091,0.00000389,0.00000607,0.00000295,0.0000074
 7,-0.00005015,0.00002178,-0.00000426,0.00000521,0.00000044,0.00000577,
 -0.00000056,-0.00000290,-0.00000492,-0.00393693,-0.00202616,-0.0033604
 8,0.00110521,0.00041999,0.00053800,-0.00072590,0.00576174,0.00199228,0
 .09415062,0.00103980,0.00174307,0.00202580,0.00147908,-0.00170192,-0.0
 0338370,0.00002258,0.00046713,0.00075282,-0.00005880,0.00003781,0.0000
 5260,0.00010187,-0.00013871,-0.00002033,-0.00003241,0.00002770,0.00002
 400,-0.00009461,0.00010301,0.00000741,0.00000251,0.00000066,-0.0000054
 1,-0.00001854,-0.00000911,-0.00001297,-0.00001999,-0.00000638,-0.00004
 032,0.00001094,0.00000257,0.00002279,0.00000635,-0.00000667,0.00000733
 ,0.00001953,0.00000890,0.00003239,0.00174921,-0.00930040,-0.00462442,0
 .07791025,-0.23334790,-0.09982378,-0.00419433,0.01103581,0.00593654,0.
 00015352,0.00018467,0.00006276,-0.00008485,-0.00005180,0.00000986,0.00
 000854,-0.00000016,-0.00000256,0.00000670,0.00000187,0.00000035,0.0000
 0834,0.00000217,0.00000994,-0.00004005,0.00002485,-0.00001077,0.000004
 32,0.00000039,0.00000296,0.00000366,-0.00000285,-0.00000442,-0.0018093
 1,0.00090965,-0.00120483,-0.00026487,0.00110444,0.00028140,0.00732012,
 -0.01904933,-0.00949183,-0.08129221,0.24580117,0.00073766,0.00144325,0
 .00049671,0.00103933,-0.00067805,-0.00087002,-0.00010726,-0.00015325,-
 0.00000418,0.00004270,0.00008996,0.00002188,0.00003137,-0.00000283,-0.
 00001688,-0.00002281,-0.00001069,0.00001582,-0.00002838,0.00000312,0.0
 0002983,0.00000141,-0.00002568,0.00000086,-0.00001097,-0.00002829,-0.0
 0001230,0.00000036,-0.00000893,-0.00002032,0.00003134,0.00003220,-0.00
 000220,-0.00001716,-0.00000625,-0.00002214,0.00002406,0.00002774,0.000
 03980,0.00497090,-0.01982739,-0.01160621,0.04119444,-0.09461948,-0.104
 06401,0.00787219,-0.01303296,-0.00954727,0.00013725,0.00012919,0.00005
 518,-0.00003873,-0.00000877,0.00002778,-0.00000029,0.00000012,-0.00000
 299,-0.00000770,0.00001293,-0.00000499,0.00000192,0.00000972,0.0000021
 3,-0.00002067,-0.00001930,0.00001846,0.00000005,0.00000032,0.00000191,
 0.00000015,-0.00000442,0.00000123,-0.00305385,-0.00127973,-0.00234058,
 0.00092786,0.00001669,0.00059661,-0.00775750,0.01936560,0.01079619,-0.
 04857286,0.10762015,0.11613471,-0.00000445,-0.00054797,-0.00099012,-0.
 00067170,-0.00021267,0.00115849,0.00013205,-0.00001910,-0.00016687,-0.
 00007686,-0.00002189,0.00003033,-0.00008424,-0.00000634,0.00006654,0.0
 0006039,0.00003506,-0.00005383,0.00006832,-0.00000444,-0.00003824,-0.0
 0000058,0.00001222,-0.00000505,0.00000525,0.00001279,-0.00000224,0.000
 00963,0.00000527,0.00000777,0.00000257,-0.00001603,-0.00000719,0.00000
 391,0.00000264,0.00000816,-0.00000291,-0.00001416,-0.00001816,0.000973
 57,0.00184990,0.00086263,-0.01472788,0.03158208,0.00977058,-0.13171087
 ,0.12936020,0.06693976,-0.00008769,-0.00006007,-0.00001961,0.00001247,
 -0.00000081,-0.00001426,-0.00000792,-0.00000550,0.00000912,0.00001113,
 -0.00000552,0.00000263,-0.00000440,-0.00000751,-0.00000274,0.00000150,
 0.00001231,0.00000523,-0.00000148,-0.00000041,0.00000165,-0.00000950,0
 .00000197,0.00000085,-0.00054034,-0.00110481,-0.00075551,-0.00007553,0
 .00000915,0.00006956,0.00181300,-0.00089306,-0.00017274,-0.00522481,-0
 .00279779,0.00285716,0.13853938,-0.00020383,-0.00005457,0.00007833,0.0
 0008595,0.00007989,0.00006124,0.00010964,-0.00001332,-0.00001261,-0.00
 004220,0.00000672,0.00001931,-0.00004608,-0.00001095,0.00002537,0.0000
 3520,0.00002254,-0.00002098,0.00004260,0.00000488,-0.00000011,0.000000
 66,0.00000206,-0.00001336,-0.00000447,0.00000449,-0.00000817,-0.000004
 46,0.00000210,-0.00000953,0.00001284,-0.00000112,0.00001032,-0.0000015
 9,-0.00000898,-0.00000189,0.00000869,0.00000378,0.00001591,0.00041852,
 0.00101008,0.00049697,-0.00867327,0.00680524,0.00978825,0.13173492,-0.
 30482210,-0.13954535,-0.00002763,0.00000075,-0.00003954,-0.00000005,0.
 00000195,-0.00000303,-0.00001023,-0.00000568,-0.00000159,0.00000724,-0
 .00000140,0.00000315,-0.00000019,0.00000121,0.00000401,-0.00000921,0.0
 0000024,0.00000263,0.00000253,-0.00000129,0.00000131,-0.00000060,0.000
 00100,-0.00000577,0.00051872,-0.00011422,-0.00011441,0.00007779,-0.000
 23650,-0.00007539,-0.00064852,0.00182144,0.00010823,-0.00178387,0.0013
 9989,0.00100746,-0.13378516,0.31120832,0.00015467,0.00003712,-0.000195
 74,-0.00000287,-0.00016605,-0.00003458,-0.00007339,0.00005547,-0.00005
 772,-0.00000460,-0.00002718,0.00000391,0.00001510,-0.00003121,0.000032
 02,-0.00000199,0.00001026,-0.00002189,-0.00002449,0.00001786,-0.000042
 35,0.00000675,0.00000456,0.00001308,0.00000349,-0.00000518,0.00000355,
 0.00000988,-0.00000069,0.00000514,-0.00000242,-0.00000073,-0.00001404,
 -0.00000098,0.00001054,0.00000100,-0.00000108,-0.00000354,-0.00001845,
 -0.00095597,0.00106050,0.00102308,0.01353558,-0.01607066,-0.01185896,0
 .04119805,-0.09062380,-0.05994228,-0.00002466,-0.00004679,0.00007569,0
 .00001098,-0.00000615,0.00000009,0.00001113,0.00000318,0.00001398,0.00
 000159,0.00000050,-0.00000242,-0.00000461,-0.00000517,-0.00000703,0.00
 000154,0.00000078,0.00000273,-0.00000406,0.00000136,0.00000091,-0.0000
 0821,-0.00000118,0.00000876,0.00026455,-0.00033811,0.00040295,-0.00009
 272,0.00030089,-0.00007741,-0.00139844,-0.00146618,0.00065257,0.003001
 64,0.00201346,-0.00059248,-0.06759140,0.12845595,0.08208639,-0.0000319
 9,0.00033387,0.00067291,0.00011554,-0.00102299,-0.00278331,-0.00110223
 ,-0.00023912,0.00050100,0.00015843,-0.00014982,-0.00020447,-0.00002451
 ,0.00018557,-0.00005978,-0.00006453,-0.00011592,0.00007142,-0.00001415
 ,-0.00009945,0.00002847,-0.00002529,-0.00004682,0.00005227,0.00000613,
 -0.00002728,0.00001465,-0.00000618,-0.00001038,0.00001380,-0.00000754,
 0.00003427,-0.00000188,-0.00001713,0.00000382,-0.00002668,-0.00000052,
 0.00002503,0.00000906,-0.00614746,-0.00109961,0.00572140,-0.02026598,-
 0.01125751,-0.02554858,-0.20716950,-0.11253401,-0.14114354,0.00000911,
 0.00009121,0.00005486,0.00001543,0.00001580,0.00001466,0.00000192,0.00
 000216,-0.00000330,-0.00004114,0.00001614,-0.00001963,0.00000217,0.000
 00940,-0.00000583,0.00002489,-0.00003517,-0.00001298,-0.00000228,0.000
 00108,-0.00000404,0.00000828,-0.00000273,0.00000625,0.00033556,-0.0001
 0702,0.00010181,0.00039555,0.00016628,0.00043561,0.00131339,-0.0003266
 7,0.00021047,0.00058450,0.00086045,-0.00023196,0.01159799,0.01218606,0
 .01197695,0.22035156,0.00025701,-0.00014714,0.00007367,-0.00028945,0.0
 0053577,-0.00029590,0.00033331,0.00009927,-0.00000697,-0.00004988,0.00
 000156,0.00005602,-0.00007058,-0.00003632,0.00005244,0.00006160,0.0000
 4388,-0.00003861,0.00005940,0.00001636,-0.00001284,0.00000110,0.000025
 99,-0.00002741,-0.00000035,0.00001925,-0.00000872,0.00000015,0.0000107
 7,-0.00001417,0.00000026,-0.00003549,0.00000582,0.00001620,0.00000403,
 0.00002460,-0.00000036,-0.00002519,-0.00000739,0.00012411,0.00043750,0
 .00137761,-0.00827160,-0.00603422,-0.00349237,-0.08311164,-0.09413118,
 -0.10226807,-0.00003086,-0.00002769,-0.00004576,-0.00001190,-0.0000029
 1,-0.00000808,-0.00001596,-0.00000591,-0.00000223,0.00002057,-0.000010
 74,0.00000887,-0.00000010,-0.00000824,0.00000333,-0.00001797,0.0000284
 8,0.00000593,0.00000372,-0.00000014,0.00000328,-0.00000594,0.00000367,
 -0.00000593,0.00020639,0.00021044,0.00025611,-0.00015225,0.00014060,-0
 .00021519,0.00026764,-0.00029945,-0.00073256,0.00091434,0.00075948,-0.
 00005245,-0.02338033,-0.01710644,-0.02317979,0.11314337,0.11553399,-0.
 00030500,0.00009342,0.00011915,0.00083580,-0.00003864,0.00053882,-0.00
 009337,-0.00003499,-0.00011629,0.00007788,0.00006678,-0.00006173,0.000
 06726,0.00003497,-0.00004593,-0.00004691,-0.00003052,0.00002831,-0.000
 04391,-0.00002067,0.00001600,-0.00000687,-0.00001759,0.00001868,0.0000
 0312,-0.00000891,0.00000957,0.00000396,-0.00000700,0.00001512,-0.00000
 688,0.00001957,-0.00000953,-0.00000692,-0.00000092,-0.00001192,-0.0000
 0736,0.00001048,-0.00000335,0.00148577,0.00061256,-0.00094219,0.018517
 42,0.01455760,0.00854550,-0.15921465,-0.14359345,-0.19745683,0.0000297
 9,-0.00000356,0.00002638,0.00001525,0.00001162,0.00001046,0.00001220,0
 .00000802,-0.00000121,-0.00001471,0.00000632,-0.00000463,0.00000154,0.
 00000552,-0.00000257,0.00001550,-0.00001677,-0.00000136,-0.00000307,0.
 00000021,-0.00000300,0.00000611,-0.00000195,0.00000442,0.00008557,0.00
 030153,-0.00001456,0.00020518,-0.00028294,0.00009033,0.00063523,0.0002
 4648,0.00042081,-0.00045584,-0.00023722,0.00086747,-0.01195248,-0.0002
 2671,-0.01146050,0.15016040,0.12854677,0.19942458\\-0.00000014,0.00000
 027,0.00000004,0.00000035,0.00000024,-0.00000038,0.00000039,-0.0000000
 5,0.00000009,-0.00000001,-0.00000076,0.00000039,0.00000029,0.00000012,
 0.00000031,-0.00000016,0.00000013,0.00000054,-0.00000076,0.00000010,0.
 00000016,0.00000057,-0.00000034,0.00000011,-0.00000008,-0.00000040,-0.
 00000080,-0.00000029,0.00000052,-0.00000004,0.00000028,0.00000011,-0.0
 0000025,-0.00000026,-0.00000036,-0.00000083,0.00000021,0.00000053,-0.0
 0000008,0.,-0.00000053,-0.00000025,0.,-0.00000016,0.00000028,0.0000003
 0,-0.00000015,0.00000022,0.00000006,-0.00000004,0.00000040,-0.00000030
 ,0.00000013,0.00000003,-0.00000016,0.00000026,0.00000034,-0.00000015,0
 .00000010,-0.00000011,-0.00000038,0.00000057,0.00000025,0.00000020,-0.
 00000007,-0.00000011,0.00000022,-0.00000011,-0.00000034,0.00000011,-0.
 00000013,0.,-0.00000025,0.,0.00000004,-0.00000017,-0.00000012,0.,0.,0.
 00000017,0.00000007,0.00000010,0.00000015,-0.00000013,-0.00000001,-0.0
 0000009,0.00000012,0.00000004,-0.00000009,-0.00000007\\\@


 THE WHOLE OF SCIENCE IS NOTHING MORE THAN A REFINEMENT OF EVERYDAY THINKING.
                                                              -- A. EINSTEIN
 Job cpu time:       0 days  1 hours 15 minutes 27.8 seconds.
 File lengths (MBytes):  RWF=    320 Int=      0 D2E=      0 Chk=      9 Scr=      1
 Normal termination of Gaussian 09 at Sat Jul 24 01:23:37 2021.
