 Entering Gaussian System, Link 0=g09
 Input=opt_freq-conf-599.com
 Output=opt_freq-conf-599.log
 Initial command:
 /aerosol/software/g09/l1.exe "/scratch/nicole/10376/Gau-74146.inp" -scrdir="/scratch/nicole/10376/"
 Entering Link 1 = /aerosol/software/g09/l1.exe PID=     74151.
  
 Copyright (c) 1988,1990,1992,1993,1995,1998,2003,2009,2013,
            Gaussian, Inc.  All Rights Reserved.
  
 This is part of the Gaussian(R) 09 program.  It is based on
 the Gaussian(R) 03 system (copyright 2003, Gaussian, Inc.),
 the Gaussian(R) 98 system (copyright 1998, Gaussian, Inc.),
 the Gaussian(R) 94 system (copyright 1995, Gaussian, Inc.),
 the Gaussian 92(TM) system (copyright 1992, Gaussian, Inc.),
 the Gaussian 90(TM) system (copyright 1990, Gaussian, Inc.),
 the Gaussian 88(TM) system (copyright 1988, Gaussian, Inc.),
 the Gaussian 86(TM) system (copyright 1986, Carnegie Mellon
 University), and the Gaussian 82(TM) system (copyright 1983,
 Carnegie Mellon University). Gaussian is a federally registered
 trademark of Gaussian, Inc.
  
 This software contains proprietary and confidential information,
 including trade secrets, belonging to Gaussian, Inc.
  
 This software is provided under written license and may be
 used, copied, transmitted, or stored only in accord with that
 written license.
  
 The following legend is applicable only to US Government
 contracts under FAR:
  
                    RESTRICTED RIGHTS LEGEND
  
 Use, reproduction and disclosure by the US Government is
 subject to restrictions as set forth in subparagraphs (a)
 and (c) of the Commercial Computer Software - Restricted
 Rights clause in FAR 52.227-19.
  
 Gaussian, Inc.
 340 Quinnipiac St., Bldg. 40, Wallingford CT 06492
  
  
 ---------------------------------------------------------------
 Warning -- This program may not be used in any manner that
 competes with the business of Gaussian, Inc. or will provide
 assistance to any competitor of Gaussian, Inc.  The licensee
 of this program is prohibited from giving any competitor of
 Gaussian, Inc. access to this program.  By using this program,
 the user acknowledges that Gaussian, Inc. is engaged in the
 business of creating and licensing software in the field of
 computational chemistry and represents and warrants to the
 licensee that it is not a competitor of Gaussian, Inc. and that
 it will not use this program in any manner prohibited above.
 ---------------------------------------------------------------
  

 Cite this work as:
 Gaussian 09, Revision D.01,
 M. J. Frisch, G. W. Trucks, H. B. Schlegel, G. E. Scuseria, 
 M. A. Robb, J. R. Cheeseman, G. Scalmani, V. Barone, B. Mennucci, 
 G. A. Petersson, H. Nakatsuji, M. Caricato, X. Li, H. P. Hratchian, 
 A. F. Izmaylov, J. Bloino, G. Zheng, J. L. Sonnenberg, M. Hada, 
 M. Ehara, K. Toyota, R. Fukuda, J. Hasegawa, M. Ishida, T. Nakajima, 
 Y. Honda, O. Kitao, H. Nakai, T. Vreven, J. A. Montgomery, Jr., 
 J. E. Peralta, F. Ogliaro, M. Bearpark, J. J. Heyd, E. Brothers, 
 K. N. Kudin, V. N. Staroverov, T. Keith, R. Kobayashi, J. Normand, 
 K. Raghavachari, A. Rendell, J. C. Burant, S. S. Iyengar, J. Tomasi, 
 M. Cossi, N. Rega, J. M. Millam, M. Klene, J. E. Knox, J. B. Cross, 
 V. Bakken, C. Adamo, J. Jaramillo, R. Gomperts, R. E. Stratmann, 
 O. Yazyev, A. J. Austin, R. Cammi, C. Pomelli, J. W. Ochterski, 
 R. L. Martin, K. Morokuma, V. G. Zakrzewski, G. A. Voth, 
 P. Salvador, J. J. Dannenberg, S. Dapprich, A. D. Daniels, 
 O. Farkas, J. B. Foresman, J. V. Ortiz, J. Cioslowski, 
 and D. J. Fox, Gaussian, Inc., Wallingford CT, 2013.
 
 ******************************************
 Gaussian 09:  ES64L-G09RevD.01 24-Apr-2013
                24-Jul-2021 
 ******************************************
 %mem=2gb
 %nproc=4
 Will use up to    4 processors via shared memory.
 %chk=conf-599.chk
 ----------------------------------------------------------------------
 # B3LYP/6-31G(d,p) EmpiricalDispersion=GD3BJ opt=calcfc freq=noraman n
 osymm integral(ultrafinegrid)
 ----------------------------------------------------------------------
 1/10=4,14=-1,18=20,19=15,26=4,38=1/1,3;
 2/9=110,12=2,15=1,17=6,18=5,40=1/2;
 3/5=1,6=6,7=101,11=2,16=1,25=1,30=1,71=2,74=-5,75=-5,124=41,140=1/1,2,3;
 4//1;
 5/5=2,38=5/2;
 8/6=4,10=90,11=11/1;
 11/6=1,8=1,9=11,15=111,16=1,31=1/1,2,10;
 10/6=1,13=1,31=1/2;
 6/7=2,8=2,9=2,10=2,28=1/1;
 7/10=1,18=20,25=1,30=1/1,2,3,16;
 1/10=4,14=-1,18=20,19=15,26=4/3(2);
 2/9=110,15=1/2;
 99//99;
 2/9=110,15=1/2;
 3/5=1,6=6,7=101,11=2,16=1,25=1,30=1,71=1,74=-5,75=-5,124=41/1,2,3;
 4/5=5,16=3,69=1/1;
 5/5=2,38=5/2;
 7/30=1/1,2,3,16;
 1/14=-1,18=20,19=15,26=4/3(-5);
 2/9=110,15=1/2;
 6/7=2,8=2,9=2,10=2,19=2,28=1/1;
 99/9=1/99;
 ------------------------------------------------------------
 Candidate Structure: Conf:599 OPT and FREQ calc in gas phase
 ------------------------------------------------------------
 Symbolic Z-matrix:
 Charge =  0 Multiplicity = 1
 O                     2.72597   1.58442   0.80496 
 C                     1.89025   0.7942    0.39654 
 N                     1.01823   1.17937  -0.59685 
 C                    -0.22342   0.51242  -0.94559 
 C                    -0.35346   0.36518  -2.47029 
 O                     0.79938   0.38118  -3.14534 
 O                    -1.40833   0.21685  -3.03333 
 C                    -1.43812   1.22132  -0.31345 
 C                    -2.59983   0.32156  -0.04955 
 C                    -3.27608   0.03772   1.09941 
 N                    -4.28908  -0.87107   0.85532 
 C                    -4.21717  -1.12742  -0.42721 
 N                    -3.2084   -0.43415  -1.01823 
 C                     1.79286  -0.63724   0.89213 
 C                     2.89167  -0.97889   1.89448 
 N                     4.25342  -0.88716   1.38912 
 H                     1.0638    2.17973  -0.7571 
 H                    -0.16805  -0.50709  -0.56088 
 H                     1.5207    0.5465   -2.51517 
 H                    -1.72582   2.06197  -0.94728 
 H                    -1.14041   1.63792   0.64684 
 H                    -3.10629   0.4317    2.08936 
 H                    -4.85382  -1.7908   -0.98585 
 H                    -2.91886  -0.4383   -1.98574 
 H                     0.81068  -0.78591   1.35308 
 H                     1.8427   -1.31413   0.03058 
 H                     2.81273  -0.30246   2.7475 
 H                     2.7276   -1.99298   2.26837 
 H                     4.36042  -1.47269   0.5682 
 H                     4.41663   0.06831   1.08825 
 

 GradGradGradGradGradGradGradGradGradGradGradGradGradGradGradGradGradGrad
 Berny optimization.
 Initialization pass.
                           ----------------------------
                           !    Initial Parameters    !
                           ! (Angstroms and Degrees)  !
 --------------------------                            --------------------------
 ! Name  Definition              Value          Derivative Info.                !
 --------------------------------------------------------------------------------
 ! R1    R(1,2)                  1.2205         calculate D2E/DX2 analytically  !
 ! R2    R(2,3)                  1.3768         calculate D2E/DX2 analytically  !
 ! R3    R(2,14)                 1.5179         calculate D2E/DX2 analytically  !
 ! R4    R(3,4)                  1.4519         calculate D2E/DX2 analytically  !
 ! R5    R(3,17)                 1.0141         calculate D2E/DX2 analytically  !
 ! R6    R(4,5)                  1.5373         calculate D2E/DX2 analytically  !
 ! R7    R(4,8)                  1.542          calculate D2E/DX2 analytically  !
 ! R8    R(4,18)                 1.0911         calculate D2E/DX2 analytically  !
 ! R9    R(5,6)                  1.336          calculate D2E/DX2 analytically  !
 ! R10   R(5,7)                  1.2049         calculate D2E/DX2 analytically  !
 ! R11   R(6,19)                 0.972          calculate D2E/DX2 analytically  !
 ! R12   R(8,9)                  1.4929         calculate D2E/DX2 analytically  !
 ! R13   R(8,20)                 1.0914         calculate D2E/DX2 analytically  !
 ! R14   R(8,21)                 1.0883         calculate D2E/DX2 analytically  !
 ! R15   R(9,10)                 1.3631         calculate D2E/DX2 analytically  !
 ! R16   R(9,13)                 1.3711         calculate D2E/DX2 analytically  !
 ! R17   R(10,11)                1.3826         calculate D2E/DX2 analytically  !
 ! R18   R(10,22)                1.0789         calculate D2E/DX2 analytically  !
 ! R19   R(11,12)                1.3099         calculate D2E/DX2 analytically  !
 ! R20   R(12,13)                1.3592         calculate D2E/DX2 analytically  !
 ! R21   R(12,23)                1.0759         calculate D2E/DX2 analytically  !
 ! R22   R(13,24)                1.0099         calculate D2E/DX2 analytically  !
 ! R23   R(14,15)                1.526          calculate D2E/DX2 analytically  !
 ! R24   R(14,25)                1.0951         calculate D2E/DX2 analytically  !
 ! R25   R(14,26)                1.0968         calculate D2E/DX2 analytically  !
 ! R26   R(15,16)                1.4554         calculate D2E/DX2 analytically  !
 ! R27   R(15,27)                1.0915         calculate D2E/DX2 analytically  !
 ! R28   R(15,28)                1.0932         calculate D2E/DX2 analytically  !
 ! R29   R(16,29)                1.014          calculate D2E/DX2 analytically  !
 ! R30   R(16,30)                1.0149         calculate D2E/DX2 analytically  !
 ! A1    A(1,2,3)              119.6035         calculate D2E/DX2 analytically  !
 ! A2    A(1,2,14)             123.04           calculate D2E/DX2 analytically  !
 ! A3    A(3,2,14)             117.3065         calculate D2E/DX2 analytically  !
 ! A4    A(2,3,4)              125.904          calculate D2E/DX2 analytically  !
 ! A5    A(2,3,17)             111.1928         calculate D2E/DX2 analytically  !
 ! A6    A(4,3,17)             116.9738         calculate D2E/DX2 analytically  !
 ! A7    A(3,4,5)              110.7664         calculate D2E/DX2 analytically  !
 ! A8    A(3,4,8)              111.347          calculate D2E/DX2 analytically  !
 ! A9    A(3,4,18)             107.5253         calculate D2E/DX2 analytically  !
 ! A10   A(5,4,8)              112.5815         calculate D2E/DX2 analytically  !
 ! A11   A(5,4,18)             105.3371         calculate D2E/DX2 analytically  !
 ! A12   A(8,4,18)             108.9662         calculate D2E/DX2 analytically  !
 ! A13   A(4,5,6)              115.2759         calculate D2E/DX2 analytically  !
 ! A14   A(4,5,7)              123.32           calculate D2E/DX2 analytically  !
 ! A15   A(6,5,7)              121.3869         calculate D2E/DX2 analytically  !
 ! A16   A(5,6,19)             108.3499         calculate D2E/DX2 analytically  !
 ! A17   A(4,8,9)              114.1036         calculate D2E/DX2 analytically  !
 ! A18   A(4,8,20)             108.8859         calculate D2E/DX2 analytically  !
 ! A19   A(4,8,21)             108.7983         calculate D2E/DX2 analytically  !
 ! A20   A(9,8,20)             111.2071         calculate D2E/DX2 analytically  !
 ! A21   A(9,8,21)             106.7145         calculate D2E/DX2 analytically  !
 ! A22   A(20,8,21)            106.8403         calculate D2E/DX2 analytically  !
 ! A23   A(8,9,10)             131.3425         calculate D2E/DX2 analytically  !
 ! A24   A(8,9,13)             123.5522         calculate D2E/DX2 analytically  !
 ! A25   A(10,9,13)            105.1028         calculate D2E/DX2 analytically  !
 ! A26   A(9,10,11)            110.5822         calculate D2E/DX2 analytically  !
 ! A27   A(9,10,22)            128.2644         calculate D2E/DX2 analytically  !
 ! A28   A(11,10,22)           121.1521         calculate D2E/DX2 analytically  !
 ! A29   A(10,11,12)           105.1456         calculate D2E/DX2 analytically  !
 ! A30   A(11,12,13)           111.5099         calculate D2E/DX2 analytically  !
 ! A31   A(11,12,23)           126.6264         calculate D2E/DX2 analytically  !
 ! A32   A(13,12,23)           121.8634         calculate D2E/DX2 analytically  !
 ! A33   A(9,13,12)            107.6581         calculate D2E/DX2 analytically  !
 ! A34   A(9,13,24)            123.4952         calculate D2E/DX2 analytically  !
 ! A35   A(12,13,24)           128.8467         calculate D2E/DX2 analytically  !
 ! A36   A(2,14,15)            112.2951         calculate D2E/DX2 analytically  !
 ! A37   A(2,14,25)            108.844          calculate D2E/DX2 analytically  !
 ! A38   A(2,14,26)            108.8205         calculate D2E/DX2 analytically  !
 ! A39   A(15,14,25)           109.8114         calculate D2E/DX2 analytically  !
 ! A40   A(15,14,26)           110.1863         calculate D2E/DX2 analytically  !
 ! A41   A(25,14,26)           106.7147         calculate D2E/DX2 analytically  !
 ! A42   A(14,15,16)           115.5643         calculate D2E/DX2 analytically  !
 ! A43   A(14,15,27)           108.8135         calculate D2E/DX2 analytically  !
 ! A44   A(14,15,28)           108.9203         calculate D2E/DX2 analytically  !
 ! A45   A(16,15,27)           107.4558         calculate D2E/DX2 analytically  !
 ! A46   A(16,15,28)           108.521          calculate D2E/DX2 analytically  !
 ! A47   A(27,15,28)           107.2617         calculate D2E/DX2 analytically  !
 ! A48   A(15,16,29)           110.0871         calculate D2E/DX2 analytically  !
 ! A49   A(15,16,30)           108.224          calculate D2E/DX2 analytically  !
 ! A50   A(29,16,30)           106.6573         calculate D2E/DX2 analytically  !
 ! D1    D(1,2,3,4)           -163.0385         calculate D2E/DX2 analytically  !
 ! D2    D(1,2,3,17)           -11.2382         calculate D2E/DX2 analytically  !
 ! D3    D(14,2,3,4)            19.4548         calculate D2E/DX2 analytically  !
 ! D4    D(14,2,3,17)          171.2551         calculate D2E/DX2 analytically  !
 ! D5    D(1,2,14,15)           -2.7675         calculate D2E/DX2 analytically  !
 ! D6    D(1,2,14,25)          119.0351         calculate D2E/DX2 analytically  !
 ! D7    D(1,2,14,26)         -125.0281         calculate D2E/DX2 analytically  !
 ! D8    D(3,2,14,15)          174.6464         calculate D2E/DX2 analytically  !
 ! D9    D(3,2,14,25)          -63.5511         calculate D2E/DX2 analytically  !
 ! D10   D(3,2,14,26)           52.3857         calculate D2E/DX2 analytically  !
 ! D11   D(2,3,4,5)           -134.8834         calculate D2E/DX2 analytically  !
 ! D12   D(2,3,4,8)             99.0215         calculate D2E/DX2 analytically  !
 ! D13   D(2,3,4,18)           -20.2766         calculate D2E/DX2 analytically  !
 ! D14   D(17,3,4,5)            74.7447         calculate D2E/DX2 analytically  !
 ! D15   D(17,3,4,8)           -51.3504         calculate D2E/DX2 analytically  !
 ! D16   D(17,3,4,18)         -170.6486         calculate D2E/DX2 analytically  !
 ! D17   D(3,4,5,6)             23.8293         calculate D2E/DX2 analytically  !
 ! D18   D(3,4,5,7)           -157.6646         calculate D2E/DX2 analytically  !
 ! D19   D(8,4,5,6)            149.2328         calculate D2E/DX2 analytically  !
 ! D20   D(8,4,5,7)            -32.2611         calculate D2E/DX2 analytically  !
 ! D21   D(18,4,5,6)           -92.1433         calculate D2E/DX2 analytically  !
 ! D22   D(18,4,5,7)            86.3628         calculate D2E/DX2 analytically  !
 ! D23   D(3,4,8,9)           -152.0728         calculate D2E/DX2 analytically  !
 ! D24   D(3,4,8,20)            83.0445         calculate D2E/DX2 analytically  !
 ! D25   D(3,4,8,21)           -33.0524         calculate D2E/DX2 analytically  !
 ! D26   D(5,4,8,9)             82.84           calculate D2E/DX2 analytically  !
 ! D27   D(5,4,8,20)           -42.0426         calculate D2E/DX2 analytically  !
 ! D28   D(5,4,8,21)          -158.1396         calculate D2E/DX2 analytically  !
 ! D29   D(18,4,8,9)           -33.6364         calculate D2E/DX2 analytically  !
 ! D30   D(18,4,8,20)         -158.519          calculate D2E/DX2 analytically  !
 ! D31   D(18,4,8,21)           85.384          calculate D2E/DX2 analytically  !
 ! D32   D(4,5,6,19)            -3.6863         calculate D2E/DX2 analytically  !
 ! D33   D(7,5,6,19)           177.776          calculate D2E/DX2 analytically  !
 ! D34   D(4,8,9,10)           122.7649         calculate D2E/DX2 analytically  !
 ! D35   D(4,8,9,13)           -56.5688         calculate D2E/DX2 analytically  !
 ! D36   D(20,8,9,10)         -113.596          calculate D2E/DX2 analytically  !
 ! D37   D(20,8,9,13)           67.0704         calculate D2E/DX2 analytically  !
 ! D38   D(21,8,9,10)            2.5702         calculate D2E/DX2 analytically  !
 ! D39   D(21,8,9,13)         -176.7635         calculate D2E/DX2 analytically  !
 ! D40   D(8,9,10,11)         -179.668          calculate D2E/DX2 analytically  !
 ! D41   D(8,9,10,22)            0.7448         calculate D2E/DX2 analytically  !
 ! D42   D(13,9,10,11)          -0.2431         calculate D2E/DX2 analytically  !
 ! D43   D(13,9,10,22)        -179.8304         calculate D2E/DX2 analytically  !
 ! D44   D(8,9,13,12)          179.8357         calculate D2E/DX2 analytically  !
 ! D45   D(8,9,13,24)           -0.1672         calculate D2E/DX2 analytically  !
 ! D46   D(10,9,13,12)           0.3539         calculate D2E/DX2 analytically  !
 ! D47   D(10,9,13,24)        -179.6491         calculate D2E/DX2 analytically  !
 ! D48   D(9,10,11,12)           0.0335         calculate D2E/DX2 analytically  !
 ! D49   D(22,10,11,12)        179.6548         calculate D2E/DX2 analytically  !
 ! D50   D(10,11,12,13)          0.1996         calculate D2E/DX2 analytically  !
 ! D51   D(10,11,12,23)       -179.6095         calculate D2E/DX2 analytically  !
 ! D52   D(11,12,13,9)          -0.3581         calculate D2E/DX2 analytically  !
 ! D53   D(11,12,13,24)        179.6451         calculate D2E/DX2 analytically  !
 ! D54   D(23,12,13,9)         179.4615         calculate D2E/DX2 analytically  !
 ! D55   D(23,12,13,24)         -0.5354         calculate D2E/DX2 analytically  !
 ! D56   D(2,14,15,16)         -61.6341         calculate D2E/DX2 analytically  !
 ! D57   D(2,14,15,27)          59.314          calculate D2E/DX2 analytically  !
 ! D58   D(2,14,15,28)         175.9403         calculate D2E/DX2 analytically  !
 ! D59   D(25,14,15,16)        177.1165         calculate D2E/DX2 analytically  !
 ! D60   D(25,14,15,27)        -61.9354         calculate D2E/DX2 analytically  !
 ! D61   D(25,14,15,28)         54.6909         calculate D2E/DX2 analytically  !
 ! D62   D(26,14,15,16)         59.8484         calculate D2E/DX2 analytically  !
 ! D63   D(26,14,15,27)       -179.2034         calculate D2E/DX2 analytically  !
 ! D64   D(26,14,15,28)        -62.5771         calculate D2E/DX2 analytically  !
 ! D65   D(14,15,16,29)        -55.923          calculate D2E/DX2 analytically  !
 ! D66   D(14,15,16,30)         60.2916         calculate D2E/DX2 analytically  !
 ! D67   D(27,15,16,29)       -177.6021         calculate D2E/DX2 analytically  !
 ! D68   D(27,15,16,30)        -61.3876         calculate D2E/DX2 analytically  !
 ! D69   D(28,15,16,29)         66.7147         calculate D2E/DX2 analytically  !
 ! D70   D(28,15,16,30)       -177.0708         calculate D2E/DX2 analytically  !
 --------------------------------------------------------------------------------
 Trust Radius=3.00D-01 FncErr=1.00D-07 GrdErr=1.00D-06
 Number of steps in this run=    160 maximum allowed number of steps=    180.
 GradGradGradGradGradGradGradGradGradGradGradGradGradGradGradGradGradGrad

                          Input orientation:                          
 ---------------------------------------------------------------------
 Center     Atomic      Atomic             Coordinates (Angstroms)
 Number     Number       Type             X           Y           Z
 ---------------------------------------------------------------------
      1          8           0        2.725971    1.584423    0.804964
      2          6           0        1.890253    0.794201    0.396535
      3          7           0        1.018228    1.179373   -0.596848
      4          6           0       -0.223423    0.512422   -0.945592
      5          6           0       -0.353465    0.365177   -2.470292
      6          8           0        0.799382    0.381175   -3.145336
      7          8           0       -1.408327    0.216853   -3.033330
      8          6           0       -1.438118    1.221322   -0.313451
      9          6           0       -2.599832    0.321563   -0.049549
     10          6           0       -3.276084    0.037720    1.099414
     11          7           0       -4.289075   -0.871068    0.855325
     12          6           0       -4.217169   -1.127420   -0.427213
     13          7           0       -3.208396   -0.434153   -1.018235
     14          6           0        1.792865   -0.637241    0.892133
     15          6           0        2.891674   -0.978892    1.894484
     16          7           0        4.253425   -0.887160    1.389122
     17          1           0        1.063800    2.179732   -0.757100
     18          1           0       -0.168050   -0.507092   -0.560880
     19          1           0        1.520703    0.546501   -2.515168
     20          1           0       -1.725825    2.061974   -0.947285
     21          1           0       -1.140410    1.637918    0.646836
     22          1           0       -3.106286    0.431698    2.089360
     23          1           0       -4.853822   -1.790798   -0.985847
     24          1           0       -2.918858   -0.438301   -1.985735
     25          1           0        0.810684   -0.785913    1.353080
     26          1           0        1.842697   -1.314126    0.030580
     27          1           0        2.812732   -0.302459    2.747501
     28          1           0        2.727601   -1.992983    2.268367
     29          1           0        4.360421   -1.472691    0.568202
     30          1           0        4.416630    0.068305    1.088249
 ---------------------------------------------------------------------
                    Distance matrix (angstroms):
                    1          2          3          4          5
     1  O    0.000000
     2  C    1.220528   0.000000
     3  N    2.246225   1.376806   0.000000
     4  C    3.593404   2.519590   1.451945   0.000000
     5  C    4.657981   3.665655   2.460538   1.537303   0.000000
     6  O    4.556799   3.729000   2.679516   2.429450   1.336037
     7  O    5.804754   4.793531   3.570863   2.418679   1.204885
     8  C    4.326931   3.429952   2.472997   1.541956   2.561527
     9  C    5.539781   4.536875   3.758421   2.546888   3.302736
    10  C    6.205131   5.268523   4.756237   3.704879   4.625119
    11  N    7.432553   6.416207   5.872017   4.656917   5.298779
    12  C    7.555100   6.455369   5.723588   4.348311   4.618466
    13  N    6.528048   5.432002   4.543719   3.132306   3.301217
    14  C    2.411239   1.517936   2.473300   2.960469   4.113086
    15  C    2.790178   2.527955   3.791391   4.471452   5.602564
    16  N    2.963626   3.065418   4.322167   5.239455   6.138962
    17  H    2.357381   1.983328   1.014138   2.114804   2.869891
    18  H    3.822999   2.616605   2.062211   1.091090   2.107388
    19  H    3.681471   2.945495   2.081576   2.346637   1.883453
    20  H    4.808005   4.060680   2.903725   2.158316   2.661211
    21  H    3.869982   3.155856   2.533126   2.154862   3.457692
    22  H    6.082241   5.287955   4.978589   4.186687   5.326619
    23  H    8.488367   7.353622   6.591981   5.171754   5.206248
    24  H    6.613888   5.506526   4.477335   3.041569   2.731596
    25  H    3.096328   2.139441   2.776264   2.835303   4.159138
    26  H    3.127527   2.140381   2.700176   2.925413   3.727942
    27  H    2.709483   2.753302   4.074401   4.849867   6.139699
    28  H    3.865150   3.460246   4.603830   5.031415   6.124441
    29  H    3.474684   3.357083   4.422786   5.219567   5.901773
    30  H    2.288491   2.718083   3.952614   5.085651   5.958620
                    6          7          8          9         10
     6  O    0.000000
     7  O    2.216648   0.000000
     8  C    3.705648   2.899585   0.000000
     9  C    4.598055   3.214592   1.492913   0.000000
    10  C    5.894513   4.538742   2.602925   1.363084   0.000000
    11  N    6.592859   4.960234   3.724525   2.257146   1.382616
    12  C    5.901681   4.060605   3.640420   2.204078   2.138640
    13  N    4.609946   2.779328   2.524124   1.371061   2.170640
    14  C    4.280810   5.136767   3.917518   4.593675   5.117888
    15  C    5.623812   6.648547   5.335075   5.968843   6.301339
    16  N    5.839554   7.268587   6.303817   7.106188   7.591629
    17  H    3.001399   3.891726   2.715690   4.168407   5.183575
    18  H    2.899026   2.859264   2.159099   2.619482   3.565567
    19  H    0.971981   2.992721   3.749342   4.807149   6.027704
    20  H    3.746089   2.803010   1.091429   2.144493   3.269539
    21  H    4.441031   3.954090   1.088270   2.085103   2.706763
    22  H    6.531373   5.401035   3.029816   2.200808   1.078908
    23  H    6.429586   4.482665   4.603479   3.227877   3.190775
    24  H    3.980141   1.951509   2.782710   2.104279   3.142030
    25  H    4.647362   5.016986   3.444333   3.850388   4.176648
    26  H    3.748199   4.722352   4.160602   4.734761   5.401093
    27  H    6.264700   7.176701   5.455371   6.124438   6.317088
    28  H    6.217945   7.077943   5.860952   6.253911   6.444722
    29  H    5.468838   7.007429   6.454307   7.214297   7.802547
    30  H    5.577241   7.137199   6.129624   7.112627   7.692783
                   11         12         13         14         15
    11  N    0.000000
    12  C    1.309881   0.000000
    13  N    2.206578   1.359246   0.000000
    14  C    6.086545   6.172638   5.357551   0.000000
    15  C    7.256352   7.479839   6.781705   1.526046   0.000000
    16  N    8.559176   8.666473   7.853620   2.522659   1.455393
    17  H    6.368718   6.239769   5.015201   3.344674   4.510978
    18  H    4.372752   4.098541   3.075417   2.444049   3.951370
    19  H    6.864637   6.331251   5.056369   3.617322   4.863273
    20  H    4.292131   4.080381   2.904084   4.801083   6.216415
    21  H    4.031448   4.274006   3.367863   3.720299   4.966088
    22  H    2.149194   3.161969   3.227579   5.155353   6.164679
    23  H    2.134187   1.075857   2.132829   7.002568   8.303506
    24  H    3.183772   2.142309   1.009904   5.524675   7.007898
    25  H    5.124700   5.344659   4.679730   1.095105   2.158908
    26  H    6.202833   6.080001   5.233345   1.096781   2.164919
    27  H    7.371521   7.757505   7.102964   2.143502   1.091527
    28  H    7.244938   7.499679   6.961879   2.146110   1.093201
    29  H    8.675147   8.642055   7.802713   2.719421   2.039627
    30  H    8.759337   8.846970   7.926586   2.724042   2.017951
                   16         17         18         19         20
    16  N    0.000000
    17  H    4.917906   0.000000
    18  H    4.847309   2.962259   0.000000
    19  H    4.976609   2.442745   2.789478   0.000000
    20  H    7.064532   2.798579   3.029203   3.910864   0.000000
    21  H    6.001704   2.668921   2.646720   4.274456   1.750358
    22  H    7.509664   5.342993   4.066734   6.528697   3.712773
    23  H    9.455104   7.129915   4.876982   6.959624   4.962832
    24  H    7.939318   4.921911   3.098691   4.578191   2.958561
    25  H    3.444418   3.648558   2.167696   4.152445   4.453764
    26  H    2.799918   3.665264   2.245938   3.169613   5.008854
    27  H    2.064622   4.637053   4.457839   5.485049   6.311932
    28  H    2.079436   5.416016   4.312460   5.548675   6.827599
    29  H    1.014004   5.095520   4.765949   4.652775   7.199511
    30  H    1.014926   4.370915   4.906119   4.647546   6.771105
                   21         22         23         24         25
    21  H    0.000000
    22  H    2.720388   0.000000
    23  H    5.311419   4.177351   0.000000
    24  H    3.795259   4.171142   2.563808   0.000000
    25  H    3.190690   4.167413   6.210234   5.017769   0.000000
    26  H    4.241846   5.637278   6.789972   5.244522   1.758712
    27  H    4.879056   6.000576   8.656160   7.434589   2.487235
    28  H    5.547460   6.320234   8.252804   7.238572   2.443224
    29  H    6.319906   7.854447   9.349788   7.783346   3.699775
    30  H    5.791306   7.597930   9.679847   7.969656   3.715195
                   26         27         28         29         30
    26  H    0.000000
    27  H    3.057139   0.000000
    28  H    2.500318   1.759173   0.000000
    29  H    2.579363   2.917898   2.413994   0.000000
    30  H    3.107235   2.337322   2.914517   1.627353   0.000000
 Symmetry turned off by external request.
 Stoichiometry    C9H14N4O3
 Framework group  C1[X(C9H14N4O3)]
 Deg. of freedom    84
 Full point group                 C1      NOp   1
 Rotational constants (GHZ):      0.7676288      0.2889335      0.2376474
 Standard basis: 6-31G(d,p) (6D, 7F)
   310 basis functions,   546 primitive gaussians,   310 cartesian basis functions
    60 alpha electrons       60 beta electrons
       nuclear repulsion energy      1119.2355079682 Hartrees.
 NAtoms=   30 NActive=   30 NUniq=   30 SFac= 1.00D+00 NAtFMM=   60 NAOKFM=F Big=F
 Integral buffers will be    131072 words long.
 Raffenetti 2 integral format.
 Two-electron integral symmetry is turned off.
 Nuclear repulsion after empirical dispersion term =     1119.1802395276 Hartrees.
 One-electron integrals computed using PRISM.
 NBasis=   310 RedAO= T EigKep=  1.17D-03  NBF=   310
 NBsUse=   310 1.00D-06 EigRej= -1.00D+00 NBFU=   310
 ExpMin= 1.61D-01 ExpMax= 5.48D+03 ExpMxC= 8.25D+02 IAcc=3 IRadAn=         5 AccDes= 0.00D+00
 Harris functional with IExCor=  402 and IRadAn=       5 diagonalized for initial guess.
 HarFok:  IExCor=  402 AccDes= 0.00D+00 IRadAn=         5 IDoV= 1 UseB2=F ITyADJ=14
 ICtDFT=  3500011 ScaDFX=  1.000000  1.000000  1.000000  1.000000
 FoFCou: FMM=F IPFlag=           0 FMFlag=      100000 FMFlg1=           0
         NFxFlg=           0 DoJE=T BraDBF=F KetDBF=T FulRan=T
         wScrn=  0.000000 ICntrl=     500 IOpCl=  0 I1Cent=   200000004 NGrid=           0
         NMat0=    1 NMatS0=      1 NMatT0=    0 NMatD0=    1 NMtDS0=    0 NMtDT0=    0
 Symmetry not used in FoFCou.
 Requested convergence on RMS density matrix=1.00D-08 within 128 cycles.
 Requested convergence on MAX density matrix=1.00D-06.
 Requested convergence on             energy=1.00D-06.
 No special actions if energy rises.
 Integral accuracy reduced to 1.0D-05 until final iterations.
 Initial convergence to 1.0D-05 achieved.  Increase integral accuracy.
 SCF Done:  E(RB3LYP) =  -796.159870624     A.U. after   15 cycles
            NFock= 15  Conv=0.43D-08     -V/T= 2.0088
 DoSCS=F DFT=T ScalE2(SS,OS)=  1.000000  1.000000
 Range of M.O.s used for correlation:     1   310
 NBasis=   310 NAE=    60 NBE=    60 NFC=     0 NFV=     0
 NROrb=    310 NOA=    60 NOB=    60 NVA=   250 NVB=   250
 Symmetrizing basis deriv contribution to polar:
 IMax=3 JMax=2 DiffMx= 0.00D+00
 G2DrvN: will do    31 centers at a time, making    1 passes.
 Calling FoFCou, ICntrl=  3107 FMM=F I1Cent=   0 AccDes= 0.00D+00.
 End of G2Drv F.D. properties file   721 does not exist.
 End of G2Drv F.D. properties file   722 does not exist.
 End of G2Drv F.D. properties file   788 does not exist.
          IDoAtm=111111111111111111111111111111
          Differentiating once with respect to nuclear coordinates.
          There are    93 degrees of freedom in the 1st order CPHF.  IDoFFX=6 NUNeed=     0.
     87 vectors produced by pass  0 Test12= 1.61D-14 1.08D-09 XBig12= 1.84D-01 9.47D-02.
 AX will form    87 AO Fock derivatives at one time.
     87 vectors produced by pass  1 Test12= 1.61D-14 1.08D-09 XBig12= 2.48D-02 4.18D-02.
     87 vectors produced by pass  2 Test12= 1.61D-14 1.08D-09 XBig12= 2.37D-04 3.09D-03.
     87 vectors produced by pass  3 Test12= 1.61D-14 1.08D-09 XBig12= 1.02D-06 2.27D-04.
     87 vectors produced by pass  4 Test12= 1.61D-14 1.08D-09 XBig12= 1.89D-09 4.86D-06.
     71 vectors produced by pass  5 Test12= 1.61D-14 1.08D-09 XBig12= 1.95D-12 1.48D-07.
     16 vectors produced by pass  6 Test12= 1.61D-14 1.08D-09 XBig12= 1.61D-15 4.15D-09.
 InvSVY:  IOpt=1 It=  1 EMax= 5.55D-16
 Solved reduced A of dimension   522 with    93 vectors.
 End of Minotr F.D. properties file   721 does not exist.
 End of Minotr F.D. properties file   722 does not exist.
 End of Minotr F.D. properties file   788 does not exist.

 **********************************************************************

            Population analysis using the SCF density.

 **********************************************************************

 Alpha  occ. eigenvalues --  -19.22607 -19.17262 -19.14934 -14.40060 -14.37849
 Alpha  occ. eigenvalues --  -14.31139 -14.30536 -10.35462 -10.32217 -10.28051
 Alpha  occ. eigenvalues --  -10.23258 -10.22808 -10.21904 -10.21892 -10.21841
 Alpha  occ. eigenvalues --  -10.19350  -1.14004  -1.07252  -1.05804  -1.01148
 Alpha  occ. eigenvalues --   -0.96838  -0.88826  -0.86500  -0.81888  -0.77913
 Alpha  occ. eigenvalues --   -0.75094  -0.69048  -0.66284  -0.64573  -0.60629
 Alpha  occ. eigenvalues --   -0.59821  -0.58993  -0.57708  -0.54591  -0.53615
 Alpha  occ. eigenvalues --   -0.51426  -0.49076  -0.48685  -0.48203  -0.47238
 Alpha  occ. eigenvalues --   -0.45814  -0.44140  -0.43651  -0.43323  -0.42911
 Alpha  occ. eigenvalues --   -0.41768  -0.40711  -0.40450  -0.40072  -0.38884
 Alpha  occ. eigenvalues --   -0.38119  -0.36489  -0.35062  -0.32343  -0.29927
 Alpha  occ. eigenvalues --   -0.28201  -0.27402  -0.25930  -0.23814  -0.22549
 Alpha virt. eigenvalues --   -0.02693  -0.01471   0.02893   0.04789   0.06670
 Alpha virt. eigenvalues --    0.07070   0.08632   0.09218   0.10243   0.11704
 Alpha virt. eigenvalues --    0.12760   0.12962   0.13451   0.15231   0.15457
 Alpha virt. eigenvalues --    0.15983   0.16798   0.17484   0.19065   0.19450
 Alpha virt. eigenvalues --    0.21797   0.22658   0.23125   0.24151   0.24558
 Alpha virt. eigenvalues --    0.26271   0.28750   0.31338   0.31869   0.33995
 Alpha virt. eigenvalues --    0.34357   0.36130   0.38600   0.44991   0.48018
 Alpha virt. eigenvalues --    0.48799   0.50220   0.51065   0.52246   0.53866
 Alpha virt. eigenvalues --    0.54309   0.55521   0.56433   0.57843   0.58257
 Alpha virt. eigenvalues --    0.59314   0.59449   0.62311   0.62977   0.63578
 Alpha virt. eigenvalues --    0.64071   0.64491   0.65110   0.66055   0.66837
 Alpha virt. eigenvalues --    0.67588   0.69450   0.69781   0.71239   0.73495
 Alpha virt. eigenvalues --    0.74620   0.75741   0.76537   0.77997   0.79360
 Alpha virt. eigenvalues --    0.79972   0.80841   0.81353   0.82250   0.82653
 Alpha virt. eigenvalues --    0.83314   0.83337   0.85367   0.85758   0.86449
 Alpha virt. eigenvalues --    0.86804   0.87451   0.89407   0.90034   0.90993
 Alpha virt. eigenvalues --    0.91456   0.92345   0.94765   0.95490   0.96294
 Alpha virt. eigenvalues --    0.97454   0.98172   1.00890   1.02977   1.03115
 Alpha virt. eigenvalues --    1.05488   1.07698   1.09891   1.10491   1.13847
 Alpha virt. eigenvalues --    1.15478   1.17564   1.18089   1.23139   1.25622
 Alpha virt. eigenvalues --    1.27945   1.30030   1.30719   1.31299   1.32523
 Alpha virt. eigenvalues --    1.33613   1.36168   1.36772   1.38232   1.40861
 Alpha virt. eigenvalues --    1.42770   1.43429   1.45839   1.46376   1.48149
 Alpha virt. eigenvalues --    1.49931   1.51862   1.52283   1.52834   1.56998
 Alpha virt. eigenvalues --    1.60904   1.64572   1.65927   1.66987   1.69161
 Alpha virt. eigenvalues --    1.71344   1.72928   1.73598   1.73937   1.75011
 Alpha virt. eigenvalues --    1.75889   1.77013   1.78014   1.81571   1.83591
 Alpha virt. eigenvalues --    1.84039   1.85620   1.87414   1.88063   1.88667
 Alpha virt. eigenvalues --    1.90046   1.90555   1.93557   1.95071   1.96508
 Alpha virt. eigenvalues --    1.97519   1.97766   2.00751   2.01581   2.01921
 Alpha virt. eigenvalues --    2.05216   2.07240   2.08286   2.09285   2.10538
 Alpha virt. eigenvalues --    2.11444   2.13053   2.14454   2.16760   2.19239
 Alpha virt. eigenvalues --    2.19979   2.22295   2.22445   2.23489   2.26680
 Alpha virt. eigenvalues --    2.27053   2.28090   2.29996   2.30587   2.31211
 Alpha virt. eigenvalues --    2.33289   2.34404   2.36485   2.38072   2.40943
 Alpha virt. eigenvalues --    2.41193   2.44269   2.45412   2.45732   2.47098
 Alpha virt. eigenvalues --    2.47922   2.48144   2.49462   2.51401   2.53166
 Alpha virt. eigenvalues --    2.54357   2.56173   2.58354   2.59956   2.60683
 Alpha virt. eigenvalues --    2.62342   2.63623   2.64467   2.65543   2.66616
 Alpha virt. eigenvalues --    2.67374   2.68682   2.70603   2.73797   2.74891
 Alpha virt. eigenvalues --    2.76253   2.78896   2.80536   2.82310   2.84221
 Alpha virt. eigenvalues --    2.85086   2.87265   2.89017   2.91306   2.91951
 Alpha virt. eigenvalues --    2.93712   2.96120   2.98714   2.99061   3.01579
 Alpha virt. eigenvalues --    3.04538   3.05885   3.13622   3.16397   3.24148
 Alpha virt. eigenvalues --    3.24633   3.28125   3.29797   3.30811   3.33730
 Alpha virt. eigenvalues --    3.36054   3.39160   3.42828   3.46053   3.47346
 Alpha virt. eigenvalues --    3.48019   3.57294   3.58939   3.70224   3.96629
 Alpha virt. eigenvalues --    3.97268   4.01049   4.04053   4.10686   4.14873
 Alpha virt. eigenvalues --    4.20545   4.29092   4.36798   4.41581   4.43336
 Alpha virt. eigenvalues --    4.52558   4.56789   4.66937   4.70293   4.77597
          Condensed to atoms (all electrons):
               1          2          3          4          5          6
     1  O    8.056955   0.582907  -0.091455   0.002360  -0.000042   0.000007
     2  C    0.582907   4.411823   0.243276  -0.026425   0.001620   0.000343
     3  N   -0.091455   0.243276   7.167773   0.166878  -0.034502  -0.013673
     4  C    0.002360  -0.026425   0.166878   5.282448   0.283652  -0.096997
     5  C   -0.000042   0.001620  -0.034502   0.283652   4.398858   0.291226
     6  O    0.000007   0.000343  -0.013673  -0.096997   0.291226   8.074967
     7  O    0.000000  -0.000041   0.002014  -0.087043   0.545608  -0.071397
     8  C   -0.000036   0.000314  -0.058970   0.310639  -0.037463   0.001882
     9  C   -0.000002   0.000204   0.003975  -0.035850  -0.002034   0.000045
    10  C    0.000000   0.000008  -0.000090  -0.000975   0.000121   0.000001
    11  N    0.000000   0.000000   0.000000  -0.000072  -0.000008   0.000000
    12  C    0.000000   0.000000   0.000002   0.000215   0.000006   0.000000
    13  N    0.000000   0.000001   0.000105  -0.001788   0.001796  -0.000025
    14  C   -0.093254   0.310393  -0.123136   0.004317  -0.000249  -0.000138
    15  C    0.007697  -0.032689   0.004190   0.000315  -0.000001   0.000000
    16  N   -0.013126  -0.002278  -0.000187  -0.000001   0.000001   0.000000
    17  H    0.010732  -0.009669   0.314194  -0.033698  -0.001109   0.000719
    18  H    0.000143  -0.009537  -0.035477   0.375271  -0.031682   0.000463
    19  H   -0.000358   0.000806   0.035928  -0.006349  -0.032521   0.280075
    20  H    0.000005  -0.000261  -0.000253  -0.050059  -0.005417   0.000167
    21  H   -0.000128   0.001379  -0.001669  -0.038334   0.003965  -0.000068
    22  H    0.000000   0.000000   0.000003   0.000024  -0.000001   0.000000
    23  H    0.000000   0.000000   0.000000  -0.000003   0.000005   0.000000
    24  H    0.000000   0.000001   0.000005  -0.000818  -0.002024   0.000226
    25  H    0.000768  -0.022742  -0.001249  -0.002584   0.000318   0.000000
    26  H    0.001485  -0.031037   0.002300  -0.003527  -0.000255   0.000221
    27  H    0.004650  -0.006436   0.000236  -0.000045   0.000000   0.000000
    28  H    0.000357   0.005130  -0.000108  -0.000003   0.000000   0.000000
    29  H    0.000251  -0.000516   0.000003  -0.000005   0.000000   0.000000
    30  H    0.019266   0.005019   0.000081  -0.000006   0.000000   0.000000
               7          8          9         10         11         12
     1  O    0.000000  -0.000036  -0.000002   0.000000   0.000000   0.000000
     2  C   -0.000041   0.000314   0.000204   0.000008   0.000000   0.000000
     3  N    0.002014  -0.058970   0.003975  -0.000090   0.000000   0.000002
     4  C   -0.087043   0.310639  -0.035850  -0.000975  -0.000072   0.000215
     5  C    0.545608  -0.037463  -0.002034   0.000121  -0.000008   0.000006
     6  O   -0.071397   0.001882   0.000045   0.000001   0.000000   0.000000
     7  O    8.041119   0.009100  -0.003746   0.000076  -0.000016   0.000561
     8  C    0.009100   5.090658   0.336378  -0.054999   0.007059   0.006618
     9  C   -0.003746   0.336378   4.762260   0.572775  -0.046778  -0.093040
    10  C    0.000076  -0.054999   0.572775   4.870043   0.429415  -0.121767
    11  N   -0.000016   0.007059  -0.046778   0.429415   6.686879   0.535257
    12  C    0.000561   0.006618  -0.093040  -0.121767   0.535257   4.673255
    13  N   -0.018073  -0.072738   0.360428  -0.073667  -0.089092   0.359752
    14  C    0.000006  -0.000877  -0.000313  -0.000079   0.000000   0.000002
    15  C    0.000000  -0.000011  -0.000001   0.000000   0.000000   0.000000
    16  N    0.000000   0.000000   0.000000   0.000000   0.000000   0.000000
    17  H    0.000032  -0.002450   0.000138   0.000003   0.000000   0.000000
    18  H   -0.000502  -0.036536   0.004006   0.001615  -0.000120  -0.000192
    19  H    0.004303   0.001115  -0.000045   0.000000   0.000000   0.000000
    20  H    0.002457   0.365647  -0.022922   0.000654  -0.000145   0.000245
    21  H    0.000239   0.376522  -0.028302  -0.005515   0.000050  -0.000074
    22  H    0.000001  -0.001886  -0.059382   0.391278  -0.041401   0.007197
    23  H   -0.000009  -0.000193   0.003328   0.007252  -0.038107   0.391661
    24  H    0.039139  -0.003291  -0.027044   0.008346   0.004060  -0.020279
    25  H    0.000000   0.000259   0.000587   0.000316  -0.000001  -0.000007
    26  H   -0.000002   0.000354  -0.000019  -0.000001   0.000000   0.000000
    27  H    0.000000   0.000003   0.000000   0.000000   0.000000   0.000000
    28  H    0.000000   0.000000   0.000000   0.000000   0.000000   0.000000
    29  H    0.000000   0.000000   0.000000   0.000000   0.000000   0.000000
    30  H    0.000000   0.000000   0.000000   0.000000   0.000000   0.000000
              13         14         15         16         17         18
     1  O    0.000000  -0.093254   0.007697  -0.013126   0.010732   0.000143
     2  C    0.000001   0.310393  -0.032689  -0.002278  -0.009669  -0.009537
     3  N    0.000105  -0.123136   0.004190  -0.000187   0.314194  -0.035477
     4  C   -0.001788   0.004317   0.000315  -0.000001  -0.033698   0.375271
     5  C    0.001796  -0.000249  -0.000001   0.000001  -0.001109  -0.031682
     6  O   -0.000025  -0.000138   0.000000   0.000000   0.000719   0.000463
     7  O   -0.018073   0.000006   0.000000   0.000000   0.000032  -0.000502
     8  C   -0.072738  -0.000877  -0.000011   0.000000  -0.002450  -0.036536
     9  C    0.360428  -0.000313  -0.000001   0.000000   0.000138   0.004006
    10  C   -0.073667  -0.000079   0.000000   0.000000   0.000003   0.001615
    11  N   -0.089092   0.000000   0.000000   0.000000   0.000000  -0.000120
    12  C    0.359752   0.000002   0.000000   0.000000   0.000000  -0.000192
    13  N    6.793634   0.000001   0.000000   0.000000   0.000000   0.000820
    14  C    0.000001   5.344781   0.321610  -0.063010   0.008736   0.008240
    15  C    0.000000   0.321610   4.763938   0.351677  -0.000149   0.000066
    16  N    0.000000  -0.063010   0.351677   6.703613   0.000014   0.000010
    17  H    0.000000   0.008736  -0.000149   0.000014   0.429342   0.004540
    18  H    0.000820   0.008240   0.000066   0.000010   0.004540   0.543087
    19  H    0.000004   0.000059  -0.000002   0.000011  -0.000226   0.000258
    20  H   -0.002605  -0.000018   0.000000   0.000000   0.002448   0.005734
    21  H    0.004280   0.000060  -0.000002   0.000000   0.000308  -0.001578
    22  H    0.005008  -0.000002   0.000000   0.000000   0.000000   0.000001
    23  H   -0.056166   0.000000   0.000000   0.000000   0.000000   0.000001
    24  H    0.318842  -0.000001   0.000000   0.000000   0.000000   0.000155
    25  H   -0.000015   0.333535  -0.018359   0.005061  -0.000337   0.001564
    26  H    0.000001   0.355636  -0.032087  -0.001982  -0.000224   0.002522
    27  H    0.000000  -0.051092   0.393213  -0.036061  -0.000008   0.000019
    28  H    0.000000  -0.047107   0.386261  -0.039395   0.000003   0.000016
    29  H    0.000000  -0.004966  -0.049793   0.341435   0.000000   0.000002
    30  H    0.000000  -0.007501  -0.044385   0.347841   0.000005  -0.000001
              19         20         21         22         23         24
     1  O   -0.000358   0.000005  -0.000128   0.000000   0.000000   0.000000
     2  C    0.000806  -0.000261   0.001379   0.000000   0.000000   0.000001
     3  N    0.035928  -0.000253  -0.001669   0.000003   0.000000   0.000005
     4  C   -0.006349  -0.050059  -0.038334   0.000024  -0.000003  -0.000818
     5  C   -0.032521  -0.005417   0.003965  -0.000001   0.000005  -0.002024
     6  O    0.280075   0.000167  -0.000068   0.000000   0.000000   0.000226
     7  O    0.004303   0.002457   0.000239   0.000001  -0.000009   0.039139
     8  C    0.001115   0.365647   0.376522  -0.001886  -0.000193  -0.003291
     9  C   -0.000045  -0.022922  -0.028302  -0.059382   0.003328  -0.027044
    10  C    0.000000   0.000654  -0.005515   0.391278   0.007252   0.008346
    11  N    0.000000  -0.000145   0.000050  -0.041401  -0.038107   0.004060
    12  C    0.000000   0.000245  -0.000074   0.007197   0.391661  -0.020279
    13  N    0.000004  -0.002605   0.004280   0.005008  -0.056166   0.318842
    14  C    0.000059  -0.000018   0.000060  -0.000002   0.000000  -0.000001
    15  C   -0.000002   0.000000  -0.000002   0.000000   0.000000   0.000000
    16  N    0.000011   0.000000   0.000000   0.000000   0.000000   0.000000
    17  H   -0.000226   0.002448   0.000308   0.000000   0.000000   0.000000
    18  H    0.000258   0.005734  -0.001578   0.000001   0.000001   0.000155
    19  H    0.381553  -0.000060  -0.000029   0.000000   0.000000  -0.000022
    20  H   -0.000060   0.603983  -0.031706  -0.000012  -0.000001   0.000541
    21  H   -0.000029  -0.031706   0.587997   0.003202   0.000004  -0.000056
    22  H    0.000000  -0.000012   0.003202   0.613221  -0.000168  -0.000110
    23  H    0.000000  -0.000001   0.000004  -0.000168   0.581235   0.000101
    24  H   -0.000022   0.000541  -0.000056  -0.000110   0.000101   0.392347
    25  H    0.000022   0.000003   0.000465   0.000023   0.000000   0.000000
    26  H    0.000336  -0.000003   0.000011   0.000000   0.000000  -0.000001
    27  H    0.000001   0.000000   0.000002   0.000000   0.000000   0.000000
    28  H    0.000000   0.000000   0.000000   0.000000   0.000000   0.000000
    29  H    0.000002   0.000000   0.000000   0.000000   0.000000   0.000000
    30  H   -0.000005   0.000000   0.000000   0.000000   0.000000   0.000000
              25         26         27         28         29         30
     1  O    0.000768   0.001485   0.004650   0.000357   0.000251   0.019266
     2  C   -0.022742  -0.031037  -0.006436   0.005130  -0.000516   0.005019
     3  N   -0.001249   0.002300   0.000236  -0.000108   0.000003   0.000081
     4  C   -0.002584  -0.003527  -0.000045  -0.000003  -0.000005  -0.000006
     5  C    0.000318  -0.000255   0.000000   0.000000   0.000000   0.000000
     6  O    0.000000   0.000221   0.000000   0.000000   0.000000   0.000000
     7  O    0.000000  -0.000002   0.000000   0.000000   0.000000   0.000000
     8  C    0.000259   0.000354   0.000003   0.000000   0.000000   0.000000
     9  C    0.000587  -0.000019   0.000000   0.000000   0.000000   0.000000
    10  C    0.000316  -0.000001   0.000000   0.000000   0.000000   0.000000
    11  N   -0.000001   0.000000   0.000000   0.000000   0.000000   0.000000
    12  C   -0.000007   0.000000   0.000000   0.000000   0.000000   0.000000
    13  N   -0.000015   0.000001   0.000000   0.000000   0.000000   0.000000
    14  C    0.333535   0.355636  -0.051092  -0.047107  -0.004966  -0.007501
    15  C   -0.018359  -0.032087   0.393213   0.386261  -0.049793  -0.044385
    16  N    0.005061  -0.001982  -0.036061  -0.039395   0.341435   0.347841
    17  H   -0.000337  -0.000224  -0.000008   0.000003   0.000000   0.000005
    18  H    0.001564   0.002522   0.000019   0.000016   0.000002  -0.000001
    19  H    0.000022   0.000336   0.000001   0.000000   0.000002  -0.000005
    20  H    0.000003  -0.000003   0.000000   0.000000   0.000000   0.000000
    21  H    0.000465   0.000011   0.000002   0.000000   0.000000   0.000000
    22  H    0.000023   0.000000   0.000000   0.000000   0.000000   0.000000
    23  H    0.000000   0.000000   0.000000   0.000000   0.000000   0.000000
    24  H    0.000000  -0.000001   0.000000   0.000000   0.000000   0.000000
    25  H    0.597494  -0.030108  -0.000628  -0.000668   0.000135   0.000088
    26  H   -0.030108   0.612792   0.005705  -0.003426   0.005483  -0.000425
    27  H   -0.000628   0.005705   0.596553  -0.032796   0.007231  -0.006449
    28  H   -0.000668  -0.003426  -0.032796   0.625031  -0.004907   0.006530
    29  H    0.000135   0.005483   0.007231  -0.004907   0.516220  -0.034449
    30  H    0.000088  -0.000425  -0.006449   0.006530  -0.034449   0.456536
 Mulliken charges:
               1
     1  O   -0.489182
     2  C    0.578408
     3  N   -0.580193
     4  C   -0.041539
     5  C    0.620134
     6  O   -0.468042
     7  O   -0.463822
     8  C   -0.237096
     9  C    0.275355
    10  C   -0.024810
    11  N   -0.446980
    12  C    0.260588
    13  N   -0.530502
    14  C   -0.295635
    15  C   -0.051487
    16  N   -0.593622
    17  H    0.276659
    18  H    0.167093
    19  H    0.335145
    20  H    0.131579
    21  H    0.128978
    22  H    0.083004
    23  H    0.111060
    24  H    0.289881
    25  H    0.136061
    26  H    0.116251
    27  H    0.125903
    28  H    0.105081
    29  H    0.223874
    30  H    0.257856
 Sum of Mulliken charges =   0.00000
 Mulliken charges with hydrogens summed into heavy atoms:
               1
     1  O   -0.489182
     2  C    0.578408
     3  N   -0.303534
     4  C    0.125554
     5  C    0.620134
     6  O   -0.132897
     7  O   -0.463822
     8  C    0.023461
     9  C    0.275355
    10  C    0.058195
    11  N   -0.446980
    12  C    0.371648
    13  N   -0.240621
    14  C   -0.043323
    15  C    0.179497
    16  N   -0.111892
 APT charges:
               1
     1  O    0.289234
     2  C   -0.455659
     3  N   -0.794690
     4  C   -0.123153
     5  C   -0.409585
     6  O   -0.028112
     7  O    0.257983
     8  C   -0.882354
     9  C   -0.414583
    10  C   -0.289185
    11  N    0.093214
    12  C   -0.413154
    13  N   -0.661226
    14  C   -0.271833
    15  C   -1.003563
    16  N   -0.623745
    17  H    0.650039
    18  H    0.208457
    19  H    0.268759
    20  H    0.524333
    21  H    0.293246
    22  H    0.403224
    23  H    0.905998
    24  H    0.433226
    25  H    0.168872
    26  H    0.263535
    27  H    0.429807
    28  H    0.473663
    29  H    0.397406
    30  H    0.309846
 Sum of APT charges =   0.00000
 APT charges with hydrogens summed into heavy atoms:
               1
     1  O    0.289234
     2  C   -0.455659
     3  N   -0.144651
     4  C    0.085303
     5  C   -0.409585
     6  O    0.240647
     7  O    0.257983
     8  C   -0.064775
     9  C   -0.414583
    10  C    0.114039
    11  N    0.093214
    12  C    0.492844
    13  N   -0.227999
    14  C    0.160574
    15  C   -0.100093
    16  N    0.083506
 Electronic spatial extent (au):  <R**2>=           4650.8902
 Charge=              0.0000 electrons
 Dipole moment (field-independent basis, Debye):
    X=              1.5217    Y=              0.4885    Z=             -2.1715  Tot=              2.6962
 Quadrupole moment (field-independent basis, Debye-Ang):
   XX=           -121.4387   YY=            -90.5222   ZZ=           -105.0940
   XY=             -4.6556   XZ=             -3.3408   YZ=              2.0943
 Traceless Quadrupole moment (field-independent basis, Debye-Ang):
   XX=            -15.7537   YY=             15.1627   ZZ=              0.5910
   XY=             -4.6556   XZ=             -3.3408   YZ=              2.0943
 Octapole moment (field-independent basis, Debye-Ang**2):
  XXX=             89.1088  YYY=            -18.2024  ZZZ=            112.0584  XYY=             18.3276
  XXY=             -3.7218  XXZ=            -74.6769  XZZ=             21.6118  YZZ=             -4.0502
  YYZ=              5.8289  XYZ=            -16.1621
 Hexadecapole moment (field-independent basis, Debye-Ang**3):
 XXXX=          -4712.7265 YYYY=           -509.7521 ZZZZ=          -1577.8366 XXXY=            -53.5775
 XXXZ=           -302.7301 YYYX=            -98.8607 YYYZ=             97.8509 ZZZX=           -353.3427
 ZZZY=            136.9022 XXYY=           -787.1600 XXZZ=           -994.7381 YYZZ=           -315.6337
 XXYZ=            147.7218 YYXZ=           -100.0443 ZZXY=             -9.7955
 N-N= 1.119180239528D+03 E-N=-4.093986044522D+03  KE= 7.892280976403D+02
  Exact polarizability:   0.000   0.000   0.000   0.000   0.000   0.000
 Approx polarizability: 201.096  36.058 154.509   6.429   9.186 188.318
 Calling FoFJK, ICntrl=    100147 FMM=F ISym2X=0 I1Cent= 0 IOpClX= 0 NMat=1 NMatS=1 NMatT=0.
 -------------------------------------------------------------------
 Center     Atomic                   Forces (Hartrees/Bohr)
 Number     Number              X              Y              Z
 -------------------------------------------------------------------
      1        8           0.001729071    0.003317406    0.001673524
      2        6           0.005068511   -0.003512031    0.004886079
      3        7           0.002095712    0.001050545   -0.009066293
      4        6          -0.000754135    0.002867501    0.003055336
      5        6           0.008914414    0.002196104    0.005608503
      6        8           0.000069596   -0.001445944   -0.004525579
      7        8          -0.009040163   -0.001584653   -0.006961861
      8        6          -0.007249393   -0.004553399   -0.000355739
      9        6           0.008921351    0.006218450   -0.005011108
     10        6          -0.009042999   -0.006097007    0.009047062
     11        7          -0.001767933    0.001786575    0.010463538
     12        6           0.001162731   -0.000065205   -0.002798026
     13        7          -0.002066706   -0.002252650   -0.008225236
     14        6          -0.002855617    0.000045936   -0.000877211
     15        6           0.005739872    0.000314513    0.001539611
     16        7           0.002084761    0.000280976    0.000849288
     17        1          -0.001077348    0.001614617   -0.000785962
     18        1          -0.001064167   -0.000905230    0.000701564
     19        1           0.001456293    0.001771021    0.003257530
     20        1          -0.000825215    0.003149867   -0.002675486
     21        1           0.003375822    0.000679906    0.002154025
     22        1           0.000789798    0.000927905    0.001519552
     23        1          -0.002657604   -0.002970295   -0.000888187
     24        1           0.000998693    0.001227797   -0.003126208
     25        1          -0.002690366   -0.000852225    0.000184168
     26        1          -0.000684879   -0.001441271   -0.000642822
     27        1          -0.000824200    0.000548462    0.001809854
     28        1          -0.001485855   -0.001029796    0.000591359
     29        1           0.000945601   -0.002990047   -0.002181858
     30        1           0.000734355    0.001702172    0.000780584
 -------------------------------------------------------------------
 Cartesian Forces:  Max     0.010463538 RMS     0.003729423
 FormGI is forming the generalized inverse of G from B-inverse, IUseBI=4.
 GSVD:  received Info=                   1 from GESDD.

 GradGradGradGradGradGradGradGradGradGradGradGradGradGradGradGradGradGrad
 Berny optimization.
 Internal  Forces:  Max     0.014424780 RMS     0.002958645
 Search for a local minimum.
 Step number   1 out of a maximum of  160
 All quantities printed in internal units (Hartrees-Bohrs-Radians)
 Mixed Optimization -- RFO/linear search
 Second derivative matrix not updated -- analytic derivatives used.
 ITU=  0
     Eigenvalues ---   -0.00066   0.00220   0.00284   0.00324   0.00399
     Eigenvalues ---    0.00484   0.00655   0.00814   0.00909   0.01487
     Eigenvalues ---    0.01535   0.02045   0.02599   0.03004   0.03435
     Eigenvalues ---    0.03476   0.03897   0.04210   0.04303   0.04336
     Eigenvalues ---    0.04483   0.04756   0.04950   0.05082   0.05475
     Eigenvalues ---    0.05597   0.06264   0.06346   0.07700   0.08156
     Eigenvalues ---    0.08751   0.10550   0.10878   0.11044   0.11421
     Eigenvalues ---    0.11844   0.12534   0.12844   0.14889   0.16211
     Eigenvalues ---    0.16738   0.18429   0.18617   0.19193   0.19938
     Eigenvalues ---    0.21809   0.22315   0.22540   0.23534   0.23681
     Eigenvalues ---    0.24777   0.25566   0.27754   0.28200   0.31534
     Eigenvalues ---    0.32126   0.33178   0.33656   0.33789   0.34096
     Eigenvalues ---    0.34124   0.34809   0.35184   0.35276   0.35420
     Eigenvalues ---    0.37851   0.37929   0.38388   0.38447   0.40343
     Eigenvalues ---    0.42966   0.44081   0.45498   0.45734   0.46144
     Eigenvalues ---    0.46335   0.47477   0.48645   0.49899   0.51223
     Eigenvalues ---    0.61238   0.67852   0.85480   0.92763
 RFO step:  Lambda=-3.86954302D-03 EMin=-6.61287257D-04
 Linear search not attempted -- first point.
 Iteration  1 RMS(Cart)=  0.22290386 RMS(Int)=  0.03143453
 Iteration  2 RMS(Cart)=  0.12730739 RMS(Int)=  0.00353929
 Iteration  3 RMS(Cart)=  0.00681374 RMS(Int)=  0.00053814
 Iteration  4 RMS(Cart)=  0.00001711 RMS(Int)=  0.00053806
 Iteration  5 RMS(Cart)=  0.00000001 RMS(Int)=  0.00053806
 Variable       Old X    -DE/DX   Delta X   Delta X   Delta X     New X
                                 (Linear)    (Quad)   (Total)
    R1        2.30646   0.00389   0.00000   0.00023   0.00023   2.30669
    R2        2.60179   0.01214   0.00000   0.03537   0.03537   2.63716
    R3        2.86848   0.00384   0.00000   0.00388   0.00388   2.87237
    R4        2.74378   0.00677   0.00000   0.01797   0.01797   2.76175
    R5        1.91644   0.00167   0.00000   0.00535   0.00535   1.92179
    R6        2.90508   0.00239   0.00000   0.00134   0.00134   2.90642
    R7        2.91387   0.00573   0.00000   0.01022   0.01022   2.92410
    R8        2.06186   0.00104   0.00000   0.00600   0.00600   2.06786
    R9        2.52474   0.00196   0.00000   0.00526   0.00526   2.53000
   R10        2.27690   0.01136   0.00000   0.01226   0.01226   2.28916
   R11        1.83678   0.00349   0.00000   0.00983   0.00983   1.84661
   R12        2.82120   0.00376   0.00000  -0.00027  -0.00027   2.82093
   R13        2.06250   0.00420   0.00000   0.01007   0.01007   2.07257
   R14        2.05653   0.00308   0.00000   0.00993   0.00993   2.06647
   R15        2.57586   0.01442   0.00000   0.02622   0.02621   2.60207
   R16        2.59093   0.00834   0.00000   0.01766   0.01771   2.60864
   R17        2.61277  -0.00166   0.00000  -0.00990  -0.00995   2.60281
   R18        2.03884   0.00186   0.00000   0.00547   0.00547   2.04431
   R19        2.47532   0.00930   0.00000   0.01607   0.01605   2.49136
   R20        2.56860   0.00674   0.00000   0.00924   0.00928   2.57788
   R21        2.03308   0.00387   0.00000   0.00945   0.00945   2.04253
   R22        1.90844   0.00328   0.00000   0.00679   0.00679   1.91524
   R23        2.88381   0.00767   0.00000   0.02553   0.02553   2.90934
   R24        2.06945   0.00261   0.00000   0.00684   0.00684   2.07629
   R25        2.07262   0.00136   0.00000   0.00411   0.00411   2.07673
   R26        2.75029   0.00365   0.00000   0.00150   0.00150   2.75179
   R27        2.06269   0.00181   0.00000   0.00546   0.00546   2.06814
   R28        2.06585   0.00138   0.00000   0.00422   0.00422   2.07007
   R29        1.91619   0.00359   0.00000   0.00624   0.00624   1.92243
   R30        1.91793   0.00149   0.00000   0.00274   0.00274   1.92068
    A1        2.08747  -0.00181   0.00000  -0.00800  -0.00809   2.07938
    A2        2.14745  -0.00028   0.00000   0.00477   0.00468   2.15214
    A3        2.04738   0.00211   0.00000   0.00419   0.00411   2.05149
    A4        2.19744   0.00287   0.00000  -0.02889  -0.03219   2.16525
    A5        1.94068  -0.00033   0.00000  -0.01575  -0.01965   1.92103
    A6        2.04158  -0.00244   0.00000  -0.01929  -0.02298   2.01860
    A7        1.93324  -0.00598   0.00000  -0.03575  -0.03631   1.89693
    A8        1.94337   0.00452   0.00000   0.04902   0.04920   1.99257
    A9        1.87667   0.00013   0.00000  -0.00718  -0.00738   1.86929
   A10        1.96492   0.00257   0.00000   0.01143   0.01170   1.97661
   A11        1.83848   0.00113   0.00000  -0.00423  -0.00449   1.83399
   A12        1.90182  -0.00266   0.00000  -0.01730  -0.01722   1.88460
   A13        2.01194  -0.00281   0.00000  -0.00993  -0.00993   2.00201
   A14        2.15234   0.00354   0.00000   0.00889   0.00889   2.16123
   A15        2.11860  -0.00073   0.00000   0.00105   0.00105   2.11965
   A16        1.89106  -0.00284   0.00000  -0.01935  -0.01935   1.87171
   A17        1.99148   0.00586   0.00000  -0.00187  -0.00189   1.98960
   A18        1.90042  -0.00071   0.00000   0.00478   0.00477   1.90518
   A19        1.89889  -0.00478   0.00000  -0.02851  -0.02850   1.87039
   A20        1.94093  -0.00156   0.00000   0.00828   0.00823   1.94916
   A21        1.86252  -0.00034   0.00000   0.01373   0.01361   1.87613
   A22        1.86471   0.00117   0.00000   0.00293   0.00282   1.86754
   A23        2.29236  -0.00206   0.00000   0.00508   0.00504   2.29740
   A24        2.15639   0.00332   0.00000  -0.00010  -0.00014   2.15625
   A25        1.83439  -0.00126   0.00000  -0.00501  -0.00494   1.82945
   A26        1.93002   0.00168   0.00000   0.00588   0.00586   1.93589
   A27        2.23864  -0.00143   0.00000  -0.01259  -0.01259   2.22605
   A28        2.11450  -0.00025   0.00000   0.00669   0.00669   2.12119
   A29        1.83514  -0.00066   0.00000  -0.00170  -0.00174   1.83339
   A30        1.94622   0.00275   0.00000   0.00618   0.00623   1.95244
   A31        2.21005  -0.00265   0.00000  -0.01435  -0.01438   2.19567
   A32        2.12692  -0.00011   0.00000   0.00818   0.00815   2.13507
   A33        1.87899  -0.00252   0.00000  -0.00531  -0.00539   1.87360
   A34        2.15540   0.00044   0.00000  -0.00688  -0.00712   2.14828
   A35        2.24880   0.00208   0.00000   0.01219   0.01194   2.26073
   A36        1.95992   0.00120   0.00000   0.00108   0.00107   1.96099
   A37        1.89969  -0.00084   0.00000  -0.00029  -0.00030   1.89939
   A38        1.89928   0.00032   0.00000   0.00495   0.00495   1.90422
   A39        1.91657   0.00035   0.00000   0.00472   0.00472   1.92129
   A40        1.92311  -0.00066   0.00000   0.00041   0.00040   1.92351
   A41        1.86252  -0.00046   0.00000  -0.01154  -0.01153   1.85099
   A42        2.01698   0.00397   0.00000   0.01631   0.01630   2.03328
   A43        1.89915  -0.00107   0.00000  -0.00613  -0.00630   1.89286
   A44        1.90102  -0.00216   0.00000  -0.01694  -0.01701   1.88400
   A45        1.87546  -0.00052   0.00000   0.00717   0.00715   1.88261
   A46        1.89405  -0.00063   0.00000   0.00542   0.00551   1.89956
   A47        1.87207   0.00023   0.00000  -0.00710  -0.00725   1.86482
   A48        1.92138   0.00070   0.00000   0.00668   0.00663   1.92801
   A49        1.88886   0.00038   0.00000   0.00536   0.00531   1.89417
   A50        1.86152   0.00056   0.00000   0.01236   0.01226   1.87378
    D1       -2.84556   0.00066   0.00000   0.06308   0.06267  -2.78289
    D2       -0.19614   0.00005   0.00000  -0.08332  -0.08301  -0.27915
    D3        0.33955  -0.00003   0.00000   0.03889   0.03858   0.37813
    D4        2.98897  -0.00064   0.00000  -0.10751  -0.10709   2.88187
    D5       -0.04830  -0.00065   0.00000   0.05898   0.05895   0.01065
    D6        2.07755   0.00000   0.00000   0.06546   0.06542   2.14298
    D7       -2.18215  -0.00084   0.00000   0.05428   0.05424  -2.12791
    D8        3.04815   0.00002   0.00000   0.08374   0.08378   3.13193
    D9       -1.10918   0.00067   0.00000   0.09021   0.09025  -1.01893
   D10        0.91430  -0.00016   0.00000   0.07903   0.07907   0.99337
   D11       -2.35416   0.00103   0.00000  -0.36970  -0.36958  -2.72374
   D12        1.72825  -0.00120   0.00000  -0.39450  -0.39380   1.33445
   D13       -0.35389  -0.00067   0.00000  -0.39739  -0.39688  -0.75077
   D14        1.30454   0.00105   0.00000  -0.21653  -0.21730   1.08724
   D15       -0.89623  -0.00119   0.00000  -0.24133  -0.24152  -1.13775
   D16       -2.97838  -0.00065   0.00000  -0.24422  -0.24460   3.06020
   D17        0.41590  -0.00226   0.00000   0.09784   0.09808   0.51398
   D18       -2.75177  -0.00222   0.00000   0.09820   0.09844  -2.65333
   D19        2.60460   0.00102   0.00000   0.14354   0.14342   2.74802
   D20       -0.56306   0.00106   0.00000   0.14391   0.14378  -0.41928
   D21       -1.60820  -0.00011   0.00000   0.12614   0.12602  -1.48218
   D22        1.50731  -0.00007   0.00000   0.12650   0.12638   1.63370
   D23       -2.65417  -0.00038   0.00000  -0.02154  -0.02129  -2.67546
   D24        1.44940  -0.00204   0.00000  -0.03482  -0.03453   1.41487
   D25       -0.57687  -0.00043   0.00000  -0.02530  -0.02499  -0.60186
   D26        1.44583   0.00205   0.00000  -0.02121  -0.02150   1.42434
   D27       -0.73378   0.00039   0.00000  -0.03449  -0.03474  -0.76852
   D28       -2.76006   0.00200   0.00000  -0.02497  -0.02519  -2.78525
   D29       -0.58707   0.00083   0.00000  -0.01175  -0.01181  -0.59888
   D30       -2.76668  -0.00083   0.00000  -0.02503  -0.02505  -2.79173
   D31        1.49023   0.00078   0.00000  -0.01551  -0.01551   1.47472
   D32       -0.06434  -0.00093   0.00000  -0.01206  -0.01206  -0.07640
   D33        3.10278  -0.00104   0.00000  -0.01255  -0.01255   3.09023
   D34        2.14265  -0.00238   0.00000  -0.13949  -0.13952   2.00314
   D35       -0.98731  -0.00272   0.00000  -0.13527  -0.13531  -1.12262
   D36       -1.98262  -0.00009   0.00000  -0.12795  -0.12798  -2.11060
   D37        1.17060  -0.00044   0.00000  -0.12373  -0.12377   1.04683
   D38        0.04486   0.00029   0.00000  -0.11214  -0.11205  -0.06719
   D39       -3.08511  -0.00005   0.00000  -0.10792  -0.10785   3.09023
   D40       -3.13580  -0.00005   0.00000   0.00685   0.00680  -3.12899
   D41        0.01300  -0.00019   0.00000   0.01099   0.01096   0.02396
   D42       -0.00424   0.00027   0.00000   0.00322   0.00319  -0.00105
   D43       -3.13863   0.00013   0.00000   0.00736   0.00734  -3.13129
   D44        3.13873  -0.00018   0.00000  -0.00915  -0.00908   3.12965
   D45       -0.00292  -0.00019   0.00000   0.02447   0.02428   0.02136
   D46        0.00618  -0.00044   0.00000  -0.00592  -0.00588   0.00030
   D47       -3.13547  -0.00044   0.00000   0.02769   0.02748  -3.10799
   D48        0.00058  -0.00002   0.00000   0.00079   0.00082   0.00140
   D49        3.13557   0.00011   0.00000  -0.00310  -0.00314   3.13243
   D50        0.00348  -0.00026   0.00000  -0.00464  -0.00469  -0.00121
   D51       -3.13478  -0.00012   0.00000  -0.00988  -0.00993   3.13847
   D52       -0.00625   0.00044   0.00000   0.00683   0.00684   0.00059
   D53        3.13540   0.00044   0.00000  -0.02917  -0.02939   3.10600
   D54        3.13219   0.00030   0.00000   0.01173   0.01183  -3.13917
   D55       -0.00934   0.00030   0.00000  -0.02426  -0.02441  -0.03375
   D56       -1.07572  -0.00079   0.00000  -0.02663  -0.02664  -1.10236
   D57        1.03523   0.00043   0.00000  -0.01081  -0.01087   1.02436
   D58        3.07074  -0.00109   0.00000  -0.03205  -0.03197   3.03877
   D59        3.09127  -0.00078   0.00000  -0.03028  -0.03030   3.06096
   D60       -1.08098   0.00045   0.00000  -0.01446  -0.01452  -1.09550
   D61        0.95454  -0.00107   0.00000  -0.03570  -0.03562   0.91891
   D62        1.04455  -0.00003   0.00000  -0.01927  -0.01929   1.02526
   D63       -3.12769   0.00119   0.00000  -0.00345  -0.00351  -3.13120
   D64       -1.09218  -0.00032   0.00000  -0.02469  -0.02461  -1.11679
   D65       -0.97604  -0.00015   0.00000  -0.01915  -0.01916  -0.99520
   D66        1.05229   0.00113   0.00000   0.00236   0.00240   1.05469
   D67       -3.09974  -0.00101   0.00000  -0.02748  -0.02756  -3.12730
   D68       -1.07142   0.00027   0.00000  -0.00597  -0.00599  -1.07741
   D69        1.16439  -0.00068   0.00000  -0.02567  -0.02566   1.13873
   D70       -3.09047   0.00059   0.00000  -0.00416  -0.00410  -3.09457
         Item               Value     Threshold  Converged?
 Maximum Force            0.014425     0.000450     NO 
 RMS     Force            0.002959     0.000300     NO 
 Maximum Displacement     1.365472     0.001800     NO 
 RMS     Displacement     0.338034     0.001200     NO 
 Predicted change in Energy=-2.817718D-03
 GradGradGradGradGradGradGradGradGradGradGradGradGradGradGradGradGradGrad

                          Input orientation:                          
 ---------------------------------------------------------------------
 Center     Atomic      Atomic             Coordinates (Angstroms)
 Number     Number       Type             X           Y           Z
 ---------------------------------------------------------------------
      1          8           0        2.852263    1.537487    0.507222
      2          6           0        1.960472    0.767381    0.188421
      3          7           0        1.150949    1.080129   -0.904441
      4          6           0       -0.174405    0.507726   -1.131685
      5          6           0       -0.493533    0.585064   -2.634235
      6          8           0        0.576430    0.530224   -3.437111
      7          8           0       -1.616453    0.661827   -3.082100
      8          6           0       -1.285954    1.109826   -0.239344
      9          6           0       -2.429200    0.183976    0.013946
     10          6           0       -2.888444   -0.407742    1.169354
     11          7           0       -3.979563   -1.207916    0.911924
     12          6           0       -4.180511   -1.105119   -0.386984
     13          7           0       -3.272236   -0.276178   -0.977589
     14          6           0        1.693417   -0.544411    0.908322
     15          6           0        2.661284   -0.775272    2.083125
     16          7           0        4.072375   -0.902864    1.746942
     17          1           0        1.253121    2.063085   -1.144408
     18          1           0       -0.105439   -0.561619   -0.909960
     19          1           0        1.368107    0.520293   -2.864364
     20          1           0       -1.621957    2.058990   -0.674162
     21          1           0       -0.832124    1.343979    0.727617
     22          1           0       -2.496165   -0.290879    2.170734
     23          1           0       -4.958401   -1.603668   -0.947870
     24          1           0       -3.162846   -0.030701   -1.954808
     25          1           0        0.655475   -0.546183    1.268700
     26          1           0        1.766483   -1.371272    0.188137
     27          1           0        2.557548    0.057068    2.786113
     28          1           0        2.340546   -1.679365    2.612012
     29          1           0        4.212617   -1.660023    1.082146
     30          1           0        4.376069   -0.043784    1.296637
 ---------------------------------------------------------------------
                    Distance matrix (angstroms):
                    1          2          3          4          5
     1  O    0.000000
     2  C    1.220650   0.000000
     3  N    2.257530   1.395524   0.000000
     4  C    3.592652   2.523451   1.461454   0.000000
     5  C    4.687240   3.744699   2.437539   1.538012   0.000000
     6  O    4.663878   3.887968   2.654597   2.424716   1.338820
     7  O    5.798227   4.847870   3.546222   2.430508   1.211373
     8  C    4.226712   3.292345   2.526209   1.547365   2.576589
     9  C    5.474411   4.431707   3.803156   2.549781   3.304624
    10  C    6.097381   5.084795   4.778188   3.674081   4.603103
    11  N    7.373932   6.301529   5.903938   4.647471   5.286059
    12  C    7.565903   6.445853   5.785113   4.382320   4.636880
    13  N    6.557708   5.461669   4.627038   3.199188   3.347746
    14  C    2.416217   1.519992   2.493895   2.959287   4.313719
    15  C    2.805138   2.541815   3.827425   4.474620   5.835827
    16  N    2.996813   3.111084   4.415521   5.320846   6.500474
    17  H    2.358260   1.988876   1.016969   2.111193   2.730372
    18  H    3.893926   2.690850   2.067336   1.094266   2.106804
    19  H    3.821648   3.119526   2.049847   2.319845   1.876928
    20  H    4.656853   3.904625   2.949610   2.170518   2.699571
    21  H    3.696043   2.902032   2.581822   2.142175   3.463039
    22  H    5.892018   4.991101   4.963648   4.115131   5.278781
    23  H    8.543455   7.401610   6.672990   5.232436   5.250659
    24  H    6.685981   5.610593   4.576684   3.146143   2.822414
    25  H    3.122084   2.143705   2.759153   2.749777   4.222894
    26  H    3.121156   2.147434   2.753539   3.006594   4.111046
    27  H    2.733467   2.758450   4.079873   4.797479   6.242439
    28  H    3.878161   3.464797   4.625515   5.012346   6.378303
    29  H    3.522097   3.429751   4.563855   5.370861   6.403105
    30  H    2.333576   2.778712   4.063167   5.187266   6.289692
                    6          7          8          9         10
     6  O    0.000000
     7  O    2.225328   0.000000
     8  C    3.745681   2.896757   0.000000
     9  C    4.589498   3.236418   1.492771   0.000000
    10  C    5.839919   4.564735   2.618285   1.376955   0.000000
    11  N    6.533935   5.003245   3.735355   2.268778   1.377348
    12  C    5.882696   4.118270   3.647772   2.211244   2.139616
    13  N    4.638077   2.837330   2.532060   1.380431   2.184941
    14  C    4.613598   5.322942   3.595871   4.280938   4.591325
    15  C    6.043505   6.858852   4.952590   5.578055   5.636448
    16  N    6.414809   7.624347   6.058708   6.815790   7.002269
    17  H    2.839729   3.735322   2.859151   4.293288   5.348929
    18  H    2.836117   2.915163   2.153386   2.609479   3.477405
    19  H    0.977185   2.995837   3.779196   4.776748   5.937201
    20  H    3.847586   2.783929   1.096757   2.154254   3.329761
    21  H    4.471149   3.948980   1.093527   2.098949   2.737172
    22  H    6.446935   5.410528   3.038924   2.209458   1.081805
    23  H    6.433053   4.566840   4.620814   3.243087   3.193367
    24  H    4.061286   2.035121   2.786816   2.111945   3.158773
    25  H    4.827997   5.054741   2.964069   3.409217   3.548013
    26  H    4.263137   5.125641   3.956761   4.478046   4.853815
    27  H    6.548070   7.226614   5.003418   5.706897   5.699894
    28  H    6.677295   7.318602   5.390855   5.742166   5.571412
    29  H    6.200220   7.530604   6.297038   6.975323   7.211164
    30  H    6.097139   7.455303   5.979010   6.928843   7.274739
                   11         12         13         14         15
    11  N    0.000000
    12  C    1.318373   0.000000
    13  N    2.222320   1.364156   0.000000
    14  C    5.711650   6.041128   5.318488   0.000000
    15  C    6.757199   7.281511   6.695052   1.539555   0.000000
    16  N    8.100865   8.526704   7.858697   2.547787   1.456186
    17  H    6.504531   6.335263   5.096943   3.347625   4.522850
    18  H    4.329641   4.144286   3.180354   2.557798   4.081540
    19  H    6.770866   6.290194   5.072186   3.933520   5.275268
    20  H    4.329740   4.079247   2.875499   4.502627   5.829393
    21  H    4.056169   4.295592   3.389215   3.158643   4.304943
    22  H    2.150821   3.168900   3.242597   4.382985   5.180887
    23  H    2.138592   1.080859   2.146221   6.986712   8.242134
    24  H    3.204842   2.155943   1.013500   5.660804   7.125994
    25  H    4.695610   5.142028   4.532728   1.098726   2.176934
    26  H    5.793754   5.980663   5.286476   1.098956   2.178731
    27  H    6.917122   7.537948   6.947149   2.152812   1.094415
    28  H    6.561733   7.200550   6.808633   2.146965   1.095435
    29  H    8.206411   8.538785   7.885465   2.760648   2.047285
    30  H    8.445104   8.784991   7.982648   2.756454   2.023395
                   16         17         18         19         20
    16  N    0.000000
    17  H    5.010484   0.000000
    18  H    4.962833   2.964747   0.000000
    19  H    5.531960   2.313369   2.676110   0.000000
    20  H    6.860010   2.913283   3.036942   4.013110   0.000000
    21  H    5.490122   2.893067   2.615537   4.292062   1.760698
    22  H    6.610586   5.530683   3.908906   6.398657   3.792038
    23  H    9.450294   7.215726   4.963722   6.943260   4.962039
    24  H    8.173864   4.953933   3.274342   4.654076   2.895030
    25  H    3.468594   3.603963   2.307767   4.327520   3.968417
    26  H    2.822485   3.719412   2.316343   3.613099   4.898140
    27  H    2.072692   4.601590   4.597307   5.792861   5.783550
    28  H    2.085793   5.412866   4.431308   5.981206   6.362049
    29  H    1.017306   5.251447   4.880634   5.331037   7.138482
    30  H    1.016378   4.488920   5.022065   5.165263   6.654473
                   21         22         23         24         25
    21  H    0.000000
    22  H    2.743060   0.000000
    23  H    5.340602   4.184699   0.000000
    24  H    3.810172   4.187153   2.590785   0.000000
    25  H    2.465448   3.288112   6.127565   5.023574   0.000000
    26  H    3.796891   4.823702   6.824117   5.539641   1.755770
    27  H    4.169343   5.102918   8.555124   7.430137   2.506858
    28  H    4.770471   5.051376   8.121152   7.339023   2.434760
    29  H    5.882103   6.933061   9.393173   8.140961   3.732118
    30  H    5.419866   6.932006   9.726426   8.210195   3.754465
                   26         27         28         29         30
    26  H    0.000000
    27  H    3.068456   0.000000
    28  H    2.509908   1.758580   0.000000
    29  H    2.620344   2.931069   2.417750   0.000000
    30  H    3.130645   2.352814   2.923815   1.638582   0.000000
 Symmetry turned off by external request.
 Stoichiometry    C9H14N4O3
 Framework group  C1[X(C9H14N4O3)]
 Deg. of freedom    84
 Full point group                 C1      NOp   1
 Rotational constants (GHZ):      0.7053972      0.3108083      0.2354739
 Standard basis: 6-31G(d,p) (6D, 7F)
   310 basis functions,   546 primitive gaussians,   310 cartesian basis functions
    60 alpha electrons       60 beta electrons
       nuclear repulsion energy      1117.6553564114 Hartrees.
 NAtoms=   30 NActive=   30 NUniq=   30 SFac= 1.00D+00 NAtFMM=   60 NAOKFM=F Big=F
 Integral buffers will be    131072 words long.
 Raffenetti 2 integral format.
 Two-electron integral symmetry is turned off.
 Nuclear repulsion after empirical dispersion term =     1117.5998825314 Hartrees.
 One-electron integrals computed using PRISM.
 NBasis=   310 RedAO= T EigKep=  1.24D-03  NBF=   310
 NBsUse=   310 1.00D-06 EigRej= -1.00D+00 NBFU=   310
[...]
 -0.00002719,0.00001343,-0.00002471,0.00002572,-0.00003774,-0.00003593,
 -0.00007411,0.00034481,-0.00000590,0.00020654,0.00006818,0.00014344,-0
 .00031540,-0.00054841,-0.00091962,0.00002865,0.00020164,-0.00021069,0.
 00021297,-0.00053451,0.00170292,-0.00050217,0.00047319,-0.00091597,-0.
 00047250,0.02687341,0.04056224,-0.00022402,-0.00001303,-0.00018000,0.0
 0033824,-0.00028604,0.00038392,0.00035869,-0.00003789,-0.00143109,-0.0
 0104400,0.00037187,0.00038074,0.00554367,-0.00044382,0.00475897,-0.003
 78599,0.00017582,-0.00036843,-0.00197033,-0.00017705,-0.00905849,-0.00
 059709,-0.00018804,0.00091499,0.00539229,0.00410073,-0.01339017,-0.002
 43659,-0.00220897,-0.00100924,0.00044441,-0.00020670,0.00486184,0.0017
 0114,0.00176560,-0.00143126,0.05805800,0.04159454,-0.42792804,-0.00012
 003,0.00007062,0.00000970,-0.00000603,-0.00000704,0.00001581,0.0000319
 2,0.00001452,-0.00002475,-0.00010882,0.00008096,0.00024843,-0.00032405
 ,-0.00009244,-0.00016018,0.00010751,0.00020941,0.00081092,0.00000567,0
 .00006845,0.00001641,0.00050053,0.00022119,-0.00007904,0.00026950,0.00
 030294,0.00003571,-0.00013497,-0.00001217,0.00003839,-0.06198622,-0.04
 528580,0.44262959,0.00093838,-0.00009202,0.00097055,-0.00357192,-0.002
 36973,-0.00008864,-0.00006429,0.00004438,-0.00032866,-0.00038682,-0.00
 032398,-0.00130759,-0.00001333,0.00030048,0.00050200,0.00012302,-0.000
 11532,-0.00027429,-0.00007726,-0.00008444,-0.00018736,0.00032075,0.000
 25240,-0.00008018,0.00007198,-0.00004037,-0.00018626,0.00006250,-0.000
 04029,0.00019932,-0.00005695,-0.00009618,-0.00006262,-0.00002692,-0.00
 002376,0.00008305,0.00006824,0.00005712,0.00005441,-0.25826344,-0.0158
 1880,0.09357315,-0.01790761,-0.00168700,0.01219366,-0.00493923,0.00117
 701,-0.00524868,-0.00016634,-0.00001683,0.00042683,-0.00017087,0.00087
 154,-0.00102187,-0.00010333,0.00006491,0.00007029,0.00001345,-0.000014
 75,-0.00000787,-0.00004028,-0.00000923,-0.00000197,-0.00002900,0.00005
 018,0.00000236,-0.00000893,0.00000510,0.00000140,0.00005431,0.00000845
 ,-0.00001595,0.28343203,0.00203936,-0.00662086,-0.00074881,-0.03226756
 ,0.00093540,0.01161742,0.00167809,-0.00015752,-0.00028682,0.00034245,0
 .00012332,0.00069566,0.00008878,-0.00000203,0.00003582,0.00008161,0.00
 001801,-0.00004502,0.00003749,-0.00001198,0.00002060,0.00023160,0.0003
 1070,0.00049318,0.00015845,0.00001984,-0.00011860,0.00007541,-0.000037
 05,0.00010059,-0.00005179,-0.00005798,-0.00002903,-0.00004956,-0.00002
 956,-0.00004316,-0.00003310,-0.00005699,0.00001730,-0.01944982,-0.0466
 7124,0.01143585,0.00535308,-0.00026714,-0.00398386,0.00193480,0.000683
 75,0.00178934,0.00039318,-0.00043458,-0.00062290,0.00026291,0.00009217
 ,0.00038422,-0.00001940,-0.00006468,-0.00013437,-0.00010716,-0.0000821
 3,-0.00013504,0.00012917,-0.00038162,-0.00022495,0.00002231,0.00002187
 ,-0.00004478,-0.00000798,-0.00000256,-0.00000206,-0.00001522,0.0000201
 8,0.00000897,0.01798992,0.05029287,-0.00079916,0.00149776,-0.00017779,
 0.01234405,-0.00288638,-0.00453874,-0.00120596,0.00130111,-0.00076558,
 0.00035448,0.00096432,-0.00012496,0.00022607,-0.00043355,-0.00083053,-
 0.00046341,0.00006024,0.00029851,-0.00002665,0.00008664,0.00020349,-0.
 00032748,-0.00005162,-0.00005646,0.00007163,-0.00004439,-0.00008576,0.
 00003158,-0.00008892,0.00028075,0.00004320,-0.00000084,-0.00004920,0.0
 0002829,0.00003698,0.00001830,-0.00000326,-0.00005014,-0.00009934,0.09
 282394,0.00947932,-0.08692866,-0.02059072,-0.00216951,0.01205429,-0.00
 448747,0.00094009,-0.00283525,-0.00049180,0.00022935,0.00042723,-0.000
 55697,-0.00006367,-0.00190105,0.00018511,0.00001033,0.00023802,0.00010
 415,-0.00002762,0.00000329,-0.00002170,0.00013622,0.00009128,0.0000007
 7,0.00000717,-0.00001249,-0.00000271,0.00000617,-0.00000184,-0.0000227
 1,0.00000744,-0.00002824,-0.09972703,-0.01091881,0.09351669,-0.0006708
 7,-0.00139962,0.00113117,-0.00153445,-0.00563305,-0.00279610,-0.000186
 92,0.00054222,-0.00119159,0.00019710,0.00102830,0.00044867,0.00013043,
 -0.00012212,-0.00054371,-0.00026278,-0.00002261,0.00012028,0.00001651,
 0.00001076,0.00011919,-0.00014555,-0.00003527,0.00026631,0.00004105,0.
 00004553,0.00002703,0.00001739,0.00000840,0.00008649,0.00001077,-0.000
 00708,-0.00002381,-0.00003694,-0.00001702,-0.00002969,-0.00001390,-0.0
 0005378,-0.00006630,-0.04402115,0.01159548,0.00936927,0.00081699,-0.01
 600675,-0.01732172,0.00286203,-0.00083997,0.00075965,-0.00015263,-0.00
 006138,0.00005834,-0.00118224,0.00049865,-0.00049527,0.00016942,0.0000
 8183,0.00011718,0.00004087,-0.00008459,-0.00012113,0.00005763,-0.00013
 522,-0.00008276,0.00002126,-0.00000834,-0.00003053,-0.00000459,0.00000
 049,-0.00000345,-0.00004334,0.00001765,0.00000677,-0.00182451,0.021593
 49,0.02112659,0.04867205,-0.00218020,-0.00380981,0.00489729,0.00180939
 ,-0.01911278,-0.02745160,-0.00091147,0.00107637,0.00313607,0.00005104,
 -0.00043042,-0.00022669,0.00028829,0.00011449,0.00031455,0.00003093,0.
 00023813,0.00012594,-0.00011464,-0.00003992,-0.00004313,0.00004495,0.0
 0025103,-0.00019528,0.00003876,-0.00000318,-0.00002131,-0.00000021,-0.
 00000664,-0.00002088,-0.00001542,-0.00001307,0.00002751,0.00001951,0.0
 0001338,-0.00001018,-0.00000655,0.00001892,0.00005224,0.01337927,-0.17
 021633,-0.12743801,0.00020658,0.00541903,0.00542095,-0.00110254,0.0002
 9468,0.00077325,-0.00058003,0.00030834,0.00014023,0.00111615,0.0000285
 1,0.00007919,0.00006676,-0.00046412,-0.00003172,-0.00009377,0.00003281
 ,0.00007118,-0.00005658,0.00003206,0.00006457,-0.00000326,0.00000237,0
 .00000716,0.00000056,-0.00000064,0.00000025,0.00004810,0.00000235,-0.0
 0002194,-0.00002066,0.00222810,0.00205637,-0.01249984,0.18315066,0.002
 65427,0.00156692,-0.00145167,-0.00374759,0.00868043,0.01181343,0.00030
 716,-0.00025056,-0.00167128,-0.00038353,0.00023825,-0.00005521,-0.0000
 9871,0.00026493,0.00020783,0.00004495,-0.00013924,-0.00012305,-0.00007
 759,-0.00005700,-0.00011126,-0.00006622,-0.00007157,-0.00005434,-0.000
 02127,0.00004240,0.00000551,-0.00001930,-0.00001278,-0.00008152,-0.000
 02157,-0.00001272,0.00002706,0.00001631,0.00000827,0.00002595,0.000011
 99,0.00002916,0.00006548,0.01051776,-0.12575297,-0.17655396,0.00232555
 ,-0.01700841,-0.01929757,0.00163175,0.00119612,0.00250955,0.00036236,-
 0.00042816,0.00011255,-0.00054197,0.00058776,-0.00025411,-0.00003799,0
 .00021194,0.00011255,-0.00003162,0.00002190,0.00003133,0.00001346,0.00
 004183,0.00002609,-0.00001657,0.00000779,0.00002068,0.00000351,-0.0000
 0223,0.00000388,0.00003531,-0.00000407,-0.00000884,0.00066209,-0.00936
 478,-0.00964938,-0.00893104,0.13785530,0.19576385,0.00055920,0.0004377
 6,0.00031244,-0.00013065,-0.00143232,0.00011928,-0.00017119,0.00008146
 ,-0.00001791,0.00000886,-0.00004516,-0.00007456,0.00006985,0.00004951,
 0.00018701,0.00000076,0.00000654,-0.00006164,-0.00009059,-0.00001485,-
 0.00007988,0.00002235,0.00000705,-0.00007414,-0.00001021,0.00001717,-0
 .00000186,-0.00000725,-0.00000007,-0.00005184,-0.00001875,-0.00001594,
 0.00002109,0.00000652,0.00000205,0.00000600,0.00000322,0.00001274,0.00
 005030,0.00078104,-0.01474668,-0.01756210,-0.04819460,0.00750366,0.009
 19226,-0.01112750,0.02803523,0.02642066,-0.00002015,0.00003922,0.00002
 300,0.00017527,0.00002451,0.00001745,-0.00003301,-0.00002959,0.0000705
 1,-0.00002486,0.00001274,0.00002652,-0.00000476,0.00001121,0.00000386,
 -0.00000603,0.00000183,0.00000563,0.00000050,-0.00000090,0.00000189,0.
 00003225,0.00000291,-0.00001100,0.00060567,-0.00039596,0.00072451,-0.0
 0282031,0.00138430,-0.00378025,0.06478444,0.00018439,-0.00049726,0.000
 50404,-0.00025998,0.00023495,0.00107837,-0.00015774,0.00005066,-0.0004
 2669,0.00014100,0.00007188,0.00004205,0.00006305,-0.00001420,-0.000021
 11,-0.00008295,-0.00001381,-0.00001846,-0.00007123,-0.00000269,-0.0000
 3486,-0.00001530,-0.00002267,-0.00002274,-0.00000756,0.00002002,-0.000
 01730,-0.00000612,-0.00000699,-0.00004351,-0.00001365,-0.00001473,0.00
 002133,0.00000138,0.00000097,0.00000118,-0.00000088,0.00000168,0.00004
 958,-0.00025019,0.00526604,0.00564520,0.01273826,-0.18050514,-0.133207
 92,0.00208915,0.00118151,0.00000506,-0.00000835,-0.00001702,-0.0000325
 8,-0.00005073,0.00003331,0.00000654,0.00001932,0.00003169,0.00006489,-
 0.00000395,-0.00000024,0.00000382,0.00001157,0.00000170,-0.00001415,-0
 .00000597,0.00000767,0.00000290,0.00000078,-0.00000091,0.00000234,0.00
 002178,0.00000540,-0.00001247,-0.00062427,0.00023048,-0.00059548,0.000
 77782,0.00042139,0.00195261,-0.01629511,0.18974645,0.00130237,0.001324
 29,0.00193830,-0.00164561,-0.00339414,-0.00095049,0.00045541,0.0003024
 2,0.00077803,-0.00007316,-0.00024847,-0.00019318,0.00006604,0.00008797
 ,0.00011485,0.00004165,0.00004994,0.00003863,-0.00004024,-0.00001563,-
 0.00001056,0.00006276,0.00006739,-0.00005768,-0.00000151,-0.00001194,0
 .00000365,-0.00001075,0.00000303,-0.00003036,-0.00000104,0.00001047,0.
 00001662,0.00001205,0.00000559,-0.00000132,0.00000139,0.00001711,0.000
 02359,-0.00192584,-0.01599737,-0.01956101,0.01323422,-0.12854931,-0.18
 166963,0.00604680,-0.00850939,-0.00688930,-0.00005809,0.00008498,-0.00
 007488,0.00018506,0.00009599,0.00004160,-0.00000256,-0.00011123,-0.000
 07473,-0.00002695,0.00001314,0.00001962,-0.00002083,-0.00000022,0.0000
 1664,-0.00000157,-0.00000596,0.00000310,0.00000289,-0.00000068,0.00000
 076,0.00001843,-0.00000596,-0.00000875,-0.00014938,0.00004733,0.000472
 33,-0.00344782,0.00121875,-0.00249290,-0.01430099,0.14371906,0.1975918
 0,0.00070613,0.00014658,0.00013141,-0.00360386,-0.00093346,-0.00378811
 ,0.00021745,0.00172354,-0.00065562,0.00032678,0.00018142,0.00010272,0.
 00006725,0.00000116,0.00014306,-0.00004032,-0.00004293,-0.00010640,-0.
 00009211,-0.00000717,-0.00009303,-0.00000548,-0.00002733,-0.00002215,-
 0.00000140,0.00003197,-0.00001486,0.00000992,-0.00000179,-0.00002679,-
 0.00002551,-0.00003868,0.00001134,-0.00000790,-0.00000495,0.00000028,-
 0.00000008,-0.00000365,0.00004702,0.00372331,0.02007628,-0.00970267,-0
 .05667988,-0.04224839,0.02034683,-0.01684810,-0.03368270,0.01351818,-0
 .00032060,0.00017197,-0.00038284,0.00002344,-0.00003495,0.00002246,-0.
 00003500,0.00005733,0.00013819,-0.00000823,-0.00000555,0.00000752,0.00
 001480,-0.00000231,-0.00001764,-0.00000368,0.00001204,0.00000355,-0.00
 000268,-0.00000066,0.00000124,0.00002693,0.00001212,-0.00001046,0.0007
 7767,0.00012307,0.00071642,0.00064029,-0.00048564,0.00041519,0.0006106
 5,0.00193643,-0.00158572,0.07536564,0.00092231,0.00029236,0.00103081,-
 0.00055795,0.00040345,-0.00049014,0.00017793,-0.00026446,0.00044160,-0
 .00019025,-0.00016022,-0.00002862,-0.00016050,-0.00001562,-0.00013408,
 0.00010361,0.00002935,0.00007359,0.00015848,0.00001943,0.00010517,-0.0
 0001096,0.00002375,0.00002596,0.00000037,-0.00004494,0.00002760,-0.000
 01087,0.00000399,0.00004935,0.00003625,0.00006032,-0.00002980,0.000006
 45,0.00000271,0.00000980,0.00000344,0.00000731,-0.00008628,-0.00098880
 ,-0.00446496,0.00078189,-0.04647425,-0.25721513,0.09349107,-0.00206114
 ,0.00372913,-0.00100525,0.00006062,0.00009262,0.00003481,-0.00004861,-
 0.00001434,-0.00002217,-0.00001459,-0.00003731,-0.00013869,0.00001986,
 0.00000530,-0.00001273,-0.00001832,0.00000226,0.00001800,0.00000550,-0
 .00002252,-0.00000222,0.00000384,-0.00000017,-0.00000152,-0.00004418,-
 0.00002053,0.00002239,0.00059574,-0.00008548,0.00017287,0.00010423,0.0
 0061679,0.00033061,-0.00413457,-0.01857849,0.00938990,0.05207063,0.273
 04198,0.00062427,-0.00009958,0.00104099,-0.00488496,-0.00217048,-0.002
 63378,0.00013982,0.00174595,-0.00087147,0.00041623,0.00028908,0.000069
 04,0.00013720,0.00002005,0.00017629,-0.00008039,-0.00007046,-0.0001156
 1,-0.00014795,-0.00001915,-0.00012333,-0.00000358,-0.00002452,-0.00002
 038,-0.00000328,0.00003832,-0.00001009,0.00001239,0.00000713,-0.000020
 52,-0.00003353,-0.00005021,0.00000944,-0.00001026,-0.00000635,-0.00000
 367,-0.00000175,-0.00001023,0.00004525,0.00124802,0.02414021,-0.012124
 60,0.02150934,0.09085607,-0.09342167,0.00743520,0.00991029,-0.00280924
 ,-0.00025231,0.00014018,-0.00043783,0.00005827,-0.00002578,0.00006663,
 -0.00000378,0.00007753,0.00016177,-0.00001187,-0.00000839,0.00000754,0
 .00001488,-0.00001454,-0.00002421,0.00000006,0.00000701,-0.00000058,-0
 .00000551,0.00000023,-0.00000046,0.00003448,0.00002072,-0.00001402,0.0
 0016796,-0.00026303,0.00092600,0.00103861,-0.00023576,0.00050331,-0.00
 534588,-0.02020576,0.01139046,-0.02374588,-0.10405650,0.09927018,0.000
 15138,-0.00037988,0.00009515,-0.00047054,0.00104293,-0.00087905,0.0001
 9434,-0.00012714,0.00042514,-0.00015153,-0.00006041,0.00001472,-0.0001
 5897,-0.00003079,-0.00026718,0.00006285,0.00000151,0.00013974,0.000173
 52,0.00001662,0.00016422,-0.00002097,0.00001869,0.00002979,0.00001471,
 -0.00004142,-0.00001335,0.00000386,-0.00002784,0.00003760,0.00005502,0
 .00003335,-0.00001129,-0.00000209,0.00000530,0.00000107,0.00001567,-0.
 00000412,-0.00004188,0.00229687,0.00109587,0.00132933,-0.01019353,0.02
 881729,0.03016860,-0.04247485,-0.00034597,0.03333895,0.00003890,0.0000
 1276,-0.00002174,-0.00006933,-0.00002223,-0.00003982,-0.00000134,0.000
 01416,-0.00018484,0.00002656,-0.00000592,-0.00000301,-0.00001386,0.000
 02941,0.00002044,-0.00001262,0.00000769,0.00001231,0.00000152,0.000004
 05,0.00000202,-0.00004986,-0.00000549,0.00000222,0.00071366,-0.0005872
 4,-0.00006962,-0.00062228,-0.00047299,-0.00108033,-0.00617875,-0.00053
 266,0.00209329,0.00114706,-0.00057173,-0.00044447,0.05575098,0.0006735
 9,0.00000038,0.00046643,0.00007402,-0.00116929,-0.00001409,0.00001311,
 0.00018509,0.00006828,0.00009354,0.00004271,0.00001455,0.00022280,0.00
 002465,0.00008782,-0.00012119,0.00000695,0.00000524,-0.00015923,-0.000
 01998,-0.00008146,0.00002089,0.00000244,-0.00000832,-0.00000520,0.0000
 2609,0.00000021,0.00000289,0.00001790,-0.00001661,-0.00003534,-0.00003
 187,0.00001153,0.00000104,-0.00000181,-0.00000923,-0.00001254,-0.00000
 552,0.00003381,-0.00123087,0.00007847,0.00045978,0.00053144,0.00113618
 ,-0.00016633,0.01874020,-0.21504201,-0.17037704,-0.00000153,-0.0000005
 8,-0.00005000,0.00004169,0.00001939,0.00002267,0.00009910,-0.00003651,
 0.00007165,-0.00001745,-0.00000100,0.00000037,0.00000583,-0.00002155,-
 0.00001275,0.00000914,-0.00000232,-0.00000893,-0.00000303,-0.00000103,
 -0.00000210,0.00003729,0.00001200,-0.00001007,-0.00041675,0.00031458,0
 .00011589,0.00077261,0.00000427,0.00014366,-0.00074148,0.00193337,0.00
 072429,0.00012932,0.00043228,0.00042105,-0.02320028,0.23412086,-0.0004
 7896,0.00004328,-0.00003884,-0.00013147,0.00087169,-0.00043061,0.00011
 029,-0.00017725,0.00016105,-0.00008929,-0.00007920,0.00001128,-0.00016
 762,-0.00003031,-0.00015088,0.00008347,0.00000039,0.00005580,0.0001452
 1,0.00002071,0.00010825,-0.00001885,0.00000432,0.00000676,0.00000506,-
 0.00002894,-0.00000451,-0.00000796,-0.00002124,0.00000810,0.00004109,0
 .00003703,-0.00000438,0.00000085,0.00000329,0.00000705,0.00001338,0.00
 000622,-0.00002575,-0.00054122,0.00125163,0.00268409,-0.00708987,-0.00
 716506,-0.01227826,0.06209481,-0.20961500,-0.23942873,0.00004346,-0.00
 000669,0.00001089,-0.00006575,-0.00001885,-0.00002454,-0.00004073,0.00
 001636,-0.00010141,0.00001868,-0.00000025,-0.00000302,-0.00000737,0.00
 001587,0.00001233,-0.00001050,0.00000179,0.00000957,0.00000368,0.00000
 143,0.00000288,-0.00003621,-0.00001101,0.00000452,-0.00018860,0.000045
 47,-0.00023392,0.00052842,-0.00041186,0.00062875,0.00413071,0.00101040
 ,-0.00013749,0.00014107,0.00003417,-0.00036817,-0.05426689,0.19965289,
 0.24191538,0.00378068,0.00053581,0.00119494,-0.00591128,-0.00220397,-0
 .00391806,0.00120306,0.00042933,0.00235156,-0.00048508,-0.00040293,0.0
 0000630,-0.00028061,0.00003335,-0.00046290,0.00020728,0.00008079,0.000
 34882,0.00036668,0.00000871,0.00034063,0.00002838,0.00012147,0.0000560
 9,0.00003586,-0.00010370,-0.00001030,-0.00000461,-0.00003738,0.0000687
 4,0.00010371,0.00009154,-0.00002118,0.00000844,0.00001262,-0.00000317,
 0.00002049,0.00000445,-0.00009647,0.00108107,-0.00108537,-0.00022035,-
 0.01599261,-0.03728706,0.01628124,-0.05248609,-0.05436364,0.04161649,0
 .00005855,0.00015240,-0.00026276,-0.00001361,0.00001802,-0.00003536,0.
 00001375,-0.00011664,-0.00049019,0.00003290,-0.00000297,-0.00000766,-0
 .00003991,0.00002622,0.00004395,-0.00001443,-0.00000002,0.00001248,0.0
 0000608,0.00000604,0.00000224,-0.00009583,-0.00002406,0.00001501,0.000
 46936,0.00044959,0.00001583,-0.00017134,0.00005923,-0.00014609,0.00117
 804,0.00040172,-0.00023030,-0.00598249,0.00101749,0.00213867,-0.000226
 40,0.00447640,-0.00421891,0.07310994,-0.00053010,-0.00361211,-0.000097
 58,0.00257352,0.00283110,0.00089845,-0.00080658,-0.00047019,-0.0010368
 4,0.00017907,0.00021322,-0.00001056,-0.00001363,-0.00002967,0.00009190
 ,-0.00004591,-0.00005907,-0.00012848,-0.00007307,-0.00000440,-0.000097
 18,-0.00004374,-0.00007559,-0.00003012,-0.00001197,0.00003322,0.000000
 52,0.00000714,-0.00000013,-0.00001745,-0.00002260,-0.00003492,0.000002
 68,-0.00000683,-0.00000360,0.00000695,0.00000249,-0.00000570,0.0000273
 6,0.00091957,-0.00027582,-0.00025878,0.00149798,0.00195580,0.00207589,
 -0.08782757,-0.36246396,0.10559791,-0.00004258,-0.00007866,0.00019085,
 -0.00004216,-0.00003648,-0.00002157,-0.00005340,0.00011582,0.00018158,
 0.00000169,-0.00000141,0.00000908,0.00001297,0.00001425,-0.00000964,-0
 .00000361,0.00000806,0.00000285,-0.00000319,-0.00000013,0.00000039,0.0
 0001815,0.00001225,-0.00000452,0.00037712,-0.00032789,0.00022266,-0.00
 015081,-0.00015678,-0.00007541,0.00022275,0.00043498,-0.00031134,0.000
 84627,0.00216114,-0.00041310,-0.00468352,-0.02202414,0.01454870,0.0877
 0255,0.38188080,-0.00067585,0.00039480,-0.00142716,-0.00107053,0.00124
 706,-0.00006330,-0.00001757,-0.00043982,0.00027292,-0.00022609,-0.0001
 0159,-0.00006857,-0.00026390,-0.00002472,-0.00010681,0.00015929,0.0000
 0569,0.00002700,0.00019910,0.00001092,0.00010585,-0.00000003,0.0000379
 7,0.00002727,0.00002112,-0.00003603,-0.00001049,0.00000593,-0.00002234
 ,0.00002934,0.00004608,0.00002513,-0.00001260,-0.00000504,0.00000103,0
 .00000020,0.00001484,-0.00000258,-0.00003773,-0.00044790,-0.00170973,0
 .00116397,-0.00261136,0.01321171,-0.00687353,0.06559365,0.13960600,-0.
 09039373,0.00008300,0.00000864,0.00007347,-0.00003630,-0.00000334,-0.0
 0003263,-0.00010117,0.00000132,-0.00013613,0.00001734,-0.00000359,0.00
 000073,-0.00000911,0.00002055,0.00001230,-0.00001170,0.00001030,0.0000
 0789,0.00000058,0.00000364,0.00000175,-0.00004936,-0.00000646,0.000010
 63,-0.00003013,0.00027425,-0.00021099,-0.00011905,-0.00013243,-0.00005
 270,0.00004895,0.00054364,-0.00029766,0.00440566,-0.00003160,-0.000667
 25,-0.01055113,-0.03154321,0.00760383,-0.05436930,-0.12134521,0.091054
 13\\-0.00000071,0.00000639,-0.00000176,-0.00000444,0.00000087,0.000003
 89,0.00000559,-0.00001070,-0.00001251,0.00000053,0.00001139,0.00000905
 ,0.00000095,-0.00000072,-0.00000022,0.00000696,0.00000216,0.00000014,-
 0.00001017,-0.00000231,0.00001131,0.00000100,-0.00000133,0.00000233,0.
 00000119,0.00000489,-0.00000383,0.00000122,0.00000157,-0.00000079,-0.0
 0000271,-0.00000097,-0.00000405,-0.00000713,-0.00000788,-0.00000308,0.
 00001309,0.00000595,0.00000124,0.00000083,0.00000056,-0.00000243,0.000
 00293,-0.00000188,-0.00000033,0.00000049,-0.00000266,0.00000117,-0.000
 00125,-0.00000082,0.00000287,0.00000171,-0.00000183,-0.00000014,-0.000
 00581,0.00000233,0.00000174,-0.00000130,-0.00000117,0.00000003,0.00000
 511,0.00000251,0.00000044,0.00000002,0.00000009,0.00000117,-0.00000162
 ,0.00000050,-0.00000092,-0.00000315,0.00000141,-0.00000454,0.00000113,
 -0.00000163,0.,-0.00000256,-0.00000056,-0.00000181,-0.00000135,-0.0000
 0081,0.00000051,-0.00000149,-0.00000161,-0.00000022,0.00000047,-0.0000
 0180,-0.00000085,0.00000048,-0.00000193,0.00000158\\\@


 We're simply so accustomed to the marvels of everyday thought
 that we never wonder about it.
 -- Marvin Minsky in "Why people think computers are smart"
 Job cpu time:       0 days  1 hours 18 minutes 54.6 seconds.
 File lengths (MBytes):  RWF=    320 Int=      0 D2E=      0 Chk=      9 Scr=      1
 Normal termination of Gaussian 09 at Sat Jul 24 01:27:05 2021.
