 Entering Gaussian System, Link 0=g09
 Input=opt_freq-conf-580.com
 Output=opt_freq-conf-580.log
 Initial command:
 /aerosol/software/g09/l1.exe "/scratch/nicole/10741/Gau-86577.inp" -scrdir="/scratch/nicole/10741/"
 Entering Link 1 = /aerosol/software/g09/l1.exe PID=     86584.
  
 Copyright (c) 1988,1990,1992,1993,1995,1998,2003,2009,2013,
            Gaussian, Inc.  All Rights Reserved.
  
 This is part of the Gaussian(R) 09 program.  It is based on
 the Gaussian(R) 03 system (copyright 2003, Gaussian, Inc.),
 the Gaussian(R) 98 system (copyright 1998, Gaussian, Inc.),
 the Gaussian(R) 94 system (copyright 1995, Gaussian, Inc.),
 the Gaussian 92(TM) system (copyright 1992, Gaussian, Inc.),
 the Gaussian 90(TM) system (copyright 1990, Gaussian, Inc.),
 the Gaussian 88(TM) system (copyright 1988, Gaussian, Inc.),
 the Gaussian 86(TM) system (copyright 1986, Carnegie Mellon
 University), and the Gaussian 82(TM) system (copyright 1983,
 Carnegie Mellon University). Gaussian is a federally registered
 trademark of Gaussian, Inc.
  
 This software contains proprietary and confidential information,
 including trade secrets, belonging to Gaussian, Inc.
  
 This software is provided under written license and may be
 used, copied, transmitted, or stored only in accord with that
 written license.
  
 The following legend is applicable only to US Government
 contracts under FAR:
  
                    RESTRICTED RIGHTS LEGEND
  
 Use, reproduction and disclosure by the US Government is
 subject to restrictions as set forth in subparagraphs (a)
 and (c) of the Commercial Computer Software - Restricted
 Rights clause in FAR 52.227-19.
  
 Gaussian, Inc.
 340 Quinnipiac St., Bldg. 40, Wallingford CT 06492
  
  
 ---------------------------------------------------------------
 Warning -- This program may not be used in any manner that
 competes with the business of Gaussian, Inc. or will provide
 assistance to any competitor of Gaussian, Inc.  The licensee
 of this program is prohibited from giving any competitor of
 Gaussian, Inc. access to this program.  By using this program,
 the user acknowledges that Gaussian, Inc. is engaged in the
 business of creating and licensing software in the field of
 computational chemistry and represents and warrants to the
 licensee that it is not a competitor of Gaussian, Inc. and that
 it will not use this program in any manner prohibited above.
 ---------------------------------------------------------------
  

 Cite this work as:
 Gaussian 09, Revision D.01,
 M. J. Frisch, G. W. Trucks, H. B. Schlegel, G. E. Scuseria, 
 M. A. Robb, J. R. Cheeseman, G. Scalmani, V. Barone, B. Mennucci, 
 G. A. Petersson, H. Nakatsuji, M. Caricato, X. Li, H. P. Hratchian, 
 A. F. Izmaylov, J. Bloino, G. Zheng, J. L. Sonnenberg, M. Hada, 
 M. Ehara, K. Toyota, R. Fukuda, J. Hasegawa, M. Ishida, T. Nakajima, 
 Y. Honda, O. Kitao, H. Nakai, T. Vreven, J. A. Montgomery, Jr., 
 J. E. Peralta, F. Ogliaro, M. Bearpark, J. J. Heyd, E. Brothers, 
 K. N. Kudin, V. N. Staroverov, T. Keith, R. Kobayashi, J. Normand, 
 K. Raghavachari, A. Rendell, J. C. Burant, S. S. Iyengar, J. Tomasi, 
 M. Cossi, N. Rega, J. M. Millam, M. Klene, J. E. Knox, J. B. Cross, 
 V. Bakken, C. Adamo, J. Jaramillo, R. Gomperts, R. E. Stratmann, 
 O. Yazyev, A. J. Austin, R. Cammi, C. Pomelli, J. W. Ochterski, 
 R. L. Martin, K. Morokuma, V. G. Zakrzewski, G. A. Voth, 
 P. Salvador, J. J. Dannenberg, S. Dapprich, A. D. Daniels, 
 O. Farkas, J. B. Foresman, J. V. Ortiz, J. Cioslowski, 
 and D. J. Fox, Gaussian, Inc., Wallingford CT, 2013.
 
 ******************************************
 Gaussian 09:  ES64L-G09RevD.01 24-Apr-2013
                29-Jul-2021 
 ******************************************
 %mem=2gb
 %nproc=4
 Will use up to    4 processors via shared memory.
 %chk=conf-580.chk
 ----------------------------------------------------------------------
 # B3LYP/6-311G(2df,2pd) guess=read geom=checkpoint opt=readfc freq=nor
 aman nosymm integral(ultrafinegrid)
 ----------------------------------------------------------------------
 1/10=3,14=-1,18=20,19=15,26=4,29=2,38=1/1,3;
 2/9=110,12=2,15=1,40=1/2;
 3/5=4,6=6,7=404,11=2,14=-4,16=1,25=1,30=1,71=1,74=-5,75=-5,116=-2/1,2,3;
 4/5=1/1;
 5/5=2,38=6/2;
 6/7=2,8=2,9=2,10=2,28=1/1;
 7/30=1/1,2,3,16;
 1/14=-1,18=20,19=15,26=4/3(2);
 2/9=110,15=1/2;
 99//99;
 2/9=110,15=1/2;
 3/5=4,6=6,7=404,11=2,14=-2,16=1,25=1,30=1,71=1,74=-5,75=-5/1,2,3;
 4/5=5,16=3,69=1/1;
 5/5=2,38=5/2;
 7/30=1/1,2,3,16;
 1/14=-1,18=20,19=15,26=4/3(-5);
 2/9=110,15=1/2;
 6/7=2,8=2,9=2,10=2,19=2,28=1/1;
 99/9=1/99;
 ------------------------------------------------------------
 Candidate Structure: Conf:580 OPT and FREQ calc in gas phase
 ------------------------------------------------------------
 Structure from the checkpoint file:  "conf-580.chk"
 Charge =  1 Multiplicity = 1
 Redundant internal coordinates found in file.
 O,0,1.3079635563,0.2652432242,-1.223258073
 C,0,1.4626293889,0.3216767779,-0.0054727295
 N,0,0.4669103635,0.3915993095,0.8934221957
 C,0,-0.9435142917,0.3938598656,0.5154002769
 C,0,-1.6890406435,0.9721902148,1.7128940716
 O,0,-2.8938884946,1.4373866964,1.3843578331
 O,0,-1.2234518331,0.9813884174,2.8357081377
 C,0,-1.4310357094,-1.0507583768,0.1643291119
 C,0,-2.8370533513,-1.1570792211,-0.3193409471
 C,0,-3.980704017,-1.6296376994,0.2819235268
 N,0,-5.0654536885,-1.5207836749,-0.5548047078
 C,0,-4.5952462936,-0.987189376,-1.6600296297
 N,0,-3.2522214201,-0.7427540489,-1.5751216316
 C,0,2.891263527,0.2933102372,0.5885591923
 C,0,3.8335940321,0.8495400309,-0.4695755612
 N,0,5.289335178,0.5094531251,-0.1577366526
 H,0,0.6351884906,0.4627742772,1.8921444522
 H,0,-1.0804560634,1.0440262849,-0.3527929032
 H,0,-3.3411740819,1.7260010715,2.1997848138
 H,0,-1.3157670276,-1.6735158017,1.0570633379
 H,0,-0.7279404528,-1.4290543835,-0.5867370636
 H,0,-4.0750725549,-2.0487394965,1.2750477065
 H,0,-5.1682745987,-0.7590399809,-2.5481759768
 H,0,-2.6678532269,-0.3717421133,-2.3095138499
 H,0,3.1333465029,-0.7556645115,0.8083028029
 H,0,2.9499784225,0.8536780897,1.5272946071
 H,0,3.5963499296,0.4159473757,-1.4421064585
 H,0,3.7849568736,1.9371954271,-0.545651837
 H,0,5.9196460388,0.8737804743,-0.8808429061
 H,0,5.5882769453,0.9030708908,0.741209254
 H,0,5.4289009302,-0.5060126657,-0.1090879329
 Recover connectivity data from disk.

 GradGradGradGradGradGradGradGradGradGradGradGradGradGradGradGradGradGrad
 Berny optimization.
 Initialization pass.
 Force constant matrix read from checkpoint file:
 "conf-580.chk"
                           ----------------------------
                           !    Initial Parameters    !
                           ! (Angstroms and Degrees)  !
 --------------------------                            --------------------------
 ! Name  Definition              Value          Derivative Info.                !
 --------------------------------------------------------------------------------
 ! R1    R(1,2)                  1.2289         D2E/DX2 =    0.7819             !
 ! R2    R(2,3)                  1.3433         D2E/DX2 =    0.5102             !
 ! R3    R(2,14)                 1.5475         D2E/DX2 =    0.2482             !
 ! R4    R(3,4)                  1.4602         D2E/DX2 =    0.3284             !
 ! R5    R(3,17)                 1.0153         D2E/DX2 =    0.4516             !
 ! R6    R(4,5)                  1.5246         D2E/DX2 =    0.2803             !
 ! R7    R(4,8)                  1.5646         D2E/DX2 =    0.2356             !
 ! R8    R(4,18)                 1.0933         D2E/DX2 =    0.341              !
 ! R9    R(5,6)                  1.3327         D2E/DX2 =    0.4566             !
 ! R10   R(5,7)                  1.2156         D2E/DX2 =    0.8445             !
 ! R11   R(6,19)                 0.9738         D2E/DX2 =    0.503              !
 ! R12   R(8,9)                  1.4907         D2E/DX2 =    0.321              !
 ! R13   R(8,20)                 1.0946         D2E/DX2 =    0.3386             !
 ! R14   R(8,21)                 1.0962         D2E/DX2 =    0.3333             !
 ! R15   R(9,10)                 1.3758         D2E/DX2 =    0.408              !
 ! R16   R(9,13)                 1.386          D2E/DX2 =    0.3583             !
 ! R17   R(10,11)                1.3743         D2E/DX2 =    0.3399             !
 ! R18   R(10,22)                1.0821         D2E/DX2 =    0.3708             !
 ! R19   R(11,12)                1.3143         D2E/DX2 =    0.4642             !
 ! R20   R(12,13)                1.3677         D2E/DX2 =    0.3585             !
 ! R21   R(12,23)                1.0813         D2E/DX2 =    0.3745             !
 ! R22   R(13,24)                1.0092         D2E/DX2 =    0.4751             !
 ! R23   R(14,15)                1.5222         D2E/DX2 =    0.2905             !
 ! R24   R(14,25)                1.0987         D2E/DX2 =    0.3297             !
 ! R25   R(14,26)                1.0948         D2E/DX2 =    0.3383             !
 ! R26   R(15,16)                1.5271         D2E/DX2 =    0.2343             !
 ! R27   R(15,27)                1.0909         D2E/DX2 =    0.3513             !
 ! R28   R(15,28)                1.0914         D2E/DX2 =    0.3487             !
 ! R29   R(16,29)                1.0261         D2E/DX2 =    0.428              !
 ! R30   R(16,30)                1.0259         D2E/DX2 =    0.4283             !
 ! R31   R(16,31)                1.0262         D2E/DX2 =    0.4276             !
 ! A1    A(1,2,3)              124.9071         D2E/DX2 =    0.1946             !
 ! A2    A(1,2,14)             119.7202         D2E/DX2 =    0.1865             !
 ! A3    A(3,2,14)             115.367          D2E/DX2 =    0.1647             !
 ! A4    A(2,3,4)              122.8769         D2E/DX2 =    0.1186             !
 ! A5    A(2,3,17)             122.6191         D2E/DX2 =    0.0887             !
 ! A6    A(4,3,17)             114.4966         D2E/DX2 =    0.0947             !
 ! A7    A(3,4,5)              105.6395         D2E/DX2 =    0.0904             !
 ! A8    A(3,4,8)              110.9554         D2E/DX2 =    0.0842             !
 ! A9    A(3,4,18)             109.1168         D2E/DX2 =    0.0293             !
 ! A10   A(5,4,8)              111.971          D2E/DX2 =    0.0759             !
 ! A11   A(5,4,18)             109.6891         D2E/DX2 =    0.0251             !
 ! A12   A(8,4,18)             109.3832         D2E/DX2 =    0.0314             !
 ! A13   A(4,5,6)              112.3888         D2E/DX2 =    0.1598             !
 ! A14   A(4,5,7)              122.7593         D2E/DX2 =    0.1816             !
 ! A15   A(6,5,7)              124.8455         D2E/DX2 =    0.1985             !
 ! A16   A(5,6,19)             108.1974         D2E/DX2 =    0.1718             !
 ! A17   A(4,8,9)              115.6306         D2E/DX2 =    0.144              !
 ! A18   A(4,8,20)             108.0295         D2E/DX2 =    0.0602             !
 ! A19   A(4,8,21)             105.8152         D2E/DX2 =    0.0616             !
 ! A20   A(9,8,20)             108.8675         D2E/DX2 =    0.0498             !
 ! A21   A(9,8,21)             110.9811         D2E/DX2 =    0.0512             !
 ! A22   A(20,8,21)            107.1538         D2E/DX2 =    0.0197             !
 ! A23   A(8,9,10)             131.8175         D2E/DX2 =    0.0927             !
 ! A24   A(8,9,13)             123.7235         D2E/DX2 =    0.0998             !
 ! A25   A(10,9,13)            104.4568         D2E/DX2 =    0.102              !
 ! A26   A(9,10,11)            111.2752         D2E/DX2 =    0.1139             !
 ! A27   A(9,10,22)            127.3478         D2E/DX2 =    0.0821             !
 ! A28   A(11,10,22)           121.3758         D2E/DX2 =    0.0901             !
 ! A29   A(10,11,12)           105.1749         D2E/DX2 =    0.1303             !
 ! A30   A(11,12,13)           111.818          D2E/DX2 =    0.1183             !
 ! A31   A(11,12,23)           125.929          D2E/DX2 =    0.0896             !
 ! A32   A(13,12,23)           122.2526         D2E/DX2 =    0.0905             !
 ! A33   A(9,13,12)            107.2748         D2E/DX2 =    0.1024             !
 ! A34   A(9,13,24)            126.5682         D2E/DX2 =    0.0772             !
 ! A35   A(12,13,24)           126.0942         D2E/DX2 =    0.0788             !
 ! A36   A(2,14,15)            107.3363         D2E/DX2 =    0.1702             !
 ! A37   A(2,14,25)            107.3183         D2E/DX2 =    0.0434             !
 ! A38   A(2,14,26)            111.6703         D2E/DX2 =    0.0544             !
 ! A39   A(15,14,25)           110.5787         D2E/DX2 =    0.0532             !
 ! A40   A(15,14,26)           112.0737         D2E/DX2 =    0.0583             !
 ! A41   A(25,14,26)           107.779          D2E/DX2 =    0.0227             !
 ! A42   A(14,15,16)           111.5187         D2E/DX2 =    0.1469             !
 ! A43   A(14,15,27)           109.8671         D2E/DX2 =    0.0435             !
 ! A44   A(14,15,28)           112.6457         D2E/DX2 =    0.0455             !
 ! A45   A(16,15,27)           107.5078         D2E/DX2 =    0.0535             !
 ! A46   A(16,15,28)           106.1797         D2E/DX2 =    0.058              !
 ! A47   A(27,15,28)           108.9208         D2E/DX2 =    0.0191             !
 ! A48   A(15,16,29)           111.2592         D2E/DX2 =    0.0963             !
 ! A49   A(15,16,30)           111.7942         D2E/DX2 =    0.0971             !
 ! A50   A(15,16,31)           111.0822         D2E/DX2 =    0.0973             !
 ! A51   A(29,16,30)           107.5948         D2E/DX2 =    0.0538             !
 ! A52   A(29,16,31)           107.5307         D2E/DX2 =    0.0529             !
 ! A53   A(30,16,31)           107.3685         D2E/DX2 =    0.054              !
 ! D1    D(1,2,3,4)              0.696          D2E/DX2 =    0.0112             !
 ! D2    D(1,2,3,17)          -178.2639         D2E/DX2 =    0.0109             !
 ! D3    D(14,2,3,4)          -178.4271         D2E/DX2 =    0.0105             !
 ! D4    D(14,2,3,17)            2.613          D2E/DX2 =    0.0073             !
 ! D5    D(1,2,14,15)           26.4994         D2E/DX2 =    0.0151             !
 ! D6    D(1,2,14,25)          -92.3849         D2E/DX2 =    0.0166             !
 ! D7    D(1,2,14,26)          149.706          D2E/DX2 =    0.016              !
 ! D8    D(3,2,14,15)         -154.3286         D2E/DX2 =    0.0152             !
 ! D9    D(3,2,14,25)           86.7871         D2E/DX2 =    0.0155             !
 ! D10   D(3,2,14,26)          -31.122          D2E/DX2 =    0.0164             !
 ! D11   D(2,3,4,5)           -160.3239         D2E/DX2 =    0.0131             !
 ! D12   D(2,3,4,8)             78.1256         D2E/DX2 =    0.013              !
 ! D13   D(2,3,4,18)           -42.4633         D2E/DX2 =    0.0082             !
 ! D14   D(17,3,4,5)            18.7133         D2E/DX2 =    0.0143             !
 ! D15   D(17,3,4,8)          -102.8371         D2E/DX2 =    0.0131             !
 ! D16   D(17,3,4,18)          136.5739         D2E/DX2 =    0.0095             !
 ! D17   D(3,4,5,6)            159.674          D2E/DX2 =    0.022              !
 ! D18   D(3,4,5,7)            -21.2097         D2E/DX2 =    0.0225             !
 ! D19   D(8,4,5,6)            -79.4343         D2E/DX2 =    0.0208             !
 ! D20   D(8,4,5,7)             99.682          D2E/DX2 =    0.0196             !
 ! D21   D(18,4,5,6)            42.1978         D2E/DX2 =    0.0151             !
 ! D22   D(18,4,5,7)          -138.6858         D2E/DX2 =    0.0148             !
 ! D23   D(3,4,8,9)           -176.3202         D2E/DX2 =    0.0186             !
 ! D24   D(3,4,8,20)            61.4473         D2E/DX2 =    0.0196             !
 ! D25   D(3,4,8,21)           -53.0448         D2E/DX2 =    0.0202             !
 ! D26   D(5,4,8,9)             65.9186         D2E/DX2 =    0.0187             !
 ! D27   D(5,4,8,20)           -56.314          D2E/DX2 =    0.0189             !
 ! D28   D(5,4,8,21)          -170.8061         D2E/DX2 =    0.0198             !
 ! D29   D(18,4,8,9)           -55.8891         D2E/DX2 =    0.0114             !
 ! D30   D(18,4,8,20)         -178.1216         D2E/DX2 =    0.0134             !
 ! D31   D(18,4,8,21)           67.3863         D2E/DX2 =    0.0131             !
 ! D32   D(4,5,6,19)           175.6294         D2E/DX2 =    0.0175             !
 ! D33   D(7,5,6,19)            -3.4652         D2E/DX2 =    0.0166             !
 ! D34   D(4,8,9,10)          -106.3981         D2E/DX2 =    0.0118             !
 ! D35   D(4,8,9,13)            72.9774         D2E/DX2 =    0.0119             !
 ! D36   D(20,8,9,10)           15.3872         D2E/DX2 =    0.0129             !
 ! D37   D(20,8,9,13)         -165.2373         D2E/DX2 =    0.0133             !
 ! D38   D(21,8,9,10)          133.0891         D2E/DX2 =    0.0131             !
 ! D39   D(21,8,9,13)          -47.5354         D2E/DX2 =    0.0132             !
 ! D40   D(8,9,10,11)          179.5518         D2E/DX2 =    0.0096             !
 ! D41   D(8,9,10,22)           -0.8467         D2E/DX2 =    0.0071             !
 ! D42   D(13,9,10,11)           0.0882         D2E/DX2 =    0.0142             !
 ! D43   D(13,9,10,22)         179.6897         D2E/DX2 =    0.0097             !
 ! D44   D(8,9,13,12)         -179.6748         D2E/DX2 =    0.008              !
 ! D45   D(8,9,13,24)            3.0779         D2E/DX2 =    0.0023             !
 ! D46   D(10,9,13,12)          -0.1554         D2E/DX2 =    0.0124             !
 ! D47   D(10,9,13,24)        -177.4027         D2E/DX2 =    0.0044             !
 ! D48   D(9,10,11,12)           0.0167         D2E/DX2 =    0.0174             !
 ! D49   D(22,10,11,12)       -179.6122         D2E/DX2 =    0.01               !
 ! D50   D(10,11,12,13)         -0.1208         D2E/DX2 =    0.0184             !
 ! D51   D(10,11,12,23)        179.6493         D2E/DX2 =    0.0103             !
 ! D52   D(11,12,13,9)           0.1794         D2E/DX2 =    0.0171             !
 ! D53   D(11,12,13,24)        177.4434         D2E/DX2 =    0.0078             !
 ! D54   D(23,12,13,9)        -179.6005         D2E/DX2 =    0.0103             !
 ! D55   D(23,12,13,24)         -2.3365         D2E/DX2 =    0.0061             !
 ! D56   D(2,14,15,16)        -163.9039         D2E/DX2 =    0.0146             !
 ! D57   D(2,14,15,27)         -44.8053         D2E/DX2 =    0.0145             !
 ! D58   D(2,14,15,28)          76.8182         D2E/DX2 =    0.0144             !
 ! D59   D(25,14,15,16)        -47.1409         D2E/DX2 =    0.0156             !
 ! D60   D(25,14,15,27)         71.9578         D2E/DX2 =    0.0167             !
 ! D61   D(25,14,15,28)       -166.4187         D2E/DX2 =    0.0157             !
 ! D62   D(26,14,15,16)         73.138          D2E/DX2 =    0.0158             !
 ! D63   D(26,14,15,27)       -167.7634         D2E/DX2 =    0.0152             !
 ! D64   D(26,14,15,28)        -46.1398         D2E/DX2 =    0.0163             !
 ! D65   D(14,15,16,29)        179.1271         D2E/DX2 =    0.0141             !
 ! D66   D(14,15,16,30)        -60.5486         D2E/DX2 =    0.014              !
 ! D67   D(14,15,16,31)         59.3659         D2E/DX2 =    0.0141             !
 ! D68   D(27,15,16,29)         58.6347         D2E/DX2 =    0.0151             !
 ! D69   D(27,15,16,30)        178.959          D2E/DX2 =    0.0148             !
 ! D70   D(27,15,16,31)        -61.1266         D2E/DX2 =    0.0154             !
 ! D71   D(28,15,16,29)        -57.8244         D2E/DX2 =    0.015              !
 ! D72   D(28,15,16,30)         62.4999         D2E/DX2 =    0.0154             !
 ! D73   D(28,15,16,31)       -177.5857         D2E/DX2 =    0.0147             !
 --------------------------------------------------------------------------------
 Trust Radius=3.00D-01 FncErr=1.00D-07 GrdErr=1.00D-06
 Number of steps in this run=    167 maximum allowed number of steps=    186.
 GradGradGradGradGradGradGradGradGradGradGradGradGradGradGradGradGradGrad

                          Input orientation:                          
 ---------------------------------------------------------------------
 Center     Atomic      Atomic             Coordinates (Angstroms)
 Number     Number       Type             X           Y           Z
 ---------------------------------------------------------------------
      1          8           0        1.307964    0.265243   -1.223258
      2          6           0        1.462629    0.321677   -0.005473
      3          7           0        0.466910    0.391599    0.893422
      4          6           0       -0.943514    0.393860    0.515400
      5          6           0       -1.689041    0.972190    1.712894
      6          8           0       -2.893888    1.437387    1.384358
      7          8           0       -1.223452    0.981388    2.835708
      8          6           0       -1.431036   -1.050758    0.164329
      9          6           0       -2.837053   -1.157079   -0.319341
     10          6           0       -3.980704   -1.629638    0.281924
     11          7           0       -5.065454   -1.520784   -0.554805
     12          6           0       -4.595246   -0.987189   -1.660030
     13          7           0       -3.252221   -0.742754   -1.575122
     14          6           0        2.891264    0.293310    0.588559
     15          6           0        3.833594    0.849540   -0.469576
     16          7           0        5.289335    0.509453   -0.157737
     17          1           0        0.635188    0.462774    1.892144
     18          1           0       -1.080456    1.044026   -0.352793
     19          1           0       -3.341174    1.726001    2.199785
     20          1           0       -1.315767   -1.673516    1.057063
     21          1           0       -0.727940   -1.429054   -0.586737
     22          1           0       -4.075073   -2.048739    1.275048
     23          1           0       -5.168275   -0.759040   -2.548176
     24          1           0       -2.667853   -0.371742   -2.309514
     25          1           0        3.133347   -0.755665    0.808303
     26          1           0        2.949978    0.853678    1.527295
     27          1           0        3.596350    0.415947   -1.442106
     28          1           0        3.784957    1.937195   -0.545652
     29          1           0        5.919646    0.873780   -0.880843
     30          1           0        5.588277    0.903071    0.741209
     31          1           0        5.428901   -0.506013   -0.109088
 ---------------------------------------------------------------------
                    Distance matrix (angstroms):
                    1          2          3          4          5
     1  O    0.000000
     2  C    1.228864   0.000000
     3  N    2.281156   1.343264   0.000000
     4  C    2.847565   2.462935   1.460207   0.000000
     5  C    4.254738   3.648147   2.378391   1.524555   0.000000
     6  O    5.082238   4.706983   3.553823   2.376551   1.332667
     7  O    4.836955   3.965168   2.641524   2.409851   1.215553
     8  C    3.340565   3.207134   2.492824   1.564561   2.560652
     9  C    4.474509   4.557686   3.845176   2.586058   3.159383
    10  C    5.816025   5.789655   4.923475   3.656990   3.750854
    11  N    6.652606   6.805314   6.030060   4.669217   4.770487
    12  C    6.050392   6.414713   5.834947   4.469333   4.864341
    13  N    4.683498   5.081991   4.605693   3.315464   4.024378
    14  C    2.406306   1.547473   2.445422   3.836793   4.764892
    15  C    2.699676   2.472955   3.660879   4.898835   5.939504
    16  N    4.128716   3.834335   4.937064   6.270159   7.239552
    17  H    3.193333   2.074974   1.015298   2.095824   2.386143
    18  H    2.658714   2.666403   2.091185   1.093265   2.154669
    19  H    5.955293   5.469170   4.241311   3.218777   1.880117
    20  H    3.980278   3.581796   2.733024   2.169335   2.751219
    21  H    2.724098   2.863830   2.633120   2.141073   3.460924
    22  H    6.369704   6.158307   5.170155   4.043515   3.874387
    23  H    6.689262   7.183465   6.702528   5.344462   5.767057
    24  H    4.170470   4.780201   4.546233   3.397003   4.352470
    25  H    2.915736   2.148067   2.904022   4.245938   5.201844
    26  H    3.256994   2.201047   2.604023   4.049031   4.644243
    27  H    2.303762   2.574018   3.904956   4.943955   6.180517
    28  H    3.064322   2.880087   3.933095   5.085878   5.999743
    29  H    4.664245   4.575597   5.754376   7.020170   8.039233
    30  H    4.752582   4.232791   5.149094   6.555500   7.342227
    31  H    4.338011   4.053038   5.141214   6.465867   7.494651
                    6          7          8          9         10
     6  O    0.000000
     7  O    2.259361   0.000000
     8  C    3.133572   3.362882   0.000000
     9  C    3.104364   4.138972   1.490680   0.000000
    10  C    3.435574   4.576212   2.617200   1.375779   0.000000
    11  N    4.150520   5.702405   3.734578   2.270130   1.374280
    12  C    4.247527   5.954490   3.653020   2.217555   2.135787
    13  N    3.693228   5.152086   2.537178   1.386007   2.183086
    14  C    5.950646   4.738566   4.546291   5.978422   7.142527
    15  C    7.002975   6.042847   5.632876   6.967541   8.232516
    16  N    8.378799   7.183302   6.906618   8.297086   9.523793
    17  H    3.696228   2.147980   3.089565   4.423919   5.317656
    18  H    2.541842   3.192321   2.185965   2.816313   3.995345
    19  H    0.973799   2.333151   3.937271   3.861643   3.917589
    20  H    3.503613   3.196970   1.094572   2.115540   2.775726
    21  H    4.097930   4.215317   1.096153   2.143322   3.372725
    22  H    3.682420   4.443993   3.036543   2.206768   1.082057
    23  H    5.045983   6.897603   4.627066   3.249728   3.190255
    24  H    4.119311   5.512764   2.847926   2.146199   3.165664
    25  H    6.439633   5.109737   4.619022   6.089203   7.186837
    26  H    5.874685   4.375589   4.967679   6.398667   7.466737
    27  H    7.152303   6.469151   5.477816   6.717417   8.035449
    28  H    6.970059   6.118114   6.052976   7.312781   8.585608
    29  H    9.117411   8.052837   7.669991   9.006634  10.277940
    30  H    8.523278   7.126900   7.308966   8.738145   9.909135
    31  H    8.676175   7.425495   6.886961   8.294221   9.484518
                   11         12         13         14         15
    11  N    0.000000
    12  C    1.314283   0.000000
    13  N    2.221303   1.367726   0.000000
    14  C    8.240605   7.921090   6.595252   0.000000
    15  C    9.209709   8.708393   7.346184   1.522179   0.000000
    16  N   10.559412  10.109489   8.748439   2.520798   1.527117
    17  H    6.513016   6.486739   5.346699   2.611116   3.994635
    18  H    4.743339   4.264793   3.066470   4.150214   4.919284
    19  H    4.593747   4.881830   4.511384   6.594841   7.705256
    20  H    4.084311   4.313771   3.397730   4.667655   5.934000
    21  H    4.338601   4.037729   2.796410   4.176901   5.100325
    22  H    2.146614   3.164198   3.241319   7.381484   8.601787
    23  H    2.136435   1.081304   2.149037   8.712216   9.377726
    24  H    3.185559   2.124959   1.009192   6.304356   6.866274
    25  H    8.346484   8.116490   6.815890   1.098744   2.167949
    26  H    8.615124   8.395132   7.116240   1.094844   2.183640
    27  H    8.919926   8.313756   6.947173   2.153088   1.090919
    28  H    9.501972   8.945483   7.600251   2.188031   1.091397
    29  H   11.247784  10.706694   9.339077   3.415727   2.126345
    30  H   11.002577  10.632177   9.285932   2.769294   2.132552
    31  H   10.552720  10.154825   8.807224   2.750497   2.124260
                   16         17         18         19         20
    16  N    0.000000
    17  H    5.085791   0.000000
    18  H    6.395159   2.884620   0.000000
    19  H    9.029041   4.183521   3.477296   0.000000
    20  H    7.061761   3.011200   3.070521   4.118835   0.000000
    21  H    6.336360   3.403232   2.509009   4.954601   1.762777
    22  H    9.812714   5.373553   4.602477   3.955049   2.793220
    23  H   10.802077   7.408742   4.978053   5.661878   5.354982
    24  H    8.289964   5.409292   2.890153   5.018731   3.854425
    25  H    2.679933   2.983303   4.726855   7.072079   4.549609
    26  H    2.903517   2.375747   4.451445   6.386845   4.980403
    27  H    2.127099   4.459585   4.842892   7.944108   5.894116
    28  H    2.109995   4.247094   4.950474   7.639618   6.451613
    29  H    1.026113   5.981963   7.022055   9.796904   7.911726
    30  H    1.025868   5.104077   6.759342   9.085139   7.375933
    31  H    1.026166   5.284237   6.695800   9.339539   6.943595
                   21         22         23         24         25
    21  H    0.000000
    22  H    3.879890   0.000000
    23  H    4.900278   4.180365   0.000000
    24  H    2.801630   4.200199   2.541469   0.000000
    25  H    4.160424   7.338338   8.954489   6.597128   0.000000
    26  H    4.817373   7.605195   9.225852   6.912509   1.772162
    27  H    4.778616   8.503431   8.911937   6.372840   2.579029
    28  H    5.630237   8.999038   9.562434   7.076804   3.083713
    29  H    7.041303  10.634067  11.330847   8.794178   3.643044
    30  H    6.862715  10.118226  11.370403   8.893579   2.963543
    31  H    6.243945   9.727351  10.877192   8.391503   2.484653
                   26         27         28         29         30
    26  H    0.000000
    27  H    3.070301   0.000000
    28  H    2.483607   1.775781   0.000000
    29  H    3.823409   2.433584   2.408340   0.000000
    30  H    2.753360   2.995318   2.444870   1.655813   0.000000
    31  H    3.266736   2.446465   2.976979   1.655375   1.653458
                   31
    31  H    0.000000
 Symmetry turned off by external request.
 Stoichiometry    C9H15N4O3(1+)
 Framework group  C1[X(C9H15N4O3)]
 Deg. of freedom    87
 Full point group                 C1      NOp   1
 Rotational constants (GHZ):      1.0367308      0.2248332      0.1964990
 Standard basis: 6-311G(2df,2pd) (5D, 7F)
   690 basis functions,  1023 primitive gaussians,   785 cartesian basis functions
    60 alpha electrons       60 beta electrons
       nuclear repulsion energy      1108.1506745411 Hartrees.
 NAtoms=   31 NActive=   31 NUniq=   31 SFac= 1.00D+00 NAtFMM=   60 NAOKFM=F Big=F
 Integral buffers will be    131072 words long.
 Raffenetti 2 integral format.
 Two-electron integral symmetry is turned off.
 One-electron integrals computed using PRISM.
 NBasis=   690 RedAO= T EigKep=  2.21D-04  NBF=   690
 NBsUse=   690 1.00D-06 EigRej= -1.00D+00 NBFU=   690
 Initial guess from the checkpoint file:  "conf-580.chk"
 B after Tr=     0.000000    0.000000    0.000000
         Rot=    1.000000    0.000000    0.000000    0.000000 Ang=   0.00 deg.
 Requested convergence on RMS density matrix=1.00D-08 within 128 cycles.
 Requested convergence on MAX density matrix=1.00D-06.
 Requested convergence on             energy=1.00D-06.
 No special actions if energy rises.
 SCF Done:  E(RB3LYP) =  -796.726273987     A.U. after   11 cycles
            NFock= 11  Conv=0.60D-08     -V/T= 2.0041

 **********************************************************************

            Population analysis using the SCF density.

 **********************************************************************

 Alpha  occ. eigenvalues --  -19.27535 -19.22253 -19.22048 -14.63985 -14.46909
 Alpha  occ. eigenvalues --  -14.43990 -14.35613 -10.41553 -10.41499 -10.41407
 Alpha  occ. eigenvalues --  -10.35760 -10.34246 -10.29129 -10.29070 -10.27978
 Alpha  occ. eigenvalues --  -10.25170  -1.21866  -1.20345  -1.17472  -1.13055
 Alpha  occ. eigenvalues --   -1.08534  -1.06027  -0.96559  -0.94329  -0.90496
 Alpha  occ. eigenvalues --   -0.85139  -0.82640  -0.78912  -0.78341  -0.77220
 Alpha  occ. eigenvalues --   -0.73765  -0.71008  -0.69225  -0.68628  -0.66463
 Alpha  occ. eigenvalues --   -0.65173  -0.63946  -0.61981  -0.60642  -0.59541
 Alpha  occ. eigenvalues --   -0.58624  -0.57812  -0.57036  -0.55507  -0.53947
 Alpha  occ. eigenvalues --   -0.53433  -0.52536  -0.51041  -0.50573  -0.49541
 Alpha  occ. eigenvalues --   -0.48369  -0.47822  -0.47113  -0.43299  -0.40440
 Alpha  occ. eigenvalues --   -0.39629  -0.39218  -0.35556  -0.33843  -0.30170
 Alpha virt. eigenvalues --   -0.19055  -0.13475  -0.12406  -0.11899  -0.10644
 Alpha virt. eigenvalues --   -0.10203  -0.07509  -0.06471  -0.05687  -0.04899
 Alpha virt. eigenvalues --   -0.04526  -0.04203  -0.02395  -0.02231  -0.01442
 Alpha virt. eigenvalues --   -0.00755  -0.00263   0.01439   0.01972   0.02896
 Alpha virt. eigenvalues --    0.03525   0.04235   0.06817   0.07466   0.09121
 Alpha virt. eigenvalues --    0.09386   0.11449   0.11740   0.12214   0.12651
 Alpha virt. eigenvalues --    0.13143   0.14401   0.14704   0.16040   0.16344
 Alpha virt. eigenvalues --    0.18264   0.19515   0.20173   0.22037   0.22770
 Alpha virt. eigenvalues --    0.23901   0.24537   0.25255   0.25867   0.27239
 Alpha virt. eigenvalues --    0.27680   0.27841   0.28471   0.28941   0.29302
 Alpha virt. eigenvalues --    0.29744   0.30138   0.30819   0.30927   0.31459
 Alpha virt. eigenvalues --    0.31915   0.32463   0.32975   0.33154   0.34440
 Alpha virt. eigenvalues --    0.34689   0.35679   0.36659   0.37122   0.37598
 Alpha virt. eigenvalues --    0.37781   0.38629   0.39205   0.40352   0.40696
 Alpha virt. eigenvalues --    0.41157   0.42092   0.42847   0.44344   0.44656
 Alpha virt. eigenvalues --    0.45088   0.45414   0.45869   0.46775   0.48480
 Alpha virt. eigenvalues --    0.48925   0.50078   0.51074   0.51666   0.53135
 Alpha virt. eigenvalues --    0.53715   0.54536   0.55541   0.56901   0.57251
 Alpha virt. eigenvalues --    0.58175   0.59219   0.59702   0.60013   0.61645
 Alpha virt. eigenvalues --    0.62751   0.62927   0.63469   0.64397   0.65001
 Alpha virt. eigenvalues --    0.66488   0.66650   0.67418   0.68298   0.69539
 Alpha virt. eigenvalues --    0.69914   0.71108   0.71996   0.72759   0.73648
 Alpha virt. eigenvalues --    0.75209   0.75387   0.76448   0.76724   0.77785
 Alpha virt. eigenvalues --    0.78548   0.79409   0.80601   0.81232   0.83550
 Alpha virt. eigenvalues --    0.84019   0.84515   0.86473   0.86771   0.87013
 Alpha virt. eigenvalues --    0.88747   0.89819   0.90520   0.90813   0.91829
 Alpha virt. eigenvalues --    0.92429   0.92789   0.94188   0.94376   0.95719
 Alpha virt. eigenvalues --    0.95844   0.96282   0.97298   0.98217   0.98546
 Alpha virt. eigenvalues --    0.98776   0.99498   0.99806   0.99997   1.01120
 Alpha virt. eigenvalues --    1.03381   1.03698   1.05164   1.06038   1.06363
 Alpha virt. eigenvalues --    1.06639   1.08101   1.08824   1.09520   1.10166
 Alpha virt. eigenvalues --    1.10657   1.11651   1.11745   1.12898   1.14485
 Alpha virt. eigenvalues --    1.15610   1.15686   1.16203   1.17141   1.18102
 Alpha virt. eigenvalues --    1.18492   1.19352   1.20127   1.21015   1.21440
 Alpha virt. eigenvalues --    1.21688   1.22763   1.24111   1.24779   1.25172
 Alpha virt. eigenvalues --    1.25775   1.26632   1.27588   1.28525   1.28830
 Alpha virt. eigenvalues --    1.29693   1.30045   1.30843   1.31384   1.31488
 Alpha virt. eigenvalues --    1.32854   1.34040   1.34617   1.35394   1.36249
 Alpha virt. eigenvalues --    1.39530   1.40183   1.42117   1.42607   1.44668
 Alpha virt. eigenvalues --    1.45694   1.46380   1.47305   1.47958   1.48962
 Alpha virt. eigenvalues --    1.50253   1.51615   1.52330   1.53735   1.54787
 Alpha virt. eigenvalues --    1.57288   1.57994   1.58757   1.61460   1.61958
 Alpha virt. eigenvalues --    1.62901   1.63764   1.65557   1.65949   1.68686
 Alpha virt. eigenvalues --    1.69432   1.70657   1.72077   1.74958   1.75584
 Alpha virt. eigenvalues --    1.79589   1.80917   1.85138   1.87181   1.91259
 Alpha virt. eigenvalues --    1.92323   1.94583   1.97400   1.97480   1.99377
 Alpha virt. eigenvalues --    2.01702   2.04479   2.05936   2.06912   2.11092
 Alpha virt. eigenvalues --    2.13462   2.15493   2.16569   2.20380   2.21343
 Alpha virt. eigenvalues --    2.27328   2.28900   2.34387   2.36153   2.40329
 Alpha virt. eigenvalues --    2.41256   2.41848   2.42903   2.45261   2.46923
 Alpha virt. eigenvalues --    2.48146   2.49695   2.50968   2.52298   2.53235
 Alpha virt. eigenvalues --    2.53742   2.54937   2.55191   2.56247   2.56741
 Alpha virt. eigenvalues --    2.58209   2.58983   2.60670   2.62200   2.63627
 Alpha virt. eigenvalues --    2.65141   2.65667   2.67043   2.68305   2.69019
 Alpha virt. eigenvalues --    2.70465   2.71116   2.72593   2.73856   2.74792
 Alpha virt. eigenvalues --    2.75140   2.76028   2.76590   2.77767   2.78056
 Alpha virt. eigenvalues --    2.79063   2.79636   2.80777   2.80947   2.81648
 Alpha virt. eigenvalues --    2.82576   2.83518   2.83879   2.85026   2.85855
 Alpha virt. eigenvalues --    2.86816   2.87344   2.87446   2.89607   2.90344
 Alpha virt. eigenvalues --    2.90772   2.91788   2.92390   2.93304   2.94496
 Alpha virt. eigenvalues --    2.94747   2.95729   2.96189   2.97389   2.98236
 Alpha virt. eigenvalues --    2.98725   2.99230   3.00148   3.00599   3.00926
 Alpha virt. eigenvalues --    3.01941   3.02430   3.03579   3.03984   3.04313
 Alpha virt. eigenvalues --    3.05376   3.06097   3.06400   3.06894   3.08131
 Alpha virt. eigenvalues --    3.08998   3.09463   3.11330   3.12243   3.12476
 Alpha virt. eigenvalues --    3.12685   3.13707   3.14313   3.14797   3.15505
 Alpha virt. eigenvalues --    3.15675   3.16623   3.17182   3.17702   3.19755
 Alpha virt. eigenvalues --    3.20281   3.21468   3.21764   3.22130   3.22775
 Alpha virt. eigenvalues --    3.23430   3.24245   3.24870   3.25908   3.27490
 Alpha virt. eigenvalues --    3.28044   3.28925   3.29100   3.29836   3.31346
 Alpha virt. eigenvalues --    3.31989   3.32482   3.33671   3.34063   3.34932
 Alpha virt. eigenvalues --    3.36171   3.36337   3.36798   3.37805   3.38622
 Alpha virt. eigenvalues --    3.38837   3.39608   3.40592   3.41008   3.41950
 Alpha virt. eigenvalues --    3.43248   3.43818   3.45306   3.46409   3.47182
 Alpha virt. eigenvalues --    3.47815   3.48355   3.49221   3.50530   3.50768
 Alpha virt. eigenvalues --    3.52608   3.52735   3.53386   3.54743   3.55185
 Alpha virt. eigenvalues --    3.56673   3.57987   3.58441   3.59141   3.60254
 Alpha virt. eigenvalues --    3.61035   3.61734   3.62166   3.62903   3.63199
 Alpha virt. eigenvalues --    3.64937   3.66211   3.66636   3.67210   3.68178
 Alpha virt. eigenvalues --    3.69383   3.70463   3.71249   3.71733   3.72667
 Alpha virt. eigenvalues --    3.74198   3.74456   3.75308   3.76428   3.77631
 Alpha virt. eigenvalues --    3.78051   3.78812   3.79181   3.80107   3.80744
 Alpha virt. eigenvalues --    3.81145   3.81944   3.82706   3.84197   3.85292
 Alpha virt. eigenvalues --    3.85904   3.86376   3.86876   3.87703   3.88226
 Alpha virt. eigenvalues --    3.88866   3.89974   3.90696   3.91879   3.91944
 Alpha virt. eigenvalues --    3.93743   3.93863   3.95322   3.97354   3.97932
 Alpha virt. eigenvalues --    3.98460   3.98773   3.99773   4.00541   4.01808
 Alpha virt. eigenvalues --    4.03633   4.04060   4.05041   4.06126   4.06711
 Alpha virt. eigenvalues --    4.08072   4.09300   4.10518   4.10717   4.13292
 Alpha virt. eigenvalues --    4.14273   4.14631   4.16566   4.17111   4.19066
 Alpha virt. eigenvalues --    4.21306   4.23148   4.23984   4.24141   4.24949
 Alpha virt. eigenvalues --    4.27088   4.28507   4.30737   4.33053   4.33631
 Alpha virt. eigenvalues --    4.36028   4.36860   4.38522   4.40402   4.42031
 Alpha virt. eigenvalues --    4.42488   4.44470   4.44759   4.48387   4.48523
 Alpha virt. eigenvalues --    4.48797   4.49873   4.51916   4.54301   4.57094
 Alpha virt. eigenvalues --    4.58716   4.60136   4.61867   4.63644   4.65756
 Alpha virt. eigenvalues --    4.67935   4.69139   4.69678   4.72032   4.73304
 Alpha virt. eigenvalues --    4.73842   4.74199   4.74635   4.75105   4.76414
 Alpha virt. eigenvalues --    4.77252   4.79630   4.80287   4.82846   4.84168
 Alpha virt. eigenvalues --    4.86248   4.86786   4.87465   4.87725   4.89270
 Alpha virt. eigenvalues --    4.90391   4.91337   4.92664   4.93369   4.94024
 Alpha virt. eigenvalues --    4.95172   4.95838   4.96593   4.97010   4.97605
 Alpha virt. eigenvalues --    4.99182   4.99252   5.00510   5.00606   5.01701
 Alpha virt. eigenvalues --    5.02710   5.03491   5.03866   5.05479   5.06176
 Alpha virt. eigenvalues --    5.07168   5.07368   5.09239   5.13053   5.13466
 Alpha virt. eigenvalues --    5.14761   5.15685   5.17584   5.19720   5.20170
 Alpha virt. eigenvalues --    5.21793   5.21995   5.22916   5.23548   5.24506
 Alpha virt. eigenvalues --    5.26798   5.28043   5.29226   5.30344   5.32269
 Alpha virt. eigenvalues --    5.32849   5.35168   5.36212   5.37277   5.37953
 Alpha virt. eigenvalues --    5.39296   5.39528   5.41749   5.42446   5.43507
 Alpha virt. eigenvalues --    5.46267   5.48464   5.50378   5.52452   5.53893
 Alpha virt. eigenvalues --    5.56734   5.61235   5.63164   5.64118   5.67167
 Alpha virt. eigenvalues --    5.70357   5.72564   5.76422   5.78193   5.78861
 Alpha virt. eigenvalues --    5.79353   5.80735   5.81222   5.83510   5.84612
 Alpha virt. eigenvalues --    5.92247   5.94707   5.95211   5.96897   6.05696
 Alpha virt. eigenvalues --    6.10663   6.11172   6.11533   6.17225   6.17894
 Alpha virt. eigenvalues --    6.20714   6.21244   6.26828   6.29940   6.31646
 Alpha virt. eigenvalues --    6.35247   6.38698   6.45105   6.58518   6.62393
 Alpha virt. eigenvalues --    6.71491   6.77560   6.78718   6.81638   6.84336
 Alpha virt. eigenvalues --    6.86811   6.89195   6.91858   6.93096   6.95466
 Alpha virt. eigenvalues --    7.05535   7.07061   7.08093   7.09004   7.11923
 Alpha virt. eigenvalues --    7.14770   7.18908   7.35607   7.39204   7.40989
 Alpha virt. eigenvalues --    7.45913   7.51289   7.58305   7.86950  24.36028
 Alpha virt. eigenvalues --   24.50858  24.58312  24.68358  24.75638  24.84482
 Alpha virt. eigenvalues --   24.85292  24.93508  24.99535  35.90183  36.09309
 Alpha virt. eigenvalues --   36.14870  36.31613  50.05617  50.07472  50.18148
          Condensed to atoms (all electrons):
               1          2          3          4          5          6
     1  O    7.890382   0.666367  -0.095332  -0.014880  -0.000023   0.000000
     2  C    0.666367   4.267771   0.451586  -0.066651   0.003366  -0.000192
     3  N   -0.095332   0.451586   6.555542   0.252854  -0.012182   0.000184
     4  C   -0.014880  -0.066651   0.252854   5.198260   0.239009  -0.081073
     5  C   -0.000023   0.003366  -0.012182   0.239009   4.221319   0.410824
     6  O    0.000000  -0.000192   0.000184  -0.081073   0.410824   7.724452
     7  O   -0.000007  -0.001580  -0.026525  -0.100780   0.695361  -0.074522
     8  C   -0.000811   0.000319  -0.039162   0.299488  -0.043181   0.003733
     9  C   -0.001131   0.000544   0.003063  -0.092002  -0.005618  -0.011678
    10  C   -0.000004   0.000008  -0.000052  -0.005688   0.003475   0.009348
    11  N    0.000000   0.000000   0.000000  -0.000398   0.000049  -0.000356
    12  C   -0.000001   0.000001   0.000001   0.000688  -0.000037   0.000997
    13  N   -0.000002   0.000006   0.000076   0.003009  -0.000899  -0.000327
    14  C   -0.087106   0.305409  -0.052907   0.003239   0.000032  -0.000001
    15  C   -0.004208  -0.054769  -0.002204  -0.000479  -0.000011   0.000000
    16  N    0.000542  -0.001654   0.000016  -0.000001   0.000000   0.000000
    17  H    0.003560  -0.021919   0.330462  -0.038275  -0.014613   0.001894
    18  H    0.016806  -0.004562  -0.035221   0.375022  -0.017243   0.007403
    19  H    0.000001   0.000055  -0.000187   0.017405  -0.045721   0.318961
    20  H   -0.000081   0.000823   0.008224  -0.049511  -0.000634  -0.001017
    21  H    0.010961   0.003210  -0.007050  -0.052692   0.003743  -0.000131
    22  H    0.000000   0.000000  -0.000009  -0.000124   0.000422   0.000289
    23  H    0.000000   0.000000   0.000000   0.000009   0.000002   0.000024
    24  H    0.000265   0.000031  -0.000055  -0.000571   0.000048  -0.000095
    25  H    0.000526  -0.017581   0.000297   0.000102   0.000004   0.000000
    26  H    0.002938  -0.012148   0.003342   0.000314   0.000042  -0.000002
    27  H    0.037371  -0.001318   0.001961   0.000118   0.000002   0.000000
    28  H    0.000746   0.004091   0.000513   0.000047   0.000000   0.000000
    29  H    0.000012  -0.000268   0.000002   0.000000   0.000000   0.000000
    30  H    0.000020   0.000007  -0.000004   0.000000   0.000000   0.000000
    31  H    0.000059   0.000414   0.000002   0.000001   0.000000   0.000000
               7          8          9         10         11         12
     1  O   -0.000007  -0.000811  -0.001131  -0.000004   0.000000  -0.000001
     2  C   -0.001580   0.000319   0.000544   0.000008   0.000000   0.000001
     3  N   -0.026525  -0.039162   0.003063  -0.000052   0.000000   0.000001
     4  C   -0.100780   0.299488  -0.092002  -0.005688  -0.000398   0.000688
     5  C    0.695361  -0.043181  -0.005618   0.003475   0.000049  -0.000037
     6  O   -0.074522   0.003733  -0.011678   0.009348  -0.000356   0.000997
     7  O    7.831217  -0.000666  -0.000140  -0.000140   0.000000   0.000000
     8  C   -0.000666   4.911703   0.251030  -0.037239   0.009751  -0.001835
     9  C   -0.000140   0.251030   5.251008   0.467548  -0.047304  -0.127930
    10  C   -0.000140  -0.037239   0.467548   4.733765   0.470082  -0.145681
    11  N    0.000000   0.009751  -0.047304   0.470082   6.488854   0.576232
    12  C    0.000000  -0.001835  -0.127930  -0.145681   0.576232   4.576013
    13  N   -0.000003  -0.047353   0.343759  -0.044105  -0.126735   0.468831
    14  C   -0.000293  -0.000826  -0.000031   0.000000   0.000000   0.000000
    15  C   -0.000002   0.000001   0.000002   0.000000   0.000000   0.000000
    16  N    0.000000   0.000000   0.000000   0.000000   0.000000   0.000000
    17  H    0.052718   0.003011  -0.000140  -0.000002   0.000000  -0.000002
    18  H    0.002523  -0.056998   0.011294  -0.000776   0.000030   0.000055
    19  H    0.008827  -0.000920   0.001292   0.000699   0.000025  -0.000065
    20  H    0.004262   0.372440  -0.015826  -0.008172   0.000567  -0.000390
    21  H   -0.000288   0.403469  -0.032539   0.002290  -0.000555   0.000414
    22  H   -0.000007  -0.000792  -0.055875   0.433232  -0.018027   0.006281
    23  H    0.000000  -0.000287   0.004979   0.004067  -0.016433   0.425462
    24  H   -0.000001   0.005832  -0.029838   0.002643   0.007269  -0.025692
    25  H   -0.000006   0.000191  -0.000004   0.000000   0.000000   0.000000
    26  H   -0.000181   0.000065   0.000000   0.000000   0.000000   0.000000
    27  H    0.000000  -0.000019   0.000002   0.000000   0.000000   0.000000
    28  H    0.000000   0.000003   0.000000   0.000000   0.000000   0.000000
    29  H    0.000000   0.000000   0.000000   0.000000   0.000000   0.000000
    30  H    0.000000   0.000000   0.000000   0.000000   0.000000   0.000000
    31  H    0.000000   0.000000   0.000000   0.000000   0.000000   0.000000
              13         14         15         16         17         18
     1  O   -0.000002  -0.087106  -0.004208   0.000542   0.003560   0.016806
     2  C    0.000006   0.305409  -0.054769  -0.001654  -0.021919  -0.004562
     3  N    0.000076  -0.052907  -0.002204   0.000016   0.330462  -0.035221
     4  C    0.003009   0.003239  -0.000479  -0.000001  -0.038275   0.375022
     5  C   -0.000899   0.000032  -0.000011   0.000000  -0.014613  -0.017243
     6  O   -0.000327  -0.000001   0.000000   0.000000   0.001894   0.007403
     7  O   -0.000003  -0.000293  -0.000002   0.000000   0.052718   0.002523
     8  C   -0.047353  -0.000826   0.000001   0.000000   0.003011  -0.056998
     9  C    0.343759  -0.000031   0.000002   0.000000  -0.000140   0.011294
    10  C   -0.044105   0.000000   0.000000   0.000000  -0.000002  -0.000776
    11  N   -0.126735   0.000000   0.000000   0.000000   0.000000   0.000030
    12  C    0.468831   0.000000   0.000000   0.000000  -0.000002   0.000055
    13  N    6.294270   0.000000   0.000000   0.000000   0.000000   0.003470
    14  C    0.000000   4.983437   0.275745  -0.017023  -0.003346   0.001549
    15  C    0.000000   0.275745   4.798093   0.197565  -0.000470   0.000273
    16  N    0.000000  -0.017023   0.197565   5.676605  -0.000033   0.000000
    17  H    0.000000  -0.003346  -0.000470  -0.000033   0.563450   0.005222
    18  H    0.003470   0.001549   0.000273   0.000000   0.005222   0.658244
    19  H    0.000016   0.000001   0.000000   0.000000  -0.000490  -0.000809
    20  H    0.002946   0.000131   0.000019   0.000000   0.002649   0.009572
    21  H    0.000803   0.000937  -0.000046  -0.000001  -0.001116  -0.006750
    22  H    0.004191   0.000000   0.000000   0.000000  -0.000003   0.000006
    23  H   -0.037263   0.000000   0.000000   0.000000   0.000000   0.000014
    24  H    0.379433   0.000003   0.000000   0.000000   0.000005   0.000815
    25  H    0.000000   0.387936  -0.041660  -0.000650   0.000197  -0.000052
    26  H    0.000000   0.388672  -0.031449  -0.000787  -0.001413  -0.000411
    27  H    0.000000  -0.046746   0.390352  -0.019435  -0.000207  -0.000133
    28  H    0.000000  -0.031888   0.404241  -0.024398  -0.000017  -0.000015
    29  H    0.000000   0.002213  -0.016289   0.377155   0.000000   0.000000
    30  H    0.000000  -0.000478  -0.023915   0.358698   0.000010   0.000000
    31  H    0.000000   0.000600  -0.029440   0.359454   0.000002  -0.000001
              19         20         21         22         23         24
     1  O    0.000001  -0.000081   0.010961   0.000000   0.000000   0.000265
     2  C    0.000055   0.000823   0.003210   0.000000   0.000000   0.000031
     3  N   -0.000187   0.008224  -0.007050  -0.000009   0.000000  -0.000055
     4  C    0.017405  -0.049511  -0.052692  -0.000124   0.000009  -0.000571
     5  C   -0.045721  -0.000634   0.003743   0.000422   0.000002   0.000048
     6  O    0.318961  -0.001017  -0.000131   0.000289   0.000024  -0.000095
     7  O    0.008827   0.004262  -0.000288  -0.000007   0.000000  -0.000001
     8  C   -0.000920   0.372440   0.403469  -0.000792  -0.000287   0.005832
     9  C    0.001292  -0.015826  -0.032539  -0.055875   0.004979  -0.029838
    10  C    0.000699  -0.008172   0.002290   0.433232   0.004067   0.002643
    11  N    0.000025   0.000567  -0.000555  -0.018027  -0.016433   0.007269
    12  C   -0.000065  -0.000390   0.000414   0.006281   0.425462  -0.025692
    13  N    0.000016   0.002946   0.000803   0.004191  -0.037263   0.379433
    14  C    0.000001   0.000131   0.000937   0.000000   0.000000   0.000003
    15  C    0.000000   0.000019  -0.000046   0.000000   0.000000   0.000000
    16  N    0.000000   0.000000  -0.000001   0.000000   0.000000   0.000000
    17  H   -0.000490   0.002649  -0.001116  -0.000003   0.000000   0.000005
    18  H   -0.000809   0.009572  -0.006750   0.000006   0.000014   0.000815
    19  H    0.463314  -0.000068   0.000093   0.000103   0.000000   0.000004
    20  H   -0.000068   0.683859  -0.038854   0.001851   0.000018  -0.000139
    21  H    0.000093  -0.038854   0.678086   0.000076  -0.000019   0.001283
    22  H    0.000103   0.001851   0.000076   0.611793  -0.000391  -0.000428
    23  H    0.000000   0.000018  -0.000019  -0.000391   0.588609  -0.001194
    24  H    0.000004  -0.000139   0.001283  -0.000428  -0.001194   0.547834
    25  H    0.000000  -0.000044  -0.000096   0.000000   0.000000   0.000000
    26  H    0.000000  -0.000070   0.000014   0.000000   0.000000   0.000000
    27  H    0.000000  -0.000004   0.000016   0.000000   0.000000  -0.000001
    28  H    0.000000  -0.000001  -0.000003   0.000000   0.000000   0.000000
    29  H    0.000000   0.000000   0.000000   0.000000   0.000000   0.000000
    30  H    0.000000   0.000000   0.000000   0.000000   0.000000   0.000000
    31  H    0.000000   0.000000  -0.000001   0.000000   0.000000   0.000000
              25         26         27         28         29         30
     1  O    0.000526   0.002938   0.037371   0.000746   0.000012   0.000020
     2  C   -0.017581  -0.012148  -0.001318   0.004091  -0.000268   0.000007
     3  N    0.000297   0.003342   0.001961   0.000513   0.000002  -0.000004
     4  C    0.000102   0.000314   0.000118   0.000047   0.000000   0.000000
     5  C    0.000004   0.000042   0.000002   0.000000   0.000000   0.000000
     6  O    0.000000  -0.000002   0.000000   0.000000   0.000000   0.000000
     7  O   -0.000006  -0.000181   0.000000   0.000000   0.000000   0.000000
     8  C    0.000191   0.000065  -0.000019   0.000003   0.000000   0.000000
     9  C   -0.000004   0.000000   0.000002   0.000000   0.000000   0.000000
    10  C    0.000000   0.000000   0.000000   0.000000   0.000000   0.000000
    11  N    0.000000   0.000000   0.000000   0.000000   0.000000   0.000000
    12  C    0.000000   0.000000   0.000000   0.000000   0.000000   0.000000
    13  N    0.000000   0.000000   0.000000   0.000000   0.000000   0.000000
    14  C    0.387936   0.388672  -0.046746  -0.031888   0.002213  -0.000478
    15  C   -0.041660  -0.031449   0.390352   0.404241  -0.016289  -0.023915
    16  N   -0.000650  -0.000787  -0.019435  -0.024398   0.377155   0.358698
    17  H    0.000197  -0.001413  -0.000207  -0.000017   0.000000   0.000010
    18  H   -0.000052  -0.000411  -0.000133  -0.000015   0.000000   0.000000
    19  H    0.000000   0.000000   0.000000   0.000000   0.000000   0.000000
    20  H   -0.000044  -0.000070  -0.000004  -0.000001   0.000000   0.000000
    21  H   -0.000096   0.000014   0.000016  -0.000003   0.000000   0.000000
    22  H    0.000000   0.000000   0.000000   0.000000   0.000000   0.000000
    23  H    0.000000   0.000000   0.000000   0.000000   0.000000   0.000000
    24  H    0.000000   0.000000  -0.000001   0.000000   0.000000   0.000000
    25  H    0.646932  -0.036515  -0.002058   0.005624   0.000204  -0.001178
    26  H   -0.036515   0.632904   0.006906  -0.005688  -0.000118   0.002850
    27  H   -0.002058   0.006906   0.575672  -0.028721  -0.002443   0.004348
    28  H    0.005624  -0.005688  -0.028721   0.597493  -0.002501  -0.005265
    29  H    0.000204  -0.000118  -0.002443  -0.002501   0.539541  -0.024543
    30  H   -0.001178   0.002850   0.004348  -0.005265  -0.024543   0.555942
    31  H    0.004658  -0.000514  -0.003700   0.005591  -0.022636  -0.025626
              31
     1  O    0.000059
     2  C    0.000414
     3  N    0.000002
     4  C    0.000001
     5  C    0.000000
     6  O    0.000000
     7  O    0.000000
     8  C    0.000000
     9  C    0.000000
    10  C    0.000000
    11  N    0.000000
    12  C    0.000000
    13  N    0.000000
    14  C    0.000600
    15  C   -0.029440
    16  N    0.359454
    17  H    0.000002
    18  H   -0.000001
    19  H    0.000000
    20  H    0.000000
    21  H   -0.000001
    22  H    0.000000
    23  H    0.000000
    24  H    0.000000
    25  H    0.004658
    26  H   -0.000514
    27  H   -0.003700
    28  H    0.005591
    29  H   -0.022636
    30  H   -0.025626
    31  H    0.548192
 Mulliken charges:
               1
     1  O   -0.426969
     2  C    0.478633
     3  N   -0.337237
     4  C    0.113559
     5  C    0.562462
     6  O   -0.308714
     7  O   -0.389769
     8  C   -0.030945
     9  C    0.085534
    10  C    0.114703
    11  N   -0.343051
    12  C    0.246657
    13  N   -0.244122
    14  C   -0.109259
    15  C    0.138650
    16  N    0.093946
    17  H    0.118869
    18  H    0.030674
    19  H    0.237462
    20  H    0.027451
    21  H    0.034746
    22  H    0.017411
    23  H    0.032406
    24  H    0.112551
    25  H    0.053171
    26  H    0.051249
    27  H    0.088037
    28  H    0.080148
    29  H    0.149670
    30  H    0.159135
    31  H    0.162944
 Sum of Mulliken charges =   1.00000
 Mulliken charges with hydrogens summed into heavy atoms:
               1
     1  O   -0.426969
     2  C    0.478633
     3  N   -0.218368
     4  C    0.144232
     5  C    0.562462
     6  O   -0.071252
     7  O   -0.389769
     8  C    0.031252
     9  C    0.085534
    10  C    0.132114
    11  N   -0.343051
    12  C    0.279063
    13  N   -0.131571
    14  C   -0.004839
    15  C    0.306834
    16  N    0.565695
 Electronic spatial extent (au):  <R**2>=           5512.1809
 Charge=              1.0000 electrons
 Dipole moment (field-independent basis, Debye):
    X=             21.6761    Y=              3.7596    Z=              0.0284  Tot=             21.9997
 Quadrupole moment (field-independent basis, Debye-Ang):
   XX=             18.5930   YY=            -88.1993   ZZ=            -84.8342
   XY=              1.4479   XZ=              1.3380   YZ=              0.1282
 Traceless Quadrupole moment (field-independent basis, Debye-Ang):
   XX=             70.0732   YY=            -36.7191   ZZ=            -33.3541
   XY=              1.4479   XZ=              1.3380   YZ=              0.1282
 Octapole moment (field-independent basis, Debye-Ang**2):
  XXX=            936.3676  YYY=             30.7551  ZZZ=            -70.6014  XYY=             95.4040
  XXY=            126.2274  XXZ=            -26.7731  XZZ=             34.1084  YZZ=              3.4453
  YYZ=             -2.3042  XYZ=             -6.9624
 Hexadecapole moment (field-independent basis, Debye-Ang**3):
 XXXX=          -2556.0836 YYYY=           -624.0811 ZZZZ=           -895.8763 XXXY=           -442.4115
 XXXZ=           -169.2843 YYYX=           -500.8596 YYYZ=           -160.4978 ZZZX=             19.1131
 ZZZY=           -156.4196 XXYY=           -977.5627 XXZZ=           -778.8068 YYZZ=           -236.0243
 XXYZ=            -37.2324 YYXZ=            -70.6782 ZZXY=           -150.0050
 N-N= 1.108150674541D+03 E-N=-4.063619128192D+03  KE= 7.934432185599D+02
 Calling FoFJK, ICntrl=      2127 FMM=F ISym2X=0 I1Cent= 0 IOpClX= 0 NMat=1 NMatS=1 NMatT=0.
 -------------------------------------------------------------------
 Center     Atomic                   Forces (Hartrees/Bohr)
 Number     Number              X              Y              Z
 -------------------------------------------------------------------
      1        8           0.001265625    0.000690189    0.012443939
      2        6          -0.003154597   -0.000211953   -0.005908670
      3        7           0.002167998   -0.000865559   -0.002595880
      4        6           0.000144570    0.000888772    0.000075757
      5        6           0.002941703    0.000180089    0.009575638
      6        8           0.002522453   -0.000289021    0.005097785
      7        8          -0.006002465    0.000118536   -0.013403939
      8        6          -0.000176838   -0.000576517    0.000161880
      9        6          -0.003579009   -0.000586905   -0.000284390
     10        6           0.002193852    0.000642014   -0.001141241
     11        7           0.006281228    0.002777876   -0.003732121
     12        6          -0.000013793   -0.000905938    0.002404404
     13        7          -0.001721348   -0.001083612    0.001738900
     14        6           0.000350437    0.000187253   -0.000421178
     15        6           0.000007599    0.000080638   -0.000175373
     16        7           0.001649283   -0.000508971    0.000395569
     17        1           0.000059839   -0.000141805   -0.003066568
     18        1           0.000154463   -0.001708856    0.002186170
     19        1           0.001252581   -0.000900169   -0.003242448
     20        1          -0.000394077    0.001547450   -0.002061936
     21        1          -0.001978672    0.000843777    0.001756783
     22        1           0.000392019    0.001140050   -0.002660326
     23        1           0.001464021   -0.000597399    0.002266151
     24        1          -0.001911985   -0.001234933    0.002157129
     25        1          -0.000809835    0.002533041   -0.000717429
     26        1          -0.000358183   -0.001318466   -0.002455249
     27        1           0.001123050    0.001129392    0.002295798
     28        1           0.000060285   -0.002733776    0.000146839
     29        1          -0.002235724   -0.001070962    0.002232788
     30        1          -0.001023904   -0.001177020   -0.002861110
     31        1          -0.000670577    0.003152784   -0.000207673
 -------------------------------------------------------------------
 Cartesian Forces:  Max     0.013403939 RMS     0.002924530

 GradGradGradGradGradGradGradGradGradGradGradGradGradGradGradGradGradGrad
 Berny optimization.
 FormGI is forming the generalized inverse of G from B-inverse, IUseBI=4.
 GSVD:  received Info=                   1 from GESDD.
 Internal  Forces:  Max     0.014679686 RMS     0.002175753
 Search for a local minimum.
 Step number   1 out of a maximum of  167
 All quantities printed in internal units (Hartrees-Bohrs-Radians)
 Mixed Optimization -- RFO/linear search
 Second derivative matrix not updated -- first step.
 ITU=  0
     Eigenvalues ---    0.00102   0.00108   0.00179   0.00201   0.00281
     Eigenvalues ---    0.00311   0.00393   0.00476   0.00849   0.00912
     Eigenvalues ---    0.02013   0.02038   0.02157   0.02554   0.03448
     Eigenvalues ---    0.03771   0.03860   0.04041   0.04114   0.04193
     Eigenvalues ---    0.04322   0.04614   0.04889   0.04980   0.05006
     Eigenvalues ---    0.05147   0.05346   0.05801   0.06075   0.06927
     Eigenvalues ---    0.07644   0.08047   0.10087   0.10204   0.11059
     Eigenvalues ---    0.11134   0.11589   0.11871   0.12535   0.12732
     Eigenvalues ---    0.13177   0.14716   0.14942   0.15345   0.16237
     Eigenvalues ---    0.17351   0.17560   0.18963   0.21098   0.21355
     Eigenvalues ---    0.22159   0.22621   0.23054   0.24263   0.24319
     Eigenvalues ---    0.24635   0.25560   0.27019   0.30512   0.32397
     Eigenvalues ---    0.32959   0.33485   0.33548   0.34003   0.34322
     Eigenvalues ---    0.34468   0.34717   0.34900   0.35381   0.37168
     Eigenvalues ---    0.37288   0.37366   0.37488   0.40411   0.42703
     Eigenvalues ---    0.42735   0.43216   0.44842   0.45325   0.46179
     Eigenvalues ---    0.47238   0.47877   0.50911   0.51056   0.57783
     Eigenvalues ---    0.81542   0.86923
 RFO step:  Lambda=-1.31644525D-03 EMin= 1.01537305D-03
 Linear search not attempted -- first point.
 Iteration  1 RMS(Cart)=  0.01586970 RMS(Int)=  0.00010004
 Iteration  2 RMS(Cart)=  0.00022023 RMS(Int)=  0.00001495
 Iteration  3 RMS(Cart)=  0.00000004 RMS(Int)=  0.00001495
 Variable       Old X    -DE/DX   Delta X   Delta X   Delta X     New X
                                 (Linear)    (Quad)   (Total)
    R1        2.32222  -0.01252   0.00000  -0.01515  -0.01515   2.30706
    R2        2.53840  -0.00604   0.00000  -0.00832  -0.00832   2.53008
    R3        2.92430  -0.00244   0.00000  -0.00732  -0.00732   2.91698
    R4        2.75939  -0.00175   0.00000  -0.00564  -0.00564   2.75375
    R5        1.91863  -0.00302   0.00000  -0.00719  -0.00719   1.91145
    R6        2.88099  -0.00224   0.00000  -0.00563  -0.00563   2.87536
    R7        2.95659  -0.00212   0.00000  -0.00820  -0.00820   2.94839
    R8        2.06597  -0.00277   0.00000  -0.00803  -0.00803   2.05795
    R9        2.51838  -0.00429   0.00000  -0.00595  -0.00595   2.51243
   R10        2.29706  -0.01468   0.00000  -0.01708  -0.01708   2.27999
   R11        1.84021  -0.00356   0.00000  -0.00760  -0.00760   1.83261
   R12        2.81698  -0.00318   0.00000  -0.00803  -0.00803   2.80894
   R13        2.06844  -0.00260   0.00000  -0.00734  -0.00734   2.06110
   R14        2.07143  -0.00276   0.00000  -0.00739  -0.00739   2.06404
   R15        2.59985  -0.00648   0.00000  -0.01137  -0.01137   2.58848
   R16        2.61917  -0.00385   0.00000  -0.00833  -0.00833   2.61084
   R17        2.59701  -0.00324   0.00000  -0.00591  -0.00591   2.59110
   R18        2.04479  -0.00292   0.00000  -0.00776  -0.00776   2.03704
   R19        2.48364  -0.00644   0.00000  -0.01113  -0.01113   2.47251
   R20        2.58463  -0.00472   0.00000  -0.00771  -0.00771   2.57691
   R21        2.04337  -0.00276   0.00000  -0.00710  -0.00710   2.03627
   R22        1.90710  -0.00313   0.00000  -0.00647  -0.00647   1.90063
   R23        2.87650  -0.00236   0.00000  -0.00870  -0.00870   2.86780
   R24        2.07633  -0.00274   0.00000  -0.00778  -0.00778   2.06854
   R25        2.06896  -0.00280   0.00000  -0.00758  -0.00758   2.06138
   R26        2.88583  -0.00235   0.00000  -0.00835  -0.00835   2.87748
   R27        2.06154  -0.00274   0.00000  -0.00778  -0.00778   2.05375
   R28        2.06244  -0.00274   0.00000  -0.00755  -0.00755   2.05489
   R29        1.93907  -0.00333   0.00000  -0.00766  -0.00766   1.93141
   R30        1.93861  -0.00326   0.00000  -0.00747  -0.00747   1.93114
   R31        1.93917  -0.00322   0.00000  -0.00745  -0.00745   1.93173
    A1        2.18004  -0.00059   0.00000  -0.00015  -0.00015   2.17989
    A2        2.08951   0.00015   0.00000   0.00074   0.00073   2.09024
    A3        2.01353   0.00044   0.00000  -0.00066  -0.00066   2.01287
    A4        2.14461   0.00065   0.00000   0.00289   0.00281   2.14742
    A5        2.14011  -0.00087   0.00000  -0.00714  -0.00722   2.13288
    A6        1.99834   0.00022   0.00000   0.00389   0.00381   2.00215
    A7        1.84376   0.00044   0.00000   0.00514   0.00514   1.84890
    A8        1.93654  -0.00020   0.00000  -0.00109  -0.00109   1.93545
    A9        1.90445  -0.00001   0.00000  -0.00043  -0.00043   1.90402
   A10        1.95426  -0.00021   0.00000  -0.00219  -0.00219   1.95207
   A11        1.91444  -0.00012   0.00000  -0.00088  -0.00089   1.91355
   A12        1.90910   0.00011   0.00000  -0.00040  -0.00040   1.90870
   A13        1.96155   0.00048   0.00000  -0.00196  -0.00196   1.95959
   A14        2.14255   0.00030   0.00000   0.00216   0.00216   2.14471
   A15        2.17896  -0.00078   0.00000  -0.00018  -0.00018   2.17879
   A16        1.88840   0.00090   0.00000   0.00809   0.00809   1.89649
   A17        2.01813   0.00031   0.00000   0.00217   0.00217   2.02031
   A18        1.88547  -0.00010   0.00000   0.00036   0.00036   1.88583
   A19        1.84682   0.00008   0.00000   0.00171   0.00171   1.84854
   A20        1.90010  -0.00007   0.00000  -0.00123  -0.00123   1.89887
   A21        1.93699  -0.00032   0.00000  -0.00245  -0.00245   1.93454
   A22        1.87019   0.00009   0.00000  -0.00065  -0.00065   1.86953
   A23        2.30065  -0.00021   0.00000  -0.00267  -0.00267   2.29798
   A24        2.15938   0.00014   0.00000   0.00093   0.00092   2.16031
   A25        1.82311   0.00007   0.00000   0.00177   0.00177   1.82489
   A26        1.94212  -0.00078   0.00000  -0.00344  -0.00344   1.93868
   A27        2.22264   0.00025   0.00000   0.00093   0.00093   2.22357
   A28        2.11841   0.00053   0.00000   0.00252   0.00252   2.12092
   A29        1.83565   0.00116   0.00000   0.00389   0.00389   1.83954
   A30        1.95159  -0.00080   0.00000  -0.00285  -0.00286   1.94874
   A31        2.19788   0.00040   0.00000   0.00168   0.00168   2.19956
   A32        2.13371   0.00040   0.00000   0.00117   0.00117   2.13489
   A33        1.87230   0.00035   0.00000   0.00064   0.00064   1.87294
   A34        2.20903  -0.00004   0.00000   0.00039   0.00039   2.20942
   A35        2.20076  -0.00031   0.00000  -0.00114  -0.00114   2.19962
   A36        1.87337   0.00165   0.00000   0.00914   0.00914   1.88251
   A37        1.87306  -0.00059   0.00000  -0.00301  -0.00302   1.87004
   A38        1.94901  -0.00069   0.00000  -0.00408  -0.00409   1.94493
   A39        1.92996  -0.00039   0.00000  -0.00050  -0.00050   1.92946
   A40        1.95605  -0.00034   0.00000  -0.00149  -0.00148   1.95457
   A41        1.88110   0.00033   0.00000  -0.00022  -0.00023   1.88087
   A42        1.94637  -0.00028   0.00000  -0.00173  -0.00173   1.94464
   A43        1.91754   0.00046   0.00000   0.00658   0.00658   1.92412
   A44        1.96604  -0.00002   0.00000  -0.00057  -0.00057   1.96547
   A45        1.87636  -0.00030   0.00000  -0.00324  -0.00324   1.87313
   A46        1.85318   0.00019   0.00000   0.00169   0.00169   1.85488
   A47        1.90103  -0.00008   0.00000  -0.00315  -0.00315   1.89788
   A48        1.94184  -0.00027   0.00000  -0.00193  -0.00193   1.93991
   A49        1.95118  -0.00001   0.00000  -0.00007  -0.00007   1.95111
   A50        1.93875  -0.00025   0.00000  -0.00169  -0.00169   1.93706
   A51        1.87788   0.00015   0.00000   0.00099   0.00099   1.87888
   A52        1.87677   0.00024   0.00000   0.00162   0.00162   1.87838
   A53        1.87393   0.00017   0.00000   0.00132   0.00132   1.87525
    D1        0.01215  -0.00001   0.00000  -0.01047  -0.01042   0.00172
    D2       -3.11129   0.00010   0.00000   0.01472   0.01467  -3.09662
    D3       -3.11414   0.00003   0.00000  -0.00547  -0.00543  -3.11957
    D4        0.04560   0.00015   0.00000   0.01971   0.01967   0.06527
    D5        0.46250  -0.00009   0.00000  -0.02330  -0.02330   0.43920
    D6       -1.61242  -0.00019   0.00000  -0.02595  -0.02594  -1.63837
    D7        2.61286   0.00017   0.00000  -0.02154  -0.02155   2.59131
    D8       -2.69354  -0.00014   0.00000  -0.02803  -0.02803  -2.72157
    D9        1.51472  -0.00023   0.00000  -0.03068  -0.03067   1.48405
   D10       -0.54318   0.00012   0.00000  -0.02627  -0.02628  -0.56946
   D11       -2.79818   0.00010   0.00000   0.03419   0.03422  -2.76396
   D12        1.36355   0.00020   0.00000   0.03426   0.03429   1.39784
   D13       -0.74113   0.00019   0.00000   0.03572   0.03575  -0.70537
   D14        0.32661  -0.00002   0.00000   0.01078   0.01074   0.33735
   D15       -1.79485   0.00008   0.00000   0.01084   0.01081  -1.78404
   D16        2.38366   0.00007   0.00000   0.01230   0.01227   2.39594
   D17        2.78684   0.00000   0.00000  -0.00970  -0.00970   2.77714
   D18       -0.37018   0.00009   0.00000  -0.00874  -0.00874  -0.37892
   D19       -1.38639  -0.00008   0.00000  -0.00899  -0.00899  -1.39538
   D20        1.73978   0.00001   0.00000  -0.00803  -0.00803   1.73174
   D21        0.73649  -0.00016   0.00000  -0.01157  -0.01157   0.72492
   D22       -2.42052  -0.00007   0.00000  -0.01061  -0.01061  -2.43114
   D23       -3.07737   0.00022   0.00000   0.00635   0.00635  -3.07102
   D24        1.07246   0.00017   0.00000   0.00618   0.00618   1.07863
   D25       -0.92581   0.00007   0.00000   0.00592   0.00593  -0.91988
   D26        1.15050  -0.00007   0.00000   0.00202   0.00202   1.15251
   D27       -0.98286  -0.00011   0.00000   0.00184   0.00184  -0.98102
   D28       -2.98113  -0.00022   0.00000   0.00159   0.00159  -2.97954
   D29       -0.97545   0.00014   0.00000   0.00487   0.00487  -0.97058
   D30       -3.10881   0.00010   0.00000   0.00469   0.00469  -3.10412
   D31        1.17611  -0.00001   0.00000   0.00444   0.00444   1.18055
   D32        3.06531   0.00007   0.00000  -0.00096  -0.00096   3.06435
   D33       -0.06048  -0.00003   0.00000  -0.00197  -0.00197  -0.06244
   D34       -1.85700  -0.00006   0.00000  -0.01776  -0.01776  -1.87476
   D35        1.27370   0.00000   0.00000  -0.01328  -0.01328   1.26041
   D36        0.26856  -0.00002   0.00000  -0.01672  -0.01672   0.25184
   D37       -2.88393   0.00004   0.00000  -0.01224  -0.01224  -2.89618
   D38        2.32284  -0.00014   0.00000  -0.01970  -0.01970   2.30315
   D39       -0.82965  -0.00008   0.00000  -0.01522  -0.01522  -0.84487
   D40        3.13377   0.00001   0.00000   0.00281   0.00281   3.13658
   D41       -0.01478   0.00002   0.00000   0.00368   0.00368  -0.01110
   D42        0.00154  -0.00005   0.00000  -0.00104  -0.00104   0.00050
   D43        3.13618  -0.00003   0.00000  -0.00016  -0.00016   3.13601
   D44       -3.13592   0.00000   0.00000  -0.00253  -0.00254  -3.13846
   D45        0.05372   0.00002   0.00000  -0.00011  -0.00012   0.05360
   D46       -0.00271   0.00004   0.00000   0.00089   0.00089  -0.00182
   D47       -3.09626   0.00007   0.00000   0.00331   0.00331  -3.09295
   D48        0.00029   0.00003   0.00000   0.00077   0.00077   0.00106
   D49       -3.13482   0.00001   0.00000  -0.00004  -0.00004  -3.13486
   D50       -0.00211   0.00000   0.00000  -0.00017  -0.00017  -0.00228
   D51        3.13547  -0.00003   0.00000  -0.00043  -0.00043   3.13505
   D52        0.00313  -0.00003   0.00000  -0.00047  -0.00048   0.00266
   D53        3.09697  -0.00005   0.00000  -0.00283  -0.00283   3.09414
   D54       -3.13462   0.00000   0.00000  -0.00023  -0.00023  -3.13485
   D55       -0.04078  -0.00001   0.00000  -0.00258  -0.00258  -0.04336
   D56       -2.86066   0.00007   0.00000  -0.01304  -0.01304  -2.87370
   D57       -0.78200  -0.00018   0.00000  -0.01389  -0.01389  -0.79589
   D58        1.34073   0.00004   0.00000  -0.01362  -0.01362   1.32711
   D59       -0.82276   0.00011   0.00000  -0.01163  -0.01162  -0.83439
   D60        1.25590  -0.00015   0.00000  -0.01247  -0.01247   1.24343
   D61       -2.90455   0.00007   0.00000  -0.01220  -0.01220  -2.91676
   D62        1.27650   0.00003   0.00000  -0.01325  -0.01325   1.26325
   D63       -2.92802  -0.00023   0.00000  -0.01410  -0.01410  -2.94212
   D64       -0.80529  -0.00001   0.00000  -0.01382  -0.01383  -0.81912
   D65        3.12636   0.00008   0.00000   0.00076   0.00076   3.12711
   D66       -1.05677   0.00007   0.00000   0.00064   0.00064  -1.05613
   D67        1.03613   0.00011   0.00000   0.00112   0.00112   1.03725
   D68        1.02337  -0.00013   0.00000  -0.00422  -0.00422   1.01915
   D69        3.12342  -0.00013   0.00000  -0.00433  -0.00433   3.11909
   D70       -1.06686  -0.00009   0.00000  -0.00385  -0.00385  -1.07071
   D71       -1.00923   0.00001   0.00000   0.00013   0.00013  -1.00910
   D72        1.09083   0.00001   0.00000   0.00002   0.00002   1.09085
   D73       -3.09946   0.00005   0.00000   0.00050   0.00050  -3.09896
         Item               Value     Threshold  Converged?
 Maximum Force            0.014680     0.000450     NO 
 RMS     Force            0.002176     0.000300     NO 
 Maximum Displacement     0.073127     0.001800     NO 
 RMS     Displacement     0.015851     0.001200     NO 
 Predicted change in Energy=-6.684445D-04
 GradGradGradGradGradGradGradGradGradGradGradGradGradGradGradGradGradGrad

                          Input orientation:                          
 ---------------------------------------------------------------------
 Center     Atomic      Atomic             Coordinates (Angstroms)
 Number     Number       Type             X           Y           Z
 ---------------------------------------------------------------------
      1          8           0        1.302534    0.303941   -1.226073
      2          6           0        1.459006    0.333890   -0.015668
      3          7           0        0.468290    0.373637    0.884024
      4          6           0       -0.941100    0.383876    0.513868
      5          6           0       -1.682241    0.967973    1.707491
      6          8           0       -2.877069    1.446297    1.373995
      7          8           0       -1.225549    0.971761    2.824228
      8          6           0       -1.436614   -1.055117    0.170284
      9          6           0       -2.838516   -1.157252   -0.313151
     10          6           0       -3.974725   -1.636473    0.283193
     11          7           0       -5.055845   -1.522518   -0.552422
     12          6           0       -4.591480   -0.981495   -1.649488
     13          7           0       -3.253032   -0.735719   -1.561869
     14          6           0        2.885240    0.298817    0.573681
     15          6           0        3.835560    0.847828   -0.474414
     16          7           0        5.283207    0.511219   -0.143317
     17          1           0        0.644945    0.435967    1.878020
     18          1           0       -1.077076    1.029075   -0.352844
     19          1           0       -3.329871    1.739560    2.179868
     20          1           0       -1.326755   -1.672450    1.062713
     21          1           0       -0.739082   -1.441835   -0.575966
     22          1           0       -4.067015   -2.062013    1.269286
     23          1           0       -5.163357   -0.748750   -2.532601
     24          1           0       -2.671361   -0.360875   -2.291746
     25          1           0        3.118172   -0.748037    0.792876
     26          1           0        2.943599    0.855839    1.509758
     27          1           0        3.616172    0.412622   -1.445805
     28          1           0        3.785842    1.930905   -0.557561
     29          1           0        5.918347    0.870997   -0.858691
     30          1           0        5.569526    0.908722    0.753524
     31          1           0        5.420441   -0.500241   -0.087998
 ---------------------------------------------------------------------
                    Distance matrix (angstroms):
                    1          2          3          4          5
     1  O    0.000000
     2  C    1.220845   0.000000
     3  N    2.270095   1.338859   0.000000
     4  C    2.840366   2.458336   1.457223   0.000000
     5  C    4.237408   3.638513   2.378260   1.521577   0.000000
     6  O    5.053159   4.687234   3.547125   2.369922   1.329521
     7  O    4.821009   3.959637   2.644094   2.400891   1.206517
     8  C    3.361515   3.216914   2.485844   1.560220   2.552692
     9  C    4.485176   4.558585   3.835598   2.580547   3.152228
    10  C    5.821731   5.787667   4.913443   3.652109   3.750633
    11  N    6.649717   6.795414   6.014553   4.658588   4.763503
    12  C    6.047398   6.403748   5.818619   4.457535   4.851124
    13  N    4.684744   5.073274   4.589259   3.302606   4.007326
    14  C    2.396686   1.543601   2.437941   3.827753   4.753439
    15  C    2.697597   2.474387   3.661792   4.899841   5.934752
    16  N    4.130506   3.830437   4.925219   6.260200   7.221605
    17  H    3.175728   2.063775   1.011494   2.092644   2.393304
    18  H    2.636454   2.651166   2.085089   1.089018   2.148241
    19  H    5.926264   5.452488   4.239220   3.212422   1.879672
    20  H    4.007221   3.598441   2.727744   2.162970   2.741157
    21  H    2.763796   2.880751   2.623977   2.135831   3.451218
    22  H    6.376253   6.158601   5.162345   4.040343   3.880719
    23  H    6.680039   7.166782   6.681956   5.328347   5.748364
    24  H    4.167670   4.766882   4.525752   3.379339   4.328752
    25  H    2.911933   2.139425   2.878947   4.223359   5.179303
    26  H    3.237663   2.191659   2.598310   4.037998   4.631422
    27  H    2.326588   2.589373   3.916475   4.960834   6.190708
    28  H    3.043146   2.873720   3.938198   5.087754   5.996469
    29  H    4.665003   4.569999   5.743478   7.012362   8.022695
    30  H    4.742551   4.221192   5.130883   6.536142   7.314486
    31  H    4.347308   4.048947   5.121746   6.450822   7.471782
                    6          7          8          9         10
     6  O    0.000000
     7  O    2.248528   0.000000
     8  C    3.127444   3.346072   0.000000
     9  C    3.102646   4.120376   1.486429   0.000000
    10  C    3.449372   4.562643   2.606287   1.369763   0.000000
    11  N    4.155961   5.682812   3.720162   2.259916   1.371152
    12  C    4.239672   5.929488   3.642824   2.211237   2.131815
    13  N    3.677205   5.124843   2.530166   1.381597   2.176339
    14  C    5.929706   4.734596   4.546899   5.972269   7.133643
    15  C    6.988145   6.042452   5.642044   6.970627   8.230813
[...]
 10603,-0.00007933,0.00002688,-0.00002302,-0.00000244,-0.00002081,-0.00
 000398,-0.00001219,-0.00001115,0.00000235,0.00001427,-0.00000431,0.000
 01614,0.00001683,0.00000313,0.00000425,0.00000375,0.00000463,-0.000014
 54,-0.01691214,0.11272800,-0.11745540,-0.00449878,0.02208724,-0.014915
 07,-0.00066453,-0.00044888,0.00126869,0.00018830,0.00022089,0.00034884
 ,0.00018349,-0.00000913,-0.00004501,0.00000576,-0.00000069,0.00000307,
 -0.00002400,0.00000623,0.00003436,0.00000150,0.00005669,-0.00003719,-0
 .00000239,0.00000064,0.00000247,0.00000103,0.00000127,0.00000042,0.000
 00598,0.00000620,-0.00000750,0.01862966,-0.12458355,0.12889982,-0.0045
 6709,0.00333840,-0.00200490,0.00127910,-0.02630902,-0.01882527,-0.0003
 1790,0.00186995,0.00126087,-0.00020167,0.00056531,0.00008208,-0.000082
 70,-0.00003382,-0.00047039,-0.00005800,0.00002885,0.00013730,0.0000605
 4,0.00011680,0.00023508,0.00017597,0.00015046,0.00009126,-0.00000950,0
 .00000285,-0.00000143,0.00002557,0.00001484,-0.00001540,-0.00004114,0.
 00000688,-0.00002158,-0.00001215,-0.00000598,0.00000179,-0.00000730,-0
 .00001348,0.00001903,-0.05047377,-0.02716604,-0.01622786,0.00070498,0.
 01978313,0.01584624,0.00198933,0.00080009,-0.00026107,-0.00073366,-0.0
 0064929,0.00010041,-0.00005969,-0.00005035,0.00008366,-0.00003240,-0.0
 0001685,0.00000018,0.00000308,-0.00001381,-0.00000059,0.00001912,0.000
 02880,0.00001805,0.00000275,-0.00000171,-0.00000074,-0.00000126,-0.000
 00015,-0.00000044,0.00002048,-0.00000015,0.00001293,0.00044479,0.00423
 382,0.00331124,0.05450278,0.00039576,-0.00043486,0.00093424,0.00059719
 ,0.00088655,0.00024801,-0.00026402,0.00072273,0.00005566,-0.00021647,0
 .00013424,0.00012080,-0.00005335,-0.00000450,-0.00022850,0.00002557,-0
 .00001305,0.00006362,0.00006163,0.00000904,0.00014591,0.00008608,0.000
 00599,0.00003823,-0.00001532,0.00002112,0.00000353,0.00001319,0.000009
 96,-0.00000484,-0.00001883,-0.00000090,-0.00000767,0.00000295,0.000000
 02,-0.00000080,-0.00000926,-0.00000878,0.00000939,-0.02328473,-0.20752
 374,-0.12229873,0.00055451,0.00350903,0.00244620,0.00056309,0.00045069
 ,0.00044728,-0.00047569,-0.00036267,0.00005398,0.00001580,0.00000013,0
 .00003850,-0.00000641,0.00000262,-0.00000548,0.00000125,-0.00001706,-0
 .00001650,0.00000107,0.00000571,0.00002426,0.00000146,-0.00000159,-0.0
 0000066,0.00000027,-0.00000008,0.00000003,0.00000899,0.,0.00000405,-0.
 00333154,-0.02070317,-0.01662462,0.02485969,0.22145395,-0.00275695,0.0
 0122542,-0.00023029,-0.00180260,-0.00865747,-0.00920437,0.00147552,0.0
 0068524,0.00071840,-0.00047566,0.00065969,-0.00011931,-0.00003509,-0.0
 0001218,0.00012676,-0.00000730,0.00001472,-0.00003317,-0.00001292,-0.0
 0001113,-0.00008688,0.00024266,-0.00005878,0.00003032,0.00000399,0.000
 07133,-0.00000110,-0.00001343,-0.00000513,0.00001798,0.00002042,-0.000
 01242,0.00001829,0.00002853,0.00000616,0.00000057,-0.00000688,0.000010
 99,-0.00001272,-0.01321573,-0.12230494,-0.14111085,-0.00320605,-0.0205
 9074,-0.01697778,-0.00067202,0.00032380,0.00138351,0.00018315,-0.00027
 924,0.00039419,-0.00002315,-0.00006138,0.00002841,-0.00000034,-0.00000
 661,0.00000580,-0.00000917,-0.00000405,0.00000602,-0.00000035,-0.00000
 070,-0.00001292,-0.00000120,0.00000026,0.00000030,0.00000119,-0.000001
 19,-0.00000068,0.00000921,-0.00000272,-0.00000669,0.00209216,0.0134554
 1,0.01177750,0.01453425,0.13452563,0.15493482,-0.00135145,-0.00085401,
 -0.00195295,0.00120538,0.00039298,0.00321744,-0.00004434,0.00004205,-0
 .00093152,-0.00002985,0.00000790,-0.00000684,-0.00001584,0.00003630,0.
 00010664,-0.00000758,-0.00000622,-0.00002389,-0.00001277,-0.00003183,-
 0.00009701,-0.00004412,0.00002766,0.00004036,0.00000204,-0.00002450,-0
 .00000625,-0.00000334,-0.00001145,0.00000413,0.00002318,0.00000659,0.0
 0000238,-0.00001170,-0.00000214,-0.00000068,0.00001280,0.00000423,-0.0
 0001289,0.00294342,0.01765265,0.01237570,-0.04700715,-0.00902759,-0.00
 652841,-0.01399889,-0.02980986,-0.02484089,0.00025126,0.00013965,-0.00
 001884,-0.00003249,0.00001105,0.00001450,0.00000392,0.00000919,0.00000
 264,0.00000088,-0.00000386,-0.00000173,-0.00001642,-0.00001868,-0.0000
 1868,-0.00000122,0.00000184,0.00000054,-0.00000004,0.00000088,0.000000
 43,-0.00001881,0.00001092,0.00000052,0.00090287,-0.00045936,-0.0005381
 0,-0.00332763,-0.00099864,0.00307389,0.06196184,-0.00114787,0.00028358
 ,0.00126843,-0.00037755,0.00050836,-0.00192387,-0.00003505,-0.00019634
 ,0.00056554,0.00008194,-0.00001613,-0.00002020,0.00002924,-0.00002654,
 0.00000244,-0.00001097,0.00000508,0.00000055,-0.00002389,0.00000841,0.
 00001915,-0.00001962,0.00001833,0.00000532,0.00000104,-0.00001046,-0.0
 0001037,-0.00000176,-0.00000323,-0.00000376,-0.00000345,-0.00000360,0.
 00000522,0.00000690,0.00000203,0.00000061,-0.00000100,-0.00000699,0.00
 000080,0.00149872,0.00403894,0.00261899,-0.01876460,-0.22977483,-0.134
 30224,0.00138354,0.00371969,0.00378835,-0.00002470,0.00001995,0.000037
 79,0.00001549,-0.00001341,-0.00001492,0.00000219,0.00000055,-0.0000006
 2,-0.00000802,0.00000204,0.00001233,-0.00000446,0.00002493,-0.00001478
 ,-0.00000130,0.00000104,0.00000186,0.00000018,0.00000090,0.00000044,0.
 00000550,0.00000870,-0.00000018,0.00053416,0.00088457,-0.00003217,-0.0
 0085388,0.00123799,0.00094834,0.01977278,0.23719033,-0.00099449,0.0003
 9685,0.00080532,-0.00067822,-0.00019924,-0.00089480,-0.00004763,0.0001
 8004,0.00001843,0.00001605,0.00006874,0.00005614,-0.00000586,-0.000022
 07,-0.00004156,-0.00000808,0.00000515,0.00001199,0.00000955,0.00001939
 ,0.00002579,0.00001834,-0.00000851,0.00000347,0.00000426,0.00000596,0.
 00001759,0.00000638,0.00000437,-0.00000112,-0.00000432,0.00000509,-0.0
 0001394,-0.00001629,-0.00000426,-0.00000097,0.00000206,-0.00000121,-0.
 00000339,0.00046170,-0.01981345,-0.01568247,-0.01239347,-0.13092067,-0
 .14924229,-0.00386698,-0.00655278,-0.00633935,-0.00007170,-0.00015287,
 0.00001071,0.00001510,0.00000631,-0.00000329,-0.00000166,-0.00000162,0
 .00000024,0.00000905,-0.00000145,-0.00001250,0.00000956,0.00000067,0.0
 0002453,0.00000178,0.00000030,-0.00000163,-0.00000183,0.00000046,0.000
 00008,-0.00000532,0.00000161,0.00001169,-0.00095027,0.00013909,0.00085
 566,0.00309117,0.00099104,-0.00249560,0.01429672,0.14246432,0.16088886
 ,-0.00157752,0.00101014,-0.00185377,0.00115278,-0.00074018,0.00318021,
 -0.00000097,0.00009801,-0.00098754,-0.00005071,-0.00000341,-0.00000243
 ,-0.00000424,0.00000573,0.00008575,-0.00000559,0.00000931,-0.00002525,
 -0.00000251,0.00000141,-0.00007705,-0.00002639,-0.00000929,0.00000256,
 0.00000749,-0.00000154,0.00001110,-0.00000208,-0.00000243,0.00000606,0
 .00001576,0.00000851,-0.00000421,-0.00001593,-0.00000300,-0.00000249,0
 .00000461,0.00001528,-0.00000813,0.00423260,-0.01866769,0.01071127,-0.
 04956408,0.02284810,-0.01361770,-0.01589144,0.03065571,-0.02168976,0.0
 0027065,-0.00015289,-0.00001881,-0.00005858,0.00000082,-0.00000207,-0.
 00000214,-0.00000289,0.00000455,0.00001705,0.00000482,-0.00001484,0.00
 000367,-0.00003401,0.00000984,0.00000101,-0.00000058,-0.00000192,-0.00
 000060,-0.00000163,-0.00000097,-0.00001399,-0.00001271,-0.00000284,-0.
 00342479,0.00042794,0.00319124,0.00090427,0.00050434,-0.00047493,0.002
 09861,-0.00216082,0.00221878,0.06539395,0.00118558,0.00053914,-0.00141
 504,0.00052399,0.00024348,0.00223997,0.00002539,-0.00006973,-0.0006348
 3,-0.00005886,-0.00002179,0.00001008,-0.00003752,0.00003481,0.00002543
 ,0.00002053,-0.00001741,-0.00000714,0.00002415,-0.00001988,-0.00003193
 ,-0.00001079,-0.00000098,0.00000816,-0.00000004,-0.00000083,0.00000244
 ,-0.00000148,-0.00000245,0.00000218,0.00000836,0.00000109,0.00000063,-
 0.00000266,-0.00000046,-0.00000081,0.00000301,0.00000079,-0.00000458,-
 0.00145677,0.00091288,-0.00020445,0.03303637,-0.25117423,0.12394390,-0
 .00230430,0.00541058,-0.00436735,0.00004808,-0.00000219,-0.00004229,0.
 00000094,0.00002091,0.00000769,0.00000083,0.00000676,0.00000034,0.0000
 0484,-0.00000407,-0.00000749,0.00000161,-0.00002025,0.00000282,-0.0000
 0002,0.00000030,-0.00000023,0.00000007,0.00000070,0.00000041,-0.000008
 51,0.00000416,0.00000061,0.00026693,0.00144602,-0.00035351,-0.00044188
 ,0.00089083,0.00001038,0.00330937,-0.01944938,0.01335518,-0.03378841,0
 .25966766,-0.00096995,-0.00056226,0.00063976,-0.00065688,0.00032335,-0
 .00072090,-0.00002932,-0.00018353,-0.00004767,0.00000912,-0.00009129,0
 .00004106,0.00000704,0.00000675,-0.00000937,-0.00000338,-0.00000396,0.
 00000172,0.00000095,-0.00001902,0.00000230,-0.00000045,0.00001280,-0.0
 0000066,0.00000038,-0.00000940,0.00000772,0.00000687,0.00000254,-0.000
 00413,-0.00000201,0.00000438,-0.00001146,-0.00001432,-0.00000409,0.000
 00183,0.00000563,-0.00000232,-0.00000023,-0.00094334,0.02147717,-0.013
 87763,-0.01831544,0.12022707,-0.12534689,-0.00447392,0.00723840,-0.006
 05459,-0.00007341,0.00016082,0.00001210,0.00002783,0.00000616,0.000023
 25,0.00000449,0.00000520,-0.00000082,-0.00000519,-0.00000233,0.0000004
 2,0.00000579,0.00000596,-0.00000002,0.00000024,0.00000115,-0.00000038,
 -0.00000149,0.00000064,0.00000057,-0.00000456,-0.00000145,0.00001008,0
 .00315803,-0.00044008,-0.00264236,-0.00097570,-0.00019343,0.00082905,0
 .00344856,-0.01613589,0.01169501,0.02091925,-0.13183630,0.13520244,0.0
 0081122,0.00009287,-0.00101453,-0.00000552,-0.00024113,0.00365794,-0.0
 0060288,0.00004463,-0.00073614,-0.00000719,-0.00000645,0.00018630,-0.0
 0010940,0.00001338,-0.00006732,0.00003379,-0.00000916,0.00002092,0.000
 04977,-0.00000878,0.00000870,-0.00003082,0.00000879,0.00000231,0.00000
 034,-0.00001544,0.00000547,-0.00000402,-0.00000497,0.00000290,0.000024
 09,0.00000756,0.00000146,-0.00001522,-0.00000455,0.00000152,0.00001379
 ,0.00000957,-0.00001107,-0.00584649,0.00004229,-0.00484874,-0.01908083
 ,-0.00174462,0.02363951,-0.19065876,-0.01262412,0.17425671,0.00001045,
 0.00000049,-0.00002791,-0.00001088,0.00000584,0.00000194,-0.00001656,0
 .00000738,0.00000289,-0.00000145,-0.00000245,0.00000061,-0.00000007,-0
 .00001451,-0.00000736,-0.00000247,-0.00000127,0.00000028,-0.00000079,-
 0.00000046,0.00000009,-0.00001428,-0.00000111,-0.00000309,0.00038984,-
 0.00015615,-0.00018693,0.00040105,0.00018412,-0.00018927,0.00127635,-0
 .00095804,-0.00006005,0.00115729,0.00106099,0.00003993,0.20016756,0.00
 004094,-0.00016936,-0.00003462,-0.00000317,0.00052846,0.00010106,0.000
 00498,-0.00002627,-0.00001323,0.00000513,-0.00003924,-0.00001192,-0.00
 001911,0.00001333,0.00001291,0.00001622,-0.00001485,-0.00000383,0.0000
 0762,-0.00001250,-0.00000470,-0.00001576,0.00001090,0.00000592,-0.0000
 0237,-0.00000683,-0.00000490,-0.00000058,-0.00000306,-0.00000201,0.000
 00333,-0.00000363,0.00000247,0.00000108,0.00000107,-0.00000040,0.00000
 244,-0.00000628,-0.00000198,-0.00008625,0.00003395,-0.00007726,-0.0003
 6271,-0.00050704,0.00004037,-0.01215583,-0.06390998,0.01566971,-0.0000
 0385,0.00002825,0.00000477,0.00000878,0.00000328,0.00000019,0.00000057
 ,0.00000769,-0.00000012,-0.00000278,-0.00000045,0.00000479,0.00000076,
 0.00000459,-0.00000503,-0.00000125,0.00000157,0.00000183,0.,0.00000206
 ,0.00000104,-0.00000245,0.00001073,0.00000065,0.00016100,0.00021366,-0
 .00018878,-0.00014375,0.00018617,0.00020855,-0.00074051,-0.00025423,0.
 00007336,0.00086374,-0.00014051,-0.00013664,0.01336514,0.05918121,-0.0
 0023285,-0.00002109,-0.00005025,-0.00024136,-0.00002216,0.00089877,-0.
 00060949,-0.00001605,-0.00016012,0.00012567,-0.00002197,0.00011432,0.0
 0012332,-0.00007826,-0.00002550,-0.00012142,0.00005437,0.00001643,-0.0
 0009221,0.00002270,0.00000148,-0.00001125,0.00004340,0.00001639,0.0000
 0588,-0.00002461,0.00000770,0.00002248,0.00000578,-0.00001398,-0.00003
 324,0.00000700,-0.00003020,-0.00002318,-0.00000499,0.00000118,-0.00000
 132,-0.00001559,0.00000983,-0.00222384,0.00002028,-0.00199695,-0.00553
 104,-0.00092999,0.01514302,0.16428414,0.01532425,-0.26787656,0.0000754
 1,0.00000467,-0.00010144,-0.00001556,-0.00000022,-0.00000582,0.0000183
 2,-0.00000322,-0.00000370,0.00000516,0.00000209,-0.00000478,0.00000379
 ,0.00001007,0.00000917,0.00000353,0.00000469,-0.00000099,-0.00000305,0
 .00000164,0.00000053,0.00000372,0.00000331,0.00002445,0.00004258,-0.00
 011515,-0.00008000,0.00002304,0.00014564,-0.00004834,-0.00032057,-0.00
 026104,0.00043773,-0.00025652,0.00017480,0.00045427,-0.17981848,-0.016
 83867,0.28376652,0.00001798,0.00017078,0.00114091,-0.00155469,0.000567
 10,-0.00153739,0.00063137,0.00004918,0.00018957,-0.00020082,0.00000329
 ,-0.00011753,-0.00017599,0.00009026,0.00007220,0.00016292,-0.00006854,
 -0.00003388,0.00013017,-0.00002098,-0.00002786,0.00001284,-0.00005986,
 -0.00002121,-0.00000403,0.00002757,0.00000320,-0.00002839,-0.00000895,
 0.00002229,0.00005433,-0.00000189,0.00002660,0.00001039,0.00000048,0.0
 0000091,0.00001100,0.00002788,-0.00002463,0.00260780,-0.00118905,-0.00
 041294,-0.00367220,-0.02823810,-0.02014234,-0.06493161,-0.04786842,-0.
 03342487,-0.00009736,-0.00006655,0.00013665,0.00002721,-0.00000031,0.0
 0000552,-0.00002860,0.00000519,0.00001178,-0.00000441,-0.00000071,0.00
 000225,0.00000132,-0.00001571,-0.00000909,-0.00000472,-0.00000525,0.00
 000025,0.00000136,-0.00000173,-0.00000036,-0.00001298,-0.00000731,-0.0
 0002302,-0.00009453,0.00007585,0.00012784,-0.00050209,0.00085413,0.001
 12403,-0.00622406,0.00159065,-0.00102920,0.00137851,0.00057725,-0.0000
 1166,0.00524049,0.02174206,0.01340289,0.06645818,0.00052659,-0.0001565
 4,0.00009769,-0.00071704,0.00002266,-0.00019593,0.00052104,-0.00000120
 ,-0.00010901,-0.00013706,0.00001963,-0.00011013,-0.00011493,0.00009984
 ,0.00010545,0.00010393,-0.00006444,-0.00003369,0.00007207,-0.00005573,
 -0.00006239,0.00001211,-0.00001661,0.00000616,-0.00000561,0.00001011,-
 0.00000369,-0.00001498,-0.00000940,0.00001010,0.00003619,-0.00000514,0
 .00001685,0.00000696,0.00000149,0.00000038,0.00000984,0.00000778,-0.00
 001608,0.00058200,0.00049313,0.00160944,-0.00409611,0.00355448,0.00050
 050,-0.03965394,-0.27511715,-0.15801956,-0.00003220,0.00005200,0.00008
 266,0.00001143,0.00001169,0.00001936,-0.00000777,0.00001828,0.00000644
 ,-0.00000671,-0.00000366,0.00000380,-0.00000209,-0.00001769,-0.0000151
 0,-0.00000393,-0.00000006,0.00000205,0.00000095,0.00000152,0.00000122,
 -0.00001364,0.00000893,-0.00001032,-0.00014695,-0.00034914,-0.00008459
 ,-0.00024847,-0.00011529,-0.00019299,0.00115862,0.00111191,0.00046679,
 0.00062366,0.00069865,0.00061668,0.00176641,0.00434951,0.00301935,0.04
 519950,0.28906542,-0.00001388,0.00008421,-0.00048786,0.00033682,-0.000
 11559,0.00001815,0.00022936,-0.00001700,-0.00006398,-0.00001217,-0.000
 00429,-0.00005203,0.00003622,0.00001261,0.00013150,-0.00002280,0.00000
 492,-0.00003468,-0.00002889,-0.00001638,-0.00009461,0.00000499,0.00000
 713,0.00000874,0.00000126,-0.00000597,0.00000765,0.00000275,-0.0000037
 3,0.00000135,0.00000613,0.00000400,-0.00000877,-0.00001161,-0.00000287
 ,0.00000153,0.00000579,0.00000345,-0.00000757,0.00033621,0.00150357,0.
 00206907,-0.00450891,-0.00714346,-0.00641756,-0.02727135,-0.16066205,-
 0.18160499,0.00004085,0.00003632,0.00004617,-0.00000630,0.00000128,0.0
 0000226,0.00000828,0.00000140,0.00000561,0.00000003,0.00000291,-0.0000
 0019,-0.00000105,-0.00000728,-0.00000518,0.00000011,0.00000259,-0.0000
 0003,-0.00000126,0.00000053,0.00000022,-0.00000620,-0.00000035,0.00000
 594,0.00010585,0.00012392,-0.00004475,-0.00017124,-0.00075904,0.000114
 67,-0.00148058,0.00109083,0.00039089,0.00023695,0.00024070,-0.00045252
 ,-0.00651787,-0.02452885,-0.01636844,0.03429279,0.17290187,0.18739654,
 0.00003212,-0.00027629,0.00114702,-0.00158437,-0.00048672,-0.00165033,
 0.00066452,0.00000479,0.00018951,-0.00021128,0.00003809,-0.00013094,-0
 .00018531,0.00011257,0.00008889,0.00016738,-0.00007725,-0.00003573,0.0
 0012749,-0.00004343,-0.00004222,0.00001933,-0.00005010,-0.00000819,-0.
 00000591,0.00002340,-0.00000316,-0.00002979,-0.00001232,0.00002261,0.0
 0005995,-0.00000330,0.00003036,0.00001323,0.00000098,0.00000204,0.0000
 1448,0.00002484,-0.00002732,0.00256349,0.00131961,-0.00015509,-0.00583
 039,0.02939711,-0.01734381,-0.07200870,0.06601130,-0.03824226,-0.00010
 216,0.00005528,0.00014453,0.00002888,0.00000250,0.00001761,-0.00002610
 ,0.00001027,0.00001146,-0.00001262,-0.00000321,0.00000858,-0.00000204,
 -0.00001601,-0.00002056,-0.00000609,-0.00000445,0.00000134,0.00000167,
 -0.00000100,0.00000014,-0.00001504,0.00000002,-0.00002289,-0.00045659,
 -0.00096348,0.00099423,-0.00010588,-0.00005681,0.00011405,0.00146513,-
 0.00052539,-0.00002513,-0.00599671,-0.00198707,-0.00115308,0.00683164,
 -0.02268342,0.01139547,0.00079060,-0.00542989,0.00440970,0.07379907,-0
 .00051712,-0.00019256,0.00001300,0.00059036,0.00000496,0.00006943,-0.0
 0050872,-0.00007426,0.00013006,0.00013862,0.00000541,0.00008905,0.0000
 7123,-0.00004685,-0.00006662,-0.00007556,0.00002601,0.00002730,-0.0000
 6497,-0.00000157,0.00003979,-0.00000828,0.00004863,0.00000357,-0.00000
 227,-0.00002378,-0.00001129,0.00001298,0.00000302,-0.00001745,-0.00002
 797,-0.00000664,-0.00000803,0.00000065,0.00000200,0.00000083,-0.000003
 93,-0.00002356,0.00001551,-0.00045618,0.00086382,-0.00172943,0.0039053
 3,0.00514064,-0.00079251,0.05725392,-0.29717748,0.14423879,0.00001530,
 0.00006346,-0.00007002,-0.00000108,-0.00000785,-0.00000683,0.00001331,
 0.00000685,-0.00000628,-0.00000949,0.,0.00001348,0.00000209,0.00002639
 ,-0.00000575,-0.00000029,0.00000485,0.00000323,-0.00000063,0.00000287,
 0.00000146,0.00001016,0.00001426,0.00001170,0.00023052,-0.00025848,0.0
 0022918,0.00014876,-0.00034107,0.00005576,-0.00059601,0.00068782,-0.00
 050662,-0.00149603,0.00104542,-0.00046706,-0.00081626,0.00051779,-0.00
 049103,0.00657220,-0.02361497,0.01724463,-0.06438064,0.31330488,-0.000
 06908,-0.00003919,-0.00048138,0.00038348,0.00012461,0.00002069,0.00017
 609,0.00002658,-0.00004382,0.00000969,-0.00000499,-0.00005064,0.000041
 62,-0.00000577,0.00011104,-0.00002875,0.00001044,-0.00002972,-0.000029
 38,0.00000598,-0.00007963,-0.00000266,0.00000348,0.00001974,0.00000403
 ,-0.00000631,0.00000559,0.00000292,-0.00000429,0.00000323,0.00000389,0
 .00000477,-0.00001002,-0.00001216,-0.00000261,0.00000017,0.00000429,0.
 00000215,-0.00000911,0.00037837,-0.00158302,0.00174114,-0.00459975,0.0
 0780774,-0.00573761,-0.03309296,0.14726278,-0.15253722,0.00004630,-0.0
 0003506,0.00003716,-0.00001088,0.00000169,-0.00000213,0.00000725,-0.00
 000288,0.00000424,0.00000415,0.00000366,-0.00000275,-0.00000055,-0.000
 00226,-0.00000346,0.00000100,0.00000238,-0.00000044,-0.00000144,0.0000
 0088,0.00000013,-0.00000592,0.00000289,0.00000764,-0.00019542,0.000708
 93,0.00021705,0.00012800,-0.00015574,-0.00004590,0.00019539,-0.0001112
 6,-0.00052121,-0.00153631,-0.00111975,0.00024804,-0.00834069,0.0257253
 2,-0.01413475,0.00625630,-0.02061331,0.01544283,0.04028317,-0.15800785
 ,0.15583108\\-0.00000484,-0.00000378,0.00000631,-0.00000514,0.00000346
 ,-0.00000570,0.00000174,-0.00000157,-0.00000354,-0.00000123,0.00000290
 ,-0.00000026,0.00000100,-0.00000012,0.00000486,0.00000060,0.00000027,0
 .00000054,-0.00000147,0.00000034,-0.00000490,0.00000070,-0.00000109,0.
 00000024,-0.00000074,0.00000005,0.00000078,0.00000037,0.00000002,-0.00
 000006,0.00000175,0.00000066,-0.00000057,-0.00000077,-0.00000090,0.000
 00149,-0.00000029,-0.00000003,0.00000077,0.00000280,-0.00000643,-0.000
 00380,0.00001320,0.00001465,0.00000904,0.00000091,-0.00000328,-0.00000
 411,0.00000102,-0.00000132,-0.00000011,-0.00000059,-0.00000071,0.00000
 032,0.00000014,0.00000002,-0.00000023,-0.00000018,0.00000045,-0.000000
 10,-0.00000033,-0.00000012,0.00000042,0.00000013,0.00000041,-0.0000004
 2,0.00000011,-0.00000029,0.00000070,-0.00000028,-0.00000026,0.00000015
 ,-0.00000264,0.00000157,-0.00000163,0.00000153,0.00000177,-0.00000254,
 -0.00000334,-0.00000930,0.00000164,-0.00000342,0.00000214,0.00000253,0
 .00000053,0.00000020,-0.00000014,-0.00000141,0.00000023,-0.00000079,0.
 00000014,0.00000005,-0.00000090\\\@


 NEVER LOSE YOUR IGNORANCE, IT CAN'T BE REPLACED.
   -- ANDY CAPP
 Job cpu time:       0 days 14 hours  3 minutes 59.7 seconds.
 File lengths (MBytes):  RWF=   1140 Int=      0 D2E=      0 Chk=     37 Scr=      1
 Normal termination of Gaussian 09 at Thu Jul 29 08:12:29 2021.
