 Entering Gaussian System, Link 0=g09
 Input=opt_freq-conf-661.com
 Output=opt_freq-conf-661.log
 Initial command:
 /aerosol/software/g09/l1.exe "/scratch/nicole/10748/Gau-85697.inp" -scrdir="/scratch/nicole/10748/"
 Entering Link 1 = /aerosol/software/g09/l1.exe PID=     85702.
  
 Copyright (c) 1988,1990,1992,1993,1995,1998,2003,2009,2013,
            Gaussian, Inc.  All Rights Reserved.
  
 This is part of the Gaussian(R) 09 program.  It is based on
 the Gaussian(R) 03 system (copyright 2003, Gaussian, Inc.),
 the Gaussian(R) 98 system (copyright 1998, Gaussian, Inc.),
 the Gaussian(R) 94 system (copyright 1995, Gaussian, Inc.),
 the Gaussian 92(TM) system (copyright 1992, Gaussian, Inc.),
 the Gaussian 90(TM) system (copyright 1990, Gaussian, Inc.),
 the Gaussian 88(TM) system (copyright 1988, Gaussian, Inc.),
 the Gaussian 86(TM) system (copyright 1986, Carnegie Mellon
 University), and the Gaussian 82(TM) system (copyright 1983,
 Carnegie Mellon University). Gaussian is a federally registered
 trademark of Gaussian, Inc.
  
 This software contains proprietary and confidential information,
 including trade secrets, belonging to Gaussian, Inc.
  
 This software is provided under written license and may be
 used, copied, transmitted, or stored only in accord with that
 written license.
  
 The following legend is applicable only to US Government
 contracts under FAR:
  
                    RESTRICTED RIGHTS LEGEND
  
 Use, reproduction and disclosure by the US Government is
 subject to restrictions as set forth in subparagraphs (a)
 and (c) of the Commercial Computer Software - Restricted
 Rights clause in FAR 52.227-19.
  
 Gaussian, Inc.
 340 Quinnipiac St., Bldg. 40, Wallingford CT 06492
  
  
 ---------------------------------------------------------------
 Warning -- This program may not be used in any manner that
 competes with the business of Gaussian, Inc. or will provide
 assistance to any competitor of Gaussian, Inc.  The licensee
 of this program is prohibited from giving any competitor of
 Gaussian, Inc. access to this program.  By using this program,
 the user acknowledges that Gaussian, Inc. is engaged in the
 business of creating and licensing software in the field of
 computational chemistry and represents and warrants to the
 licensee that it is not a competitor of Gaussian, Inc. and that
 it will not use this program in any manner prohibited above.
 ---------------------------------------------------------------
  

 Cite this work as:
 Gaussian 09, Revision D.01,
 M. J. Frisch, G. W. Trucks, H. B. Schlegel, G. E. Scuseria, 
 M. A. Robb, J. R. Cheeseman, G. Scalmani, V. Barone, B. Mennucci, 
 G. A. Petersson, H. Nakatsuji, M. Caricato, X. Li, H. P. Hratchian, 
 A. F. Izmaylov, J. Bloino, G. Zheng, J. L. Sonnenberg, M. Hada, 
 M. Ehara, K. Toyota, R. Fukuda, J. Hasegawa, M. Ishida, T. Nakajima, 
 Y. Honda, O. Kitao, H. Nakai, T. Vreven, J. A. Montgomery, Jr., 
 J. E. Peralta, F. Ogliaro, M. Bearpark, J. J. Heyd, E. Brothers, 
 K. N. Kudin, V. N. Staroverov, T. Keith, R. Kobayashi, J. Normand, 
 K. Raghavachari, A. Rendell, J. C. Burant, S. S. Iyengar, J. Tomasi, 
 M. Cossi, N. Rega, J. M. Millam, M. Klene, J. E. Knox, J. B. Cross, 
 V. Bakken, C. Adamo, J. Jaramillo, R. Gomperts, R. E. Stratmann, 
 O. Yazyev, A. J. Austin, R. Cammi, C. Pomelli, J. W. Ochterski, 
 R. L. Martin, K. Morokuma, V. G. Zakrzewski, G. A. Voth, 
 P. Salvador, J. J. Dannenberg, S. Dapprich, A. D. Daniels, 
 O. Farkas, J. B. Foresman, J. V. Ortiz, J. Cioslowski, 
 and D. J. Fox, Gaussian, Inc., Wallingford CT, 2013.
 
 ******************************************
 Gaussian 09:  ES64L-G09RevD.01 24-Apr-2013
                29-Jul-2021 
 ******************************************
 %mem=2gb
 %nproc=4
 Will use up to    4 processors via shared memory.
 %chk=conf-661.chk
 ----------------------------------------------------------------------
 # B3LYP/6-311G(2df,2pd) guess=read geom=checkpoint opt=readfc freq=nor
 aman nosymm integral(ultrafinegrid)
 ----------------------------------------------------------------------
 1/10=3,14=-1,18=20,19=15,26=4,29=2,38=1/1,3;
 2/9=110,12=2,15=1,40=1/2;
 3/5=4,6=6,7=404,11=2,14=-4,16=1,25=1,30=1,71=1,74=-5,75=-5,116=-2/1,2,3;
 4/5=1/1;
 5/5=2,38=6/2;
 6/7=2,8=2,9=2,10=2,28=1/1;
 7/30=1/1,2,3,16;
 1/14=-1,18=20,19=15,26=4/3(2);
 2/9=110,15=1/2;
 99//99;
 2/9=110,15=1/2;
 3/5=4,6=6,7=404,11=2,14=-2,16=1,25=1,30=1,71=1,74=-5,75=-5/1,2,3;
 4/5=5,16=3,69=1/1;
 5/5=2,38=5/2;
 7/30=1/1,2,3,16;
 1/14=-1,18=20,19=15,26=4/3(-5);
 2/9=110,15=1/2;
 6/7=2,8=2,9=2,10=2,19=2,28=1/1;
 99/9=1/99;
 ------------------------------------------------------------
 Candidate Structure: Conf:661 OPT and FREQ calc in gas phase
 ------------------------------------------------------------
 Structure from the checkpoint file:  "conf-661.chk"
 Charge =  1 Multiplicity = 1
 Redundant internal coordinates found in file.
 O,0,2.1182936672,1.1505449141,0.8889305974
 C,0,1.4149004886,0.954612913,-0.0941004716
 N,0,0.1850171394,0.3727235082,-0.0022883776
 C,0,-0.2584386422,-0.1351465718,1.2747132949
 C,0,0.7540202982,-1.191568222,1.757152554
 O,0,0.7401978201,-1.4964069608,3.0496843574
 O,0,1.4942337243,-1.8106364841,1.0089125631
 C,0,-1.664018579,-0.8068320375,1.1301371494
 C,0,-2.6428231251,0.0212744093,0.3659869746
 C,0,-3.0429167739,-0.0525135403,-0.9527209255
 N,0,-3.9198497038,0.957931208,-1.2637221156
 C,0,-4.0603873967,1.6451536232,-0.1527480423
 N,0,-3.3031161527,1.131331743,0.8649485526
 C,0,1.9826589835,1.107145008,-1.5036793794
 C,0,3.1864492033,0.1646923178,-1.5935144588
 N,0,2.7743120094,-1.2763160071,-1.3334139654
 H,0,-0.4933765645,0.4133439239,-0.7558830168
 H,0,-0.2976833278,0.6742120194,2.015821836
 H,0,0.166062907,-0.905202255,3.5606111183
 H,0,-2.0336847899,-1.0563523722,2.1310420102
 H,0,-1.5394597455,-1.7559882887,0.5990812142
 H,0,-2.7734867592,-0.8086779589,-1.6795833494
 H,0,-4.6912482141,2.5132432753,-0.0199179621
 H,0,-3.2880676971,1.4684176482,1.8166668941
 H,0,2.3522831918,2.1266661323,-1.6444572785
 H,0,1.2476779425,0.9013868755,-2.2892066393
 H,0,3.9066236926,0.41924269,-0.8149744322
 H,0,3.6691020426,0.1944478251,-2.5715783811
 H,0,3.5974948785,-1.8830152146,-1.2795521226
 H,0,2.234661331,-1.4018823936,-0.423599318
 H,0,2.1841641318,-1.6357250476,-2.0887432301
 Recover connectivity data from disk.

 GradGradGradGradGradGradGradGradGradGradGradGradGradGradGradGradGradGrad
 Berny optimization.
 Initialization pass.
 Force constant matrix read from checkpoint file:
 "conf-661.chk"
                           ----------------------------
                           !    Initial Parameters    !
                           ! (Angstroms and Degrees)  !
 --------------------------                            --------------------------
 ! Name  Definition              Value          Derivative Info.                !
 --------------------------------------------------------------------------------
 ! R1    R(1,2)                  1.2245         D2E/DX2 =    0.8061             !
 ! R2    R(2,3)                  1.3637         D2E/DX2 =    0.4687             !
 ! R3    R(2,14)                 1.5273         D2E/DX2 =    0.291              !
 ! R4    R(3,4)                  1.4441         D2E/DX2 =    0.3765             !
 ! R5    R(3,17)                 1.0148         D2E/DX2 =    0.4496             !
 ! R6    R(4,5)                  1.5407         D2E/DX2 =    0.2526             !
 ! R7    R(4,8)                  1.5645         D2E/DX2 =    0.2442             !
 ! R8    R(4,18)                 1.0981         D2E/DX2 =    0.3271             !
 ! R9    R(5,6)                  1.3281         D2E/DX2 =    0.4715             !
 ! R10   R(5,7)                  1.2211         D2E/DX2 =    0.8123             !
 ! R11   R(6,19)                 0.9696         D2E/DX2 =    0.5155             !
 ! R12   R(8,9)                  1.4926         D2E/DX2 =    0.3183             !
 ! R13   R(8,20)                 1.0958         D2E/DX2 =    0.3346             !
 ! R14   R(8,21)                 1.0947         D2E/DX2 =    0.3384             !
 ! R15   R(9,10)                 1.38           D2E/DX2 =    0.4005             !
 ! R16   R(9,13)                 1.3846         D2E/DX2 =    0.3606             !
 ! R17   R(10,11)                1.3736         D2E/DX2 =    0.3411             !
 ! R18   R(10,22)                1.0829         D2E/DX2 =    0.3689             !
 ! R19   R(11,12)                1.3139         D2E/DX2 =    0.4655             !
 ! R20   R(12,13)                1.3686         D2E/DX2 =    0.3551             !
 ! R21   R(12,23)                1.0813         D2E/DX2 =    0.3753             !
 ! R22   R(13,24)                1.0098         D2E/DX2 =    0.474              !
 ! R23   R(14,15)                1.5315         D2E/DX2 =    0.289              !
 ! R24   R(14,25)                1.0936         D2E/DX2 =    0.3438             !
 ! R25   R(14,26)                1.0953         D2E/DX2 =    0.3374             !
 ! R26   R(15,16)                1.5212         D2E/DX2 =    0.2597             !
 ! R27   R(15,27)                1.0907         D2E/DX2 =    0.3509             !
 ! R28   R(15,28)                1.0911         D2E/DX2 =    0.3483             !
 ! R29   R(16,29)                1.024          D2E/DX2 =    0.434              !
 ! R30   R(16,30)                1.0652         D2E/DX2 =    0.2727             !
 ! R31   R(16,31)                1.0237         D2E/DX2 =    0.4339             !
 ! A1    A(1,2,3)              122.1596         D2E/DX2 =    0.2041             !
 ! A2    A(1,2,14)             120.7571         D2E/DX2 =    0.1619             !
 ! A3    A(3,2,14)             116.1057         D2E/DX2 =    0.1835             !
 ! A4    A(2,3,4)              119.1151         D2E/DX2 =    0.1747             !
 ! A5    A(2,3,17)             122.4011         D2E/DX2 =    0.1002             !
 ! A6    A(4,3,17)             117.7421         D2E/DX2 =    0.1131             !
 ! A7    A(3,4,5)              108.4361         D2E/DX2 =    0.1658             !
 ! A8    A(3,4,8)              110.1918         D2E/DX2 =    0.1065             !
 ! A9    A(3,4,18)             110.4003         D2E/DX2 =    0.0371             !
 ! A10   A(5,4,8)              108.9617         D2E/DX2 =    0.0906             !
 ! A11   A(5,4,18)             108.5133         D2E/DX2 =    0.0324             !
 ! A12   A(8,4,18)             110.2851         D2E/DX2 =    0.0349             !
 ! A13   A(4,5,6)              117.0837         D2E/DX2 =    0.1732             !
 ! A14   A(4,5,7)              123.6487         D2E/DX2 =    0.2064             !
 ! A15   A(6,5,7)              119.0986         D2E/DX2 =    0.2096             !
 ! A16   A(5,6,19)             112.2741         D2E/DX2 =    0.1722             !
 ! A17   A(4,8,9)              113.4707         D2E/DX2 =    0.1583             !
 ! A18   A(4,8,20)             108.4476         D2E/DX2 =    0.063              !
 ! A19   A(4,8,21)             108.3512         D2E/DX2 =    0.0586             !
 ! A20   A(9,8,20)             111.8854         D2E/DX2 =    0.0553             !
 ! A21   A(9,8,21)             107.8966         D2E/DX2 =    0.0502             !
 ! A22   A(20,8,21)            106.5025         D2E/DX2 =    0.0204             !
 ! A23   A(8,9,10)             130.5172         D2E/DX2 =    0.0954             !
 ! A24   A(8,9,13)             124.9624         D2E/DX2 =    0.1001             !
 ! A25   A(10,9,13)            104.4158         D2E/DX2 =    0.1022             !
 ! A26   A(9,10,11)            111.2299         D2E/DX2 =    0.1136             !
 ! A27   A(9,10,22)            127.3428         D2E/DX2 =    0.0816             !
 ! A28   A(11,10,22)           121.368          D2E/DX2 =    0.0897             !
 ! A29   A(10,11,12)           105.1654         D2E/DX2 =    0.1302             !
 ! A30   A(11,12,13)           111.913          D2E/DX2 =    0.1182             !
 ! A31   A(11,12,23)           125.8871         D2E/DX2 =    0.0897             !
 ! A32   A(13,12,23)           122.1994         D2E/DX2 =    0.0907             !
 ! A33   A(9,13,12)            107.2703         D2E/DX2 =    0.1028             !
 ! A34   A(9,13,24)            126.882          D2E/DX2 =    0.0774             !
 ! A35   A(12,13,24)           125.7152         D2E/DX2 =    0.0796             !
 ! A36   A(2,14,15)            106.5521         D2E/DX2 =    0.3876             !
 ! A37   A(2,14,25)            109.7294         D2E/DX2 =    0.0739             !
 ! A38   A(2,14,26)            113.1859         D2E/DX2 =    0.0646             !
 ! A39   A(15,14,25)           107.4874         D2E/DX2 =    0.0731             !
 ! A40   A(15,14,26)           111.703          D2E/DX2 =    0.0768             !
 ! A41   A(25,14,26)           108.0372         D2E/DX2 =    0.0265             !
 ! A42   A(14,15,16)           111.0979         D2E/DX2 =    0.2373             !
 ! A43   A(14,15,27)           109.4828         D2E/DX2 =    0.0471             !
 ! A44   A(14,15,28)           112.5516         D2E/DX2 =    0.056              !
 ! A45   A(16,15,27)           106.1368         D2E/DX2 =    0.0609             !
 ! A46   A(16,15,28)           107.3951         D2E/DX2 =    0.0751             !
 ! A47   A(27,15,28)           109.9634         D2E/DX2 =    0.0206             !
 ! A48   A(15,16,29)           110.6366         D2E/DX2 =    0.0976             !
 ! A49   A(15,16,30)           113.2629         D2E/DX2 =    0.145              !
 ! A50   A(15,16,31)           111.2605         D2E/DX2 =    0.0979             !
 ! A51   A(29,16,30)           107.0064         D2E/DX2 =    0.0603             !
 ! A52   A(29,16,31)           107.1108         D2E/DX2 =    0.0533             !
 ! A53   A(30,16,31)           107.2625         D2E/DX2 =    0.0607             !
 ! D1    D(1,2,3,4)             -5.4771         D2E/DX2 =    0.0374             !
 ! D2    D(1,2,3,17)           164.4286         D2E/DX2 =    0.018              !
 ! D3    D(14,2,3,4)           163.2807         D2E/DX2 =    0.1031             !
 ! D4    D(14,2,3,17)          -26.8136         D2E/DX2 =    0.0415             !
 ! D5    D(1,2,14,15)           56.7502         D2E/DX2 =    0.0182             !
 ! D6    D(1,2,14,25)          -59.3296         D2E/DX2 =    0.019              !
 ! D7    D(1,2,14,26)          179.9098         D2E/DX2 =    0.0335             !
 ! D8    D(3,2,14,15)         -112.1769         D2E/DX2 =    0.033              !
 ! D9    D(3,2,14,25)          131.7434         D2E/DX2 =    0.0329             !
 ! D10   D(3,2,14,26)           10.9828         D2E/DX2 =    0.0185             !
 ! D11   D(2,3,4,5)            -58.5145         D2E/DX2 =    0.0339             !
 ! D12   D(2,3,4,8)           -177.6935         D2E/DX2 =    0.0188             !
 ! D13   D(2,3,4,18)            60.2412         D2E/DX2 =    0.0132             !
 ! D14   D(17,3,4,5)           131.1107         D2E/DX2 =    0.0211             !
 ! D15   D(17,3,4,8)            11.9317         D2E/DX2 =    0.0171             !
 ! D16   D(17,3,4,18)         -110.1336         D2E/DX2 =    0.0179             !
 ! D17   D(3,4,5,6)            161.4127         D2E/DX2 =    0.0254             !
 ! D18   D(3,4,5,7)            -23.3654         D2E/DX2 =    0.0259             !
 ! D19   D(8,4,5,6)            -78.637          D2E/DX2 =    0.0215             !
 ! D20   D(8,4,5,7)             96.5849         D2E/DX2 =    0.0242             !
 ! D21   D(18,4,5,6)            41.4714         D2E/DX2 =    0.0165             !
 ! D22   D(18,4,5,7)          -143.3067         D2E/DX2 =    0.021              !
 ! D23   D(3,4,8,9)            -47.2877         D2E/DX2 =    0.0334             !
 ! D24   D(3,4,8,20)          -172.2633         D2E/DX2 =    0.0325             !
 ! D25   D(3,4,8,21)            72.5139         D2E/DX2 =    0.0323             !
 ! D26   D(5,4,8,9)           -166.146          D2E/DX2 =    0.0315             !
 ! D27   D(5,4,8,20)            68.8784         D2E/DX2 =    0.0308             !
 ! D28   D(5,4,8,21)           -46.3444         D2E/DX2 =    0.0322             !
 ! D29   D(18,4,8,9)            74.8456         D2E/DX2 =    0.0133             !
 ! D30   D(18,4,8,20)          -50.1299         D2E/DX2 =    0.0135             !
 ! D31   D(18,4,8,21)         -165.3527         D2E/DX2 =    0.015              !
 ! D32   D(4,5,6,19)            -8.5575         D2E/DX2 =    0.01               !
 ! D33   D(7,5,6,19)           175.9941         D2E/DX2 =    0.016              !
 ! D34   D(4,8,9,10)            99.3232         D2E/DX2 =    0.0127             !
 ! D35   D(4,8,9,13)           -76.3585         D2E/DX2 =    0.0124             !
 ! D36   D(20,8,9,10)         -137.5706         D2E/DX2 =    0.0135             !
 ! D37   D(20,8,9,13)           46.7477         D2E/DX2 =    0.0135             !
 ! D38   D(21,8,9,10)          -20.7368         D2E/DX2 =    0.0136             !
 ! D39   D(21,8,9,13)          163.5814         D2E/DX2 =    0.014              !
 ! D40   D(8,9,10,11)         -176.748          D2E/DX2 =    0.0098             !
 ! D41   D(8,9,10,22)            6.0506         D2E/DX2 =    0.0072             !
 ! D42   D(13,9,10,11)          -0.401          D2E/DX2 =    0.0142             !
 ! D43   D(13,9,10,22)        -177.6024         D2E/DX2 =    0.0099             !
 ! D44   D(8,9,13,12)          177.301          D2E/DX2 =    0.0082             !
 ! D45   D(8,9,13,24)           -6.7163         D2E/DX2 =    0.0026             !
 ! D46   D(10,9,13,12)           0.6893         D2E/DX2 =    0.0125             !
 ! D47   D(10,9,13,24)         176.672          D2E/DX2 =    0.0046             !
 ! D48   D(9,10,11,12)          -0.059          D2E/DX2 =    0.0173             !
 ! D49   D(22,10,11,12)        177.3353         D2E/DX2 =    0.0101             !
 ! D50   D(10,11,12,13)          0.5208         D2E/DX2 =    0.0184             !
 ! D51   D(10,11,12,23)       -179.2291         D2E/DX2 =    0.0106             !
 ! D52   D(11,12,13,9)          -0.7873         D2E/DX2 =    0.0172             !
 ! D53   D(11,12,13,24)       -176.8297         D2E/DX2 =    0.008              !
 ! D54   D(23,12,13,9)         178.9732         D2E/DX2 =    0.0106             !
 ! D55   D(23,12,13,24)          2.9307         D2E/DX2 =    0.0066             !
 ! D56   D(2,14,15,16)          59.3667         D2E/DX2 =    0.0379             !
 ! D57   D(2,14,15,27)         -57.5369         D2E/DX2 =    0.0206             !
 ! D58   D(2,14,15,28)         179.8437         D2E/DX2 =    0.026              !
 ! D59   D(25,14,15,16)        176.9393         D2E/DX2 =    0.0266             !
 ! D60   D(25,14,15,27)         60.0356         D2E/DX2 =    0.0171             !
 ! D61   D(25,14,15,28)        -62.5838         D2E/DX2 =    0.019              !
 ! D62   D(26,14,15,16)        -64.7142         D2E/DX2 =    0.0183             !
 ! D63   D(26,14,15,27)        178.3821         D2E/DX2 =    0.022              !
 ! D64   D(26,14,15,28)         55.7627         D2E/DX2 =    0.0168             !
 ! D65   D(14,15,16,29)       -172.9621         D2E/DX2 =    0.0155             !
 ! D66   D(14,15,16,30)        -52.8236         D2E/DX2 =    0.0206             !
 ! D67   D(14,15,16,31)         68.0983         D2E/DX2 =    0.0137             !
 ! D68   D(27,15,16,29)        -54.0294         D2E/DX2 =    0.0152             !
 ! D69   D(27,15,16,30)         66.1091         D2E/DX2 =    0.0184             !
 ! D70   D(27,15,16,31)       -172.969          D2E/DX2 =    0.0169             !
 ! D71   D(28,15,16,29)         63.5579         D2E/DX2 =    0.015              !
 ! D72   D(28,15,16,30)       -176.3036         D2E/DX2 =    0.0193             !
 ! D73   D(28,15,16,31)        -55.3816         D2E/DX2 =    0.0149             !
 --------------------------------------------------------------------------------
 Trust Radius=3.00D-01 FncErr=1.00D-07 GrdErr=1.00D-06
 Number of steps in this run=    167 maximum allowed number of steps=    186.
 GradGradGradGradGradGradGradGradGradGradGradGradGradGradGradGradGradGrad

                          Input orientation:                          
 ---------------------------------------------------------------------
 Center     Atomic      Atomic             Coordinates (Angstroms)
 Number     Number       Type             X           Y           Z
 ---------------------------------------------------------------------
      1          8           0        2.118294    1.150545    0.888931
      2          6           0        1.414900    0.954613   -0.094100
      3          7           0        0.185017    0.372724   -0.002288
      4          6           0       -0.258439   -0.135147    1.274713
      5          6           0        0.754020   -1.191568    1.757153
      6          8           0        0.740198   -1.496407    3.049684
      7          8           0        1.494234   -1.810636    1.008913
      8          6           0       -1.664019   -0.806832    1.130137
      9          6           0       -2.642823    0.021274    0.365987
     10          6           0       -3.042917   -0.052514   -0.952721
     11          7           0       -3.919850    0.957931   -1.263722
     12          6           0       -4.060387    1.645154   -0.152748
     13          7           0       -3.303116    1.131332    0.864949
     14          6           0        1.982659    1.107145   -1.503679
     15          6           0        3.186449    0.164692   -1.593514
     16          7           0        2.774312   -1.276316   -1.333414
     17          1           0       -0.493377    0.413344   -0.755883
     18          1           0       -0.297683    0.674212    2.015822
     19          1           0        0.166063   -0.905202    3.560611
     20          1           0       -2.033685   -1.056352    2.131042
     21          1           0       -1.539460   -1.755988    0.599081
     22          1           0       -2.773487   -0.808678   -1.679583
     23          1           0       -4.691248    2.513243   -0.019918
     24          1           0       -3.288068    1.468418    1.816667
     25          1           0        2.352283    2.126666   -1.644457
     26          1           0        1.247678    0.901387   -2.289207
     27          1           0        3.906624    0.419243   -0.814974
     28          1           0        3.669102    0.194448   -2.571578
     29          1           0        3.597495   -1.883015   -1.279552
     30          1           0        2.234661   -1.401882   -0.423599
     31          1           0        2.184164   -1.635725   -2.088743
 ---------------------------------------------------------------------
                    Distance matrix (angstroms):
                    1          2          3          4          5
     1  O    0.000000
     2  C    1.224541   0.000000
     3  N    2.266459   1.363685   0.000000
     4  C    2.729595   2.421010   1.444063   0.000000
     5  C    2.846146   2.910325   2.422066   1.540730   0.000000
     6  O    3.684340   4.043032   3.621659   2.449659   1.328065
     7  O    3.028604   2.978177   2.739277   2.439216   1.221075
     8  C    4.265606   3.752491   2.468334   1.564519   2.527466
     9  C    4.921073   4.189024   2.873295   2.556470   3.865860
    10  C    5.610448   4.650126   3.391711   3.566737   4.801832
    11  N    6.413282   5.461464   4.334007   4.587418   5.965827
    12  C    6.285366   5.518973   4.434544   4.434177   5.905356
    13  N    5.421497   4.817747   3.673508   3.322941   4.759438
    14  C    2.396844   1.527262   2.454601   3.779586   4.174525
    15  C    2.876699   2.451653   3.403509   4.492648   4.356963
    16  N    3.355418   2.891529   3.345994   4.159588   3.693286
    17  H    3.173279   2.091040   1.014777   2.116450   3.232196
    18  H    2.708085   2.731911   2.096822   1.098109   2.157342
    19  H    3.895533   4.286657   3.785196   2.449187   1.918375
    20  H    4.863349   4.570337   3.393522   2.175642   2.815915
    21  H    4.680930   4.068919   2.804796   2.173619   2.630542
    22  H    5.862195   4.813059   3.600246   3.937890   4.939743
    23  H    7.003771   6.302371   5.325420   5.323518   6.821624
    24  H    5.494587   5.102248   4.070806   3.470416   4.839168
    25  H    2.724999   2.157777   3.235750   4.522524   5.013589
    26  H    3.304634   2.202110   2.576573   4.005535   4.582268
    27  H    2.576086   2.648578   3.809590   4.692748   4.376009
    28  H    3.910786   3.434701   4.332653   5.507102   5.399690
    29  H    4.011588   3.771094   4.285413   4.944445   4.217229
    30  H    2.872483   2.516674   2.743678   3.271763   2.644278
    31  H    4.078502   3.358603   3.519055   4.419376   4.127166
                    6          7          8          9         10
     6  O    0.000000
     7  O    2.198195   0.000000
     8  C    3.152845   3.316154   0.000000
     9  C    4.577163   4.569955   1.492563   0.000000
    10  C    5.693508   5.246402   2.609340   1.380040   0.000000
    11  N    6.807738   6.491697   3.732791   2.272460   1.373584
    12  C    6.570433   6.644227   3.660685   2.217106   2.134778
    13  N    5.294003   5.629429   2.552145   1.384622   2.184746
    14  C    5.390298   3.881382   4.888615   5.105864   5.186981
    15  C    5.504788   3.679422   5.647050   6.151474   6.266003
    16  N    4.837108   2.722240   5.097870   5.823835   5.956742
    17  H    4.432967   3.465716   2.533042   2.456101   2.599216
    18  H    2.618713   3.224795   2.201091   2.940742   4.108124
    19  H    0.969639   3.015794   3.044023   4.353599   5.603106
    20  H    2.954992   3.778138   1.095776   2.155864   3.396445
    21  H    3.357034   3.061739   1.094730   2.104853   2.751418
    22  H    5.931688   5.142506   3.020836   2.211391   1.082916
    23  H    7.416223   7.616733   4.637849   3.248827   3.189079
    24  H    5.151450   5.854491   2.878475   2.148264   3.169044
    25  H    6.144953   4.824829   5.695126   5.781492   5.859651
    26  H    5.874582   4.277084   4.804987   4.791727   4.594053
    27  H    5.350846   3.757466   6.026506   6.666956   6.966896
    28  H    6.560188   4.644387   6.568671   6.964171   6.908899
    29  H    5.201529   3.109022   5.886280   6.728721   6.895841
    30  H    3.782335   1.663551   4.238854   5.141855   5.472988
    31  H    5.339278   3.178375   5.084955   5.663140   5.578484
                   11         12         13         14         15
    11  N    0.000000
    12  C    1.313883   0.000000
    13  N    2.222986   1.368641   0.000000
    14  C    5.909268   6.215535   5.792271   0.000000
    15  C    7.158036   7.535530   7.006632   1.531469   0.000000
    16  N    7.057515   7.526093   6.896717   2.517259   1.521188
    17  H    3.506450   3.821609   3.322234   2.677930   3.782139
    18  H    4.894486   4.450097   3.250553   4.215956   5.042430
    19  H    6.590913   6.177073   4.842445   5.744267   6.068972
    20  H    4.374858   4.076930   2.828500   5.832918   6.527869
    21  H    4.062222   4.299778   3.393786   5.002445   5.552540
    22  H    2.146624   3.163642   3.243268   5.130521   6.039511
    23  H    2.135673   1.081300   2.149321   6.979950   8.369589
    24  H    3.185678   2.122807   1.009763   6.239854   7.432927
    25  H    6.391444   6.601469   6.266686   1.093556   2.132550
    26  H    5.268601   5.770026   5.541777   1.095256   2.187588
    27  H    7.857814   8.087933   7.437040   2.156192   1.090675
    28  H    7.738578   8.228019   7.829387   2.194884   1.091077
    29  H    8.036274   8.506517   7.829662   3.405728   2.112022
    30  H    6.644737   6.998959   6.224509   2.743227   2.174571
    31  H    6.683315   7.314825   6.818441   2.811804   2.119276
                   16         17         18         19         20
    16  N    0.000000
    17  H    3.723746   0.000000
    18  H    4.945614   2.790823   0.000000
    19  H    5.558073   4.561310   2.257429   0.000000
    20  H    5.930234   3.587045   2.453942   2.627814   0.000000
    21  H    4.751131   2.763371   3.074904   3.521832   1.755179
    22  H    5.578225   2.746900   4.688772   6.009152   3.889668
    23  H    8.474705   4.751142   5.179738   6.935375   4.942801
    24  H    7.362677   3.942270   3.100455   4.539431   2.836683
    25  H    3.443130   3.438432   4.746534   6.408161   6.604750
    26  H    2.826047   2.370767   4.579631   6.217236   5.842832
    27  H    2.103765   4.400401   5.074900   5.906920   6.792912
    28  H    2.120577   4.546525   6.083568   7.147325   7.496727
    29  H    1.024019   4.720458   5.707128   6.013154   6.635187
    30  H    1.065248   3.293577   4.083346   4.516605   4.986418
    31  H    1.023705   3.625524   5.323798   6.043310   5.994373
                   21         22         23         24         25
    21  H    0.000000
    22  H    2.759082   0.000000
    23  H    5.342590   4.179409   0.000000
    24  H    3.864834   4.204013   2.536458   0.000000
    25  H    5.937519   5.906860   7.238778   6.650280   0.000000
    26  H    4.813729   4.411998   6.558856   6.144323   1.771204
    27  H    6.032496   6.846840   8.884838   7.732392   2.453428
    28  H    6.402062   6.580947   9.043409   8.323575   2.515359
    29  H    5.471170   6.473302   9.466627   8.260124   4.214410
    30  H    3.926227   5.197205   7.966140   6.614979   3.735637
    31  H    4.593935   5.042789   8.292483   7.404948   3.792261
                   26         27         28         29         30
    26  H    0.000000
    27  H    3.078281   0.000000
    28  H    2.538265   1.786787   0.000000
    29  H    3.780732   2.368921   2.447511   0.000000
    30  H    3.124048   2.503024   3.036397   1.679720   0.000000
    31  H    2.711850   2.968543   2.405765   1.647254   1.682242
                   31
    31  H    0.000000
 Symmetry turned off by external request.
 Stoichiometry    C9H15N4O3(1+)
 Framework group  C1[X(C9H15N4O3)]
 Deg. of freedom    87
 Full point group                 C1      NOp   1
 Rotational constants (GHZ):      0.7780011      0.3317546      0.2730888
 Standard basis: 6-311G(2df,2pd) (5D, 7F)
   690 basis functions,  1023 primitive gaussians,   785 cartesian basis functions
    60 alpha electrons       60 beta electrons
       nuclear repulsion energy      1165.5065155035 Hartrees.
 NAtoms=   31 NActive=   31 NUniq=   31 SFac= 1.00D+00 NAtFMM=   60 NAOKFM=F Big=F
 Integral buffers will be    131072 words long.
 Raffenetti 2 integral format.
 Two-electron integral symmetry is turned off.
 One-electron integrals computed using PRISM.
 NBasis=   690 RedAO= T EigKep=  2.04D-04  NBF=   690
 NBsUse=   690 1.00D-06 EigRej= -1.00D+00 NBFU=   690
 Initial guess from the checkpoint file:  "conf-661.chk"
 B after Tr=     0.000000    0.000000    0.000000
         Rot=    1.000000    0.000000    0.000000    0.000000 Ang=   0.00 deg.
 Requested convergence on RMS density matrix=1.00D-08 within 128 cycles.
 Requested convergence on MAX density matrix=1.00D-06.
 Requested convergence on             energy=1.00D-06.
 No special actions if energy rises.
 SCF Done:  E(RB3LYP) =  -796.740139862     A.U. after   11 cycles
            NFock= 11  Conv=0.80D-08     -V/T= 2.0041

 **********************************************************************

            Population analysis using the SCF density.

 **********************************************************************

 Alpha  occ. eigenvalues --  -19.31759 -19.26403 -19.23318 -14.58478 -14.48602
 Alpha  occ. eigenvalues --  -14.48129 -14.39719 -10.46047 -10.41968 -10.39600
 Alpha  occ. eigenvalues --  -10.37899 -10.34401 -10.33494 -10.33206 -10.32567
 Alpha  occ. eigenvalues --  -10.29732  -1.25939  -1.19074  -1.17350  -1.15287
 Alpha  occ. eigenvalues --   -1.12751  -1.07896  -0.98475  -0.95395  -0.93032
 Alpha  occ. eigenvalues --   -0.87161  -0.82626  -0.79954  -0.77738  -0.75137
 Alpha  occ. eigenvalues --   -0.74023  -0.73342  -0.72751  -0.70878  -0.68393
 Alpha  occ. eigenvalues --   -0.66277  -0.65895  -0.64974  -0.64623  -0.60989
 Alpha  occ. eigenvalues --   -0.59844  -0.58860  -0.57914  -0.57178  -0.56308
 Alpha  occ. eigenvalues --   -0.55688  -0.54312  -0.53627  -0.52937  -0.52412
 Alpha  occ. eigenvalues --   -0.52175  -0.51845  -0.50335  -0.47453  -0.44387
 Alpha  occ. eigenvalues --   -0.41517  -0.40841  -0.39789  -0.37845  -0.34732
 Alpha virt. eigenvalues --   -0.15646  -0.14743  -0.14051  -0.11467  -0.10109
 Alpha virt. eigenvalues --   -0.08978  -0.08521  -0.07660  -0.07221  -0.05870
 Alpha virt. eigenvalues --   -0.04616  -0.04144  -0.03229  -0.02601  -0.02397
 Alpha virt. eigenvalues --   -0.01435  -0.00578   0.00218   0.00636   0.02135
 Alpha virt. eigenvalues --    0.03396   0.04531   0.05424   0.05661   0.07022
 Alpha virt. eigenvalues --    0.08440   0.09337   0.09761   0.10582   0.11445
 Alpha virt. eigenvalues --    0.12685   0.13188   0.13928   0.15795   0.16376
 Alpha virt. eigenvalues --    0.17576   0.18471   0.19440   0.20645   0.20880
 Alpha virt. eigenvalues --    0.21493   0.22276   0.23067   0.23836   0.23929
 Alpha virt. eigenvalues --    0.25093   0.25790   0.26459   0.27245   0.28272
 Alpha virt. eigenvalues --    0.29008   0.29180   0.29964   0.30762   0.31213
 Alpha virt. eigenvalues --    0.31719   0.32019   0.32836   0.33005   0.33849
 Alpha virt. eigenvalues --    0.34047   0.34407   0.35251   0.36039   0.36416
 Alpha virt. eigenvalues --    0.37270   0.37809   0.38047   0.38385   0.38669
 Alpha virt. eigenvalues --    0.39332   0.40327   0.40972   0.42482   0.43009
 Alpha virt. eigenvalues --    0.43836   0.43943   0.45164   0.46177   0.47169
 Alpha virt. eigenvalues --    0.47989   0.48609   0.49936   0.50444   0.50977
 Alpha virt. eigenvalues --    0.51395   0.52763   0.53596   0.54916   0.55749
 Alpha virt. eigenvalues --    0.57020   0.58285   0.58866   0.59535   0.60613
 Alpha virt. eigenvalues --    0.61078   0.62188   0.63051   0.64033   0.64184
 Alpha virt. eigenvalues --    0.65782   0.66235   0.66840   0.67849   0.68443
 Alpha virt. eigenvalues --    0.69120   0.70317   0.70767   0.72011   0.74276
 Alpha virt. eigenvalues --    0.74617   0.75477   0.76692   0.77879   0.78852
 Alpha virt. eigenvalues --    0.79043   0.79764   0.80867   0.82384   0.82840
 Alpha virt. eigenvalues --    0.83394   0.85228   0.85644   0.85883   0.86997
 Alpha virt. eigenvalues --    0.87886   0.88713   0.89150   0.90038   0.91369
 Alpha virt. eigenvalues --    0.92136   0.93130   0.93525   0.93650   0.94529
 Alpha virt. eigenvalues --    0.95331   0.95450   0.96503   0.97130   0.97862
 Alpha virt. eigenvalues --    0.99027   0.99129   0.99735   1.01024   1.01837
 Alpha virt. eigenvalues --    1.02364   1.02908   1.04383   1.04882   1.05955
 Alpha virt. eigenvalues --    1.07569   1.08213   1.09820   1.10297   1.10746
 Alpha virt. eigenvalues --    1.11443   1.12434   1.13667   1.14153   1.14577
 Alpha virt. eigenvalues --    1.14831   1.15826   1.16561   1.17343   1.17823
 Alpha virt. eigenvalues --    1.18099   1.19504   1.20002   1.20523   1.20793
 Alpha virt. eigenvalues --    1.21400   1.22597   1.23240   1.23912   1.24489
 Alpha virt. eigenvalues --    1.25541   1.26515   1.27646   1.27962   1.29107
 Alpha virt. eigenvalues --    1.29767   1.30470   1.30681   1.32978   1.34205
 Alpha virt. eigenvalues --    1.35000   1.35665   1.36621   1.37371   1.38088
 Alpha virt. eigenvalues --    1.39578   1.40399   1.41774   1.42564   1.43528
 Alpha virt. eigenvalues --    1.44403   1.45740   1.47193   1.48517   1.49348
 Alpha virt. eigenvalues --    1.51290   1.52395   1.52564   1.53990   1.55135
 Alpha virt. eigenvalues --    1.56176   1.57081   1.58447   1.60644   1.61750
 Alpha virt. eigenvalues --    1.63423   1.64797   1.65215   1.67783   1.68643
 Alpha virt. eigenvalues --    1.69927   1.72232   1.74759   1.75995   1.78772
 Alpha virt. eigenvalues --    1.79542   1.81197   1.84928   1.87327   1.87535
 Alpha virt. eigenvalues --    1.89095   1.90389   1.94428   1.99601   2.02389
 Alpha virt. eigenvalues --    2.03678   2.03962   2.06332   2.10941   2.12143
 Alpha virt. eigenvalues --    2.15503   2.18001   2.19715   2.21812   2.24330
 Alpha virt. eigenvalues --    2.27659   2.29759   2.32473   2.34241   2.35319
 Alpha virt. eigenvalues --    2.37230   2.38559   2.43335   2.44335   2.44973
 Alpha virt. eigenvalues --    2.46576   2.47629   2.49088   2.50506   2.51216
 Alpha virt. eigenvalues --    2.52233   2.53548   2.54097   2.55440   2.57739
 Alpha virt. eigenvalues --    2.58470   2.59067   2.60099   2.61541   2.63394
 Alpha virt. eigenvalues --    2.63782   2.65023   2.66381   2.67124   2.68072
 Alpha virt. eigenvalues --    2.69692   2.70899   2.71986   2.72742   2.73252
 Alpha virt. eigenvalues --    2.73946   2.75370   2.75687   2.76825   2.77865
 Alpha virt. eigenvalues --    2.79772   2.80007   2.81132   2.81570   2.82058
 Alpha virt. eigenvalues --    2.82629   2.84089   2.84591   2.85796   2.86648
 Alpha virt. eigenvalues --    2.86979   2.87646   2.88078   2.88635   2.89541
 Alpha virt. eigenvalues --    2.90194   2.91500   2.92008   2.92522   2.93222
 Alpha virt. eigenvalues --    2.94191   2.94638   2.95368   2.96305   2.96615
 Alpha virt. eigenvalues --    2.96706   2.97740   2.98486   2.99273   3.00020
 Alpha virt. eigenvalues --    3.01844   3.02154   3.02948   3.03741   3.04258
 Alpha virt. eigenvalues --    3.05538   3.05875   3.06888   3.07600   3.08551
 Alpha virt. eigenvalues --    3.09055   3.09944   3.10336   3.10601   3.11415
 Alpha virt. eigenvalues --    3.12124   3.12613   3.12993   3.13781   3.15038
 Alpha virt. eigenvalues --    3.15547   3.16374   3.17370   3.17602   3.18286
 Alpha virt. eigenvalues --    3.19142   3.20110   3.21328   3.21465   3.22116
 Alpha virt. eigenvalues --    3.22504   3.23048   3.24447   3.24838   3.24929
 Alpha virt. eigenvalues --    3.25963   3.26307   3.28196   3.28925   3.29653
 Alpha virt. eigenvalues --    3.30353   3.30958   3.31269   3.33676   3.34341
 Alpha virt. eigenvalues --    3.34498   3.35557   3.35756   3.37264   3.37478
 Alpha virt. eigenvalues --    3.39243   3.39478   3.40444   3.41481   3.42570
 Alpha virt. eigenvalues --    3.43579   3.44415   3.45280   3.46300   3.46775
 Alpha virt. eigenvalues --    3.47782   3.48657   3.49609   3.50325   3.51133
 Alpha virt. eigenvalues --    3.52103   3.53024   3.53427   3.53940   3.54775
 Alpha virt. eigenvalues --    3.54944   3.56635   3.57337   3.57698   3.58595
 Alpha virt. eigenvalues --    3.59654   3.60431   3.61834   3.62333   3.63520
 Alpha virt. eigenvalues --    3.64954   3.65322   3.65997   3.66797   3.68280
 Alpha virt. eigenvalues --    3.69761   3.69960   3.71739   3.72387   3.72840
 Alpha virt. eigenvalues --    3.73743   3.74425   3.74669   3.75423   3.76623
 Alpha virt. eigenvalues --    3.78878   3.79194   3.79516   3.80448   3.81095
 Alpha virt. eigenvalues --    3.81666   3.82859   3.83346   3.84642   3.86447
 Alpha virt. eigenvalues --    3.86977   3.87378   3.87726   3.88367   3.89113
 Alpha virt. eigenvalues --    3.89717   3.90912   3.92972   3.93203   3.94542
 Alpha virt. eigenvalues --    3.95706   3.96072   3.96523   3.96878   3.97278
 Alpha virt. eigenvalues --    3.98112   4.00313   4.00787   4.01398   4.01530
 Alpha virt. eigenvalues --    4.03969   4.04534   4.04928   4.05896   4.06431
 Alpha virt. eigenvalues --    4.08518   4.09327   4.10474   4.13706   4.13882
 Alpha virt. eigenvalues --    4.15570   4.16376   4.16923   4.17506   4.18807
 Alpha virt. eigenvalues --    4.19279   4.22135   4.22459   4.23811   4.26094
 Alpha virt. eigenvalues --    4.27879   4.29271   4.30439   4.31580   4.32724
 Alpha virt. eigenvalues --    4.33308   4.36366   4.37818   4.39001   4.41070
 Alpha virt. eigenvalues --    4.42512   4.43442   4.44161   4.45137   4.46451
 Alpha virt. eigenvalues --    4.47005   4.50014   4.51655   4.54043   4.54970
 Alpha virt. eigenvalues --    4.57926   4.60264   4.62837   4.63702   4.64146
 Alpha virt. eigenvalues --    4.67477   4.68186   4.69521   4.69778   4.71654
 Alpha virt. eigenvalues --    4.72465   4.73504   4.74616   4.75430   4.76068
 Alpha virt. eigenvalues --    4.77082   4.78138   4.79242   4.80522   4.81278
 Alpha virt. eigenvalues --    4.81992   4.82765   4.84610   4.86689   4.87808
 Alpha virt. eigenvalues --    4.89712   4.90274   4.92161   4.92918   4.93470
 Alpha virt. eigenvalues --    4.94282   4.94957   4.96752   4.97168   4.97791
 Alpha virt. eigenvalues --    4.98591   4.98802   5.00170   5.00665   5.01341
 Alpha virt. eigenvalues --    5.02053   5.02877   5.04545   5.05952   5.06361
 Alpha virt. eigenvalues --    5.08337   5.08886   5.09577   5.11430   5.12349
 Alpha virt. eigenvalues --    5.13959   5.14239   5.15335   5.15780   5.17091
 Alpha virt. eigenvalues --    5.17549   5.18587   5.20449   5.21957   5.22618
 Alpha virt. eigenvalues --    5.24036   5.25619   5.27101   5.29201   5.30781
 Alpha virt. eigenvalues --    5.33235   5.34861   5.35439   5.37632   5.39875
 Alpha virt. eigenvalues --    5.40694   5.43878   5.45241   5.46176   5.46828
 Alpha virt. eigenvalues --    5.49602   5.50393   5.51341   5.53500   5.54604
 Alpha virt. eigenvalues --    5.56329   5.57308   5.61276   5.64348   5.65210
 Alpha virt. eigenvalues --    5.66666   5.68435   5.73179   5.75569   5.78211
 Alpha virt. eigenvalues --    5.79913   5.82837   5.84590   5.88422   5.90003
 Alpha virt. eigenvalues --    5.90533   5.93169   5.95320   5.99833   6.04242
 Alpha virt. eigenvalues --    6.06048   6.07732   6.12618   6.16564   6.19797
 Alpha virt. eigenvalues --    6.20752   6.22803   6.23461   6.28034   6.29707
 Alpha virt. eigenvalues --    6.31974   6.38810   6.40818   6.54043   6.58388
 Alpha virt. eigenvalues --    6.74460   6.75656   6.77161   6.79267   6.81094
 Alpha virt. eigenvalues --    6.83138   6.84966   6.91058   6.99411   7.01180
 Alpha virt. eigenvalues --    7.02604   7.03740   7.06073   7.08999   7.17479
 Alpha virt. eigenvalues --    7.19031   7.20306   7.31762   7.38428   7.44126
 Alpha virt. eigenvalues --    7.46472   7.54398   7.72445   7.84084  24.31736
 Alpha virt. eigenvalues --   24.48900  24.57560  24.64310  24.76604  24.80386
 Alpha virt. eigenvalues --   24.88433  24.88961  24.94209  35.86583  36.08241
 Alpha virt. eigenvalues --   36.11007  36.33311  50.01972  50.07769  50.14863
          Condensed to atoms (all electrons):
               1          2          3          4          5          6
     1  O    7.876051   0.655844  -0.103738  -0.006853   0.009925  -0.000601
     2  C    0.655844   4.597669   0.242089  -0.078734   0.010684  -0.000422
     3  N   -0.103738   0.242089   6.805674   0.200227  -0.056131   0.003536
     4  C   -0.006853  -0.078734   0.200227   5.371886   0.256098  -0.092656
     5  C    0.009925   0.010684  -0.056131   0.256098   4.434515   0.377781
     6  O   -0.000601  -0.000422   0.003536  -0.092656   0.377781   7.703560
     7  O   -0.003606   0.007440   0.001151  -0.097153   0.551962  -0.055663
     8  C    0.000964   0.002613  -0.022920   0.218257  -0.048220   0.008751
     9  C   -0.000130  -0.001044  -0.019675  -0.057936  -0.003983   0.000671
    10  C   -0.000002  -0.000174  -0.003992  -0.003880  -0.000392   0.000000
    11  N    0.000000  -0.000010  -0.000076  -0.000455   0.000001   0.000000
    12  C    0.000000   0.000044   0.000526   0.000991   0.000005   0.000000
    13  N    0.000001  -0.000029  -0.000535   0.005544   0.000240  -0.000001
    14  C   -0.067885   0.337630  -0.066398   0.005800  -0.001991  -0.000001
    15  C   -0.004239  -0.031963  -0.012727   0.000000   0.001551  -0.000006
    16  N   -0.001667  -0.014597   0.007321  -0.000495   0.000556  -0.000006
    17  H    0.003774  -0.015470   0.322523  -0.024817   0.002089  -0.000188
    18  H    0.015973  -0.007188  -0.029052   0.357660  -0.039447   0.003940
    19  H   -0.000211  -0.000205   0.000528   0.006985  -0.055124   0.321693
    20  H    0.000000  -0.000148   0.004673  -0.054306  -0.001345   0.005135
    21  H    0.000015  -0.000611   0.004451  -0.055744  -0.000943  -0.000399
    22  H    0.000000  -0.000050   0.000183  -0.000140  -0.000052   0.000001
    23  H    0.000000   0.000001   0.000011   0.000017   0.000000   0.000000
    24  H   -0.000005  -0.000020  -0.000011   0.000035   0.000019  -0.000004
    25  H    0.003465  -0.025248   0.004579  -0.000233  -0.000079   0.000000
    26  H    0.003925  -0.035799   0.003844  -0.000049   0.000001   0.000001
    27  H    0.021791  -0.005569   0.001919  -0.000107   0.000216  -0.000005
    28  H    0.000140   0.004933  -0.000475   0.000009  -0.000002   0.000000
    29  H   -0.000277   0.000363  -0.000066   0.000050   0.000052  -0.000003
    30  H    0.002337  -0.003256   0.005200   0.002770  -0.017181   0.000380
    31  H   -0.000116   0.000441   0.001795  -0.000397   0.000019   0.000013
               7          8          9         10         11         12
     1  O   -0.003606   0.000964  -0.000130  -0.000002   0.000000   0.000000
     2  C    0.007440   0.002613  -0.001044  -0.000174  -0.000010   0.000044
     3  N    0.001151  -0.022920  -0.019675  -0.003992  -0.000076   0.000526
     4  C   -0.097153   0.218257  -0.057936  -0.003880  -0.000455   0.000991
     5  C    0.551962  -0.048220  -0.003983  -0.000392   0.000001   0.000005
     6  O   -0.055663   0.008751   0.000671   0.000000   0.000000   0.000000
     7  O    7.947293   0.002316  -0.000095  -0.000014   0.000000   0.000000
     8  C    0.002316   4.808867   0.275172  -0.044769   0.011020  -0.002333
     9  C   -0.000095   0.275172   5.277228   0.480628  -0.059992  -0.120900
    10  C   -0.000014  -0.044769   0.480628   4.746769   0.480051  -0.153566
    11  N    0.000000   0.011020  -0.059992   0.480051   6.468976   0.577862
    12  C    0.000000  -0.002333  -0.120900  -0.153566   0.577862   4.561345
    13  N    0.000000  -0.048094   0.342728  -0.046168  -0.122643   0.472216
    14  C   -0.001438   0.000351  -0.000203  -0.000049   0.000000   0.000003
    15  C    0.001077  -0.000082   0.000011  -0.000003   0.000000   0.000000
    16  N   -0.026093   0.000009  -0.000002  -0.000001   0.000000   0.000000
    17  H   -0.000660  -0.005024   0.014469   0.017229   0.000672  -0.000990
    18  H    0.002982  -0.008407  -0.004271  -0.000305   0.000055  -0.000233
    19  H    0.003554   0.000411   0.000152   0.000000   0.000000  -0.000001
    20  H   -0.000132   0.393626  -0.018053   0.002034  -0.000519   0.000435
    21  H    0.006441   0.421818  -0.052483  -0.003855   0.000636  -0.000545
    22  H   -0.000007   0.000205  -0.062277   0.435647  -0.015277   0.005997
    23  H    0.000000  -0.000247   0.004883   0.003789  -0.016048   0.427151
    24  H    0.000000   0.006147  -0.029552   0.003205   0.006800  -0.025489
    25  H   -0.000010   0.000018   0.000000   0.000000   0.000000  -0.000001
    26  H    0.000010  -0.000065   0.000140   0.000153   0.000004  -0.000011
    27  H    0.000428  -0.000011   0.000002   0.000000   0.000000   0.000000
    28  H   -0.000062  -0.000001   0.000000   0.000000   0.000000   0.000000
    29  H    0.001241   0.000001   0.000000   0.000000   0.000000   0.000000
    30  H    0.091237   0.000189  -0.000029  -0.000002   0.000000   0.000000
    31  H    0.001136   0.000037  -0.000007   0.000001   0.000000   0.000000
              13         14         15         16         17         18
     1  O    0.000001  -0.067885  -0.004239  -0.001667   0.003774   0.015973
     2  C   -0.000029   0.337630  -0.031963  -0.014597  -0.015470  -0.007188
     3  N   -0.000535  -0.066398  -0.012727   0.007321   0.322523  -0.029052
     4  C    0.005544   0.005800   0.000000  -0.000495  -0.024817   0.357660
     5  C    0.000240  -0.001991   0.001551   0.000556   0.002089  -0.039447
     6  O   -0.000001  -0.000001  -0.000006  -0.000006  -0.000188   0.003940
     7  O    0.000000  -0.001438   0.001077  -0.026093  -0.000660   0.002982
     8  C   -0.048094   0.000351  -0.000082   0.000009  -0.005024  -0.008407
     9  C    0.342728  -0.000203   0.000011  -0.000002   0.014469  -0.004271
    10  C   -0.046168  -0.000049  -0.000003  -0.000001   0.017229  -0.000305
    11  N   -0.122643   0.000000   0.000000   0.000000   0.000672   0.000055
    12  C    0.472216   0.000003   0.000000   0.000000  -0.000990  -0.000233
    13  N    6.281805  -0.000003   0.000000   0.000000  -0.000343   0.003156
    14  C   -0.000003   4.808876   0.284129  -0.024798  -0.001052   0.001467
    15  C    0.000000   0.284129   4.770712   0.226308   0.000129  -0.000319
    16  N    0.000000  -0.024798   0.226308   5.748991   0.000145   0.000073
    17  H   -0.000343  -0.001052   0.000129   0.000145   0.550597   0.000926
    18  H    0.003156   0.001467  -0.000319   0.000073   0.000926   0.653285
    19  H    0.000001   0.000001  -0.000004   0.000011   0.000044   0.003524
    20  H   -0.000169   0.000014  -0.000002   0.000001   0.000805  -0.004475
    21  H    0.002754   0.000030  -0.000052   0.000028   0.001533   0.008790
    22  H    0.004374   0.000019  -0.000006   0.000001   0.000811   0.000043
    23  H   -0.034934   0.000000   0.000000   0.000000  -0.000009   0.000003
    24  H    0.382307  -0.000002   0.000000   0.000000  -0.000052   0.000379
    25  H    0.000001   0.403930  -0.030913   0.003773  -0.000317   0.000068
    26  H   -0.000006   0.399316  -0.032221  -0.001760   0.001542  -0.000202
    27  H    0.000000  -0.043291   0.394010  -0.019838  -0.000123  -0.000113
    28  H    0.000000  -0.033492   0.427780  -0.025927  -0.000048  -0.000002
    29  H    0.000000   0.003554  -0.017425   0.368315   0.000002   0.000000
    30  H   -0.000001  -0.001727  -0.024233   0.329537  -0.000130   0.000060
    31  H    0.000000   0.001583  -0.032566   0.356842   0.000052   0.000032
              19         20         21         22         23         24
     1  O   -0.000211   0.000000   0.000015   0.000000   0.000000  -0.000005
     2  C   -0.000205  -0.000148  -0.000611  -0.000050   0.000001  -0.000020
     3  N    0.000528   0.004673   0.004451   0.000183   0.000011  -0.000011
     4  C    0.006985  -0.054306  -0.055744  -0.000140   0.000017   0.000035
     5  C   -0.055124  -0.001345  -0.000943  -0.000052   0.000000   0.000019
     6  O    0.321693   0.005135  -0.000399   0.000001   0.000000  -0.000004
     7  O    0.003554  -0.000132   0.006441  -0.000007   0.000000   0.000000
     8  C    0.000411   0.393626   0.421818   0.000205  -0.000247   0.006147
     9  C    0.000152  -0.018053  -0.052483  -0.062277   0.004883  -0.029552
    10  C    0.000000   0.002034  -0.003855   0.435647   0.003789   0.003205
    11  N    0.000000  -0.000519   0.000636  -0.015277  -0.016048   0.006800
    12  C   -0.000001   0.000435  -0.000545   0.005997   0.427151  -0.025489
    13  N    0.000001  -0.000169   0.002754   0.004374  -0.034934   0.382307
    14  C    0.000001   0.000014   0.000030   0.000019   0.000000  -0.000002
    15  C   -0.000004  -0.000002  -0.000052  -0.000006   0.000000   0.000000
    16  N    0.000011   0.000001   0.000028   0.000001   0.000000   0.000000
    17  H    0.000044   0.000805   0.001533   0.000811  -0.000009  -0.000052
    18  H    0.003524  -0.004475   0.008790   0.000043   0.000003   0.000379
    19  H    0.478371   0.001832  -0.000097   0.000000   0.000000  -0.000011
    20  H    0.001832   0.656441  -0.030541  -0.000029  -0.000014   0.001054
    21  H   -0.000097  -0.030541   0.645408   0.001738   0.000014  -0.000112
    22  H    0.000000  -0.000029   0.001738   0.599256  -0.000369  -0.000384
    23  H    0.000000  -0.000014   0.000014  -0.000369   0.569692  -0.001144
    24  H   -0.000011   0.001054  -0.000112  -0.000384  -0.001144   0.535422
    25  H    0.000001   0.000000   0.000004   0.000001   0.000000   0.000000
    26  H    0.000001   0.000003  -0.000005   0.000028   0.000000   0.000001
    27  H    0.000000   0.000000  -0.000005   0.000000   0.000000   0.000000
    28  H    0.000000   0.000000  -0.000001   0.000000   0.000000   0.000000
    29  H    0.000000   0.000000  -0.000005   0.000000   0.000000   0.000000
    30  H   -0.000124  -0.000019   0.000319   0.000002   0.000000   0.000000
    31  H   -0.000001   0.000001   0.000089   0.000011   0.000000   0.000000
              25         26         27         28         29         30
     1  O    0.003465   0.003925   0.021791   0.000140  -0.000277   0.002337
     2  C   -0.025248  -0.035799  -0.005569   0.004933   0.000363  -0.003256
     3  N    0.004579   0.003844   0.001919  -0.000475  -0.000066   0.005200
     4  C   -0.000233  -0.000049  -0.000107   0.000009   0.000050   0.002770
     5  C   -0.000079   0.000001   0.000216  -0.000002   0.000052  -0.017181
     6  O    0.000000   0.000001  -0.000005   0.000000  -0.000003   0.000380
     7  O   -0.000010   0.000010   0.000428  -0.000062   0.001241   0.091237
     8  C    0.000018  -0.000065  -0.000011  -0.000001   0.000001   0.000189
     9  C    0.000000   0.000140   0.000002   0.000000   0.000000  -0.000029
    10  C    0.000000   0.000153   0.000000   0.000000   0.000000  -0.000002
    11  N    0.000000   0.000004   0.000000   0.000000   0.000000   0.000000
    12  C   -0.000001  -0.000011   0.000000   0.000000   0.000000   0.000000
    13  N    0.000001  -0.000006   0.000000   0.000000   0.000000  -0.000001
    14  C    0.403930   0.399316  -0.043291  -0.033492   0.003554  -0.001727
    15  C   -0.030913  -0.032221   0.394010   0.427780  -0.017425  -0.024233
    16  N    0.003773  -0.001760  -0.019838  -0.025927   0.368315   0.329537
    17  H   -0.000317   0.001542  -0.000123  -0.000048   0.000002  -0.000130
    18  H    0.000068  -0.000202  -0.000113  -0.000002   0.000000   0.000060
    19  H    0.000001   0.000001   0.000000   0.000000   0.000000  -0.000124
    20  H    0.000000   0.000003   0.000000   0.000000   0.000000  -0.000019
    21  H    0.000004  -0.000005  -0.000005  -0.000001  -0.000005   0.000319
    22  H    0.000001   0.000028   0.000000   0.000000   0.000000   0.000002
    23  H    0.000000   0.000000   0.000000   0.000000   0.000000   0.000000
    24  H    0.000000   0.000001   0.000000   0.000000   0.000000   0.000000
    25  H    0.614287  -0.031691  -0.001166  -0.002667  -0.000297   0.000328
    26  H   -0.031691   0.642731   0.006844  -0.004398  -0.000084  -0.000409
    27  H   -0.001166   0.006844   0.597172  -0.033594  -0.004824  -0.002621
    28  H   -0.002667  -0.004398  -0.033594   0.601840  -0.002439   0.004207
    29  H   -0.000297  -0.000084  -0.004824  -0.002439   0.561164  -0.018963
    30  H    0.000328  -0.000409  -0.002621   0.004207  -0.018963   0.456752
    31  H   -0.000133   0.002923   0.005435  -0.006192  -0.026455  -0.021634
              31
     1  O   -0.000116
     2  C    0.000441
     3  N    0.001795
     4  C   -0.000397
     5  C    0.000019
     6  O    0.000013
     7  O    0.001136
     8  C    0.000037
     9  C   -0.000007
    10  C    0.000001
    11  N    0.000000
    12  C    0.000000
    13  N    0.000000
    14  C    0.001583
    15  C   -0.032566
    16  N    0.356842
    17  H    0.000052
    18  H    0.000032
    19  H   -0.000001
    20  H    0.000001
    21  H    0.000089
    22  H    0.000011
    23  H    0.000000
    24  H    0.000000
    25  H   -0.000133
    26  H    0.002923
    27  H    0.005435
    28  H   -0.006192
    29  H   -0.026455
    30  H   -0.021634
    31  H    0.582897
 Mulliken charges:
               1
     1  O   -0.404874
     2  C    0.360787
     3  N   -0.294432
     4  C    0.047627
     5  C    0.579177
     6  O   -0.275507
     7  O   -0.433332
     8  C    0.029402
     9  C    0.034547
    10  C    0.087666
    11  N   -0.331057
    12  C    0.257491
    13  N   -0.242201
    14  C   -0.004373
    15  C    0.081055
    16  N    0.073271
    17  H    0.131879
    18  H    0.041598
    19  H    0.238670
    20  H    0.043700
    21  H    0.051333
    22  H    0.030274
    23  H    0.047204
    24  H    0.121418
    25  H    0.062300
    26  H    0.045231
    27  H    0.083449
    28  H    0.070391
    29  H    0.136097
    30  H    0.197012
    31  H    0.134196
 Sum of Mulliken charges =   1.00000
 Mulliken charges with hydrogens summed into heavy atoms:
               1
     1  O   -0.404874
     2  C    0.360787
     3  N   -0.162552
     4  C    0.089225
     5  C    0.579177
     6  O   -0.036837
     7  O   -0.433332
     8  C    0.124435
     9  C    0.034547
    10  C    0.117940
    11  N   -0.331057
    12  C    0.304695
    13  N   -0.120783
    14  C    0.103158
    15  C    0.234896
    16  N    0.540575
 Electronic spatial extent (au):  <R**2>=           4110.4057
 Charge=              1.0000 electrons
 Dipole moment (field-independent basis, Debye):
    X=              5.0844    Y=             -1.7402    Z=             -1.3302  Tot=              5.5361
 Quadrupole moment (field-independent basis, Debye-Ang):
   XX=            -61.7123   YY=            -82.9713   ZZ=            -67.5802
   XY=            -13.3655   XZ=            -37.2402   YZ=              9.0130
 Traceless Quadrupole moment (field-independent basis, Debye-Ang):
   XX=              9.0423   YY=            -12.2167   ZZ=              3.1744
   XY=            -13.3655   XZ=            -37.2402   YZ=              9.0130
 Octapole moment (field-independent basis, Debye-Ang**2):
  XXX=            161.7179  YYY=             -2.5380  ZZZ=            -11.9519  XYY=             16.2750
  XXY=             -9.6551  XXZ=            -30.0016  XZZ=             40.1162  YZZ=            -13.7401
  YYZ=            -34.4727  XYZ=             -3.8932
 Hexadecapole moment (field-independent basis, Debye-Ang**3):
 XXXX=          -3017.8782 YYYY=           -703.7404 ZZZZ=           -870.9727 XXXY=             -5.8589
 XXXZ=           -301.7243 YYYX=            178.0023 YYYZ=            191.5894 ZZZX=            -55.6545
 ZZZY=            183.2567 XXYY=           -525.1703 XXZZ=           -696.5682 YYZZ=           -295.8893
 XXYZ=            160.4559 YYXZ=            -57.7477 ZZXY=             79.6663
 N-N= 1.165506515504D+03 E-N=-4.175756336855D+03  KE= 7.934515755829D+02
 Calling FoFJK, ICntrl=      2127 FMM=F ISym2X=0 I1Cent= 0 IOpClX= 0 NMat=1 NMatS=1 NMatT=0.
 -------------------------------------------------------------------
 Center     Atomic                   Forces (Hartrees/Bohr)
 Number     Number              X              Y              Z
 -------------------------------------------------------------------
      1        8          -0.007950635   -0.001535849   -0.010443029
      2        6           0.003912919   -0.000709658    0.006617336
      3        7           0.001486764    0.002220488    0.000749004
      4        6           0.000308723   -0.000095613    0.000415927
      5        6           0.004757542   -0.006112007   -0.003647377
      6        8          -0.001872155    0.003717481   -0.002319980
      7        8          -0.007946759    0.006823341    0.007290334
      8        6          -0.000388722   -0.000950513   -0.000304560
      9        6          -0.001493021    0.001759340   -0.002985210
     10        6           0.000353499   -0.000205333    0.002791739
     11        7           0.002139377    0.000808564    0.007484092
     12        6           0.000854319   -0.001762640   -0.001630075
     13        7          -0.000565186   -0.000853593   -0.002544880
     14        6           0.000868084    0.000906975   -0.000256104
     15        6           0.000385851   -0.000344426    0.000145508
     16        7          -0.000096667   -0.001738310   -0.000142957
     17        1           0.002766662   -0.000246613    0.001951509
     18        1           0.000318492   -0.002242771   -0.001714870
     19        1           0.002389918   -0.002399368   -0.001917397
     20        1           0.000764502    0.000753207   -0.002596589
     21        1          -0.000351463    0.002326462    0.001140886
     22        1          -0.000644898    0.001966210    0.001987742
     23        1           0.001582572   -0.002209329   -0.000326650
     24        1          -0.000148377   -0.001007933   -0.002915224
     25        1          -0.000990550   -0.002421615    0.000575294
     26        1           0.001669644    0.000426921    0.002263150
     27        1          -0.001661397   -0.000612561   -0.002139836
     28        1          -0.001279407    0.000177301    0.002415988
     29        1          -0.002582551    0.002154269   -0.000139739
     30        1           0.001574889    0.000117109   -0.002295939
     31        1           0.001838031    0.001290464    0.002491906
 -------------------------------------------------------------------
 Cartesian Forces:  Max     0.010443029 RMS     0.002821248

 GradGradGradGradGradGradGradGradGradGradGradGradGradGradGradGradGradGrad
 Berny optimization.
 FormGI is forming the generalized inverse of G from B-inverse, IUseBI=4.
 Internal  Forces:  Max     0.013196035 RMS     0.002119356
 Search for a local minimum.
 Step number   1 out of a maximum of  167
 All quantities printed in internal units (Hartrees-Bohrs-Radians)
 Mixed Optimization -- RFO/linear search
 Second derivative matrix not updated -- first step.
 ITU=  0
     Eigenvalues ---    0.00152   0.00227   0.00287   0.00321   0.00439
     Eigenvalues ---    0.00507   0.00703   0.00849   0.00974   0.01249
     Eigenvalues ---    0.02090   0.02273   0.02629   0.03711   0.03963
     Eigenvalues ---    0.04055   0.04075   0.04232   0.04456   0.04737
     Eigenvalues ---    0.04804   0.04946   0.05143   0.05193   0.05374
     Eigenvalues ---    0.05396   0.06057   0.06394   0.07223   0.07403
     Eigenvalues ---    0.08021   0.08921   0.10224   0.10651   0.11098
     Eigenvalues ---    0.11327   0.11857   0.11976   0.12476   0.13143
     Eigenvalues ---    0.14876   0.15226   0.16092   0.16773   0.18244
     Eigenvalues ---    0.19376   0.20277   0.21085   0.21810   0.22232
     Eigenvalues ---    0.22669   0.23098   0.24436   0.24501   0.25380
     Eigenvalues ---    0.26855   0.27482   0.28936   0.30644   0.32388
     Eigenvalues ---    0.33006   0.33554   0.33664   0.33845   0.34497
     Eigenvalues ---    0.34582   0.34689   0.34789   0.35335   0.35960
     Eigenvalues ---    0.37171   0.37395   0.39988   0.43384   0.43575
     Eigenvalues ---    0.44435   0.45111   0.45313   0.46384   0.46973
     Eigenvalues ---    0.47719   0.48286   0.51823   0.57734   0.83205
     Eigenvalues ---    0.84126   1.16285
 RFO step:  Lambda=-1.36140221D-03 EMin= 1.52465211D-03
 Linear search not attempted -- first point.
 Iteration  1 RMS(Cart)=  0.01996954 RMS(Int)=  0.00019951
 Iteration  2 RMS(Cart)=  0.00036319 RMS(Int)=  0.00008466
 Iteration  3 RMS(Cart)=  0.00000008 RMS(Int)=  0.00008466
 Variable       Old X    -DE/DX   Delta X   Delta X   Delta X     New X
                                 (Linear)    (Quad)   (Total)
    R1        2.31405  -0.01320   0.00000  -0.01462  -0.01462   2.29943
    R2        2.57699  -0.00480   0.00000  -0.01032  -0.01032   2.56667
    R3        2.88611  -0.00280   0.00000  -0.00635  -0.00635   2.87976
    R4        2.72888  -0.00171   0.00000  -0.00453  -0.00453   2.72435
    R5        1.91765  -0.00331   0.00000  -0.00855  -0.00855   1.90910
    R6        2.91156  -0.00333   0.00000  -0.00793  -0.00793   2.90363
    R7        2.95651  -0.00216   0.00000  -0.00936  -0.00936   2.94715
    R8        2.07513  -0.00282   0.00000  -0.00835  -0.00835   2.06678
    R9        2.50968  -0.00443   0.00000  -0.00735  -0.00735   2.50233
   R10        2.30750  -0.01274   0.00000  -0.01500  -0.01500   2.29250
   R11        1.83235  -0.00389   0.00000  -0.00779  -0.00779   1.82457
   R12        2.82054  -0.00315   0.00000  -0.00823  -0.00823   2.81230
   R13        2.07072  -0.00280   0.00000  -0.00766  -0.00766   2.06306
   R14        2.06874  -0.00261   0.00000  -0.00737  -0.00737   2.06137
   R15        2.60790  -0.00660   0.00000  -0.01245  -0.01244   2.59545
   R16        2.61656  -0.00380   0.00000  -0.00796  -0.00796   2.60859
   R17        2.59570  -0.00319   0.00000  -0.00587  -0.00587   2.58982
   R18        2.04641  -0.00287   0.00000  -0.00767  -0.00767   2.03874
   R19        2.48288  -0.00645   0.00000  -0.01111  -0.01111   2.47177
   R20        2.58636  -0.00472   0.00000  -0.00776  -0.00776   2.57860
   R21        2.04336  -0.00274   0.00000  -0.00704  -0.00704   2.03632
   R22        1.90818  -0.00309   0.00000  -0.00648  -0.00648   1.90170
   R23        2.89406  -0.00210   0.00000  -0.00828  -0.00828   2.88577
   R24        2.06652  -0.00267   0.00000  -0.00756  -0.00756   2.05897
   R25        2.06973  -0.00282   0.00000  -0.00783  -0.00783   2.06191
   R26        2.87463  -0.00194   0.00000  -0.00690  -0.00690   2.86773
   R27        2.06108  -0.00277   0.00000  -0.00757  -0.00757   2.05350
   R28        2.06184  -0.00273   0.00000  -0.00749  -0.00749   2.05434
   R29        1.93512  -0.00336   0.00000  -0.00760  -0.00760   1.92752
   R30        2.01303  -0.00277   0.00000  -0.01253  -0.01253   2.00049
   R31        1.93452  -0.00335   0.00000  -0.00744  -0.00744   1.92708
    A1        2.13209  -0.00058   0.00000   0.00036   0.00032   2.13240
    A2        2.10761  -0.00023   0.00000  -0.00197  -0.00201   2.10559
    A3        2.02643   0.00090   0.00000   0.00468   0.00464   2.03106
    A4        2.07895   0.00085   0.00000   0.00767   0.00709   2.08604
    A5        2.13630  -0.00107   0.00000  -0.00438  -0.00498   2.13132
    A6        2.05499   0.00026   0.00000   0.00617   0.00560   2.06059
    A7        1.89257  -0.00028   0.00000   0.00120   0.00120   1.89376
    A8        1.92321   0.00029   0.00000   0.00076   0.00076   1.92397
    A9        1.92685   0.00004   0.00000  -0.00133  -0.00133   1.92552
   A10        1.90174  -0.00017   0.00000  -0.00073  -0.00073   1.90101
   A11        1.89392   0.00008   0.00000  -0.00058  -0.00058   1.89334
   A12        1.92484   0.00002   0.00000   0.00067   0.00067   1.92551
   A13        2.04350   0.00094   0.00000   0.00248   0.00247   2.04596
   A14        2.15808  -0.00124   0.00000  -0.00552  -0.00553   2.15255
   A15        2.07866   0.00032   0.00000   0.00368   0.00367   2.08233
   A16        1.95955   0.00027   0.00000   0.00497   0.00497   1.96452
   A17        1.98044  -0.00017   0.00000   0.00075   0.00075   1.98119
   A18        1.89277   0.00011   0.00000  -0.00051  -0.00051   1.89226
   A19        1.89108   0.00015   0.00000   0.00106   0.00106   1.89214
   A20        1.95277  -0.00018   0.00000  -0.00151  -0.00151   1.95126
   A21        1.88315   0.00008   0.00000  -0.00013  -0.00013   1.88302
   A22        1.85882   0.00003   0.00000   0.00042   0.00042   1.85924
   A23        2.27795   0.00000   0.00000  -0.00100  -0.00102   2.27694
   A24        2.18101  -0.00003   0.00000  -0.00038  -0.00040   2.18061
   A25        1.82240   0.00004   0.00000   0.00186   0.00186   1.82426
   A26        1.94133  -0.00076   0.00000  -0.00330  -0.00330   1.93803
   A27        2.22255   0.00028   0.00000   0.00148   0.00148   2.22403
   A28        2.11827   0.00048   0.00000   0.00200   0.00200   2.12027
   A29        1.83548   0.00119   0.00000   0.00398   0.00398   1.83946
   A30        1.95325  -0.00086   0.00000  -0.00311  -0.00311   1.95014
   A31        2.19714   0.00044   0.00000   0.00189   0.00189   2.19903
   A32        2.13278   0.00043   0.00000   0.00122   0.00122   2.13400
   A33        1.87222   0.00039   0.00000   0.00060   0.00060   1.87282
   A34        2.21451  -0.00012   0.00000  -0.00001  -0.00001   2.21450
   A35        2.19414  -0.00027   0.00000  -0.00049  -0.00049   2.19365
   A36        1.85968   0.00070   0.00000   0.00487   0.00487   1.86456
   A37        1.91514  -0.00018   0.00000  -0.00418  -0.00418   1.91096
   A38        1.97547  -0.00055   0.00000  -0.00187  -0.00188   1.97359
   A39        1.87601  -0.00013   0.00000   0.00092   0.00092   1.87693
   A40        1.94959  -0.00001   0.00000   0.00021   0.00021   1.94980
   A41        1.88561   0.00018   0.00000   0.00007   0.00007   1.88567
   A42        1.93902   0.00083   0.00000   0.00375   0.00375   1.94277
   A43        1.91084  -0.00002   0.00000   0.00117   0.00117   1.91200
   A44        1.96440  -0.00054   0.00000  -0.00318  -0.00318   1.96122
   A45        1.85244  -0.00034   0.00000   0.00093   0.00093   1.85336
   A46        1.87440   0.00001   0.00000   0.00043   0.00044   1.87483
   A47        1.91922   0.00007   0.00000  -0.00294  -0.00294   1.91628
   A48        1.93097  -0.00031   0.00000  -0.00121  -0.00121   1.92977
   A49        1.97681   0.00031   0.00000   0.00055   0.00055   1.97736
   A50        1.94186  -0.00009   0.00000  -0.00014  -0.00014   1.94173
   A51        1.86761  -0.00007   0.00000   0.00218   0.00218   1.86980
   A52        1.86944   0.00019   0.00000   0.00162   0.00162   1.87105
   A53        1.87208  -0.00003   0.00000  -0.00289  -0.00289   1.86920
    D1       -0.09559  -0.00068   0.00000  -0.02876  -0.02866  -0.12425
    D2        2.86982  -0.00037   0.00000   0.03569   0.03557   2.90539
    D3        2.84979  -0.00023   0.00000  -0.01146  -0.01134   2.83844
    D4       -0.46799   0.00009   0.00000   0.05299   0.05289  -0.41510
    D5        0.99048   0.00012   0.00000   0.00074   0.00073   0.99121
    D6       -1.03550  -0.00001   0.00000  -0.00088  -0.00087  -1.03637
    D7        3.14002   0.00025   0.00000   0.00326   0.00325  -3.13992
    D8       -1.95786  -0.00028   0.00000  -0.01656  -0.01656  -1.97442
    D9        2.29936  -0.00042   0.00000  -0.01818  -0.01817   2.28119
   D10        0.19169  -0.00015   0.00000  -0.01404  -0.01404   0.17764
   D11       -1.02127  -0.00026   0.00000   0.01358   0.01367  -1.00760
   D12       -3.10134  -0.00006   0.00000   0.01328   0.01338  -3.08796
   D13        1.05141  -0.00031   0.00000   0.01282   0.01291   1.06432
   D14        2.28831  -0.00042   0.00000  -0.04679  -0.04689   2.24143
   D15        0.20825  -0.00022   0.00000  -0.04709  -0.04718   0.16107
   D16       -1.92219  -0.00047   0.00000  -0.04755  -0.04764  -1.96984
   D17        2.81718  -0.00042   0.00000  -0.02385  -0.02384   2.79334
   D18       -0.40780  -0.00008   0.00000  -0.01471  -0.01471  -0.42251
   D19       -1.37248  -0.00032   0.00000  -0.02265  -0.02264  -1.39512
   D20        1.68572   0.00001   0.00000  -0.01350  -0.01351   1.67221
   D21        0.72381  -0.00035   0.00000  -0.02261  -0.02260   0.70121
   D22       -2.50117  -0.00002   0.00000  -0.01346  -0.01347  -2.51464
   D23       -0.82533  -0.00037   0.00000  -0.01090  -0.01090  -0.83622
   D24       -3.00656  -0.00010   0.00000  -0.00907  -0.00907  -3.01563
   D25        1.26561  -0.00028   0.00000  -0.00986  -0.00986   1.25575
   D26       -2.89980  -0.00010   0.00000  -0.01237  -0.01237  -2.91217
   D27        1.20215   0.00017   0.00000  -0.01055  -0.01055   1.19161
   D28       -0.80886  -0.00001   0.00000  -0.01133  -0.01133  -0.82019
   D29        1.30630  -0.00011   0.00000  -0.01162  -0.01162   1.29469
   D30       -0.87493   0.00016   0.00000  -0.00979  -0.00979  -0.88472
   D31       -2.88595  -0.00002   0.00000  -0.01058  -0.01058  -2.89653
   D32       -0.14936   0.00006   0.00000   0.00588   0.00590  -0.14345
   D33        3.07168  -0.00018   0.00000  -0.00237  -0.00239   3.06929
   D34        1.73352   0.00020   0.00000   0.02971   0.02971   1.76323
   D35       -1.33271   0.00009   0.00000   0.01979   0.01979  -1.31292
   D36       -2.40106   0.00008   0.00000   0.02843   0.02842  -2.37264
   D37        0.81590  -0.00003   0.00000   0.01850   0.01850   0.83440
   D38       -0.36193   0.00007   0.00000   0.02801   0.02800  -0.33392
   D39        2.85503  -0.00004   0.00000   0.01808   0.01808   2.87312
   D40       -3.08483   0.00003   0.00000  -0.00497  -0.00498  -3.08981
   D41        0.10560  -0.00006   0.00000  -0.00940  -0.00940   0.09620
   D42       -0.00700   0.00012   0.00000   0.00337   0.00337  -0.00363
   D43       -3.09975   0.00003   0.00000  -0.00105  -0.00105  -3.10080
   D44        3.09449  -0.00001   0.00000   0.00457   0.00457   3.09906
   D45       -0.11722   0.00001   0.00000   0.00604   0.00604  -0.11118
   D46        0.01203  -0.00009   0.00000  -0.00313  -0.00314   0.00889
   D47        3.08351  -0.00007   0.00000  -0.00167  -0.00167   3.08184
   D48       -0.00103  -0.00009   0.00000  -0.00224  -0.00224  -0.00327
   D49        3.09508  -0.00002   0.00000   0.00188   0.00187   3.09696
   D50        0.00909   0.00002   0.00000   0.00011   0.00011   0.00920
   D51       -3.12814   0.00005   0.00000   0.00059   0.00059  -3.12755
   D52       -0.01374   0.00005   0.00000   0.00200   0.00200  -0.01174
   D53       -3.08626   0.00003   0.00000   0.00053   0.00053  -3.08573
   D54        3.12367   0.00002   0.00000   0.00154   0.00154   3.12522
   D55        0.05115   0.00000   0.00000   0.00008   0.00008   0.05123
   D56        1.03614  -0.00025   0.00000   0.00019   0.00019   1.03634
   D57       -1.00421  -0.00031   0.00000  -0.00390  -0.00390  -1.00811
   D58        3.13886  -0.00002   0.00000   0.00120   0.00120   3.14007
   D59        3.08817  -0.00016   0.00000  -0.00172  -0.00171   3.08646
   D60        1.04782  -0.00023   0.00000  -0.00580  -0.00580   1.04202
   D61       -1.09229   0.00006   0.00000  -0.00070  -0.00070  -1.09300
   D62       -1.12948  -0.00003   0.00000  -0.00094  -0.00093  -1.13041
   D63        3.11336  -0.00010   0.00000  -0.00502  -0.00502   3.10833
   D64        0.97324   0.00020   0.00000   0.00008   0.00008   0.97332
   D65       -3.01876  -0.00015   0.00000   0.00294   0.00294  -3.01582
   D66       -0.92195  -0.00025   0.00000   0.00526   0.00526  -0.91669
   D67        1.18854  -0.00014   0.00000   0.00179   0.00179   1.19033
   D68       -0.94299   0.00008   0.00000   0.00695   0.00696  -0.93604
   D69        1.15382  -0.00002   0.00000   0.00927   0.00927   1.16309
   D70       -3.01888   0.00009   0.00000   0.00581   0.00581  -3.01307
   D71        1.10930  -0.00001   0.00000   0.00424   0.00424   1.11353
   D72       -3.07708  -0.00011   0.00000   0.00655   0.00655  -3.07052
   D73       -0.96659   0.00000   0.00000   0.00309   0.00309  -0.96350
         Item               Value     Threshold  Converged?
 Maximum Force            0.013196     0.000450     NO 
 RMS     Force            0.002119     0.000300     NO 
 Maximum Displacement     0.075181     0.001800     NO 
 RMS     Displacement     0.019948     0.001200     NO 
 Predicted change in Energy=-6.964732D-04
 GradGradGradGradGradGradGradGradGradGradGradGradGradGradGradGradGradGrad

                          Input orientation:                          
 ---------------------------------------------------------------------
 Center     Atomic      Atomic             Coordinates (Angstroms)
 Number     Number       Type             X           Y           Z
 ---------------------------------------------------------------------
      1          8           0        2.103625    1.157502    0.878707
      2          6           0        1.409407    0.948310   -0.098492
      3          7           0        0.180148    0.378441   -0.003888
      4          6           0       -0.268458   -0.136188    1.265880
      5          6           0        0.739840   -1.190375    1.748543
      6          8           0        0.739640   -1.482161    3.040170
      7          8           0        1.467957   -1.808158    1.000281
      8          6           0       -1.667531   -0.807829    1.111824
      9          6           0       -2.646774    0.025238    0.362261
     10          6           0       -3.067025   -0.051130   -0.943088
     11          7           0       -3.940201    0.962867   -1.239019
     12          6           0       -4.060224    1.651436   -0.133424
     13          7           0       -3.292072    1.135215    0.869281
     14          6           0        1.981636    1.094057   -1.503336
     15          6           0        3.191036    0.165406   -1.586708
     16          7           0        2.798673   -1.276369   -1.321650
     17          1           0       -0.475508    0.385083   -0.772443
     18          1           0       -0.312114    0.666761    2.007183
     19          1           0        0.174279   -0.891174    3.553323
     20          1           0       -2.035433   -1.070352    2.105600
     21          1           0       -1.541510   -1.746015    0.569758
     22          1           0       -2.813271   -0.806399   -1.670486
     23          1           0       -4.681779    2.520380    0.007173
     24          1           0       -3.260071    1.472003    1.817047
     25          1           0        2.339697    2.113149   -1.646088
     26          1           0        1.252869    0.879135   -2.286432
     27          1           0        3.907606    0.431312   -0.814266
     28          1           0        3.671326    0.198063   -2.561421
     29          1           0        3.627346   -1.868114   -1.262173
     30          1           0        2.258764   -1.404328   -0.420100
     31          1           0        2.217720   -1.645657   -2.074012
 ---------------------------------------------------------------------
                    Distance matrix (angstroms):
                    1          2          3          4          5
     1  O    0.000000
     2  C    1.216806   0.000000
     3  N    2.255143   1.358226   0.000000
     4  C    2.729526   2.419272   1.441666   0.000000
     5  C    2.851149   2.904106   2.417737   1.536535   0.000000
     6  O    3.674261   4.025788   3.611254   2.444588   1.324174
     7  O    3.035456   2.967970   2.729107   2.425111   1.213139
     8  C    4.258930   3.743853   2.462919   1.559564   2.519363
     9  C    4.910705   4.185327   2.872334   2.549308   3.855989
    10  C    5.613852   4.663760   3.407456   3.566335   4.799476
    11  N    6.407064   5.469855   4.341011   4.578661   5.955230
    12  C    6.265892   5.514750   4.429226   4.419404   5.887130
    13  N    5.395751   4.803689   3.659432   3.303937   4.736854
    14  C    2.386008   1.523901   2.450675   3.774252   4.163581
    15  C    2.871408   2.449883   3.408247   4.494031   4.355503
    16  N    3.353862   2.894024   3.366240   4.171644   3.697604
    17  H    3.158299   2.079505   1.010251   2.114084   3.211621
    18  H    2.711103   2.734368   2.090420   1.093693   2.149990
    19  H    3.882399   4.271416   3.776997   2.449166   1.914839
    20  H    4.858024   4.560695   3.384928   2.167946   2.800720
    21  H    4.670424   4.051401   2.794009   2.167208   2.627323
    22  H    5.876321   4.835408   3.625183   3.943031   4.945887
    23  H    6.975580   6.291670   5.312848   5.302744   6.796766
    24  H    5.454230   5.074206   4.043116   3.440903   4.805439
    25  H    2.709904   2.148800   3.220199   4.510160   4.999633
    26  H    3.289282   2.194623   2.571271   3.995527   4.563671
    27  H    2.578343   2.649645   3.814899   4.699848   4.385499
    28  H    3.900344   3.427122   4.331493   5.502895   5.394178
    29  H    4.007424   3.769039   4.302728   4.956602   4.226279
    30  H    2.876445   2.521853   2.769863   3.292045   2.656298
    31  H    4.072992   3.359273   3.540351   4.428820   4.123510
                    6          7          8          9         10
     6  O    0.000000
     7  O    2.190403   0.000000
     8  C    3.157169   3.293082   0.000000
     9  C    4.572882   4.549662   1.488208   0.000000
    10  C    5.692529   5.237355   2.598815   1.373455   0.000000
    11  N    6.796362   6.476204   3.718448   2.261902   1.370475
    12  C    6.552085   6.619279   3.650151   2.210897   2.130899
    13  N    5.274289   5.598079   2.544284   1.380408   2.177783
    14  C    5.368696   3.867145   4.875721   5.103431   5.207140
    15  C    5.489245   3.681911   5.642246   6.156147   6.294796
    16  N    4.827777   2.728546   5.107671   5.846591   6.004243
[...]
 418,0.00002776,0.00001636,-0.00026199,-0.00003728,0.00002293,-0.000038
 24,-0.00000811,-0.00002127,-0.00002817,0.00001902,-0.00002613,0.000006
 19,0.00001586,-0.00000622,0.00002908,-0.00001783,0.00002740,0.00001509
 ,0.00947492,0.03349881,-0.05202747,-0.00185735,-0.00176972,-0.00086012
 ,0.00084280,-0.00058998,0.00078476,0.00000234,0.00015413,-0.00015743,0
 .00014024,0.00013338,-0.00015610,0.00002273,-0.00000756,0.00004398,0.0
 0008320,0.00006100,0.00003135,0.00000270,0.00000532,0.00001032,0.00001
 144,0.00000928,-0.00000156,0.00000326,0.00000083,0.00000323,-0.0000019
 8,0.00001526,0.00000124,-0.01344191,-0.03608761,0.05338633,0.00031187,
 -0.00036360,0.00523302,0.01067222,0.00358929,0.00702369,-0.00062687,-0
 .00006019,0.00016161,0.00035892,0.00037182,-0.00032788,0.00005717,0.00
 013378,-0.00000257,-0.00000768,-0.00002945,-0.00002158,0.00008974,-0.0
 0008025,-0.00005462,-0.00002094,-0.00001362,-0.00005516,0.00002899,0.0
 0002344,0.00005929,0.00004300,0.00000576,-0.00005333,-0.00001025,0.000
 03530,-0.00000261,-0.00001584,-0.00000289,-0.00001963,0.00001145,-0.00
 003934,-0.00000975,-0.16426864,-0.03741771,-0.12239489,-0.01966015,-0.
 00709597,-0.01930983,0.00164418,-0.00042432,0.00040320,-0.00001135,-0.
 00035571,0.00109051,0.00005728,0.00002383,0.00003545,0.00000795,0.0000
 1383,-0.00000946,0.00001092,0.00001560,0.00000345,0.00000101,0.0000041
 3,-0.00000235,-0.00001933,-0.00002364,0.00000539,-0.00000107,0.0000001
 2,-0.00000150,0.00000482,0.00000048,0.00000385,-0.00628557,-0.00162095
 ,-0.00667252,0.17985205,0.00023507,0.00234167,0.00031186,0.00138678,-0
 .00289952,0.00224441,0.00027518,-0.00012323,-0.00005839,0.00019920,0.0
 0004386,0.00002231,-0.00006934,-0.00002122,0.00017712,0.00000225,0.000
 01154,-0.00009720,0.00006620,0.00001792,-0.00013530,-0.00007816,0.0000
 3161,-0.00004363,0.00000362,-0.00000331,0.00000270,-0.00003273,0.00003
 978,-0.00001248,0.00001144,-0.00006750,0.00003446,0.00001513,-0.000032
 89,-0.00003222,0.00000910,0.00000969,0.00003546,-0.03796796,-0.0617072
 0,-0.04049125,0.01520875,0.00315075,0.01607133,-0.00054427,0.00222666,
 0.00048736,-0.00021896,0.00058532,0.00028545,0.00000890,0.00003641,-0.
 00003683,-0.00000701,-0.00000687,0.00002235,0.00002856,-0.00000122,0.0
 0000559,0.00000629,-0.00001163,0.00000187,-0.00001573,-0.00000530,-0.0
 0001209,0.00000614,0.00000186,-0.00000431,-0.00000458,0.00001018,-0.00
 000406,-0.01945334,-0.00414270,-0.02204768,0.03876453,0.06215879,0.003
 42911,0.00170555,-0.00886355,-0.02622822,-0.00930970,-0.01356491,0.001
 02396,0.00069170,0.00222916,0.00016718,0.00025380,0.00018027,-0.000264
 33,-0.00032624,-0.00005325,0.00006144,-0.00001072,0.00012641,0.0000421
 8,0.00021022,0.00022664,-0.00007761,-0.00000596,0.00004179,0.00001701,
 -0.00004351,-0.00007426,-0.00005656,-0.00003050,0.00002424,0.00000154,
 -0.00005466,0.00002936,0.00002421,0.00000622,0.00001722,-0.00001587,0.
 00007076,0.00004151,-0.12052719,-0.03916310,-0.18371016,0.00377972,0.0
 0180877,0.00384388,-0.00006517,0.00028159,0.00005723,0.00167679,0.0001
 7954,-0.00089667,-0.00016229,-0.00004400,0.00020369,-0.00004727,-0.000
 03279,-0.00000932,-0.00001367,-0.00000870,0.00000502,0.00002325,0.0000
 2764,-0.00000640,0.00003905,0.00004599,0.00000933,0.00000297,0.0000013
 8,0.00000253,-0.00001256,-0.00000359,-0.00001604,0.00339688,0.00017416
 ,0.00354347,0.13343820,0.04375271,0.19602289,0.00296107,-0.00020718,0.
 00106612,-0.00255576,-0.00166373,-0.00440195,0.00077967,0.00057029,0.0
 0043195,0.00001452,-0.00005948,0.00020410,-0.00015659,-0.00012260,0.00
 028147,0.00000184,0.00005012,-0.00014040,0.00013458,0.00011508,-0.0000
 2833,-0.00008439,-0.00000437,-0.00001382,0.00002516,0.00000896,-0.0000
 0859,-0.00001163,0.00000073,-0.00004637,0.00002554,-0.00003940,0.00002
 446,0.00000544,-0.00001083,0.00000341,0.00000390,0.00004129,0.00003399
 ,-0.01991227,-0.00340058,-0.01753398,-0.16544093,-0.04603591,-0.125185
 10,-0.00526424,-0.00429785,-0.00471205,0.00014180,0.00011955,-0.000141
 83,-0.00005691,-0.00001245,-0.00000103,-0.00001999,-0.00002221,0.00004
 718,0.00002002,0.,0.00000204,0.00000988,0.00000208,0.00000475,0.000001
 88,0.00000598,-0.00000541,-0.00000085,0.00000070,0.00000067,-0.0000202
 0,0.00000479,0.00000508,0.00121272,-0.00030721,0.00012475,-0.00278636,
 0.00325912,0.00107063,0.17844749,-0.00090702,-0.00079993,-0.00063865,0
 .00032682,0.00061422,0.00178780,-0.00029141,0.00011630,-0.00034270,-0.
 00008334,0.00001668,0.00000325,0.00013623,-0.00008198,-0.00014811,-0.0
 0004386,0.00003730,0.00007739,-0.00013972,0.00006209,0.00038222,0.0000
 1225,-0.00001509,-0.00001939,0.00000273,0.00001062,0.00002404,0.000022
 27,-0.00000074,-0.00001222,-0.00000061,0.00002599,-0.00001564,-0.00000
 939,0.00000659,0.00000500,0.00000018,-0.00001620,-0.00001992,0.0155755
 8,0.00513015,0.01509897,-0.04085425,-0.06369800,-0.04136241,-0.0257871
 8,-0.02001884,-0.02450417,-0.00022416,-0.00016720,0.00015834,0.0000189
 0,0.00000640,-0.00003484,0.00000712,0.00000370,0.00001378,0.00000411,0
 .00000631,-0.00000234,0.00000079,0.00000039,0.00000216,-0.00000746,-0.
 00001577,0.00000516,-0.00000176,-0.00000054,0.00000039,0.00000171,-0.0
 0000049,0.00000510,-0.00044370,0.00085718,0.00039058,0.00397013,-0.001
 99693,-0.00141805,0.04807212,0.08205240,0.00029316,-0.00026497,-0.0009
 7892,0.00202381,0.00088406,0.00097927,-0.00080686,-0.00062568,-0.00039
 800,0.00008090,0.00006620,-0.00021001,-0.00006097,0.00024356,0.0000425
 3,0.00003332,-0.00007042,-0.00003960,0.00011703,-0.00018833,-0.0002636
 2,0.00005476,0.00001419,0.00003110,-0.00002265,-0.00001282,-0.00000371
 ,-0.00000300,0.00000153,0.00004178,-0.00001990,0.00001365,-0.00001331,
 0.00000344,0.00000449,-0.00000223,-0.00000428,-0.00002828,-0.00001782,
 0.00052210,0.00166854,0.00194658,-0.13213331,-0.05114073,-0.19557331,0
 .00812047,0.00519831,0.00770860,-0.00003473,-0.00005150,0.00016879,0.0
 0004265,-0.00000334,0.00003350,0.00001678,0.00002724,-0.00004045,-0.00
 001991,-0.00000337,0.00000023,-0.00000867,-0.00000150,-0.00000784,0.00
 000253,0.00000318,0.00000120,0.00000245,-0.00000013,-0.00000048,0.0000
 1690,-0.00000126,-0.00000579,-0.00056560,0.00037010,0.00039426,0.00120
 794,-0.00012489,0.00054256,0.13828459,0.04942410,0.20116865,0.00146497
 ,-0.00073757,0.00072780,-0.00368112,0.00380642,-0.00321409,-0.00003701
 ,-0.00044577,0.00098970,-0.00003612,-0.00027553,-0.00021087,-0.0001187
 7,0.00003321,-0.00006895,0.00002510,-0.00004492,0.00007384,-0.00001622
 ,-0.00003478,0.00022922,0.00005747,-0.00001450,0.00011270,-0.00000905,
 -0.00000615,0.00000538,0.00000900,0.00000992,0.00004391,-0.00001844,0.
 00002412,-0.00002550,-0.00000256,0.00000891,-0.00000032,-0.00000054,-0
 .00003589,-0.00003446,-0.01207333,0.00132525,0.02357524,-0.10112524,-0
 .00346622,0.10395801,-0.00439790,-0.00360269,0.00798357,0.00005433,0.0
 0011400,0.00013829,0.00002303,0.00000808,0.00000407,-0.00000697,0.0000
 0947,-0.00003050,-0.00004256,-0.00001260,-0.00000570,-0.00000177,-0.00
 000123,-0.00000269,-0.00000387,-0.00000676,0.00000719,0.00000028,-0.00
 000103,-0.00000052,0.00001185,-0.00000361,-0.00000287,0.00103129,-0.00
 025299,-0.00033631,0.00080005,-0.00103425,-0.00029597,0.01169351,0.002
 03350,-0.01822271,0.10598496,0.00024718,0.00057209,-0.00061098,0.00277
 399,-0.00308114,0.00194317,0.00072729,0.00087862,-0.00128752,0.0000015
 4,0.00007315,0.00049789,0.00087211,-0.00115010,-0.00062059,-0.00027366
 ,0.00024501,0.00047565,-0.00167955,0.00070226,0.00182400,-0.00003929,0
 .00007893,-0.00015818,0.00000934,0.00000742,0.00001546,0.00001485,0.00
 000503,-0.00004962,0.00001552,0.00000164,0.00000944,-0.00001008,-0.000
 00700,-0.00000547,0.00000299,0.00002535,0.00001068,0.00810592,0.001227
 00,-0.01912926,0.00039880,-0.04927918,-0.00390394,-0.02004090,-0.01226
 652,0.03696678,-0.00009311,-0.00010039,-0.00011333,-0.00005398,0.00003
 871,-0.00006723,0.00003109,-0.00003625,0.00009554,0.00006732,0.0000257
 0,0.00000331,0.00003054,0.00000602,0.00001807,-0.00000748,-0.00000917,
 -0.00000042,-0.00000285,0.00000052,-0.00000052,-0.00001599,-0.00000148
 ,0.00001011,-0.00063648,0.00057713,-0.00002179,-0.00040781,0.00059815,
 0.00064206,0.00480958,0.00156992,-0.00665390,0.00372669,0.06183537,0.0
 0145657,-0.00014393,0.00076329,-0.00150468,0.00014068,-0.00103598,0.00
 026021,-0.00011422,0.00021769,-0.00001575,-0.00012154,0.00006717,-0.00
 007645,-0.00005898,0.00008570,0.00000275,0.00001979,-0.00004457,-0.000
 02127,0.00000578,0.00007787,-0.00002728,-0.00000500,0.00001321,0.00001
 144,0.00000520,0.00000684,0.00000264,0.00000515,-0.00001607,0.00000934
 ,-0.00000698,0.00000047,-0.00000052,-0.00000197,0.00000274,0.00000234,
 0.00000517,0.00000229,-0.00197392,-0.00033771,0.00255036,0.10617108,0.
 00641575,-0.27418328,0.00013562,0.00059152,-0.00099078,-0.00000129,0.0
 0003218,-0.00000614,-0.00000797,0.00000281,-0.00000635,-0.00000797,-0.
 00000291,0.00001780,-0.00000135,-0.00000021,0.00000070,0.00000394,0.00
 000084,0.00000187,-0.00000347,-0.00000353,-0.00000047,-0.00000100,-0.0
 0000010,0.00000010,-0.00000601,0.00000098,0.00000346,0.00045248,-0.000
 43875,0.00004072,0.00025547,-0.00017390,0.00059678,0.01028294,0.000609
 80,-0.01718693,-0.11540365,-0.00729291,0.28800161,0.00006921,-0.000078
 46,-0.00031166,-0.00057204,-0.00009963,0.00062318,0.00016901,0.0002224
 4,-0.00012032,0.00008509,-0.00001202,0.00003316,-0.00038572,0.00035797
 ,0.00083809,0.00009153,0.00000905,-0.00052210,0.00085788,-0.00066385,-
 0.00044379,-0.00007102,-0.00003461,-0.00000932,0.00002166,0.00002589,0
 .00001263,-0.00000119,0.00001943,-0.00004356,0.00004081,-0.00003884,0.
 00000299,0.00000261,-0.00000728,0.00001256,0.00001246,0.00001041,0.000
 01148,-0.00075640,-0.00258815,0.00038770,0.01292805,-0.00491446,0.0002
 6077,-0.29733462,0.16038333,-0.02232385,-0.00007581,-0.00001967,-0.000
 01347,0.00000917,-0.00002575,-0.00000437,-0.00002026,0.00000711,0.0000
 5550,0.00001223,0.00000063,-0.00000068,-0.00001806,-0.00000819,0.00000
 232,-0.00001352,-0.00000913,-0.00000714,-0.00000335,-0.00000081,0.0000
 0065,-0.00001964,0.00000872,0.00001458,0.00065191,-0.00062292,-0.00002
 493,0.00001561,0.00003881,0.00009009,0.00062447,-0.00042357,-0.0001056
 6,0.00028747,-0.00021125,0.00020611,0.31468730,-0.00035238,0.00018255,
 -0.00021458,-0.00043455,0.00006736,0.00092004,-0.00021132,0.00022139,0
 .00012965,0.00007415,0.00001055,-0.00012901,0.00032995,-0.00023831,-0.
 00055227,-0.00006470,-0.00001451,0.00039759,-0.00067004,-0.00032652,0.
 00111493,0.00006572,0.00002431,0.00001145,-0.00002724,-0.00002747,-0.0
 0001843,-0.00001018,-0.00001856,0.00004119,-0.00002938,0.00001597,-0.0
 0000315,0.00000149,0.00001050,-0.00000283,-0.00001024,-0.00001031,-0.0
 0000708,-0.00406099,-0.00572341,0.00105157,0.02691107,-0.01797210,0.00
 128939,0.16549859,-0.16634355,0.01272252,0.00012952,-0.00010624,0.0000
 0492,-0.00001555,0.00000372,0.00004166,0.00003131,0.00001873,-0.000017
 31,-0.00001631,0.00000700,0.00000773,0.00000508,0.00001892,-0.00001173
 ,0.00001928,0.00001719,0.00000308,0.00000338,0.00000143,-0.00000024,0.
 00001667,-0.00000195,-0.00001041,0.00167433,-0.00081020,-0.00016083,-0
 .00020121,0.00028938,0.00018437,0.00005266,0.00112210,-0.00124208,0.00
 007714,0.00116397,0.00062351,-0.17286577,0.17561000,-0.00023514,0.0001
 6728,-0.00021440,0.00043410,0.00028615,0.00054817,-0.00016397,-0.00030
 446,-0.00019462,-0.00004687,0.00010817,0.00014337,0.00016463,-0.000100
 04,-0.00006897,-0.00011600,-0.00006339,-0.00010379,-0.00023351,0.00115
 125,-0.00150660,0.00004341,0.00002101,-0.00000846,-0.00000540,0.000001
 98,0.00000347,0.00000810,0.00000376,0.00001316,-0.00001251,0.00001765,
 -0.00001619,-0.00000160,0.00000125,0.00000302,-0.00000414,-0.00001148,
 -0.00002073,0.00075421,0.00083391,-0.00029620,-0.00483364,0.00360615,-
 0.00094341,-0.01753116,0.00922935,-0.05969530,-0.00002247,0.00000761,-
 0.00001846,0.00000497,0.00002652,-0.00003522,0.00003092,-0.00001634,-0
 .00003908,0.00001237,0.00000144,-0.00000804,0.00000474,-0.00000419,0.0
 0000610,0.00000020,-0.00000218,0.00000502,0.00000017,-0.00000045,0.000
 00018,0.00000610,-0.00000349,0.00000319,-0.00019943,0.00013133,0.00034
 259,0.00023312,-0.00019696,0.00006206,0.00010968,-0.00104411,0.0004366
 7,-0.00033247,0.00034498,-0.00055157,0.02281211,-0.01314181,0.05503376
 ,-0.00286785,-0.00064865,0.00047187,0.00645207,0.00429948,-0.00154981,
 -0.00245095,-0.00340496,0.00097032,0.00105395,0.00110668,-0.00100928,-
 0.01063187,0.01071450,0.00947615,0.00251567,-0.00175873,-0.00712605,0.
 00781488,-0.00633390,-0.01066768,-0.00053015,-0.00065479,0.00017801,0.
 00014937,0.00018477,-0.00004932,-0.00011011,-0.00001756,-0.00030779,0.
 00026060,-0.00037723,0.00015866,0.00008706,-0.00006192,0.00010482,0.00
 003342,0.00017048,0.00024626,0.00096434,0.00124481,-0.00040024,-0.0023
 7909,-0.00738975,0.00252955,-0.12246147,-0.00730179,0.09573483,-0.0003
 0779,0.00037883,-0.00011996,0.00039371,-0.00039569,0.00025932,-0.00019
 249,0.00024012,-0.00036628,-0.00004578,-0.00005986,0.00003930,-0.00024
 231,-0.00009611,-0.00004332,-0.00000903,0.00001697,-0.00006220,0.00000
 324,0.00000263,0.00000936,-0.00010109,0.00008732,0.00002963,-0.0006637
 2,0.00020413,0.00019590,-0.00019747,0.00002061,0.00004772,-0.00044285,
 0.00017606,-0.00009631,0.00036357,0.00133729,-0.00043220,-0.01463347,-
 0.00246045,0.02462044,0.12285083,-0.00167778,0.00050385,-0.00060778,0.
 00395780,-0.00294244,0.00078714,-0.00095066,-0.00050069,0.00003422,0.0
 0080489,-0.00016487,-0.00149788,-0.00250515,0.00389176,-0.00035027,0.0
 0172253,-0.00059206,-0.00210873,0.00263777,-0.01026158,-0.00006645,-0.
 00006858,-0.00005261,0.00015673,-0.00005166,-0.00002308,-0.00006218,-0
 .00007960,-0.00001783,0.00006963,0.00002341,-0.00010130,0.00002081,0.0
 0004668,0.00000767,0.00002611,0.00000170,-0.00002921,0.00004053,0.0003
 8383,0.00137804,0.00066090,-0.01574234,-0.00149322,0.02745248,-0.01291
 864,-0.06585056,0.02137964,0.00022110,0.00002185,0.00035243,0.00013054
 ,-0.00025400,0.00034659,0.00005972,0.00028980,-0.00025861,-0.00010782,
 -0.00003901,0.00002389,-0.00011559,0.00000025,-0.00006076,0.00002439,0
 .00003637,-0.00001720,0.00001060,0.00000157,0.00000165,0.00001396,0.00
 002877,-0.00002090,-0.00030781,0.00032941,-0.00020483,0.00013396,-0.00
 016167,-0.00006656,-0.00018575,0.00096119,-0.00029319,-0.00128628,-0.0
 0555190,-0.00013381,0.00970601,0.00289862,-0.01998314,0.00716474,0.076
 42666,0.00067160,0.00210867,-0.00353388,-0.00248475,-0.00196241,0.0069
 4788,0.00191241,0.00122562,-0.00271617,-0.00241040,-0.00156653,0.00270
 778,0.01477189,-0.01756715,-0.01622547,-0.00330372,0.00264284,0.010912
 93,-0.02095970,0.00979535,0.00900745,0.00094997,0.00145940,-0.00032890
 ,-0.00031310,-0.00025015,0.00009817,0.00021471,0.00012686,0.00044865,-
 0.00035105,0.00058698,-0.00026005,-0.00015266,0.00005109,-0.00021023,-
 0.00001606,-0.00033361,-0.00039260,-0.00045096,-0.00129778,-0.00068479
 ,-0.00047421,0.01208585,0.00223075,0.09526840,0.01227874,-0.22556383,-
 0.00045436,0.00048969,0.00008088,-0.00041938,0.00066779,-0.00066947,0.
 00109927,-0.00010166,0.00038943,0.00016657,0.00002996,-0.00010797,0.00
 028058,0.00000089,0.00016488,-0.00006532,-0.00008605,0.00005723,-0.000
 00579,-0.00000493,-0.00001865,0.00013650,-0.00012280,-0.00000575,0.000
 65574,-0.00038586,-0.00022377,0.00008606,0.00019545,-0.00044867,-0.000
 47673,-0.00104998,0.00104066,-0.00031313,-0.00336326,0.00095328,-0.002
 29114,-0.00306969,0.00822503,-0.09245239,-0.01401772,0.22849334,-0.000
 68166,0.00019249,-0.00042686,0.00125001,0.00043913,0.00040464,-0.00040
 837,-0.00079908,-0.00023443,-0.00019564,-0.00010683,0.00019596,0.00043
 280,-0.00050760,-0.00025883,-0.00006829,0.00014898,0.00021929,-0.00200
 629,-0.00050213,0.00087886,0.00005153,0.00016350,0.00003871,-0.0000228
 0,0.00002485,0.00005329,0.00001258,0.00011088,0.00005305,0.00001987,-0
 .00000872,-0.00004987,-0.00000311,-0.00002063,-0.00002238,0.00002486,-
 0.00009241,-0.00006304,0.00175221,0.00053072,0.00123841,-0.00497131,-0
 .00528667,-0.00459932,-0.16652449,-0.06376204,-0.14362892,-0.00024742,
 0.00041456,0.00018808,0.00000016,0.00002032,-0.00006783,0.00008103,0.0
 0002863,0.00005346,0.00000788,-0.00002775,-0.00003145,-0.00003363,-0.0
 0006077,0.00003588,-0.00006614,-0.00004076,-0.00001561,-0.00000079,-0.
 00000254,-0.00000650,0.00000495,0.00000622,0.00001826,-0.00039074,0.00
 009078,-0.00011180,-0.00005572,-0.00011935,-0.00056517,0.00064950,-0.0
 0114308,0.00128177,-0.00023538,0.00030040,0.00023185,-0.01666136,-0.01
 346002,-0.02550094,0.01532478,0.00895403,0.01118116,0.17296099,0.00028
 589,-0.00002315,0.00069178,0.00005345,-0.00021644,-0.00118380,-0.00023
 458,0.00015467,0.00035386,0.00010529,0.00013378,-0.00024632,-0.0000365
 7,0.00006577,-0.00027341,0.00003083,-0.00006837,0.00023185,-0.00063262
 ,-0.00047960,0.00046928,0.00008712,0.00006645,0.00006882,-0.00004772,-
 0.00003706,-0.00003634,-0.00003851,0.00000422,0.00008885,-0.00003261,-
 0.00001493,-0.00000690,0.00001403,0.00000529,-0.00000565,-0.00000895,-
 0.00003011,-0.00001176,-0.00030145,0.00128177,-0.00079289,-0.02009611,
 -0.01206131,-0.02621017,-0.06983822,-0.10246979,-0.09727324,0.00029983
 ,-0.00009838,-0.00004474,-0.00001859,-0.00002073,0.00008526,0.00003005
 ,0.00003981,-0.00004438,-0.00003199,-0.00001212,0.00000175,-0.00001331
 ,0.00001021,-0.00000913,0.00002164,0.00003516,-0.00000563,0.00000759,0
 .00000196,-0.00000214,0.00002516,0.00000329,-0.00001421,0.00001572,0.0
 0029802,0.00053825,0.00105066,-0.00037237,0.00048162,-0.00074347,-0.00
 578782,0.00278725,0.00008605,0.00185113,0.00037730,0.01183454,0.009909
 45,0.01893223,0.00361197,0.00126021,0.00143444,0.07451491,0.10657099,0
 .00020094,0.00003618,0.00013546,-0.00072231,-0.00063123,-0.00038331,0.
 00002362,0.00068287,0.00026314,0.00002646,0.00004990,-0.00013281,0.000
 64439,-0.00032709,-0.00074549,-0.00019319,-0.00005994,0.00048715,0.000
 79189,0.00105738,0.00064023,0.00011538,-0.00001993,0.00001069,-0.00001
 059,-0.00002618,0.00001572,0.00001067,0.00001026,0.00008469,-0.0000528
 9,0.00005292,-0.00004833,-0.00000718,0.00002341,0.00000635,-0.00001803
 ,-0.00004557,-0.00007450,0.00091546,-0.00028834,0.00026358,0.00609242,
 0.00130044,0.00920187,-0.14901137,-0.09257278,-0.25513491,0.00023591,-
 0.00021755,0.00007007,-0.00004221,0.00001787,0.00004367,-0.00002151,-0
 .00004848,-0.00003799,-0.00002339,0.00001286,-0.00000134,0.00004642,0.
 00003110,0.00000344,0.00000728,-0.00000151,0.00003074,0.00000195,-0.00
 000084,-0.00000165,0.00002640,-0.00001210,-0.00000941,-0.00008262,0.00
 005606,-0.00005994,-0.00030253,-0.00017924,-0.00016281,0.00071781,0.00
 262443,0.00020566,0.00065179,0.00042179,0.00061820,0.00085806,0.000037
 84,-0.00110477,-0.02038930,-0.01160273,-0.02036815,0.15951029,0.099618
 17,0.26618474\\-0.00001254,-0.00000509,-0.00001496,0.00000913,0.000002
 76,0.00001272,0.00000465,-0.00000003,-0.00000153,0.00000018,0.00000184
 ,0.00000275,0.00000520,-0.00001144,-0.00000818,-0.00000090,0.00000366,
 -0.00000362,-0.00001055,0.00001001,0.00001177,-0.00000271,-0.00000265,
 -0.00000011,-0.00000057,0.00000267,-0.00000498,0.00000197,-0.00000217,
 0.00000687,0.00000245,0.00000373,0.00000927,0.00000208,-0.00000248,-0.
 00000333,0.00000092,-0.00000252,-0.00000315,0.00000114,0.00000161,-0.0
 0000167,0.00000062,0.00000027,0.00000043,0.00000094,0.00000021,-0.0000
 0224,-0.00000235,0.00000361,0.00000282,0.00000003,-0.00000437,-0.00000
 143,0.00000255,-0.00000347,-0.00000244,0.00000090,-0.00000017,-0.00000
 328,-0.00000006,0.00000337,0.00000049,-0.00000130,0.00000255,0.0000022
 7,0.00000181,-0.00000282,0.00000064,-0.00000030,-0.00000136,-0.0000025
 8,-0.00000165,-0.00000217,0.00000155,0.00000205,0.00000080,0.00000298,
 -0.00000122,-0.00000095,-0.00000343,-0.00000172,0.00000117,0.00000278,
 -0.00000263,0.00000251,-0.00000072,0.00000034,-0.00000108,-0.00000145,
 0.00000152,0.00000202,0.00000175\\\@


 ONLY THE DAY DAWNS TO WHICH YOU ARE AWAKE.

                                 -- THOREAU
 Job cpu time:       0 days 16 hours 13 minutes 45.2 seconds.
 File lengths (MBytes):  RWF=   1140 Int=      0 D2E=      0 Chk=     37 Scr=      1
 Normal termination of Gaussian 09 at Thu Jul 29 06:45:03 2021.
