 Entering Gaussian System, Link 0=g09
 Input=opt_freq-conf-55.com
 Output=opt_freq-conf-55.log
 Initial command:
 /aerosol/software/g09/l1.exe "/scratch/nicole/10746/Gau-85696.inp" -scrdir="/scratch/nicole/10746/"
 Entering Link 1 = /aerosol/software/g09/l1.exe PID=     85701.
  
 Copyright (c) 1988,1990,1992,1993,1995,1998,2003,2009,2013,
            Gaussian, Inc.  All Rights Reserved.
  
 This is part of the Gaussian(R) 09 program.  It is based on
 the Gaussian(R) 03 system (copyright 2003, Gaussian, Inc.),
 the Gaussian(R) 98 system (copyright 1998, Gaussian, Inc.),
 the Gaussian(R) 94 system (copyright 1995, Gaussian, Inc.),
 the Gaussian 92(TM) system (copyright 1992, Gaussian, Inc.),
 the Gaussian 90(TM) system (copyright 1990, Gaussian, Inc.),
 the Gaussian 88(TM) system (copyright 1988, Gaussian, Inc.),
 the Gaussian 86(TM) system (copyright 1986, Carnegie Mellon
 University), and the Gaussian 82(TM) system (copyright 1983,
 Carnegie Mellon University). Gaussian is a federally registered
 trademark of Gaussian, Inc.
  
 This software contains proprietary and confidential information,
 including trade secrets, belonging to Gaussian, Inc.
  
 This software is provided under written license and may be
 used, copied, transmitted, or stored only in accord with that
 written license.
  
 The following legend is applicable only to US Government
 contracts under FAR:
  
                    RESTRICTED RIGHTS LEGEND
  
 Use, reproduction and disclosure by the US Government is
 subject to restrictions as set forth in subparagraphs (a)
 and (c) of the Commercial Computer Software - Restricted
 Rights clause in FAR 52.227-19.
  
 Gaussian, Inc.
 340 Quinnipiac St., Bldg. 40, Wallingford CT 06492
  
  
 ---------------------------------------------------------------
 Warning -- This program may not be used in any manner that
 competes with the business of Gaussian, Inc. or will provide
 assistance to any competitor of Gaussian, Inc.  The licensee
 of this program is prohibited from giving any competitor of
 Gaussian, Inc. access to this program.  By using this program,
 the user acknowledges that Gaussian, Inc. is engaged in the
 business of creating and licensing software in the field of
 computational chemistry and represents and warrants to the
 licensee that it is not a competitor of Gaussian, Inc. and that
 it will not use this program in any manner prohibited above.
 ---------------------------------------------------------------
  

 Cite this work as:
 Gaussian 09, Revision D.01,
 M. J. Frisch, G. W. Trucks, H. B. Schlegel, G. E. Scuseria, 
 M. A. Robb, J. R. Cheeseman, G. Scalmani, V. Barone, B. Mennucci, 
 G. A. Petersson, H. Nakatsuji, M. Caricato, X. Li, H. P. Hratchian, 
 A. F. Izmaylov, J. Bloino, G. Zheng, J. L. Sonnenberg, M. Hada, 
 M. Ehara, K. Toyota, R. Fukuda, J. Hasegawa, M. Ishida, T. Nakajima, 
 Y. Honda, O. Kitao, H. Nakai, T. Vreven, J. A. Montgomery, Jr., 
 J. E. Peralta, F. Ogliaro, M. Bearpark, J. J. Heyd, E. Brothers, 
 K. N. Kudin, V. N. Staroverov, T. Keith, R. Kobayashi, J. Normand, 
 K. Raghavachari, A. Rendell, J. C. Burant, S. S. Iyengar, J. Tomasi, 
 M. Cossi, N. Rega, J. M. Millam, M. Klene, J. E. Knox, J. B. Cross, 
 V. Bakken, C. Adamo, J. Jaramillo, R. Gomperts, R. E. Stratmann, 
 O. Yazyev, A. J. Austin, R. Cammi, C. Pomelli, J. W. Ochterski, 
 R. L. Martin, K. Morokuma, V. G. Zakrzewski, G. A. Voth, 
 P. Salvador, J. J. Dannenberg, S. Dapprich, A. D. Daniels, 
 O. Farkas, J. B. Foresman, J. V. Ortiz, J. Cioslowski, 
 and D. J. Fox, Gaussian, Inc., Wallingford CT, 2013.
 
 ******************************************
 Gaussian 09:  ES64L-G09RevD.01 24-Apr-2013
                29-Jul-2021 
 ******************************************
 %mem=2gb
 %nproc=4
 Will use up to    4 processors via shared memory.
 %chk=conf-55.chk
 ----------------------------------------------------------------------
 # B3LYP/6-311G(2df,2pd) guess=read geom=checkpoint opt=readfc freq=nor
 aman nosymm integral(ultrafinegrid)
 ----------------------------------------------------------------------
 1/10=3,14=-1,18=20,19=15,26=4,29=2,38=1/1,3;
 2/9=110,12=2,15=1,40=1/2;
 3/5=4,6=6,7=404,11=2,14=-4,16=1,25=1,30=1,71=1,74=-5,75=-5,116=-2/1,2,3;
 4/5=1/1;
 5/5=2,38=6/2;
 6/7=2,8=2,9=2,10=2,28=1/1;
 7/30=1/1,2,3,16;
 1/14=-1,18=20,19=15,26=4/3(2);
 2/9=110,15=1/2;
 99//99;
 2/9=110,15=1/2;
 3/5=4,6=6,7=404,11=2,14=-2,16=1,25=1,30=1,71=1,74=-5,75=-5/1,2,3;
 4/5=5,16=3,69=1/1;
 5/5=2,38=5/2;
 7/30=1/1,2,3,16;
 1/14=-1,18=20,19=15,26=4/3(-5);
 2/9=110,15=1/2;
 6/7=2,8=2,9=2,10=2,19=2,28=1/1;
 99/9=1/99;
 -----------------------------------------------------------
 Candidate Structure: Conf:55 OPT and FREQ calc in gas phase
 -----------------------------------------------------------
 Structure from the checkpoint file:  "conf-55.chk"
 Charge =  1 Multiplicity = 1
 Redundant internal coordinates found in file.
 O,0,1.4212203696,0.7077885858,1.0598158785
 C,0,1.5322462242,0.1010920572,-0.0022896847
 N,0,0.5315977493,-0.5389216589,-0.6319438646
 C,0,-0.7998318383,-0.6794492975,-0.0586539859
 C,0,-1.4414318296,-1.873368585,-0.7954589664
 O,0,-2.641046725,-2.2670079868,-0.3753893454
 O,0,-0.872697895,-2.419730282,-1.716890488
 C,0,-1.6308369412,0.6283943873,-0.1814520311
 C,0,-2.9526538076,0.5499286387,0.5254867016
 C,0,-3.307744412,0.1369874215,1.7969456224
 N,0,-4.6635799866,0.2633986305,1.9984301466
 C,0,-5.1359494367,0.7500183353,0.8736214988
 N,0,-4.1472873282,0.9372622997,-0.0527168425
 C,0,2.8997923905,0.0640973199,-0.7250001437
 C,0,3.9762916574,0.2130228456,0.340993181
 N,0,5.3325341691,0.5485146725,-0.2756422476
 H,0,0.6836398035,-1.1363538581,-1.441697925
 H,0,-0.7008574626,-0.9242512529,1.0058076736
 H,0,-2.9742209767,-1.6848657203,0.3378911755
 H,0,-1.7764892709,0.8553294915,-1.243654371
 H,0,-1.0169531323,1.4312666652,0.2403300264
 H,0,-2.6568862278,-0.2128676131,2.5878331379
 H,0,-6.1721936103,0.9784502108,0.6667159532
 H,0,-4.2683617916,1.2907314469,-0.9908607185
 H,0,3.0233160033,-0.8538581038,-1.3088730594
 H,0,2.9266722688,0.9119872951,-1.4230153463
 H,0,3.7161321268,1.0238231886,1.0227367788
 H,0,4.1232553539,-0.701114963,0.9188903522
 H,0,5.6502965281,-0.1857305145,-0.9178075032
 H,0,5.2897999038,1.4243160847,-0.8085986716
 H,0,6.0520637138,0.6611103991,0.4472179383
 Recover connectivity data from disk.

 GradGradGradGradGradGradGradGradGradGradGradGradGradGradGradGradGradGrad
 Berny optimization.
 Initialization pass.
 Force constant matrix read from checkpoint file:
 "conf-55.chk"
                           ----------------------------
                           !    Initial Parameters    !
                           ! (Angstroms and Degrees)  !
 --------------------------                            --------------------------
 ! Name  Definition              Value          Derivative Info.                !
 --------------------------------------------------------------------------------
 ! R1    R(1,2)                  1.2282         D2E/DX2 =    0.7855             !
 ! R2    R(2,3)                  1.3444         D2E/DX2 =    0.5066             !
 ! R3    R(2,14)                 1.5472         D2E/DX2 =    0.2483             !
 ! R4    R(3,4)                  1.4564         D2E/DX2 =    0.3347             !
 ! R5    R(3,17)                 1.0177         D2E/DX2 =    0.4415             !
 ! R6    R(4,5)                  1.5427         D2E/DX2 =    0.2687             !
 ! R7    R(4,8)                  1.5544         D2E/DX2 =    0.2557             !
 ! R8    R(4,18)                 1.0967         D2E/DX2 =    0.3324             !
 ! R9    R(5,6)                  1.3306         D2E/DX2 =    0.4689             !
 ! R10   R(5,7)                  1.2129         D2E/DX2 =    0.8533             !
 ! R11   R(6,19)                 0.9791         D2E/DX2 =    0.4598             !
 ! R12   R(8,9)                  1.501          D2E/DX2 =    0.3103             !
 ! R13   R(8,20)                 1.0959         D2E/DX2 =    0.3345             !
 ! R14   R(8,21)                 1.0952         D2E/DX2 =    0.3358             !
 ! R15   R(9,10)                 1.3832         D2E/DX2 =    0.3932             !
 ! R16   R(9,13)                 1.3826         D2E/DX2 =    0.3648             !
 ! R17   R(10,11)                1.3765         D2E/DX2 =    0.3368             !
 ! R18   R(10,22)                1.0824         D2E/DX2 =    0.3703             !
 ! R19   R(11,12)                1.3134         D2E/DX2 =    0.467              !
 ! R20   R(12,13)                1.3677         D2E/DX2 =    0.357              !
 ! R21   R(12,23)                1.0811         D2E/DX2 =    0.3756             !
 ! R22   R(13,24)                1.0098         D2E/DX2 =    0.4741             !
 ! R23   R(14,15)                1.5223         D2E/DX2 =    0.2901             !
 ! R24   R(14,25)                1.0949         D2E/DX2 =    0.3382             !
 ! R25   R(14,26)                1.0986         D2E/DX2 =    0.3301             !
 ! R26   R(15,16)                1.5272         D2E/DX2 =    0.2342             !
 ! R27   R(15,27)                1.0908         D2E/DX2 =    0.3516             !
 ! R28   R(15,28)                1.0914         D2E/DX2 =    0.3486             !
 ! R29   R(16,29)                1.0259         D2E/DX2 =    0.4282             !
 ! R30   R(16,30)                1.0261         D2E/DX2 =    0.4278             !
 ! R31   R(16,31)                1.0261         D2E/DX2 =    0.428              !
 ! A1    A(1,2,3)              124.9525         D2E/DX2 =    0.1941             !
 ! A2    A(1,2,14)             119.7125         D2E/DX2 =    0.1853             !
 ! A3    A(3,2,14)             115.3235         D2E/DX2 =    0.1641             !
 ! A4    A(2,3,4)              122.8212         D2E/DX2 =    0.1232             !
 ! A5    A(2,3,17)             122.7463         D2E/DX2 =    0.0866             !
 ! A6    A(4,3,17)             113.1495         D2E/DX2 =    0.0953             !
 ! A7    A(3,4,5)              105.4784         D2E/DX2 =    0.1127             !
 ! A8    A(3,4,8)              112.1147         D2E/DX2 =    0.0914             !
 ! A9    A(3,4,18)             108.7289         D2E/DX2 =    0.0305             !
 ! A10   A(5,4,8)              113.022          D2E/DX2 =    0.0994             !
 ! A11   A(5,4,18)             109.168          D2E/DX2 =    0.0246             !
 ! A12   A(8,4,18)             108.224          D2E/DX2 =    0.0335             !
 ! A13   A(4,5,6)              116.9441         D2E/DX2 =    0.201              !
 ! A14   A(4,5,7)              121.0946         D2E/DX2 =    0.2192             !
 ! A15   A(6,5,7)              121.9609         D2E/DX2 =    0.2072             !
 ! A16   A(5,6,19)             111.1541         D2E/DX2 =    0.2039             !
 ! A17   A(4,8,9)              112.9295         D2E/DX2 =    0.1822             !
 ! A18   A(4,8,20)             108.7755         D2E/DX2 =    0.0642             !
 ! A19   A(4,8,21)             106.6623         D2E/DX2 =    0.0609             !
 ! A20   A(9,8,20)             110.504          D2E/DX2 =    0.0533             !
 ! A21   A(9,8,21)             110.5213         D2E/DX2 =    0.0562             !
 ! A22   A(20,8,21)            107.2165         D2E/DX2 =    0.0211             !
 ! A23   A(8,9,10)             132.4227         D2E/DX2 =    0.0993             !
 ! A24   A(8,9,13)             123.3184         D2E/DX2 =    0.1062             !
 ! A25   A(10,9,13)            104.2553         D2E/DX2 =    0.1025             !
 ! A26   A(9,10,11)            111.0994         D2E/DX2 =    0.1136             !
 ! A27   A(9,10,22)            127.865          D2E/DX2 =    0.0821             !
 ! A28   A(11,10,22)           120.9984         D2E/DX2 =    0.0904             !
 ! A29   A(10,11,12)           105.2426         D2E/DX2 =    0.1306             !
 ! A30   A(11,12,13)           111.7633         D2E/DX2 =    0.1183             !
 ! A31   A(11,12,23)           125.9372         D2E/DX2 =    0.0895             !
 ! A32   A(13,12,23)           122.2975         D2E/DX2 =    0.0904             !
 ! A33   A(9,13,12)            107.6377         D2E/DX2 =    0.1032             !
 ! A34   A(9,13,24)            126.1708         D2E/DX2 =    0.0785             !
 ! A35   A(12,13,24)           126.191          D2E/DX2 =    0.0797             !
 ! A36   A(2,14,15)            107.194          D2E/DX2 =    0.1688             !
 ! A37   A(2,14,25)            111.645          D2E/DX2 =    0.0542             !
 ! A38   A(2,14,26)            107.4554         D2E/DX2 =    0.0432             !
 ! A39   A(15,14,25)           112.0653         D2E/DX2 =    0.058              !
 ! A40   A(15,14,26)           110.6171         D2E/DX2 =    0.0531             !
 ! A41   A(25,14,26)           107.7877         D2E/DX2 =    0.0227             !
 ! A42   A(14,15,16)           111.5158         D2E/DX2 =    0.1465             !
 ! A43   A(14,15,27)           109.9813         D2E/DX2 =    0.0436             !
 ! A44   A(14,15,28)           112.5853         D2E/DX2 =    0.0454             !
 ! A45   A(16,15,27)           107.5104         D2E/DX2 =    0.0536             !
 ! A46   A(16,15,28)           106.1536         D2E/DX2 =    0.0579             !
 ! A47   A(27,15,28)           108.8901         D2E/DX2 =    0.0191             !
 ! A48   A(15,16,29)           111.7523         D2E/DX2 =    0.0972             !
 ! A49   A(15,16,30)           111.115          D2E/DX2 =    0.0972             !
 ! A50   A(15,16,31)           111.2474         D2E/DX2 =    0.0963             !
 ! A51   A(29,16,30)           107.3767         D2E/DX2 =    0.054              !
 ! A52   A(29,16,31)           107.5957         D2E/DX2 =    0.0537             !
 ! A53   A(30,16,31)           107.5441         D2E/DX2 =    0.053              !
 ! D1    D(1,2,3,4)             -5.2483         D2E/DX2 =    0.0118             !
 ! D2    D(1,2,3,17)          -171.4188         D2E/DX2 =    0.0108             !
 ! D3    D(14,2,3,4)           175.9932         D2E/DX2 =    0.0112             !
 ! D4    D(14,2,3,17)            9.8227         D2E/DX2 =    0.0075             !
 ! D5    D(1,2,14,15)           27.4229         D2E/DX2 =    0.0152             !
 ! D6    D(1,2,14,25)          150.5067         D2E/DX2 =    0.016              !
 ! D7    D(1,2,14,26)          -91.5036         D2E/DX2 =    0.0165             !
 ! D8    D(3,2,14,15)         -153.7487         D2E/DX2 =    0.0152             !
 ! D9    D(3,2,14,25)          -30.665          D2E/DX2 =    0.0164             !
 ! D10   D(3,2,14,26)           87.3247         D2E/DX2 =    0.0155             !
 ! D11   D(2,3,4,5)           -159.1831         D2E/DX2 =    0.0149             !
 ! D12   D(2,3,4,8)             77.4118         D2E/DX2 =    0.0145             !
 ! D13   D(2,3,4,18)           -42.2061         D2E/DX2 =    0.0084             !
 ! D14   D(17,3,4,5)             8.1871         D2E/DX2 =    0.0167             !
 ! D15   D(17,3,4,8)          -115.218          D2E/DX2 =    0.015              !
 ! D16   D(17,3,4,18)          125.1641         D2E/DX2 =    0.0103             !
 ! D17   D(3,4,5,6)            175.1864         D2E/DX2 =    0.023              !
 ! D18   D(3,4,5,7)             -5.0136         D2E/DX2 =    0.0228             !
 ! D19   D(8,4,5,6)            -61.9866         D2E/DX2 =    0.0249             !
 ! D20   D(8,4,5,7)            117.8134         D2E/DX2 =    0.0222             !
 ! D21   D(18,4,5,6)            58.5075         D2E/DX2 =    0.0166             !
 ! D22   D(18,4,5,7)          -121.6925         D2E/DX2 =    0.016              !
 ! D23   D(3,4,8,9)           -174.1585         D2E/DX2 =    0.0217             !
 ! D24   D(3,4,8,20)            62.7822         D2E/DX2 =    0.0207             !
 ! D25   D(3,4,8,21)           -52.5627         D2E/DX2 =    0.0212             !
 ! D26   D(5,4,8,9)             66.7852         D2E/DX2 =    0.0287             !
 ! D27   D(5,4,8,20)           -56.2741         D2E/DX2 =    0.0224             !
 ! D28   D(5,4,8,21)          -171.619          D2E/DX2 =    0.025              !
 ! D29   D(18,4,8,9)           -54.2456         D2E/DX2 =    0.0133             !
 ! D30   D(18,4,8,20)         -177.3049         D2E/DX2 =    0.0143             !
 ! D31   D(18,4,8,21)           67.3502         D2E/DX2 =    0.0135             !
 ! D32   D(4,5,6,19)             3.2155         D2E/DX2 =    0.0142             !
 ! D33   D(7,5,6,19)          -176.5826         D2E/DX2 =    0.0219             !
 ! D34   D(4,8,9,10)            48.6242         D2E/DX2 =    0.0122             !
 ! D35   D(4,8,9,13)          -132.1746         D2E/DX2 =    0.0119             !
 ! D36   D(20,8,9,10)          170.718          D2E/DX2 =    0.0147             !
 ! D37   D(20,8,9,13)          -10.0808         D2E/DX2 =    0.0135             !
 ! D38   D(21,8,9,10)          -70.7667         D2E/DX2 =    0.014              !
 ! D39   D(21,8,9,13)          108.4345         D2E/DX2 =    0.0141             !
 ! D40   D(8,9,10,11)          179.2854         D2E/DX2 =    0.0093             !
 ! D41   D(8,9,10,22)            1.5125         D2E/DX2 =    0.007              !
 ! D42   D(13,9,10,11)          -0.0259         D2E/DX2 =    0.0139             !
 ! D43   D(13,9,10,22)        -177.7988         D2E/DX2 =    0.01               !
 ! D44   D(8,9,13,12)         -179.1381         D2E/DX2 =    0.008              !
 ! D45   D(8,9,13,24)            1.1045         D2E/DX2 =    0.0025             !
 ! D46   D(10,9,13,12)           0.2535         D2E/DX2 =    0.0124             !
 ! D47   D(10,9,13,24)        -179.5039         D2E/DX2 =    0.0045             !
 ! D48   D(9,10,11,12)          -0.2187         D2E/DX2 =    0.0172             !
 ! D49   D(22,10,11,12)        177.7303         D2E/DX2 =    0.0101             !
 ! D50   D(10,11,12,13)          0.3872         D2E/DX2 =    0.0184             !
 ! D51   D(10,11,12,23)        179.888          D2E/DX2 =    0.0105             !
 ! D52   D(11,12,13,9)          -0.417          D2E/DX2 =    0.0173             !
 ! D53   D(11,12,13,24)        179.3404         D2E/DX2 =    0.0079             !
 ! D54   D(23,12,13,9)        -179.9388         D2E/DX2 =    0.0105             !
 ! D55   D(23,12,13,24)         -0.1814         D2E/DX2 =    0.0065             !
 ! D56   D(2,14,15,16)        -165.3638         D2E/DX2 =    0.0147             !
 ! D57   D(2,14,15,27)         -46.1893         D2E/DX2 =    0.0145             !
 ! D58   D(2,14,15,28)          75.435          D2E/DX2 =    0.0145             !
 ! D59   D(25,14,15,16)         71.8125         D2E/DX2 =    0.0159             !
 ! D60   D(25,14,15,27)       -169.013          D2E/DX2 =    0.0152             !
 ! D61   D(25,14,15,28)        -47.3887         D2E/DX2 =    0.0163             !
 ! D62   D(26,14,15,16)        -48.4983         D2E/DX2 =    0.0156             !
 ! D63   D(26,14,15,27)         70.6762         D2E/DX2 =    0.0166             !
 ! D64   D(26,14,15,28)       -167.6995         D2E/DX2 =    0.0157             !
 ! D65   D(14,15,16,29)        -60.5198         D2E/DX2 =    0.014              !
 ! D66   D(14,15,16,30)         59.3993         D2E/DX2 =    0.014              !
 ! D67   D(14,15,16,31)        179.1915         D2E/DX2 =    0.0141             !
 ! D68   D(27,15,16,29)        178.8474         D2E/DX2 =    0.0148             !
 ! D69   D(27,15,16,30)        -61.2335         D2E/DX2 =    0.0153             !
 ! D70   D(27,15,16,31)         58.5587         D2E/DX2 =    0.0151             !
 ! D71   D(28,15,16,29)         62.4354         D2E/DX2 =    0.0154             !
 ! D72   D(28,15,16,30)       -177.6455         D2E/DX2 =    0.0147             !
 ! D73   D(28,15,16,31)        -57.8533         D2E/DX2 =    0.015              !
 --------------------------------------------------------------------------------
 Trust Radius=3.00D-01 FncErr=1.00D-07 GrdErr=1.00D-06
 Number of steps in this run=    167 maximum allowed number of steps=    186.
 GradGradGradGradGradGradGradGradGradGradGradGradGradGradGradGradGradGrad

                          Input orientation:                          
 ---------------------------------------------------------------------
 Center     Atomic      Atomic             Coordinates (Angstroms)
 Number     Number       Type             X           Y           Z
 ---------------------------------------------------------------------
      1          8           0        1.421220    0.707789    1.059816
      2          6           0        1.532246    0.101092   -0.002290
      3          7           0        0.531598   -0.538922   -0.631944
      4          6           0       -0.799832   -0.679449   -0.058654
      5          6           0       -1.441432   -1.873369   -0.795459
      6          8           0       -2.641047   -2.267008   -0.375389
      7          8           0       -0.872698   -2.419730   -1.716890
      8          6           0       -1.630837    0.628394   -0.181452
      9          6           0       -2.952654    0.549929    0.525487
     10          6           0       -3.307744    0.136987    1.796946
     11          7           0       -4.663580    0.263399    1.998430
     12          6           0       -5.135949    0.750018    0.873621
     13          7           0       -4.147287    0.937262   -0.052717
     14          6           0        2.899792    0.064097   -0.725000
     15          6           0        3.976292    0.213023    0.340993
     16          7           0        5.332534    0.548515   -0.275642
     17          1           0        0.683640   -1.136354   -1.441698
     18          1           0       -0.700857   -0.924251    1.005808
     19          1           0       -2.974221   -1.684866    0.337891
     20          1           0       -1.776489    0.855329   -1.243654
     21          1           0       -1.016953    1.431267    0.240330
     22          1           0       -2.656886   -0.212868    2.587833
     23          1           0       -6.172194    0.978450    0.666716
     24          1           0       -4.268362    1.290731   -0.990861
     25          1           0        3.023316   -0.853858   -1.308873
     26          1           0        2.926672    0.911987   -1.423015
     27          1           0        3.716132    1.023823    1.022737
     28          1           0        4.123255   -0.701115    0.918890
     29          1           0        5.650297   -0.185731   -0.917808
     30          1           0        5.289800    1.424316   -0.808599
     31          1           0        6.052064    0.661110    0.447218
 ---------------------------------------------------------------------
                    Distance matrix (angstroms):
                    1          2          3          4          5
     1  O    0.000000
     2  C    1.228200   0.000000
     3  N    2.282053   1.344388   0.000000
     4  C    2.847539   2.459880   1.456404   0.000000
     5  C    4.277756   3.656552   2.387537   1.542717   0.000000
     6  O    5.235575   4.812845   3.621847   2.451680   1.330596
     7  O    4.770066   3.883060   2.585845   2.404919   1.212850
     8  C    3.295771   3.211735   2.498338   1.554382   2.582963
     9  C    4.409218   4.538098   3.829523   2.547005   3.146595
    10  C    4.819988   5.163724   4.593137   3.224817   3.774283
    11  N    6.172785   6.512871   5.878134   4.477623   4.770097
    12  C    6.559949   6.756712   6.004097   4.659875   4.828814
    13  N    5.683191   5.740978   4.940302   3.717425   3.971519
    14  C    2.405428   1.547211   2.445534   3.831984   4.754468
    15  C    2.699979   2.470573   3.657587   4.875201   5.915765
    16  N    4.136084   3.836287   4.935429   6.257866   7.212652
    17  H    3.194129   2.079255   1.017715   2.079005   2.340245
    18  H    2.677627   2.656001   2.085583   1.096724   2.166526
    19  H    5.056271   4.859384   3.813730   2.428184   1.915583
    20  H    3.943741   3.613529   2.765030   2.171090   2.785487
    21  H    2.672016   2.885593   2.653397   2.142815   3.489077
    22  H    4.451224   4.935194   4.543094   3.266534   3.959957
    23  H    7.608398   7.783040   6.994981   5.668956   5.714099
    24  H    6.075890   6.003296   5.149375   4.096501   4.247499
    25  H    3.258242   2.200541   2.601169   4.026155   4.608359
    26  H    2.910762   2.149520   2.909865   4.275627   5.218464
    27  H    2.316867   2.582919   3.914256   4.946157   6.188701
    28  H    3.050551   2.864513   3.915533   5.019248   5.939606
    29  H    4.753363   4.228330   5.138827   6.525799   7.290796
    30  H    4.355490   4.064513   5.150340   6.486282   7.495624
    31  H    4.671420   4.576508   5.751540   7.000106   8.007516
                    6          7          8          9         10
     6  O    0.000000
     7  O    2.224861   0.000000
     8  C    3.072701   3.496199   0.000000
     9  C    2.973854   4.263021   1.501039   0.000000
    10  C    3.307978   4.981295   2.639613   1.383191   0.000000
    11  N    4.016045   5.947569   3.752684   2.275726   1.376541
    12  C    4.109381   5.910446   3.662484   2.219913   2.137912
    13  N    3.555310   4.976124   2.538601   1.382569   2.183237
    14  C    6.021393   4.624384   4.597878   6.004238   6.700674
    15  C    7.103022   5.888886   5.646714   6.939584   7.428510
    16  N    8.456661   7.027985   6.964466   8.323830   8.894908
    17  H    3.670005   2.035921   3.171649   4.464974   5.295409
    18  H    2.734051   3.111121   2.164522   2.733953   2.923694
    19  H    0.979114   3.029613   2.724990   2.242758   2.357801
    20  H    3.354152   3.430278   1.095896   2.146274   3.479369
    21  H    4.085832   4.322233   1.095152   2.145928   3.057112
    22  H    3.605611   5.155988   3.070739   2.218695   1.082367
    23  H    4.907951   6.731557   4.633125   3.251002   3.192264
    24  H    3.960362   5.081848   2.837317   2.139903   3.166350
    25  H    5.912139   4.218692   5.012912   6.406849   7.121110
    26  H    6.496386   5.061810   4.732103   6.204371   7.059513
    27  H    7.293699   6.357750   5.495135   6.704069   7.121848
    28  H    7.062787   5.904280   6.007323   7.196413   7.529486
    29  H    8.565764   6.941091   7.363418   8.754145   9.365924
    30  H    8.758531   7.319704   6.994428   8.395379   9.075453
    31  H    9.209817   7.882085   7.708648   9.005744   9.471139
                   11         12         13         14         15
    11  N    0.000000
    12  C    1.313441   0.000000
    13  N    2.219877   1.367705   0.000000
    14  C    8.041231   8.221875   7.132721   0.000000
    15  C    8.797557   9.143577   8.165296   1.522291   0.000000
    16  N   10.255486  10.533307   9.490408   2.520876   1.527150
    17  H    6.510495   6.541156   5.437555   2.620319   3.979995
    18  H    4.254290   4.742435   4.057534   4.115484   4.859125
    19  H    3.067093   3.299809   2.899002   6.220341   7.204972
    20  H    4.381414   3.972395   2.654379   4.771023   6.001513
    21  H    4.213398   4.222711   3.182595   4.259332   5.140695
    22  H    2.145005   3.164084   3.242931   6.475203   7.016318
    23  H    2.135574   1.081107   2.149308   9.223548  10.182521
    24  H    3.185509   2.126352   1.009809   7.277207   8.420784
    25  H    8.442446   8.597053   7.496906   1.094901   2.183680
    26  H    8.350981   8.384906   7.205502   1.098574   2.168405
    27  H    8.470525   8.857570   7.937094   2.154546   1.090805
    28  H    8.905289   9.372338   8.487059   2.187416   1.091426
    29  H   10.727638  10.973967   9.899603   2.768549   2.132106
    30  H   10.406580  10.582098   9.479831   2.751240   2.124640
    31  H   10.834641  11.196489  10.215329   3.415748   2.126240
                   16         17         18         19         20
    16  N    0.000000
    17  H    5.080422   0.000000
    18  H    6.341370   2.819947   0.000000
    19  H    8.623607   4.104601   2.488539   0.000000
    20  H    7.181184   3.171476   3.063327   3.223110   0.000000
    21  H    6.431288   3.509118   2.496865   3.681127   1.763748
    22  H    8.521152   5.314985   2.614368   2.707345   4.073873
    23  H   11.551262   7.477985   5.802652   4.174734   4.794465
    24  H    9.656067   5.533201   4.649723   3.506360   2.542225
    25  H    2.892526   2.360409   4.385450   6.274779   5.095459
    26  H    2.690121   3.037638   4.736024   6.683186   4.706921
    27  H    2.127078   4.464954   4.827533   7.250299   5.944225
    28  H    2.109701   4.194373   4.830053   7.188845   6.473493
    29  H    1.025897   5.083879   6.677040   8.843443   7.506473
    30  H    1.026108   5.307971   6.685493   8.903679   7.102497
    31  H    1.026123   5.968153   6.958975   9.326809   8.011430
                   21         22         23         24         25
    21  H    0.000000
    22  H    3.302019   0.000000
    23  H    5.192625   4.179392   0.000000
    24  H    3.479546   4.202941   2.543552   0.000000
    25  H    4.893424   6.918084   9.582155   7.607165   0.000000
    26  H    4.311444   6.966228   9.335992   7.217944   1.772168
    27  H    4.814589   6.677896   9.894837   8.238808   3.072798
    28  H    5.606179   6.999577  10.434596   8.833676   2.489202
    29  H    6.957599   9.016626  11.984878  10.028213   2.738677
    30  H    6.393390   8.795791  11.565148   9.560833   3.252276
    31  H    7.113856   9.010654  12.230346  10.439142   3.814747
                   26         27         28         29         30
    26  H    0.000000
    27  H    2.572442   0.000000
    28  H    3.085196   1.775372   0.000000
    29  H    2.979656   2.994950   2.443550   0.000000
    30  H    2.494867   2.447573   2.976995   1.653522   0.000000
    31  H    3.650861   2.432973   2.407994   1.655854   1.655477
                   31
    31  H    0.000000
 Symmetry turned off by external request.
 Stoichiometry    C9H15N4O3(1+)
 Framework group  C1[X(C9H15N4O3)]
 Deg. of freedom    87
 Full point group                 C1      NOp   1
 Rotational constants (GHZ):      1.0858206      0.2212415      0.1961514
 Standard basis: 6-311G(2df,2pd) (5D, 7F)
   690 basis functions,  1023 primitive gaussians,   785 cartesian basis functions
    60 alpha electrons       60 beta electrons
       nuclear repulsion energy      1111.1511946022 Hartrees.
 NAtoms=   31 NActive=   31 NUniq=   31 SFac= 1.00D+00 NAtFMM=   60 NAOKFM=F Big=F
 Integral buffers will be    131072 words long.
 Raffenetti 2 integral format.
 Two-electron integral symmetry is turned off.
 One-electron integrals computed using PRISM.
 NBasis=   690 RedAO= T EigKep=  1.98D-04  NBF=   690
 NBsUse=   690 1.00D-06 EigRej= -1.00D+00 NBFU=   690
 Initial guess from the checkpoint file:  "conf-55.chk"
 B after Tr=     0.000000    0.000000    0.000000
         Rot=    1.000000    0.000000    0.000000    0.000000 Ang=   0.00 deg.
 Requested convergence on RMS density matrix=1.00D-08 within 128 cycles.
 Requested convergence on MAX density matrix=1.00D-06.
 Requested convergence on             energy=1.00D-06.
 No special actions if energy rises.
 SCF Done:  E(RB3LYP) =  -796.722803772     A.U. after   11 cycles
            NFock= 11  Conv=0.53D-08     -V/T= 2.0041

 **********************************************************************

            Population analysis using the SCF density.

 **********************************************************************

 Alpha  occ. eigenvalues --  -19.26381 -19.22226 -19.21195 -14.63881 -14.46658
 Alpha  occ. eigenvalues --  -14.46015 -14.37702 -10.41452 -10.41410 -10.40939
 Alpha  occ. eigenvalues --  -10.35637 -10.34673 -10.31019 -10.30545 -10.30185
 Alpha  occ. eigenvalues --  -10.27554  -1.20719  -1.20241  -1.17429  -1.12703
 Alpha  occ. eigenvalues --   -1.10661  -1.05905  -0.96509  -0.96272  -0.91174
 Alpha  occ. eigenvalues --   -0.85638  -0.82825  -0.78814  -0.78595  -0.77396
 Alpha  occ. eigenvalues --   -0.72901  -0.71145  -0.70639  -0.69188  -0.67999
 Alpha  occ. eigenvalues --   -0.67158  -0.64875  -0.63315  -0.60448  -0.60182
 Alpha  occ. eigenvalues --   -0.58186  -0.57355  -0.56263  -0.55298  -0.54258
 Alpha  occ. eigenvalues --   -0.53848  -0.53070  -0.52113  -0.50997  -0.50694
 Alpha  occ. eigenvalues --   -0.49807  -0.48619  -0.47867  -0.42489  -0.40162
 Alpha  occ. eigenvalues --   -0.39499  -0.38753  -0.37688  -0.35780  -0.32450
 Alpha virt. eigenvalues --   -0.18957  -0.13425  -0.12295  -0.11823  -0.10256
 Alpha virt. eigenvalues --   -0.10007  -0.07475  -0.07272  -0.05710  -0.05627
 Alpha virt. eigenvalues --   -0.04708  -0.04374  -0.03497  -0.02472  -0.01866
 Alpha virt. eigenvalues --   -0.01024  -0.00340   0.01407   0.01709   0.02226
 Alpha virt. eigenvalues --    0.02890   0.04122   0.07065   0.07688   0.08444
 Alpha virt. eigenvalues --    0.08706   0.10240   0.11375   0.12113   0.12530
 Alpha virt. eigenvalues --    0.13063   0.14417   0.15089   0.16321   0.17829
 Alpha virt. eigenvalues --    0.18056   0.19541   0.20144   0.20611   0.22240
 Alpha virt. eigenvalues --    0.22725   0.23241   0.24544   0.25604   0.26269
 Alpha virt. eigenvalues --    0.26559   0.27505   0.27952   0.28680   0.29082
 Alpha virt. eigenvalues --    0.29547   0.29775   0.30623   0.30748   0.31124
 Alpha virt. eigenvalues --    0.31777   0.32172   0.33074   0.33167   0.33454
 Alpha virt. eigenvalues --    0.35190   0.35624   0.35905   0.36367   0.36981
 Alpha virt. eigenvalues --    0.37365   0.38048   0.38696   0.39539   0.40587
 Alpha virt. eigenvalues --    0.41342   0.41876   0.42549   0.42953   0.43856
 Alpha virt. eigenvalues --    0.44478   0.45231   0.45686   0.47303   0.47807
 Alpha virt. eigenvalues --    0.48927   0.49892   0.51196   0.51539   0.52419
 Alpha virt. eigenvalues --    0.53493   0.54288   0.55323   0.56510   0.57541
 Alpha virt. eigenvalues --    0.58226   0.58924   0.59118   0.60754   0.61056
 Alpha virt. eigenvalues --    0.61516   0.62567   0.64035   0.64807   0.66572
 Alpha virt. eigenvalues --    0.66730   0.67300   0.67879   0.69538   0.70523
 Alpha virt. eigenvalues --    0.71380   0.72414   0.72536   0.72728   0.73435
 Alpha virt. eigenvalues --    0.74210   0.75293   0.76624   0.77207   0.78218
 Alpha virt. eigenvalues --    0.79109   0.79896   0.81060   0.82433   0.83267
 Alpha virt. eigenvalues --    0.84841   0.85041   0.86124   0.86569   0.87084
 Alpha virt. eigenvalues --    0.88050   0.88644   0.89715   0.90943   0.91357
 Alpha virt. eigenvalues --    0.91912   0.92714   0.93175   0.94084   0.95333
 Alpha virt. eigenvalues --    0.95410   0.96074   0.96422   0.97027   0.97574
 Alpha virt. eigenvalues --    0.98849   0.99267   1.00085   1.00910   1.01110
 Alpha virt. eigenvalues --    1.02462   1.04125   1.05009   1.05621   1.06304
 Alpha virt. eigenvalues --    1.07243   1.07517   1.08464   1.08855   1.10626
 Alpha virt. eigenvalues --    1.11597   1.11838   1.12203   1.13742   1.15414
 Alpha virt. eigenvalues --    1.15564   1.16173   1.16738   1.17197   1.18409
 Alpha virt. eigenvalues --    1.18553   1.18947   1.19592   1.20255   1.21154
 Alpha virt. eigenvalues --    1.21672   1.22433   1.24091   1.24648   1.25073
 Alpha virt. eigenvalues --    1.25355   1.25796   1.27139   1.28212   1.29664
 Alpha virt. eigenvalues --    1.30223   1.30558   1.31024   1.31758   1.32299
 Alpha virt. eigenvalues --    1.33169   1.34233   1.35452   1.36128   1.37640
 Alpha virt. eigenvalues --    1.38443   1.40597   1.40907   1.42600   1.43072
 Alpha virt. eigenvalues --    1.44899   1.46431   1.46930   1.50045   1.50719
 Alpha virt. eigenvalues --    1.51580   1.53022   1.54075   1.54236   1.55560
 Alpha virt. eigenvalues --    1.56139   1.57508   1.58047   1.61705   1.62039
 Alpha virt. eigenvalues --    1.63112   1.64673   1.66629   1.67262   1.68923
 Alpha virt. eigenvalues --    1.70552   1.72105   1.72680   1.75240   1.77039
 Alpha virt. eigenvalues --    1.79946   1.81933   1.82985   1.87180   1.89877
 Alpha virt. eigenvalues --    1.93323   1.95469   1.96217   1.98266   2.00787
 Alpha virt. eigenvalues --    2.04288   2.07442   2.08139   2.09809   2.11238
 Alpha virt. eigenvalues --    2.14000   2.16942   2.18233   2.20664   2.21946
 Alpha virt. eigenvalues --    2.27345   2.29583   2.34244   2.34934   2.39174
 Alpha virt. eigenvalues --    2.41367   2.42827   2.43586   2.46170   2.47610
 Alpha virt. eigenvalues --    2.49129   2.50464   2.50874   2.52352   2.53616
 Alpha virt. eigenvalues --    2.54322   2.54626   2.55504   2.55593   2.57245
 Alpha virt. eigenvalues --    2.59166   2.60064   2.60597   2.62337   2.63238
 Alpha virt. eigenvalues --    2.63397   2.65789   2.66734   2.67686   2.69268
 Alpha virt. eigenvalues --    2.70092   2.70983   2.73118   2.73900   2.74187
 Alpha virt. eigenvalues --    2.75129   2.75495   2.75953   2.76437   2.78067
 Alpha virt. eigenvalues --    2.79613   2.79787   2.80334   2.80803   2.81508
 Alpha virt. eigenvalues --    2.82256   2.83662   2.84189   2.85535   2.85779
 Alpha virt. eigenvalues --    2.85971   2.86795   2.87052   2.87512   2.89334
 Alpha virt. eigenvalues --    2.90464   2.90689   2.91935   2.93101   2.94032
 Alpha virt. eigenvalues --    2.94872   2.95840   2.96333   2.97616   2.97733
 Alpha virt. eigenvalues --    2.98328   2.98804   2.99621   3.00456   3.00565
 Alpha virt. eigenvalues --    3.01473   3.02065   3.02753   3.03618   3.04200
 Alpha virt. eigenvalues --    3.04795   3.05378   3.06426   3.07233   3.09150
 Alpha virt. eigenvalues --    3.09373   3.09908   3.11373   3.11659   3.11980
 Alpha virt. eigenvalues --    3.12608   3.13784   3.14221   3.14795   3.15420
 Alpha virt. eigenvalues --    3.15928   3.16010   3.17069   3.17660   3.18568
 Alpha virt. eigenvalues --    3.19551   3.20279   3.21030   3.21791   3.22868
 Alpha virt. eigenvalues --    3.23663   3.24633   3.25433   3.27074   3.27382
 Alpha virt. eigenvalues --    3.28096   3.28776   3.29397   3.30055   3.31253
 Alpha virt. eigenvalues --    3.31858   3.32799   3.33550   3.34170   3.34503
 Alpha virt. eigenvalues --    3.35236   3.35442   3.36338   3.37202   3.37243
 Alpha virt. eigenvalues --    3.38079   3.38995   3.39530   3.40901   3.41781
 Alpha virt. eigenvalues --    3.42689   3.43713   3.45119   3.45681   3.47458
 Alpha virt. eigenvalues --    3.48186   3.48922   3.49701   3.50255   3.50999
 Alpha virt. eigenvalues --    3.52504   3.52809   3.53948   3.54469   3.54936
 Alpha virt. eigenvalues --    3.56357   3.56878   3.57791   3.58623   3.59604
 Alpha virt. eigenvalues --    3.60499   3.61281   3.62457   3.63240   3.64844
 Alpha virt. eigenvalues --    3.65974   3.67527   3.67766   3.68303   3.69544
 Alpha virt. eigenvalues --    3.70155   3.71129   3.71796   3.72574   3.73273
 Alpha virt. eigenvalues --    3.73975   3.74583   3.75427   3.76423   3.77800
 Alpha virt. eigenvalues --    3.78311   3.78806   3.79682   3.80282   3.81025
 Alpha virt. eigenvalues --    3.81924   3.82407   3.83267   3.83857   3.84950
 Alpha virt. eigenvalues --    3.85966   3.86456   3.87413   3.88088   3.88305
 Alpha virt. eigenvalues --    3.88810   3.90212   3.91488   3.92313   3.92615
 Alpha virt. eigenvalues --    3.94526   3.95706   3.97107   3.97814   3.98473
 Alpha virt. eigenvalues --    3.98553   3.99486   4.00826   4.02163   4.02385
 Alpha virt. eigenvalues --    4.03996   4.04784   4.04961   4.07177   4.08159
 Alpha virt. eigenvalues --    4.09725   4.11737   4.12243   4.12985   4.14055
 Alpha virt. eigenvalues --    4.14395   4.15268   4.15955   4.17189   4.18283
 Alpha virt. eigenvalues --    4.21471   4.22547   4.24181   4.24645   4.27061
 Alpha virt. eigenvalues --    4.28272   4.29068   4.30718   4.31959   4.34536
 Alpha virt. eigenvalues --    4.35120   4.37268   4.38180   4.38463   4.40823
 Alpha virt. eigenvalues --    4.42263   4.43988   4.45122   4.45976   4.46894
 Alpha virt. eigenvalues --    4.49265   4.50721   4.51061   4.53450   4.54315
 Alpha virt. eigenvalues --    4.59679   4.60284   4.62187   4.63740   4.63949
 Alpha virt. eigenvalues --    4.65366   4.67244   4.69647   4.71044   4.71930
 Alpha virt. eigenvalues --    4.73234   4.74402   4.75237   4.75617   4.77070
 Alpha virt. eigenvalues --    4.78811   4.79443   4.80028   4.82388   4.83093
 Alpha virt. eigenvalues --    4.84834   4.85588   4.86519   4.88176   4.88744
 Alpha virt. eigenvalues --    4.90653   4.91263   4.92513   4.93455   4.94515
 Alpha virt. eigenvalues --    4.95352   4.95581   4.96650   4.97297   4.98159
 Alpha virt. eigenvalues --    4.99274   4.99898   5.00342   5.01088   5.01817
 Alpha virt. eigenvalues --    5.02709   5.04841   5.05215   5.06009   5.06228
 Alpha virt. eigenvalues --    5.08713   5.09308   5.09722   5.10888   5.12430
 Alpha virt. eigenvalues --    5.13560   5.14940   5.16212   5.17161   5.20090
 Alpha virt. eigenvalues --    5.21394   5.21737   5.22991   5.23479   5.24843
 Alpha virt. eigenvalues --    5.25961   5.28631   5.29558   5.30796   5.32171
 Alpha virt. eigenvalues --    5.33845   5.35400   5.36669   5.37162   5.38562
 Alpha virt. eigenvalues --    5.40310   5.42059   5.42604   5.43164   5.46097
 Alpha virt. eigenvalues --    5.46835   5.49282   5.50112   5.52079   5.54538
 Alpha virt. eigenvalues --    5.55599   5.59129   5.62333   5.66091   5.68714
 Alpha virt. eigenvalues --    5.71726   5.72620   5.74196   5.77018   5.78042
 Alpha virt. eigenvalues --    5.79060   5.79662   5.82110   5.82930   5.83877
 Alpha virt. eigenvalues --    5.90228   5.93216   5.95426   5.96800   6.05469
 Alpha virt. eigenvalues --    6.08272   6.10566   6.11508   6.17629   6.18132
 Alpha virt. eigenvalues --    6.20389   6.24615   6.25832   6.27869   6.31255
 Alpha virt. eigenvalues --    6.35248   6.41703   6.43129   6.58463   6.60574
 Alpha virt. eigenvalues --    6.74258   6.77029   6.79062   6.81428   6.89653
 Alpha virt. eigenvalues --    6.91120   6.91926   6.92356   6.94777   6.95537
 Alpha virt. eigenvalues --    7.00749   7.07316   7.11011   7.12369   7.14894
 Alpha virt. eigenvalues --    7.17456   7.26770   7.32139   7.40837   7.44433
 Alpha virt. eigenvalues --    7.46082   7.47078   7.67259   7.85529  24.33916
 Alpha virt. eigenvalues --   24.50798  24.58426  24.67927  24.75806  24.84091
 Alpha virt. eigenvalues --   24.85515  24.92335  24.94881  35.89275  36.08989
 Alpha virt. eigenvalues --   36.13781  36.31723  50.07071  50.08302  50.18487
          Condensed to atoms (all electrons):
               1          2          3          4          5          6
     1  O    7.884208   0.663824  -0.095615  -0.016208  -0.000074  -0.000001
     2  C    0.663824   4.269882   0.447131  -0.056794   0.000551  -0.000127
     3  N   -0.095615   0.447131   6.568441   0.245362  -0.018008   0.002005
     4  C   -0.016208  -0.056794   0.245362   5.289412   0.208138  -0.105660
     5  C   -0.000074   0.000551  -0.018008   0.208138   4.247676   0.418343
     6  O   -0.000001  -0.000127   0.002005  -0.105660   0.418343   7.721374
     7  O   -0.000008  -0.001826  -0.034162  -0.109383   0.705443  -0.064399
     8  C   -0.002280  -0.002875  -0.040333   0.288218  -0.047384   0.014378
     9  C   -0.000829   0.000572   0.002950  -0.043185  -0.005958  -0.014499
    10  C   -0.000024  -0.000028   0.000152  -0.004280   0.000164  -0.001651
    11  N    0.000000   0.000000  -0.000001  -0.000003  -0.000191  -0.000095
    12  C    0.000000   0.000000   0.000001  -0.000394   0.000126   0.001090
    13  N    0.000001   0.000002  -0.000006   0.000776   0.001638  -0.001029
    14  C   -0.083540   0.313054  -0.051483   0.002064  -0.000016   0.000000
    15  C   -0.004153  -0.055740  -0.002207  -0.000404  -0.000017   0.000000
    16  N    0.000554  -0.001829   0.000016  -0.000001   0.000000   0.000000
    17  H    0.003382  -0.019851   0.335180  -0.049386  -0.011753   0.002184
    18  H    0.017434  -0.001796  -0.037101   0.385468  -0.018283   0.001514
    19  H   -0.000019   0.000112  -0.000127   0.004213  -0.031055   0.304560
    20  H   -0.000105   0.001055   0.009094  -0.035352   0.000880  -0.000201
    21  H    0.013906   0.002478  -0.006330  -0.040863   0.001706  -0.000113
    22  H    0.000040  -0.000002  -0.000003   0.000658  -0.000013   0.000013
    23  H    0.000000   0.000000   0.000000   0.000002   0.000003   0.000017
    24  H    0.000000   0.000001  -0.000029   0.000007  -0.000071   0.000198
    25  H    0.002950  -0.011523   0.002635   0.000685   0.000041  -0.000001
    26  H    0.000487  -0.017917   0.000611   0.000204  -0.000008   0.000000
    27  H    0.036029  -0.000893   0.001921   0.000126   0.000003   0.000000
    28  H    0.000804   0.004046   0.000534   0.000050   0.000001   0.000000
    29  H    0.000021   0.000011  -0.000004   0.000000   0.000000   0.000000
    30  H    0.000053   0.000407   0.000004   0.000001   0.000000   0.000000
    31  H    0.000012  -0.000270   0.000002   0.000000   0.000000   0.000000
               7          8          9         10         11         12
     1  O   -0.000008  -0.002280  -0.000829  -0.000024   0.000000   0.000000
     2  C   -0.001826  -0.002875   0.000572  -0.000028   0.000000   0.000000
     3  N   -0.034162  -0.040333   0.002950   0.000152  -0.000001   0.000001
     4  C   -0.109383   0.288218  -0.043185  -0.004280  -0.000003  -0.000394
     5  C    0.705443  -0.047384  -0.005958   0.000164  -0.000191   0.000126
     6  O   -0.064399   0.014378  -0.014499  -0.001651  -0.000095   0.001090
     7  O    7.804734   0.000107  -0.000138   0.000022   0.000000   0.000001
     8  C    0.000107   4.922410   0.213493  -0.051949   0.010492  -0.000697
     9  C   -0.000138   0.213493   5.340388   0.461532  -0.064422  -0.125922
    10  C    0.000022  -0.051949   0.461532   4.778161   0.469958  -0.154085
    11  N    0.000000   0.010492  -0.064422   0.469958   6.491882   0.577911
    12  C    0.000001  -0.000697  -0.125922  -0.154085   0.577911   4.573544
    13  N    0.000013  -0.027604   0.319418  -0.050776  -0.122449   0.466679
    14  C   -0.000428  -0.000768  -0.000015   0.000000   0.000000   0.000000
    15  C   -0.000003  -0.000020   0.000002   0.000000   0.000000   0.000000
    16  N    0.000000   0.000000   0.000000   0.000000   0.000000   0.000000
    17  H    0.065926   0.002958  -0.000040  -0.000011   0.000000  -0.000001
    18  H    0.001838  -0.076964   0.011072   0.000978  -0.000140   0.000022
    19  H    0.003200  -0.007548   0.011462   0.028707   0.000767  -0.000621
    20  H    0.001795   0.358647  -0.019634   0.004292  -0.000441   0.000274
    21  H   -0.000290   0.419747  -0.041352  -0.001608   0.000034   0.000003
    22  H    0.000000  -0.000598  -0.057844   0.436261  -0.015517   0.005656
    23  H    0.000000  -0.000147   0.005318   0.003429  -0.016712   0.426975
    24  H   -0.000011   0.005057  -0.026242   0.002737   0.006867  -0.024895
    25  H   -0.000191   0.000095  -0.000001   0.000000   0.000000   0.000000
    26  H   -0.000010   0.000132  -0.000003   0.000000   0.000000   0.000000
    27  H    0.000000  -0.000012   0.000001   0.000000   0.000000   0.000000
    28  H    0.000000   0.000004   0.000000   0.000000   0.000000   0.000000
    29  H    0.000000   0.000000   0.000000   0.000000   0.000000   0.000000
    30  H    0.000000   0.000000   0.000000   0.000000   0.000000   0.000000
    31  H    0.000000   0.000000   0.000000   0.000000   0.000000   0.000000
              13         14         15         16         17         18
     1  O    0.000001  -0.083540  -0.004153   0.000554   0.003382   0.017434
     2  C    0.000002   0.313054  -0.055740  -0.001829  -0.019851  -0.001796
     3  N   -0.000006  -0.051483  -0.002207   0.000016   0.335180  -0.037101
     4  C    0.000776   0.002064  -0.000404  -0.000001  -0.049386   0.385468
     5  C    0.001638  -0.000016  -0.000017   0.000000  -0.011753  -0.018283
     6  O   -0.001029   0.000000   0.000000   0.000000   0.002184   0.001514
     7  O    0.000013  -0.000428  -0.000003   0.000000   0.065926   0.001838
     8  C   -0.027604  -0.000768  -0.000020   0.000000   0.002958  -0.076964
     9  C    0.319418  -0.000015   0.000002   0.000000  -0.000040   0.011072
    10  C   -0.050776   0.000000   0.000000   0.000000  -0.000011   0.000978
    11  N   -0.122449   0.000000   0.000000   0.000000   0.000000  -0.000140
    12  C    0.466679   0.000000   0.000000   0.000000  -0.000001   0.000022
    13  N    6.301785   0.000000   0.000000   0.000000   0.000000   0.000043
    14  C    0.000000   4.957805   0.281683  -0.016477  -0.003865   0.001617
    15  C    0.000000   0.281683   4.794338   0.195577  -0.000394   0.000341
    16  N    0.000000  -0.016477   0.195577   5.680681  -0.000035   0.000000
    17  H    0.000000  -0.003865  -0.000394  -0.000035   0.555054   0.005882
    18  H    0.000043   0.001617   0.000341   0.000000   0.005882   0.657842
    19  H   -0.000615   0.000000   0.000000   0.000000  -0.000574   0.000953
    20  H   -0.003915   0.000116   0.000019   0.000000   0.001704   0.009611
    21  H    0.001051   0.001113  -0.000055  -0.000001  -0.000746  -0.005794
    22  H    0.004575   0.000000   0.000000   0.000000   0.000002   0.001420
    23  H   -0.035575   0.000000   0.000000   0.000000   0.000000  -0.000003
    24  H    0.380895   0.000000   0.000000   0.000000   0.000000  -0.000003
    25  H    0.000000   0.388711  -0.031837  -0.000658  -0.001256  -0.000512
    26  H    0.000000   0.389139  -0.041965  -0.000702   0.000233  -0.000058
    27  H    0.000000  -0.045732   0.390124  -0.019542  -0.000192  -0.000140
    28  H    0.000000  -0.032237   0.404544  -0.024362  -0.000023  -0.000019
    29  H    0.000000  -0.000464  -0.023860   0.358302   0.000009   0.000000
    30  H    0.000000   0.000475  -0.029228   0.359146   0.000001  -0.000001
    31  H    0.000000   0.002259  -0.016242   0.377089   0.000000   0.000000
              19         20         21         22         23         24
     1  O   -0.000019  -0.000105   0.013906   0.000040   0.000000   0.000000
     2  C    0.000112   0.001055   0.002478  -0.000002   0.000000   0.000001
     3  N   -0.000127   0.009094  -0.006330  -0.000003   0.000000  -0.000029
     4  C    0.004213  -0.035352  -0.040863   0.000658   0.000002   0.000007
     5  C   -0.031055   0.000880   0.001706  -0.000013   0.000003  -0.000071
     6  O    0.304560  -0.000201  -0.000113   0.000013   0.000017   0.000198
     7  O    0.003200   0.001795  -0.000290   0.000000   0.000000  -0.000011
     8  C   -0.007548   0.358647   0.419747  -0.000598  -0.000147   0.005057
     9  C    0.011462  -0.019634  -0.041352  -0.057844   0.005318  -0.026242
    10  C    0.028707   0.004292  -0.001608   0.436261   0.003429   0.002737
    11  N    0.000767  -0.000441   0.000034  -0.015517  -0.016712   0.006867
    12  C   -0.000621   0.000274   0.000003   0.005656   0.426975  -0.024895
    13  N   -0.000615  -0.003915   0.001051   0.004575  -0.035575   0.380895
    14  C    0.000000   0.000116   0.001113   0.000000   0.000000   0.000000
    15  C    0.000000   0.000019  -0.000055   0.000000   0.000000   0.000000
    16  N    0.000000   0.000000  -0.000001   0.000000   0.000000   0.000000
    17  H   -0.000574   0.001704  -0.000746   0.000002   0.000000   0.000000
    18  H    0.000953   0.009611  -0.005794   0.001420  -0.000003  -0.000003
    19  H    0.455565  -0.000495   0.000567   0.000192   0.000001  -0.000281
    20  H   -0.000495   0.691587  -0.042910  -0.000036  -0.000029   0.002387
    21  H    0.000567  -0.042910   0.651503   0.000079   0.000013  -0.000059
    22  H    0.000192  -0.000036   0.000079   0.590705  -0.000352  -0.000399
    23  H    0.000001  -0.000029   0.000013  -0.000352   0.574776  -0.001033
    24  H   -0.000281   0.002387  -0.000059  -0.000399  -0.001033   0.535898
    25  H    0.000001  -0.000049  -0.000015   0.000000   0.000000   0.000000
    26  H    0.000000  -0.000041  -0.000094   0.000000   0.000000   0.000000
    27  H    0.000000  -0.000005  -0.000006   0.000000   0.000000   0.000000
    28  H    0.000000  -0.000001  -0.000003   0.000000   0.000000   0.000000
    29  H    0.000000   0.000000   0.000000   0.000000   0.000000   0.000000
    30  H    0.000000   0.000000   0.000000   0.000000   0.000000   0.000000
    31  H    0.000000   0.000000   0.000000   0.000000   0.000000   0.000000
              25         26         27         28         29         30
     1  O    0.002950   0.000487   0.036029   0.000804   0.000021   0.000053
     2  C   -0.011523  -0.017917  -0.000893   0.004046   0.000011   0.000407
     3  N    0.002635   0.000611   0.001921   0.000534  -0.000004   0.000004
     4  C    0.000685   0.000204   0.000126   0.000050   0.000000   0.000001
     5  C    0.000041  -0.000008   0.000003   0.000001   0.000000   0.000000
     6  O   -0.000001   0.000000   0.000000   0.000000   0.000000   0.000000
     7  O   -0.000191  -0.000010   0.000000   0.000000   0.000000   0.000000
     8  C    0.000095   0.000132  -0.000012   0.000004   0.000000   0.000000
     9  C   -0.000001  -0.000003   0.000001   0.000000   0.000000   0.000000
    10  C    0.000000   0.000000   0.000000   0.000000   0.000000   0.000000
    11  N    0.000000   0.000000   0.000000   0.000000   0.000000   0.000000
    12  C    0.000000   0.000000   0.000000   0.000000   0.000000   0.000000
    13  N    0.000000   0.000000   0.000000   0.000000   0.000000   0.000000
    14  C    0.388711   0.389139  -0.045732  -0.032237  -0.000464   0.000475
    15  C   -0.031837  -0.041965   0.390124   0.404544  -0.023860  -0.029228
    16  N   -0.000658  -0.000702  -0.019542  -0.024362   0.358302   0.359146
    17  H   -0.001256   0.000233  -0.000192  -0.000023   0.000009   0.000001
    18  H   -0.000512  -0.000058  -0.000140  -0.000019   0.000000  -0.000001
    19  H    0.000001   0.000000   0.000000   0.000000   0.000000   0.000000
    20  H   -0.000049  -0.000041  -0.000005  -0.000001   0.000000   0.000000
    21  H   -0.000015  -0.000094  -0.000006  -0.000003   0.000000   0.000000
    22  H    0.000000   0.000000   0.000000   0.000000   0.000000   0.000000
    23  H    0.000000   0.000000   0.000000   0.000000   0.000000   0.000000
    24  H    0.000000   0.000000   0.000000   0.000000   0.000000   0.000000
    25  H    0.632579  -0.036503   0.006887  -0.005600   0.002938  -0.000561
    26  H   -0.036503   0.647098  -0.002150   0.005669  -0.001176   0.004712
    27  H    0.006887  -0.002150   0.575506  -0.028539   0.004362  -0.003730
    28  H   -0.005600   0.005669  -0.028539   0.596524  -0.005244   0.005588
    29  H    0.002938  -0.001176   0.004362  -0.005244   0.555664  -0.025560
    30  H   -0.000561   0.004712  -0.003730   0.005588  -0.025560   0.548929
    31  H   -0.000104   0.000179  -0.002438  -0.002541  -0.024486  -0.022765
              31
     1  O    0.000012
     2  C   -0.000270
     3  N    0.000002
     4  C    0.000000
     5  C    0.000000
     6  O    0.000000
     7  O    0.000000
     8  C    0.000000
     9  C    0.000000
    10  C    0.000000
    11  N    0.000000
    12  C    0.000000
    13  N    0.000000
    14  C    0.002259
    15  C   -0.016242
    16  N    0.377089
    17  H    0.000000
    18  H    0.000000
    19  H    0.000000
    20  H    0.000000
    21  H    0.000000
    22  H    0.000000
    23  H    0.000000
    24  H    0.000000
    25  H   -0.000104
    26  H    0.000179
    27  H   -0.002438
    28  H   -0.002541
    29  H   -0.024486
    30  H   -0.022765
    31  H    0.539580
 Mulliken charges:
               1
     1  O   -0.420849
     2  C    0.468344
     3  N   -0.330629
     4  C    0.036528
     5  C    0.548117
     6  O   -0.277900
     7  O   -0.372230
     8  C    0.023443
     9  C    0.033875
    10  C    0.078016
    11  N   -0.337940
    12  C    0.254332
    13  N   -0.234909
    14  C   -0.103011
    15  C    0.139497
    16  N    0.092241
    17  H    0.115610
    18  H    0.044778
    19  H    0.231032
    20  H    0.021750
    21  H    0.048038
    22  H    0.035161
    23  H    0.043319
    24  H    0.118975
    25  H    0.051288
    26  H    0.052164
    27  H    0.088417
    28  H    0.080806
    29  H    0.159486
    30  H    0.162528
    31  H    0.149724
 Sum of Mulliken charges =   1.00000
 Mulliken charges with hydrogens summed into heavy atoms:
               1
     1  O   -0.420849
     2  C    0.468344
     3  N   -0.215019
     4  C    0.081306
     5  C    0.548117
     6  O   -0.046868
     7  O   -0.372230
     8  C    0.093231
     9  C    0.033875
    10  C    0.113177
    11  N   -0.337940
    12  C    0.297650
    13  N   -0.115934
    14  C    0.000441
    15  C    0.308720
    16  N    0.563980
 Electronic spatial extent (au):  <R**2>=           5508.5732
 Charge=              1.0000 electrons
 Dipole moment (field-independent basis, Debye):
    X=             19.5513    Y=              4.1364    Z=             -3.8380  Tot=             20.3493
 Quadrupole moment (field-independent basis, Debye-Ang):
   XX=             41.4766   YY=            -94.7909   ZZ=            -96.3645
   XY=             -0.0908   XZ=              2.2372   YZ=            -10.9545
 Traceless Quadrupole moment (field-independent basis, Debye-Ang):
   XX=             91.3696   YY=            -44.8980   ZZ=            -46.4716
   XY=             -0.0908   XZ=              2.2372   YZ=            -10.9545
 Octapole moment (field-independent basis, Debye-Ang**2):
  XXX=            781.4155  YYY=             71.5264  ZZZ=            -41.2891  XYY=             87.3282
  XXY=            119.4588  XXZ=           -108.7496  XZZ=            101.8539  YZZ=             21.7925
  YYZ=              0.6244  XYZ=             13.1228
 Hexadecapole moment (field-independent basis, Debye-Ang**3):
 XXXX=          -1415.6738 YYYY=           -788.7339 ZZZZ=           -662.1910 XXXY=             57.2819
 XXXZ=            486.3301 YYYX=            -81.9312 YYYZ=           -194.3690 ZZZX=            384.2890
 ZZZY=           -172.7681 XXYY=           -943.2807 XXZZ=          -1103.2257 YYZZ=           -248.5310
 XXYZ=           -108.5768 YYXZ=             83.5135 ZZXY=            -28.2601
 N-N= 1.111151194602D+03 E-N=-4.068994280795D+03  KE= 7.934323187562D+02
 Calling FoFJK, ICntrl=      2127 FMM=F ISym2X=0 I1Cent= 0 IOpClX= 0 NMat=1 NMatS=1 NMatT=0.
 -------------------------------------------------------------------
 Center     Atomic                   Forces (Hartrees/Bohr)
 Number     Number              X              Y              Z
 -------------------------------------------------------------------
      1        8           0.000926442   -0.006421888   -0.010840279
      2        6          -0.002872063    0.002610890    0.005574397
      3        7           0.002182632    0.001659436    0.001824909
      4        6          -0.000362333   -0.000569368    0.000283201
      5        6           0.004469427   -0.005295321   -0.007934326
      6        8           0.002954024    0.003106059    0.000927616
      7        8          -0.007358392    0.006128059    0.010950848
      8        6           0.000143524    0.000055699    0.000258582
      9        6          -0.002969988   -0.000229973    0.002889586
     10        6           0.000763441    0.001061574   -0.002473795
     11        7           0.001835552    0.002358483   -0.007203134
     12        6           0.001766504   -0.001075922    0.001568766
     13        7           0.000023062   -0.000752016    0.002524080
     14        6           0.000428516    0.000114659    0.000391617
     15        6           0.000007321    0.000017765    0.000198062
     16        7           0.001510454    0.000458380   -0.000793211
     17        1           0.000088528    0.001951387    0.002429914
     18        1          -0.000509888    0.000546397   -0.002821068
     19        1           0.001036166   -0.002190803   -0.002546667
     20        1           0.000184527   -0.000629028    0.002568743
     21        1          -0.001755900   -0.001908840   -0.001049173
     22        1          -0.001710815    0.000931001   -0.002272469
     23        1           0.002623325   -0.000554227    0.000529132
     24        1           0.000280000   -0.001102875    0.002903049
     25        1          -0.000504775    0.002225206    0.001620842
     26        1          -0.000259484   -0.001992066    0.001875781
     27        1           0.001179478   -0.001920811   -0.001632018
     28        1          -0.000431986    0.002304582   -0.001407394
     29        1          -0.001074350    0.002265536    0.002089188
     30        1          -0.000095722   -0.002724502    0.001738866
     31        1          -0.002497226   -0.000427472   -0.002173648
 -------------------------------------------------------------------
 Cartesian Forces:  Max     0.010950848 RMS     0.002926642

 GradGradGradGradGradGradGradGradGradGradGradGradGradGradGradGradGradGrad
 Berny optimization.
 FormGI is forming the generalized inverse of G from B-inverse, IUseBI=4.
 GSVD:  received Info=                   1 from GESDD.
 Internal  Forces:  Max     0.014530726 RMS     0.002183077
 Search for a local minimum.
 Step number   1 out of a maximum of  167
 All quantities printed in internal units (Hartrees-Bohrs-Radians)
 Mixed Optimization -- RFO/linear search
 Second derivative matrix not updated -- first step.
 ITU=  0
     Eigenvalues ---    0.00089   0.00102   0.00184   0.00202   0.00355
     Eigenvalues ---    0.00391   0.00551   0.00771   0.00836   0.01013
     Eigenvalues ---    0.01988   0.02058   0.02454   0.02625   0.03453
     Eigenvalues ---    0.03776   0.04033   0.04115   0.04193   0.04319
     Eigenvalues ---    0.04440   0.04617   0.04888   0.04999   0.05006
     Eigenvalues ---    0.05198   0.05464   0.06078   0.06270   0.06933
     Eigenvalues ---    0.07630   0.07916   0.10192   0.10319   0.11135
     Eigenvalues ---    0.11396   0.11816   0.12239   0.12537   0.12751
     Eigenvalues ---    0.13171   0.15110   0.15351   0.16740   0.17623
     Eigenvalues ---    0.18291   0.19003   0.19590   0.21320   0.22423
     Eigenvalues ---    0.22593   0.22737   0.23134   0.24441   0.24479
     Eigenvalues ---    0.25544   0.25855   0.30459   0.31458   0.32828
     Eigenvalues ---    0.33014   0.33311   0.33971   0.34106   0.34468
     Eigenvalues ---    0.34526   0.34967   0.35417   0.36992   0.37234
     Eigenvalues ---    0.37411   0.38206   0.39890   0.41196   0.42714
     Eigenvalues ---    0.42730   0.43217   0.44548   0.45337   0.45807
     Eigenvalues ---    0.46897   0.47722   0.50573   0.50642   0.57765
     Eigenvalues ---    0.81858   0.87946
 RFO step:  Lambda=-1.34690109D-03 EMin= 8.93490096D-04
 Linear search not attempted -- first point.
 Iteration  1 RMS(Cart)=  0.01939446 RMS(Int)=  0.00015606
 Iteration  2 RMS(Cart)=  0.00032192 RMS(Int)=  0.00001085
 Iteration  3 RMS(Cart)=  0.00000009 RMS(Int)=  0.00001085
 Variable       Old X    -DE/DX   Delta X   Delta X   Delta X     New X
                                 (Linear)    (Quad)   (Total)
    R1        2.32096  -0.01263   0.00000  -0.01539  -0.01539   2.30557
    R2        2.54053  -0.00598   0.00000  -0.00781  -0.00781   2.53271
    R3        2.92380  -0.00243   0.00000  -0.00724  -0.00724   2.91656
    R4        2.75221  -0.00163   0.00000  -0.00457  -0.00457   2.74764
    R5        1.92320  -0.00307   0.00000  -0.00779  -0.00779   1.91541
    R6        2.91531  -0.00248   0.00000  -0.00805  -0.00805   2.90726
    R7        2.93736  -0.00220   0.00000  -0.00796  -0.00796   2.92940
    R8        2.07251  -0.00291   0.00000  -0.00861  -0.00861   2.06390
    R9        2.51446  -0.00438   0.00000  -0.00491  -0.00491   2.50956
   R10        2.29195  -0.01453   0.00000  -0.01685  -0.01685   2.27511
   R11        1.85026  -0.00351   0.00000  -0.00881  -0.00881   1.84145
   R12        2.83655  -0.00306   0.00000  -0.00840  -0.00840   2.82815
   R13        2.07094  -0.00264   0.00000  -0.00737  -0.00737   2.06357
   R14        2.06954  -0.00279   0.00000  -0.00762  -0.00762   2.06192
   R15        2.61385  -0.00680   0.00000  -0.01276  -0.01275   2.60110
   R16        2.61268  -0.00387   0.00000  -0.00816  -0.00816   2.60452
   R17        2.60129  -0.00339   0.00000  -0.00638  -0.00638   2.59491
   R18        2.04538  -0.00299   0.00000  -0.00792  -0.00792   2.03745
   R19        2.48204  -0.00638   0.00000  -0.01074  -0.01074   2.47130
   R20        2.58459  -0.00479   0.00000  -0.00794  -0.00794   2.57665
   R21        2.04300  -0.00273   0.00000  -0.00704  -0.00704   2.03596
   R22        1.90826  -0.00312   0.00000  -0.00649  -0.00649   1.90177
   R23        2.87671  -0.00238   0.00000  -0.00872  -0.00872   2.86799
   R24        2.06906  -0.00279   0.00000  -0.00754  -0.00754   2.06153
   R25        2.07600  -0.00274   0.00000  -0.00778  -0.00778   2.06823
   R26        2.88590  -0.00236   0.00000  -0.00837  -0.00837   2.87752
   R27        2.06132  -0.00273   0.00000  -0.00774  -0.00774   2.05358
   R28        2.06250  -0.00273   0.00000  -0.00755  -0.00755   2.05495
   R29        1.93866  -0.00326   0.00000  -0.00748  -0.00748   1.93119
   R30        1.93906  -0.00322   0.00000  -0.00745  -0.00745   1.93161
   R31        1.93909  -0.00333   0.00000  -0.00767  -0.00767   1.93142
    A1        2.18083  -0.00051   0.00000  -0.00034  -0.00035   2.18049
    A2        2.08938   0.00009   0.00000   0.00080   0.00080   2.09017
    A3        2.01278   0.00042   0.00000  -0.00052  -0.00052   2.01226
    A4        2.14363   0.00077   0.00000   0.00172   0.00167   2.14530
    A5        2.14233  -0.00096   0.00000  -0.00970  -0.00974   2.13259
    A6        1.97483   0.00019   0.00000   0.00446   0.00440   1.97923
    A7        1.84095   0.00014   0.00000   0.00400   0.00400   1.84495
    A8        1.95677  -0.00024   0.00000  -0.00168  -0.00169   1.95508
    A9        1.89768   0.00009   0.00000  -0.00088  -0.00087   1.89680
   A10        1.97261   0.00017   0.00000   0.00024   0.00024   1.97284
   A11        1.90534  -0.00024   0.00000  -0.00193  -0.00193   1.90341
   A12        1.88887   0.00008   0.00000   0.00019   0.00019   1.88906
   A13        2.04106   0.00044   0.00000  -0.00199  -0.00199   2.03907
   A14        2.11350   0.00057   0.00000   0.00458   0.00458   2.11808
   A15        2.12862  -0.00101   0.00000  -0.00259  -0.00259   2.12603
   A16        1.94001   0.00035   0.00000   0.00620   0.00620   1.94621
   A17        1.97099   0.00053   0.00000   0.00371   0.00371   1.97470
   A18        1.89849  -0.00017   0.00000  -0.00055  -0.00055   1.89794
   A19        1.86161   0.00007   0.00000   0.00180   0.00180   1.86341
   A20        1.92866  -0.00020   0.00000  -0.00121  -0.00121   1.92745
   A21        1.92896  -0.00033   0.00000  -0.00215  -0.00215   1.92681
   A22        1.87128   0.00009   0.00000  -0.00177  -0.00177   1.86951
   A23        2.31121  -0.00027   0.00000  -0.00260  -0.00260   2.30861
   A24        2.15231   0.00010   0.00000   0.00048   0.00047   2.15279
   A25        1.81960   0.00017   0.00000   0.00216   0.00216   1.82176
   A26        1.93905  -0.00076   0.00000  -0.00331  -0.00331   1.93575
   A27        2.23167   0.00026   0.00000   0.00122   0.00122   2.23288
   A28        2.11182   0.00050   0.00000   0.00215   0.00215   2.11397
   A29        1.83683   0.00116   0.00000   0.00388   0.00388   1.84072
   A30        1.95064  -0.00083   0.00000  -0.00304  -0.00305   1.94759
   A31        2.19802   0.00042   0.00000   0.00174   0.00174   2.19976
   A32        2.13449   0.00041   0.00000   0.00132   0.00132   2.13582
   A33        1.87863   0.00027   0.00000   0.00031   0.00031   1.87894
   A34        2.20210  -0.00004   0.00000   0.00000   0.00000   2.20209
   A35        2.20245  -0.00022   0.00000  -0.00032  -0.00032   2.20212
   A36        1.87089   0.00158   0.00000   0.00890   0.00891   1.87979
   A37        1.94857  -0.00068   0.00000  -0.00430  -0.00431   1.94427
   A38        1.87545  -0.00056   0.00000  -0.00268  -0.00269   1.87276
   A39        1.95591  -0.00031   0.00000  -0.00153  -0.00153   1.95438
   A40        1.93063  -0.00039   0.00000  -0.00036  -0.00036   1.93028
   A41        1.88125   0.00032   0.00000  -0.00016  -0.00017   1.88108
   A42        1.94632  -0.00029   0.00000  -0.00174  -0.00174   1.94458
   A43        1.91953   0.00046   0.00000   0.00654   0.00654   1.92608
   A44        1.96498  -0.00002   0.00000  -0.00066  -0.00066   1.96432
   A45        1.87641  -0.00030   0.00000  -0.00324  -0.00324   1.87317
   A46        1.85273   0.00020   0.00000   0.00176   0.00175   1.85449
   A47        1.90049  -0.00008   0.00000  -0.00306  -0.00306   1.89743
   A48        1.95045  -0.00002   0.00000  -0.00007  -0.00007   1.95038
   A49        1.93932  -0.00025   0.00000  -0.00168  -0.00168   1.93764
   A50        1.94163  -0.00027   0.00000  -0.00189  -0.00189   1.93974
   A51        1.87408   0.00017   0.00000   0.00132   0.00132   1.87540
   A52        1.87790   0.00015   0.00000   0.00101   0.00101   1.87891
   A53        1.87700   0.00024   0.00000   0.00156   0.00156   1.87855
    D1       -0.09160   0.00008   0.00000  -0.00676  -0.00672  -0.09832
    D2       -2.99182   0.00007   0.00000   0.01141   0.01137  -2.98045
    D3        3.07166   0.00010   0.00000  -0.00336  -0.00332   3.06834
    D4        0.17144   0.00009   0.00000   0.01481   0.01477   0.18621
    D5        0.47862  -0.00010   0.00000  -0.02403  -0.02403   0.45459
    D6        2.62684   0.00015   0.00000  -0.02263  -0.02264   2.60420
    D7       -1.59704  -0.00019   0.00000  -0.02692  -0.02691  -1.62395
    D8       -2.68342  -0.00012   0.00000  -0.02725  -0.02725  -2.71067
    D9       -0.53520   0.00012   0.00000  -0.02586  -0.02586  -0.56107
   D10        1.52410  -0.00021   0.00000  -0.03014  -0.03014   1.49397
   D11       -2.77827   0.00034   0.00000   0.04106   0.04109  -2.73718
   D12        1.35109   0.00018   0.00000   0.03910   0.03913   1.39022
   D13       -0.73664   0.00017   0.00000   0.04048   0.04051  -0.69613
   D14        0.14289   0.00019   0.00000   0.02269   0.02267   0.16556
   D15       -2.01093   0.00003   0.00000   0.02073   0.02071  -1.99023
   D16        2.18452   0.00002   0.00000   0.02211   0.02209   2.20661
   D17        3.05758  -0.00003   0.00000  -0.01218  -0.01218   3.04540
   D18       -0.08750   0.00002   0.00000  -0.01238  -0.01238  -0.09988
   D19       -1.08187  -0.00012   0.00000  -0.01140  -0.01139  -1.09327
   D20        2.05623  -0.00008   0.00000  -0.01159  -0.01159   2.04464
   D21        1.02115  -0.00008   0.00000  -0.01234  -0.01234   1.00881
   D22       -2.12394  -0.00003   0.00000  -0.01254  -0.01253  -2.13647
   D23       -3.03964   0.00010   0.00000   0.00973   0.00972  -3.02991
   D24        1.09576   0.00011   0.00000   0.00914   0.00914   1.10490
   D25       -0.91739   0.00005   0.00000   0.01055   0.01055  -0.90684
   D26        1.16562  -0.00003   0.00000   0.00559   0.00559   1.17121
   D27       -0.98217  -0.00002   0.00000   0.00501   0.00501  -0.97716
   D28       -2.99532  -0.00008   0.00000   0.00641   0.00641  -2.98891
   D29       -0.94676   0.00011   0.00000   0.00773   0.00773  -0.93903
   D30       -3.09455   0.00012   0.00000   0.00715   0.00715  -3.08740
   D31        1.17548   0.00006   0.00000   0.00855   0.00856   1.18404
   D32        0.05612   0.00003   0.00000  -0.00076  -0.00076   0.05536
   D33       -3.08195  -0.00003   0.00000  -0.00058  -0.00058  -3.08253
   D34        0.84865   0.00005   0.00000   0.00210   0.00211   0.85076
   D35       -2.30688   0.00008   0.00000   0.00675   0.00675  -2.30013
   D36        2.97959   0.00007   0.00000   0.00313   0.00313   2.98272
   D37       -0.17594   0.00009   0.00000   0.00778   0.00777  -0.16817
   D38       -1.23511  -0.00015   0.00000  -0.00117  -0.00117  -1.23628
   D39        1.89254  -0.00013   0.00000   0.00348   0.00348   1.89602
   D40        3.12912   0.00008   0.00000   0.00483   0.00482   3.13394
   D41        0.02640   0.00000   0.00000   0.00276   0.00276   0.02915
   D42       -0.00045   0.00006   0.00000   0.00082   0.00082   0.00037
   D43       -3.10317  -0.00002   0.00000  -0.00125  -0.00125  -3.10442
   D44       -3.12655  -0.00009   0.00000  -0.00476  -0.00477  -3.13132
   D45        0.01928  -0.00002   0.00000  -0.00201  -0.00202   0.01726
   D46        0.00443  -0.00007   0.00000  -0.00125  -0.00125   0.00318
   D47       -3.13293   0.00000   0.00000   0.00150   0.00150  -3.13143
   D48       -0.00382  -0.00003   0.00000  -0.00006  -0.00006  -0.00387
   D49        3.10198   0.00005   0.00000   0.00183   0.00183   3.10381
   D50        0.00676  -0.00002   0.00000  -0.00078  -0.00078   0.00597
   D51        3.13964   0.00002   0.00000   0.00141   0.00141   3.14105
   D52       -0.00728   0.00007   0.00000   0.00134   0.00134  -0.00594
   D53        3.13008   0.00000   0.00000  -0.00141  -0.00141   3.12867
   D54       -3.14052   0.00002   0.00000  -0.00077  -0.00077  -3.14129
   D55       -0.00317  -0.00005   0.00000  -0.00352  -0.00352  -0.00668
   D56       -2.88614   0.00006   0.00000  -0.01335  -0.01335  -2.89950
   D57       -0.80616  -0.00019   0.00000  -0.01423  -0.01423  -0.82039
   D58        1.31659   0.00003   0.00000  -0.01394  -0.01394   1.30265
   D59        1.25336   0.00004   0.00000  -0.01308  -0.01308   1.24028
   D60       -2.94983  -0.00022   0.00000  -0.01396  -0.01396  -2.96380
   D61       -0.82709   0.00000   0.00000  -0.01367  -0.01367  -0.84075
   D62       -0.84646   0.00011   0.00000  -0.01160  -0.01160  -0.85805
   D63        1.23353  -0.00015   0.00000  -0.01248  -0.01248   1.22106
   D64       -2.92691   0.00007   0.00000  -0.01218  -0.01218  -2.93909
   D65       -1.05627   0.00007   0.00000   0.00083   0.00083  -1.05544
   D66        1.03671   0.00011   0.00000   0.00132   0.00132   1.03803
   D67        3.12748   0.00007   0.00000   0.00090   0.00090   3.12838
   D68        3.12148  -0.00013   0.00000  -0.00409  -0.00409   3.11739
   D69       -1.06873  -0.00009   0.00000  -0.00360  -0.00360  -1.07233
   D70        1.02204  -0.00012   0.00000  -0.00402  -0.00402   1.01802
   D71        1.08970   0.00000   0.00000   0.00013   0.00013   1.08983
   D72       -3.10050   0.00004   0.00000   0.00061   0.00061  -3.09989
   D73       -1.00973   0.00001   0.00000   0.00019   0.00019  -1.00954
         Item               Value     Threshold  Converged?
 Maximum Force            0.014531     0.000450     NO 
 RMS     Force            0.002183     0.000300     NO 
 Maximum Displacement     0.084105     0.001800     NO 
 RMS     Displacement     0.019323     0.001200     NO 
 Predicted change in Energy=-6.848667D-04
 GradGradGradGradGradGradGradGradGradGradGradGradGradGradGradGradGradGrad

                          Input orientation:                          
 ---------------------------------------------------------------------
 Center     Atomic      Atomic             Coordinates (Angstroms)
 Number     Number       Type             X           Y           Z
 ---------------------------------------------------------------------
      1          8           0        1.426315    0.664562    1.089092
      2          6           0        1.531817    0.093615    0.016048
      3          7           0        0.528286   -0.514304   -0.631747
      4          6           0       -0.801452   -0.666514   -0.063675
      5          6           0       -1.432584   -1.863458   -0.795690
      6          8           0       -2.621169   -2.270373   -0.365260
      7          8           0       -0.873449   -2.400049   -1.717045
      8          6           0       -1.639196    0.631724   -0.189332
      9          6           0       -2.954583    0.553916    0.520242
     10          6           0       -3.298824    0.151860    1.790848
     11          7           0       -4.652176    0.268377    1.991965
     12          6           0       -5.132389    0.737505    0.869673
     13          7           0       -4.149924    0.924617   -0.057092
     14          6           0        2.894877    0.068274   -0.707444
     15          6           0        3.978855    0.210332    0.345244
     16          7           0        5.326476    0.535508   -0.284721
     17          1           0        0.685104   -1.091847   -1.449806
     18          1           0       -0.703173   -0.908529    0.996797
     19          1           0       -2.956954   -1.699509    0.349525
     20          1           0       -1.789708    0.851084   -1.248425
     21          1           0       -1.032004    1.439240    0.222713
     22          1           0       -2.645162   -0.184530    2.579533
     23          1           0       -6.167586    0.954670    0.664822
     24          1           0       -4.275759    1.265604   -0.995538
     25          1           0        3.015460   -0.841354   -1.297468
     26          1           0        2.913514    0.918430   -1.396448
     27          1           0        3.737727    1.019540    1.029333
     28          1           0        4.123689   -0.701190    0.920272
     29          1           0        5.630835   -0.198222   -0.927656
     30          1           0        5.282389    1.408499   -0.814591
     31          1           0        6.050586    0.642523    0.428602
 ---------------------------------------------------------------------
                    Distance matrix (angstroms):
                    1          2          3          4          5
     1  O    0.000000
     2  C    1.220055   0.000000
     3  N    2.271006   1.340253   0.000000
     4  C    2.839644   2.455259   1.453988   0.000000
     5  C    4.256359   3.643724   2.385814   1.538457   0.000000
     6  O    5.206833   4.793864   3.615780   2.444317   1.328000
     7  O    4.749227   3.873923   2.588198   2.396656   1.203934
     8  C    3.321566   3.222897   2.491403   1.550170   2.576100
     9  C    4.419061   4.538047   3.820805   2.542907   3.145131
    10  C    4.804401   5.146689   4.578157   3.216498   3.772869
    11  N    6.157938   6.494348   5.859492   4.464051   4.762512
    12  C    6.562779   6.749438   5.988701   4.647518   4.819440
    13  N    5.698755   5.742655   4.928121   3.707290   3.962679
    14  C    2.395782   1.543378   2.438417   3.823245   4.739862
    15  C    2.697239   2.471839   3.658693   4.877234   5.906438
    16  N    4.137061   3.832124   4.923937   6.248618   7.190343
    17  H    3.174960   2.066633   1.013592   2.076564   2.346882
    18  H    2.649122   2.638435   2.079438   1.092168   2.157995
    19  H    5.034763   4.845159   3.809791   2.425696   1.913662
    20  H    3.980148   3.633893   2.760014   2.164113   2.775112
    21  H    2.719204   2.902860   2.642147   2.137609   3.479285
    22  H    4.418064   4.908765   4.526792   3.258546   3.959959
    23  H    7.611274   7.774518   6.976653   5.652816   5.700454
    24  H    6.100868   6.010391   5.136075   4.083168   4.232565
    25  H    3.238647   2.191047   2.595414   4.015175   4.591467
    26  H    2.907596   2.141156   2.885620   4.253153   5.195035
    27  H    2.339274   2.598100   3.925859   4.964030   6.194716
    28  H    3.028136   2.857821   3.920537   5.022586   5.930225
    29  H    4.742326   4.216360   5.120885   6.506925   7.258258
    30  H    4.364259   4.060256   5.131481   6.471683   7.469734
    31  H    4.671254   4.570643   5.740939   6.993307   7.986029
                    6          7          8          9         10
     6  O    0.000000
     7  O    2.213293   0.000000
     8  C    3.068777   3.480219   0.000000
     9  C    2.978571   4.249997   1.496593   0.000000
    10  C    3.312889   4.969910   2.627879   1.376442   0.000000
    11  N    4.015813   5.929253   3.737396   2.264802   1.373166
    12  C    4.108360   5.888458   3.651723   2.213289   2.133894
    13  N    3.555281   4.954204   2.531211   1.378251   2.176329
    14  C    6.001093   4.616513   4.598231   5.996602   6.679100
    15  C    7.086539   5.883195   5.659138   6.944151   7.420095
[...]
 435,-0.00001646,0.00000298,0.00000373,-0.00001152,-0.00002241,0.000006
 28,0.00000216,-0.00001098,-0.00000366,0.00000639,-0.00000733,-0.000000
 26,0.00001855,0.01053716,-0.06503592,-0.06476873,0.00532235,-0.0212151
 7,-0.00680975,0.00056709,0.00069390,0.00080281,-0.00019067,-0.00006426
 ,0.00061622,0.00006273,-0.00004893,0.00003430,0.00001199,0.00000393,0.
 00000240,0.00000783,0.00000868,0.00000566,-0.00000648,-0.00000516,-0.0
 0002136,-0.00000147,-0.00000400,-0.00000101,-0.00000127,-0.00000267,0.
 00000069,0.00000530,-0.00000116,0.00000412,-0.01225729,0.07310156,0.06
 996738,-0.00442303,0.00332894,0.00104027,0.00550262,-0.01888634,0.0244
 8242,-0.00116707,0.00160227,-0.00197871,0.00007614,0.00074148,-0.00019
 058,0.00014322,0.00014771,0.00005014,-0.00001660,-0.00002398,0.0000002
 2,-0.00005721,-0.00006587,-0.00011939,-0.00021243,-0.00015291,0.000088
 94,-0.00000720,0.00007541,-0.00004099,0.00001652,-0.00000365,0.0000032
 1,-0.00003254,0.00000800,-0.00001233,-0.00002828,-0.00000393,0.0000134
 8,-0.00002108,0.00000317,0.00002119,-0.04693167,-0.00053313,-0.0049851
 3,-0.00275813,0.01461100,-0.02202869,0.00188084,0.00097298,-0.00002160
 ,-0.00030451,-0.00061523,0.00032553,0.00005429,0.00003586,0.00004870,0
 .00001639,0.00000433,0.00000420,-0.00005208,-0.00001704,-0.00005394,0.
 00005334,-0.00010669,0.00005802,0.00000209,0.00000879,-0.00001155,-0.0
 0000209,-0.00000259,0.00000095,0.00000127,-0.00000889,0.00001182,-0.00
 029579,0.00405911,-0.00581362,0.05134284,0.00082602,-0.00070017,-0.000
 59076,0.00084789,0.00069897,-0.00180176,-0.00085852,0.00071189,-0.0001
 8754,-0.00003139,-0.00002967,-0.00019141,-0.00004187,0.00011460,0.0002
 1954,0.00000314,-0.00003908,-0.00006136,0.00002139,-0.00005239,-0.0001
 6457,-0.00004006,-0.00001592,0.00004030,0.00000932,0.00000993,-0.00001
 435,0.00000463,-0.00000407,-0.00001044,-0.00002818,0.00000447,0.000000
 22,-0.00001060,-0.00000222,0.00001018,-0.00000284,-0.00000890,0.000008
 59,0.00237387,-0.13284867,0.12111891,-0.00042077,0.00819420,-0.0120368
 0,0.00087174,0.00045378,-0.00017563,-0.00034779,-0.00045190,0.00037857
 ,0.00003098,-0.00002620,-0.00003958,0.00001849,0.00001127,0.00000518,0
 .00001029,0.00001139,-0.00000103,0.00000273,-0.00002443,-0.00003204,0.
 00000197,0.00000192,-0.00000370,-0.00000044,0.00000041,0.00000106,0.00
 000810,0.00000206,0.00000724,0.00040392,-0.01672339,0.02536268,-0.0025
 5657,0.13975485,0.00301696,-0.00118815,0.00004877,-0.00048474,0.007213
 01,-0.01328789,-0.00108000,-0.00085287,0.00126629,0.00053880,-0.000589
 10,0.00020667,-0.00001571,0.00003879,0.00009736,-0.00005034,-0.0000280
 7,-0.00002452,-0.00001588,-0.00002260,-0.00002754,0.00008826,0.0000334
 3,-0.00005781,0.00001182,-0.00001282,0.00001742,-0.00000544,0.00000572
 ,-0.00001286,-0.00000719,0.00000176,0.00001006,0.00000185,-0.00000233,
 0.00000006,0.00000949,-0.00000744,0.00000349,-0.00938037,0.12114788,-0
 .21921973,-0.00017201,0.01154752,-0.01818839,0.00041596,-0.00004606,0.
 00146610,-0.00000405,0.00042749,0.00000102,-0.00021780,-0.00006832,0.0
 0001031,0.00001810,-0.00000358,-0.00001044,0.00002048,0.00002050,0.000
 02394,-0.00002566,0.00005882,-0.00004075,-0.00000292,-0.00000400,-0.00
 000139,0.00000043,0.00000003,0.00000008,0.00000489,0.00000327,0.000000
 58,0.00025614,-0.00485793,0.00851334,0.01033409,-0.13084923,0.23967854
 ,-0.00170356,0.00137330,0.00151526,0.00103168,-0.00155826,-0.00267260,
 0.00012479,0.00036495,0.00088369,-0.00007644,0.00001408,0.00003327,0.0
 0001858,-0.00009233,-0.00009283,-0.00002035,0.00002366,0.00003415,-0.0
 0002881,0.00008660,0.00008316,-0.00003155,-0.00003550,-0.00000982,-0.0
 0001269,0.00001656,0.00000799,-0.00000533,0.00000999,0.00000888,0.0000
 2580,0.00000097,0.00000016,0.00000584,-0.00000115,-0.00000944,-0.00000
 319,0.00001095,-0.00000360,0.00587100,-0.02234556,-0.00546949,-0.05417
 255,0.04057788,0.00984920,-0.01667861,0.03279811,0.01225773,0.00030608
 ,-0.00006357,0.00002491,-0.00002555,-0.00002264,-0.00001503,-0.0000020
 4,-0.00002439,-0.00001149,0.00000011,0.00000295,0.00000016,-0.00002107
 ,0.00001622,0.00000615,-0.00000347,-0.00000863,0.00000332,-0.00000032,
 -0.00000199,-0.00000085,-0.00000763,-0.00000344,-0.00000531,-0.0039579
 6,-0.00107161,-0.00289402,0.00102052,0.00064198,0.00026409,0.07015407,
 0.00137923,0.00135810,0.00120267,0.00061143,-0.00075233,-0.00251827,0.
 00012696,0.00018630,0.00062263,-0.00010080,0.00000850,0.00002272,-0.00
 001776,-0.00005518,-0.00001360,0.00001547,0.00001275,0.00000389,0.0000
 1095,0.00004661,0.00002644,0.00000422,0.00000753,-0.00000406,-0.000007
 60,-0.00000415,0.00000213,-0.00000453,0.00000109,-0.00000115,0.0000083
 5,-0.00000351,0.00000280,0.00000715,0.00000125,-0.00000402,0.00000259,
 -0.00000339,-0.00000105,-0.00026061,-0.00853180,-0.00247297,0.05126021
 ,-0.30426308,-0.06847107,-0.00240289,0.00624428,0.00245116,0.00009271,
 -0.00000535,0.00004182,-0.00001864,-0.00002381,-0.00001301,-0.00000660
 ,-0.00000027,0.00000140,0.00000487,0.00000452,0.00000573,-0.00001075,0
 .00002460,-0.00001120,-0.00000179,-0.00000155,0.00000330,0.00000064,0.
 00000073,0.00000018,-0.00000052,0.00000428,-0.00000124,-0.00122700,0.0
 0114396,-0.00104747,-0.00012647,0.00099820,0.00000590,-0.05200142,0.31
 749834,0.00074263,0.00037075,-0.00017280,0.00035338,-0.00019342,0.0003
 2073,-0.00002343,0.00004042,-0.00041403,0.00000522,0.00009205,0.000023
 26,0.00003076,-0.00001397,-0.00002884,-0.00000061,0.00000481,0.0000063
 9,-0.00002556,0.00000503,0.00000508,-0.00001319,-0.00000851,0.00001726
 ,-0.00000126,0.00000480,0.00000325,0.00000511,-0.00000519,0.00000620,0
 .00000395,-0.00000040,-0.00001128,-0.00000270,-0.00000039,0.00000362,-
 0.00000483,0.00000769,-0.00000947,0.00206382,-0.02139871,-0.00602003,0
 .01089201,-0.06353417,-0.06776085,0.00707582,-0.01336794,-0.00599608,0
 .00005767,-0.00008433,0.00006299,-0.00000731,0.00001153,0.00000243,-0.
 00000220,0.00000125,0.00000414,-0.00000982,-0.00000923,-0.00001026,-0.
 00000267,-0.00000189,0.00002549,0.00000126,0.00000547,0.00000081,-0.00
 000021,0.00000023,-0.00000009,-0.00000336,-0.00000225,0.00000368,-0.00
 285212,-0.00098670,-0.00184620,0.00102362,0.00017527,0.00065548,-0.015
 19985,0.07463669,0.07269002,-0.00077689,-0.00024242,0.00232908,0.00100
 111,-0.00065658,-0.00349947,-0.00001202,0.00028382,0.00088428,-0.00004
 780,0.00001838,-0.00001146,-0.00000660,-0.00004449,-0.00005682,-0.0000
 0361,0.00000316,0.00002116,0.00000053,0.00003327,0.00006528,-0.0000207
 3,-0.00000592,0.00000098,-0.00000594,0.00000416,-0.00000295,-0.0000137
 8,0.00000567,-0.00000835,0.00001048,-0.00000617,0.00001159,0.00000904,
 0.00000109,-0.00000722,0.00000510,-0.00000670,0.00000959,-0.00047356,0
 .01372867,-0.01829275,-0.04770394,0.01512979,-0.02161049,-0.00860360,-
 0.02147677,0.03363981,0.00019500,0.00018736,-0.00009685,-0.00005557,-0
 .00001128,0.00001365,-0.00000936,0.00000064,-0.00000582,0.00001930,0.0
 0000354,0.00001263,-0.00001257,0.00002747,-0.00002394,-0.00000474,-0.0
 0000248,0.00000478,0.00000043,-0.00000018,0.00000067,0.00000036,0.0000
 0385,-0.00000520,0.00097716,-0.00027454,0.00063431,-0.00344315,-0.0023
 9850,-0.00226466,0.00133041,0.00303255,-0.00565746,0.06084586,-0.00091
 796,-0.00021457,-0.00071636,0.00001335,0.00100891,0.00104675,-0.000011
 88,-0.00036135,-0.00035102,0.00006244,-0.00003484,0.00003087,0.0000048
 7,0.00003339,0.00000324,-0.00000563,-0.00001449,-0.00000272,-0.0000084
 7,-0.00004339,-0.00000537,0.00000494,0.00001018,0.00000446,0.00000410,
 -0.00000352,-0.00000264,-0.00000020,-0.00000623,-0.00000198,-0.0000036
 7,-0.00000342,-0.00000188,-0.00000108,0.00000105,0.00000227,0.00000004
 ,-0.00000158,-0.00000005,-0.00037480,0.00838309,-0.01147297,0.00797051
 ,-0.14474439,0.13251283,0.00075117,0.00195728,-0.00436626,-0.00001185,
 0.00005158,-0.00006590,-0.00002836,0.00002138,0.00001392,-0.00000278,0
 .00001231,0.00000247,0.00000061,-0.00000666,-0.00000224,0.00000199,-0.
 00001107,0.00000678,0.00000102,0.00000651,0.00000106,0.00000004,0.0000
 0087,0.00000051,0.00000064,0.00000105,0.00000104,0.00080619,0.00087958
 ,0.00001427,-0.00224760,-0.00002257,-0.00184304,0.00127875,-0.01557251
 ,0.02463358,-0.00725281,0.14742945,0.00139205,0.00008867,0.00085043,0.
 00059007,-0.00033935,-0.00103157,0.00006859,-0.00006120,0.00016900,-0.
 00001586,-0.00005550,0.00006222,-0.00003300,-0.00000827,0.00000858,0.0
 0002112,0.00000496,-0.00001054,0.00002120,-0.00000827,0.00000436,0.000
 00171,0.00000598,-0.00000532,-0.00000290,-0.00000977,0.00000331,0.0000
 0083,-0.00000573,0.00000854,0.00000648,-0.00000198,-0.00000500,0.00000
 395,0.00000161,-0.00000220,-0.00000467,0.00000388,-0.00000918,-0.00387
 343,0.01086161,-0.01663491,-0.01278557,0.12909530,-0.23349816,0.003258
 77,0.00589819,-0.01008791,0.00001642,0.00012476,-0.00007268,-0.0000152
 1,0.00000122,0.00001734,-0.00000575,0.00000598,0.00000703,0.00000450,0
 .00000183,0.00000066,-0.00000901,0.00000692,-0.00000214,0.00000103,0.0
 0000214,0.00000325,0.00000006,0.00000085,-0.00000016,-0.00000145,0.000
 00131,0.,0.00073736,-0.00005336,0.00071782,-0.00230061,-0.00189001,-0.
 00105322,-0.00038661,-0.00487345,0.00857719,0.01184523,-0.13856243,0.2
 5165908,0.00002308,-0.00062015,-0.00105083,-0.00149466,-0.00006723,0.0
 0188158,0.00069194,-0.00000133,-0.00021407,-0.00022262,0.00003369,0.00
 015706,-0.00021260,-0.00013734,-0.00000525,0.00020546,0.00008158,-0.00
 003971,0.00015040,0.00005849,-0.00000841,0.00003155,0.00005131,-0.0000
 1226,-0.00002583,-0.00004025,0.00000597,-0.00001526,-0.00000983,0.0000
 2301,0.00005770,-0.00001207,-0.00001058,0.00002037,0.00000562,-0.00000
 847,0.00000206,0.00000301,-0.00002977,0.00241053,0.00154706,-0.0005424
 3,-0.00768252,0.03119567,0.00800626,-0.08087579,0.08939416,0.02179368,
 -0.00013402,-0.00005362,-0.00015401,0.00003086,0.00000317,-0.00001826,
 -0.00005029,0.00001882,0.00003422,-0.00000101,-0.00000183,0.00000246,-
 0.00000547,0.00002289,-0.00000067,-0.00000347,-0.00000160,0.00001550,0
 .00000081,0.00000299,0.00000058,-0.00001730,0.00001124,-0.00000705,-0.
 00043010,-0.00126434,-0.00056321,-0.00013115,-0.00006151,-0.00008600,-
 0.00530606,-0.00202712,0.00223440,0.00155172,-0.00045277,-0.00004818,0
 .08262591,-0.00046939,-0.00029585,-0.00012686,0.00034010,-0.00000319,0
 .00002851,-0.00049349,-0.00015870,-0.00008117,0.00010232,-0.00001756,-
 0.00012255,0.00002100,0.00014320,0.00010880,-0.00004443,-0.00006099,-0
 .00002219,-0.00001010,-0.00011184,-0.00006466,-0.00001733,-0.00000546,
 0.00001387,0.00001078,0.00000941,-0.00001096,0.00000366,-0.00000780,-0
 .00001242,-0.00002800,-0.00000246,0.00000428,-0.00000704,0.00000090,0.
 00000463,0.00000011,-0.00000987,0.00001360,-0.00037316,0.00199718,0.00
 171486,0.00410764,0.00509410,-0.00156998,0.07988868,-0.35597009,-0.080
 64919,-0.00001611,0.00010360,0.00004834,-0.00000860,0.00001586,0.00001
 794,0.00001262,0.00002223,-0.00000059,0.00000396,0.00000049,0.00000051
 ,0.00000905,-0.00002012,-0.00000277,0.00000312,0.00000811,-0.00000386,
 0.00000010,0.00000118,0.00000086,0.00000880,0.00000353,0.00000415,0.00
 028454,-0.00055636,-0.00009081,0.00012475,-0.00028500,-0.00000261,-0.0
 0150009,0.00117678,0.00037318,-0.00055115,0.00066909,0.00016543,-0.089
 62401,0.37728065,0.00018663,0.00002514,-0.00036218,-0.00036134,-0.0001
 3597,-0.00008455,-0.00008438,-0.00000911,0.00002653,-0.00001699,-0.000
 02119,-0.00000899,-0.00006158,0.00002464,0.00008788,0.00004268,0.00000
 296,-0.00003655,0.00003855,-0.00002211,-0.00006673,0.00000134,0.000002
 67,0.00000149,-0.00000110,-0.00000765,0.00000381,0.00000418,-0.0000056
 4,0.00000797,0.00000314,0.00000137,-0.00001025,-0.00000073,-0.00000074
 ,0.00000459,-0.00000387,0.00000403,-0.00001328,-0.00054969,0.00137382,
 0.00077648,0.00454504,-0.01337852,-0.00387800,0.01987705,-0.08484668,-
 0.08481033,-0.00003712,0.00000406,0.00003355,0.00000799,-0.00000467,-0
 .00000506,-0.00000142,0.00000591,0.00001271,-0.00000313,0.00000312,-0.
 00000253,0.00000095,-0.00000021,0.00000064,0.00000061,0.00000053,0.000
 00179,-0.00000018,0.00000098,0.00000027,-0.00000167,0.00000196,0.00000
 395,0.00024069,-0.00034202,0.00048516,-0.00018165,0.00021889,-0.000072
 68,0.00239473,0.00110474,-0.00057381,-0.00019965,-0.00026067,-0.000583
 89,-0.02532718,0.08908733,0.08302359,-0.00010593,-0.00020455,-0.001118
 45,-0.00143865,0.00090859,0.00138343,0.00055683,0.00000461,-0.00024457
 ,-0.00018257,-0.00000258,0.00014853,-0.00017016,-0.00013435,-0.0000124
 5,0.00016482,0.00007504,-0.00002956,0.00011074,0.00007124,-0.00000566,
 0.00003457,0.00003679,-0.00001271,-0.00002284,-0.00003166,0.00001023,-
 0.00000876,-0.00000616,0.00002492,0.00005390,-0.00000749,-0.00001452,0
 .00001466,0.00000360,-0.00000602,0.00000010,0.00000900,-0.00003117,0.0
 0266423,-0.00082975,0.00077168,0.00167339,-0.02056919,0.02722699,-0.05
 674009,-0.00920793,0.01003226,-0.00008981,-0.00014156,-0.00007769,0.00
 003135,-0.00000098,-0.00002372,-0.00003897,0.00000650,0.00002644,-0.00
 001080,-0.00000427,-0.00000388,-0.00000588,0.00002005,0.00000969,-0.00
 000255,-0.00000312,0.00001227,0.00000045,0.00000204,0.00000002,-0.0000
 1828,0.00000657,-0.00000500,-0.00010944,0.00003885,-0.00014817,-0.0006
 2811,0.00048102,-0.00127854,0.00122331,0.00057432,-0.00023464,-0.00621
 576,0.00112905,0.00129194,-0.00035392,0.00522838,-0.00939384,0.0577195
 5,0.00048842,-0.00022640,-0.00031601,-0.00088578,0.00011632,0.00036927
 ,0.00048618,0.00005944,0.00002131,-0.00015621,0.00002152,0.00009702,-0
 .00013087,-0.00007167,0.00001775,0.00013157,0.00004006,-0.00003057,0.0
 0009855,0.00002270,-0.00001592,0.00001973,0.00003946,-0.00001431,-0.00
 001645,-0.00002869,-0.00000132,-0.00001332,-0.00000922,0.00000846,0.00
 003042,-0.00001418,0.00000133,0.00001920,0.00000651,-0.00001018,0.0000
 0369,-0.00000860,-0.00001120,0.00058108,-0.00027997,-0.00085331,-0.003
 17365,0.00261683,-0.00146610,-0.00353025,-0.17655471,0.15945801,-0.000
 06347,-0.00002347,-0.00007441,0.00001157,-0.00000660,-0.00001200,-0.00
 003375,0.00002452,0.00002455,0.00000784,0.00000464,0.00001034,-0.00001
 020,0.00002282,-0.00001252,-0.00000184,0.00000146,0.00001081,0.0000015
 2,0.00000376,0.00000091,-0.00000611,0.00001555,-0.00000513,-0.00013342
 ,-0.00034654,0.00017883,-0.00022733,0.00019828,0.00008993,0.00049862,0
 .00042878,-0.00093825,0.00092834,0.00081698,-0.00059174,-0.00166558,-0
 .01889759,0.03142336,0.00479497,0.18171672,-0.00016211,-0.00016829,-0.
 00027185,0.00000489,0.00000988,-0.00019463,-0.00043509,-0.00005175,-0.
 00003386,0.00006741,-0.00004008,-0.00009599,0.00001059,0.00008415,0.00
 009923,-0.00003383,-0.00003176,-0.00002402,-0.00001818,-0.00004483,-0.
 00007434,-0.00000513,-0.00001264,0.00002289,0.00000852,0.00000620,-0.0
 0000099,0.00001039,-0.00000322,-0.00000229,-0.00001814,0.00000615,-0.0
 0001047,-0.00001184,-0.00000342,0.00001219,-0.00000376,0.00000321,-0.0
 0000378,-0.00038080,-0.00068036,0.00276567,0.00427723,0.00617574,-0.01
 081784,0.00144035,0.16201900,-0.28848546,0.00000095,-0.00000577,0.0001
 0218,0.00000482,0.00000599,0.00000181,0.00001612,0.00000118,0.00000053
 ,-0.00000881,0.00000020,-0.00000800,0.00000724,-0.00001210,0.00000491,
 0.00000187,0.00000352,-0.00000398,-0.00000065,-0.00000003,0.00000053,0
 .00000328,-0.00000304,0.00000953,-0.00004906,-0.00004504,-0.00003243,0
 .00022770,0.00070844,-0.00006064,-0.00051444,-0.00059437,-0.00002324,0
 .00189257,-0.00118641,0.00067065,-0.00085087,-0.00679131,0.01186306,-0
 .00742910,-0.17433015,0.30355775,0.00086252,0.00048490,0.00081980,-0.0
 0021477,-0.00139279,-0.00326471,-0.00047558,0.00017027,0.00074365,-0.0
 0004724,-0.00004477,-0.00015873,-0.00013193,-0.00000527,0.00008427,0.0
 0004682,-0.00000076,-0.00002798,0.00005845,0.00001243,-0.00002208,-0.0
 0001701,-0.00001569,0.00000578,-0.00001340,0.00000373,-0.00000110,-0.0
 0000828,0.00000315,0.00000355,0.00002431,-0.00000197,-0.00000255,0.000
 00268,-0.00000024,-0.00000217,0.00000207,0.00000473,-0.00000392,-0.005
 23781,0.00103213,0.00498157,-0.01977839,-0.00991010,-0.01876786,-0.211
 39291,-0.08159738,-0.15816798,0.00000436,0.00000981,0.00001413,-0.0000
 0381,-0.00000694,-0.00000204,-0.00000907,0.00000101,0.00000178,-0.0000
 0076,0.00000083,-0.00000026,-0.00000741,0.00001531,-0.00000229,-0.0000
 0331,-0.00000431,0.00000558,-0.00000039,-0.00000074,0.00000032,-0.0000
 0884,0.00000146,-0.00000329,0.00039821,-0.00008235,0.00016028,0.000402
 02,0.00024156,0.00010995,0.00094502,0.00108285,-0.00044843,0.00146310,
 -0.00070985,0.00022095,0.00915968,0.00299327,0.00888192,0.00189463,0.0
 0194653,0.00194790,0.22208700,0.00019339,-0.00009382,0.00012343,0.0000
 1094,0.00043477,-0.00024546,0.00016102,0.00000143,0.00001336,-0.000044
 47,-0.00003131,0.00003306,-0.00006395,-0.00001740,0.00002899,0.0000540
 6,0.00000826,-0.00001877,0.00004516,-0.00000067,-0.00001370,0.00001633
 ,0.00002281,-0.00000266,-0.00000673,-0.00001395,-0.00000285,-0.0000065
 6,-0.00000657,0.00000232,0.00001354,-0.00000893,-0.00000062,0.00000850
 ,0.00000354,-0.00000386,0.00000197,-0.00000566,-0.00000496,0.00011112,
 -0.00001590,-0.00018289,0.00005684,0.00051016,0.00269368,-0.07818605,-
 0.10377726,-0.07804869,-0.00003606,-0.00000293,-0.00004150,-0.00000328
 ,0.00000096,-0.00000358,-0.00001492,0.00001637,0.00001152,0.00000168,0
 .00000095,0.00000336,-0.00000494,0.00000981,-0.00000298,-0.00000051,0.
 00000363,0.00000520,0.00000089,0.00000248,0.00000083,-0.00000289,0.000
 00863,-0.00000086,0.00015425,0.00028012,0.00007943,-0.00014557,0.00006
 833,-0.00021592,0.00101502,0.00007032,0.00018259,-0.00046177,-0.000242
 08,0.00019044,-0.02638912,-0.01012343,-0.02425033,0.01775295,0.0103113
 2,0.01498092,0.08576917,0.10258603,0.00010667,0.00001282,-0.00018539,0
 .00032347,0.00028713,0.00120699,0.00061765,0.00002032,-0.00028552,-0.0
 0011199,0.00004569,0.00013858,-0.00010978,-0.00008421,0.00000347,0.000
 12697,0.00005443,-0.00002942,0.00008213,0.00003653,-0.00001863,0.00001
 606,0.00003322,-0.00000373,-0.00001293,-0.00002901,0.00000669,-0.00000
 266,-0.00001062,0.00002022,0.00003127,-0.00000605,-0.00001622,0.000010
 90,0.00000235,-0.00000036,-0.00000399,0.00000693,-0.00002838,0.0025487
 0,-0.00056646,-0.00255681,0.00837612,0.00694167,0.01482410,-0.14889931
 ,-0.07658513,-0.20728074,-0.00007577,-0.00007873,-0.00007609,0.0000208
 9,0.00000241,-0.00001040,-0.00002856,0.00001247,0.00002709,-0.00000418
 ,-0.00000180,-0.00000254,-0.00000474,0.00001002,0.00000491,-0.00000086
 ,0.00000194,0.00000994,0.00000040,0.00000261,0.00000049,-0.00000975,0.
 00000601,0.00000029,-0.00014478,0.00000231,-0.00014646,0.00000429,-0.0
 0020485,0.00005833,-0.00008146,-0.00010729,0.00045893,0.00037749,0.000
 56791,0.00023742,-0.00517753,-0.00203438,-0.00582465,-0.02086873,-0.01
 302874,-0.01896711,0.16289398,0.08469049,0.21843499\\-0.00000739,-0.00
 000244,-0.00000140,0.00000229,0.00000346,0.00000495,0.00000027,-0.0000
 0013,0.00000091,-0.00000075,-0.00000087,0.00000018,0.00000036,-0.00000
 046,-0.00000240,0.00000030,0.00000070,-0.00000065,-0.00000123,0.000001
 93,0.00000146,0.00000007,0.00000032,0.00000028,-0.00000018,0.00000034,
 0.00000077,-0.00000029,0.00000022,-0.00000033,0.00000024,0.00000044,-0
 .00000108,0.00000073,0.00000011,0.00000014,-0.00000043,0.00000030,0.00
 000088,0.00000131,0.00000039,-0.00000139,0.00000462,-0.00000056,-0.000
 00205,0.00000073,-0.00000094,0.00000045,0.00000024,0.00000020,-0.00000
 085,0.00000003,0.,-0.00000059,-0.00000059,0.00000001,-0.00000071,0.000
 00022,0.00000050,0.00000034,0.00000002,-0.00000007,0.00000052,-0.00000
 022,-0.00000016,-0.00000033,0.00000064,0.00000038,0.00000036,0.0000003
 0,0.00000041,0.00000079,0.00000010,-0.00000012,0.00000046,-0.00000019,
 0.00000064,-0.00000004,-0.00000092,-0.00000042,-0.00000150,-0.00000020
 ,-0.00000243,0.00000020,0.00000022,-0.00000024,-0.00000016,-0.00000012
 ,-0.00000040,0.00000072,-0.00000014,-0.00000108,0.00000007\\\@


 "MATHEMATICS IS THE ART OF GIVING THE SAME NAME
 TO DIFFERENT THINGS."
                    - H. POINCARE
 Job cpu time:       0 days 14 hours 30 minutes 15.6 seconds.
 File lengths (MBytes):  RWF=   1140 Int=      0 D2E=      0 Chk=     37 Scr=      1
 Normal termination of Gaussian 09 at Thu Jul 29 08:54:17 2021.
