 Entering Gaussian System, Link 0=g09
 Input=opt_freq-conf-214.com
 Output=opt_freq-conf-214.log
 Initial command:
 /aerosol/software/g09/l1.exe "/scratch/nicole/10764/Gau-635579.inp" -scrdir="/scratch/nicole/10764/"
 Entering Link 1 = /aerosol/software/g09/l1.exe PID=    635582.
  
 Copyright (c) 1988,1990,1992,1993,1995,1998,2003,2009,2013,
            Gaussian, Inc.  All Rights Reserved.
  
 This is part of the Gaussian(R) 09 program.  It is based on
 the Gaussian(R) 03 system (copyright 2003, Gaussian, Inc.),
 the Gaussian(R) 98 system (copyright 1998, Gaussian, Inc.),
 the Gaussian(R) 94 system (copyright 1995, Gaussian, Inc.),
 the Gaussian 92(TM) system (copyright 1992, Gaussian, Inc.),
 the Gaussian 90(TM) system (copyright 1990, Gaussian, Inc.),
 the Gaussian 88(TM) system (copyright 1988, Gaussian, Inc.),
 the Gaussian 86(TM) system (copyright 1986, Carnegie Mellon
 University), and the Gaussian 82(TM) system (copyright 1983,
 Carnegie Mellon University). Gaussian is a federally registered
 trademark of Gaussian, Inc.
  
 This software contains proprietary and confidential information,
 including trade secrets, belonging to Gaussian, Inc.
  
 This software is provided under written license and may be
 used, copied, transmitted, or stored only in accord with that
 written license.
  
 The following legend is applicable only to US Government
 contracts under FAR:
  
                    RESTRICTED RIGHTS LEGEND
  
 Use, reproduction and disclosure by the US Government is
 subject to restrictions as set forth in subparagraphs (a)
 and (c) of the Commercial Computer Software - Restricted
 Rights clause in FAR 52.227-19.
  
 Gaussian, Inc.
 340 Quinnipiac St., Bldg. 40, Wallingford CT 06492
  
  
 ---------------------------------------------------------------
 Warning -- This program may not be used in any manner that
 competes with the business of Gaussian, Inc. or will provide
 assistance to any competitor of Gaussian, Inc.  The licensee
 of this program is prohibited from giving any competitor of
 Gaussian, Inc. access to this program.  By using this program,
 the user acknowledges that Gaussian, Inc. is engaged in the
 business of creating and licensing software in the field of
 computational chemistry and represents and warrants to the
 licensee that it is not a competitor of Gaussian, Inc. and that
 it will not use this program in any manner prohibited above.
 ---------------------------------------------------------------
  

 Cite this work as:
 Gaussian 09, Revision D.01,
 M. J. Frisch, G. W. Trucks, H. B. Schlegel, G. E. Scuseria, 
 M. A. Robb, J. R. Cheeseman, G. Scalmani, V. Barone, B. Mennucci, 
 G. A. Petersson, H. Nakatsuji, M. Caricato, X. Li, H. P. Hratchian, 
 A. F. Izmaylov, J. Bloino, G. Zheng, J. L. Sonnenberg, M. Hada, 
 M. Ehara, K. Toyota, R. Fukuda, J. Hasegawa, M. Ishida, T. Nakajima, 
 Y. Honda, O. Kitao, H. Nakai, T. Vreven, J. A. Montgomery, Jr., 
 J. E. Peralta, F. Ogliaro, M. Bearpark, J. J. Heyd, E. Brothers, 
 K. N. Kudin, V. N. Staroverov, T. Keith, R. Kobayashi, J. Normand, 
 K. Raghavachari, A. Rendell, J. C. Burant, S. S. Iyengar, J. Tomasi, 
 M. Cossi, N. Rega, J. M. Millam, M. Klene, J. E. Knox, J. B. Cross, 
 V. Bakken, C. Adamo, J. Jaramillo, R. Gomperts, R. E. Stratmann, 
 O. Yazyev, A. J. Austin, R. Cammi, C. Pomelli, J. W. Ochterski, 
 R. L. Martin, K. Morokuma, V. G. Zakrzewski, G. A. Voth, 
 P. Salvador, J. J. Dannenberg, S. Dapprich, A. D. Daniels, 
 O. Farkas, J. B. Foresman, J. V. Ortiz, J. Cioslowski, 
 and D. J. Fox, Gaussian, Inc., Wallingford CT, 2013.
 
 ******************************************
 Gaussian 09:  ES64L-G09RevD.01 24-Apr-2013
                30-Jul-2021 
 ******************************************
 %mem=2gb
 %nproc=4
 Will use up to    4 processors via shared memory.
 %chk=conf-214.chk
 ----------------------------------------------------------------------
 # B3LYP/6-311G(2df,2pd) guess=read geom=checkpoint opt=readfc freq=nor
 aman nosymm integral(ultrafinegrid)
 ----------------------------------------------------------------------
 1/10=3,14=-1,18=20,19=15,26=4,29=2,38=1/1,3;
 2/9=110,12=2,15=1,40=1/2;
 3/5=4,6=6,7=404,11=2,14=-4,16=1,25=1,30=1,71=1,74=-5,75=-5,116=-2/1,2,3;
 4/5=1/1;
 5/5=2,38=6/2;
 6/7=2,8=2,9=2,10=2,28=1/1;
 7/30=1/1,2,3,16;
 1/14=-1,18=20,19=15,26=4/3(2);
 2/9=110,15=1/2;
 99//99;
 2/9=110,15=1/2;
 3/5=4,6=6,7=404,11=2,14=-2,16=1,25=1,30=1,71=1,74=-5,75=-5/1,2,3;
 4/5=5,16=3,69=1/1;
 5/5=2,38=5/2;
 7/30=1/1,2,3,16;
 1/14=-1,18=20,19=15,26=4/3(-5);
 2/9=110,15=1/2;
 6/7=2,8=2,9=2,10=2,19=2,28=1/1;
 99/9=1/99;
 ------------------------------------------------------------
 Candidate Structure: Conf:214 OPT and FREQ calc in gas phase
 ------------------------------------------------------------
 Structure from the checkpoint file:  "conf-214.chk"
 Charge =  1 Multiplicity = 1
 Redundant internal coordinates found in file.
 O,0,-1.1994965162,-0.9768153621,-1.0253547379
 C,0,-1.1047896761,-0.516601609,0.0988029717
 N,0,-0.0328821313,-0.6450176709,0.9031517709
 C,0,1.1087648403,-1.4789971197,0.5649503258
 C,0,1.2699789889,-2.5114481969,1.6912700275
 O,0,1.9954256436,-3.6051047226,1.410575962
 O,0,0.8094347109,-2.3280399322,2.7949658479
 C,0,2.4171170295,-0.6653795823,0.4429487161
 C,0,2.3879929051,0.385318772,-0.6197072559
 C,0,1.6159871464,0.583787484,-1.7351789322
 N,0,2.007272807,1.7173175586,-2.4075032131
 C,0,3.0100931951,2.201074139,-1.721546267
 N,0,3.2811809043,1.4374443694,-0.6252061715
 C,0,-2.2659285431,0.309932245,0.6780022097
 C,0,-3.1708794136,0.6903024806,-0.4806991603
 N,0,-4.4013587245,1.4428658381,0.00985943
 H,0,-0.1182376251,-0.4297272766,1.886975396
 H,0,0.8804698341,-1.9708096693,-0.3806756316
 H,0,2.2448363478,-3.6486738256,0.4798948189
 H,0,2.6187996365,-0.2078364106,1.4165846058
 H,0,3.2377473499,-1.3692301089,0.2695915683
 H,0,0.7998511219,-0.0219067072,-2.0893859861
 H,0,3.5746346605,3.0872712802,-1.960008159
 H,0,4.0188046111,1.5969752344,0.0401719682
 H,0,-1.8816993982,1.1922032839,1.193707202
 H,0,-2.8004555692,-0.3015446503,1.4110048902
 H,0,-3.5252238321,-0.1868291217,-1.0129378029
 H,0,-2.6716554066,1.3432280476,-1.1917057843
 H,0,-4.1458075345,2.307160612,0.4913281714
 H,0,-5.0134926199,1.6921134363,-0.7695601762
 H,0,-4.9464988426,0.8770761548,0.6634909956
 Recover connectivity data from disk.

 GradGradGradGradGradGradGradGradGradGradGradGradGradGradGradGradGradGrad
 Berny optimization.
 Initialization pass.
 Force constant matrix read from checkpoint file:
 "conf-214.chk"
                           ----------------------------
                           !    Initial Parameters    !
                           ! (Angstroms and Degrees)  !
 --------------------------                            --------------------------
 ! Name  Definition              Value          Derivative Info.                !
 --------------------------------------------------------------------------------
 ! R1    R(1,2)                  1.2184         D2E/DX2 =    0.7267             !
 ! R2    R(2,3)                  1.3463         D2E/DX2 =    0.4647             !
 ! R3    R(2,14)                 1.5385         D2E/DX2 =    0.2144             !
 ! R4    R(3,4)                  1.4537         D2E/DX2 =    0.3334             !
 ! R5    R(3,17)                 1.0107         D2E/DX2 =    0.4545             !
 ! R6    R(4,5)                  1.5364         D2E/DX2 =    0.2489             !
 ! R7    R(4,8)                  1.5455         D2E/DX2 =    0.2379             !
 ! R8    R(4,18)                 1.09           D2E/DX2 =    0.3358             !
 ! R9    R(5,6)                  1.3421         D2E/DX2 =    0.4292             !
 ! R10   R(5,7)                  1.2099         D2E/DX2 =    0.9169             !
 ! R11   R(6,19)                 0.9645         D2E/DX2 =    0.5154             !
 ! R12   R(8,9)                  1.4947         D2E/DX2 =    0.313              !
 ! R13   R(8,20)                 1.0945         D2E/DX2 =    0.3241             !
 ! R14   R(8,21)                 1.0949         D2E/DX2 =    0.3199             !
 ! R15   R(9,10)                 1.371          D2E/DX2 =    0.3901             !
 ! R16   R(9,13)                 1.3801         D2E/DX2 =    0.3561             !
 ! R17   R(10,11)                1.3748         D2E/DX2 =    0.3337             !
 ! R18   R(10,22)                1.0763         D2E/DX2 =    0.3739             !
 ! R19   R(11,12)                1.3077         D2E/DX2 =    0.4446             !
 ! R20   R(12,13)                1.3633         D2E/DX2 =    0.3553             !
 ! R21   R(12,23)                1.0775         D2E/DX2 =    0.3739             !
 ! R22   R(13,24)                1.0061         D2E/DX2 =    0.4737             !
 ! R23   R(14,15)                1.5186         D2E/DX2 =    0.228              !
 ! R24   R(14,25)                1.0918         D2E/DX2 =    0.3183             !
 ! R25   R(14,26)                1.094          D2E/DX2 =    0.3258             !
 ! R26   R(15,16)                1.5235         D2E/DX2 =    0.2338             !
 ! R27   R(15,27)                1.0854         D2E/DX2 =    0.2781             !
 ! R28   R(15,28)                1.0868         D2E/DX2 =    0.3741             !
 ! R29   R(16,29)                1.0218         D2E/DX2 =    0.4261             !
 ! R30   R(16,30)                1.0219         D2E/DX2 =    0.428              !
 ! R31   R(16,31)                1.022          D2E/DX2 =    0.4267             !
 ! A1    A(1,2,3)              125.2475         D2E/DX2 =    0.1158             !
 ! A2    A(1,2,14)             119.4472         D2E/DX2 =    0.1526             !
 ! A3    A(3,2,14)             115.2925         D2E/DX2 =    0.2609             !
 ! A4    A(2,3,4)              122.7525         D2E/DX2 =    0.1377             !
 ! A5    A(2,3,17)             119.6044         D2E/DX2 =    0.0906             !
 ! A6    A(4,3,17)             114.5181         D2E/DX2 =    0.0922             !
 ! A7    A(3,4,5)              107.2997         D2E/DX2 =    0.0843             !
 ! A8    A(3,4,8)              112.4064         D2E/DX2 =    0.0853             !
 ! A9    A(3,4,18)             107.2287         D2E/DX2 =    0.0305             !
 ! A10   A(5,4,8)              108.8324         D2E/DX2 =    0.0764             !
 ! A11   A(5,4,18)             110.7777         D2E/DX2 =    0.0241             !
 ! A12   A(8,4,18)             110.2633         D2E/DX2 =    0.0309             !
 ! A13   A(4,5,6)              116.808          D2E/DX2 =    0.1554             !
 ! A14   A(4,5,7)              121.7979         D2E/DX2 =    0.1802             !
 ! A15   A(6,5,7)              121.3372         D2E/DX2 =    0.1952             !
 ! A16   A(5,6,19)             112.235          D2E/DX2 =    0.1723             !
 ! A17   A(4,8,9)              114.1854         D2E/DX2 =    0.1968             !
 ! A18   A(4,8,20)             107.8083         D2E/DX2 =    0.0669             !
 ! A19   A(4,8,21)             107.9723         D2E/DX2 =    0.0611             !
 ! A20   A(9,8,20)             110.009          D2E/DX2 =    0.0529             !
 ! A21   A(9,8,21)             110.7272         D2E/DX2 =    0.0571             !
 ! A22   A(20,8,21)            105.7508         D2E/DX2 =    0.0211             !
 ! A23   A(8,9,10)             133.7238         D2E/DX2 =    0.1072             !
 ! A24   A(8,9,13)             121.7432         D2E/DX2 =    0.113              !
 ! A25   A(10,9,13)            104.5261         D2E/DX2 =    0.1017             !
 ! A26   A(9,10,11)            110.9151         D2E/DX2 =    0.1128             !
 ! A27   A(9,10,22)            127.827          D2E/DX2 =    0.0845             !
 ! A28   A(11,10,22)           121.2574         D2E/DX2 =    0.0916             !
 ! A29   A(10,11,12)           105.4702         D2E/DX2 =    0.1305             !
 ! A30   A(11,12,13)           111.5368         D2E/DX2 =    0.1182             !
 ! A31   A(11,12,23)           126.1533         D2E/DX2 =    0.0893             !
 ! A32   A(13,12,23)           122.3098         D2E/DX2 =    0.0903             !
 ! A33   A(9,13,12)            107.5492         D2E/DX2 =    0.1024             !
 ! A34   A(9,13,24)            126.3496         D2E/DX2 =    0.0779             !
 ! A35   A(12,13,24)           126.0719         D2E/DX2 =    0.0793             !
 ! A36   A(2,14,15)            107.2813         D2E/DX2 =    0.3566             !
 ! A37   A(2,14,25)            110.2652         D2E/DX2 =    0.048              !
 ! A38   A(2,14,26)            108.7062         D2E/DX2 =    0.0199             !
 ! A39   A(15,14,25)           111.5746         D2E/DX2 =    0.0393             !
 ! A40   A(15,14,26)           111.1033         D2E/DX2 =    0.0637             !
 ! A41   A(25,14,26)           107.8866         D2E/DX2 =    0.0188             !
 ! A42   A(14,15,16)           111.0593         D2E/DX2 =    0.0471             !
 ! A43   A(14,15,27)           111.4851         D2E/DX2 =    0.0279             !
 ! A44   A(14,15,28)           112.0816         D2E/DX2 =    0.0398             !
 ! A45   A(16,15,27)           107.0611         D2E/DX2 =    0.0376             !
 ! A46   A(16,15,28)           106.5528         D2E/DX2 =    0.0007             !
 ! A47   A(27,15,28)           108.3398         D2E/DX2 =   -0.0246             !
 ! A48   A(15,16,29)           111.5641         D2E/DX2 =    0.0832             !
 ! A49   A(15,16,30)           111.0195         D2E/DX2 =    0.0885             !
 ! A50   A(15,16,31)           111.3012         D2E/DX2 =    0.0969             !
 ! A51   A(29,16,30)           107.6306         D2E/DX2 =    0.0524             !
 ! A52   A(29,16,31)           107.476          D2E/DX2 =    0.0525             !
 ! A53   A(30,16,31)           107.656          D2E/DX2 =    0.052              !
 ! D1    D(1,2,3,4)             -6.4171         D2E/DX2 =    0.0081             !
 ! D2    D(1,2,3,17)          -165.3268         D2E/DX2 =    0.0108             !
 ! D3    D(14,2,3,4)           174.8989         D2E/DX2 =   -0.0107             !
 ! D4    D(14,2,3,17)           15.9892         D2E/DX2 =   -0.0067             !
 ! D5    D(1,2,14,15)          -15.3766         D2E/DX2 =    0.0096             !
 ! D6    D(1,2,14,25)         -137.07           D2E/DX2 =    0.0208             !
 ! D7    D(1,2,14,26)          104.8516         D2E/DX2 =    0.0033             !
 ! D8    D(3,2,14,15)          163.3893         D2E/DX2 =    0.0139             !
 ! D9    D(3,2,14,25)           41.6958         D2E/DX2 =    0.0088             !
 ! D10   D(3,2,14,26)          -76.3826         D2E/DX2 =    0.0183             !
 ! D11   D(2,3,4,5)           -121.9367         D2E/DX2 =    0.0122             !
 ! D12   D(2,3,4,8)            118.4516         D2E/DX2 =    0.0194             !
 ! D13   D(2,3,4,18)            -2.8855         D2E/DX2 =    0.0088             !
 ! D14   D(17,3,4,5)            37.9504         D2E/DX2 =    0.0105             !
 ! D15   D(17,3,4,8)           -81.6614         D2E/DX2 =    0.0151             !
 ! D16   D(17,3,4,18)          157.0016         D2E/DX2 =    0.007              !
 ! D17   D(3,4,5,6)            161.1733         D2E/DX2 =    0.0218             !
 ! D18   D(3,4,5,7)            -21.5359         D2E/DX2 =    0.0223             !
 ! D19   D(8,4,5,6)            -76.9535         D2E/DX2 =    0.0196             !
 ! D20   D(8,4,5,7)            100.3373         D2E/DX2 =    0.0196             !
 ! D21   D(18,4,5,6)            44.4313         D2E/DX2 =    0.0152             !
 ! D22   D(18,4,5,7)          -138.2779         D2E/DX2 =    0.0147             !
 ! D23   D(3,4,8,9)            -60.9628         D2E/DX2 =    0.0188             !
 ! D24   D(3,4,8,20)            61.6007         D2E/DX2 =    0.02               !
 ! D25   D(3,4,8,21)           175.4256         D2E/DX2 =    0.0212             !
 ! D26   D(5,4,8,9)           -179.6786         D2E/DX2 =    0.0168             !
 ! D27   D(5,4,8,20)           -57.1151         D2E/DX2 =    0.0193             !
 ! D28   D(5,4,8,21)            56.7098         D2E/DX2 =    0.0174             !
 ! D29   D(18,4,8,9)            58.6229         D2E/DX2 =    0.012              !
 ! D30   D(18,4,8,20)         -178.8135         D2E/DX2 =    0.0146             !
 ! D31   D(18,4,8,21)          -64.9887         D2E/DX2 =    0.0127             !
 ! D32   D(4,5,6,19)            -6.6772         D2E/DX2 =    0.0089             !
 ! D33   D(7,5,6,19)           176.0187         D2E/DX2 =    0.0156             !
 ! D34   D(4,8,9,10)           -20.0174         D2E/DX2 =    0.0111             !
 ! D35   D(4,8,9,13)           161.1012         D2E/DX2 =    0.0117             !
 ! D36   D(20,8,9,10)         -141.3725         D2E/DX2 =    0.0146             !
 ! D37   D(20,8,9,13)           39.7461         D2E/DX2 =    0.0143             !
 ! D38   D(21,8,9,10)          102.0965         D2E/DX2 =    0.0096             !
 ! D39   D(21,8,9,13)          -76.7849         D2E/DX2 =    0.0125             !
 ! D40   D(8,9,10,11)         -179.2636         D2E/DX2 =    0.0086             !
 ! D41   D(8,9,10,22)            0.9976         D2E/DX2 =    0.0074             !
 ! D42   D(13,9,10,11)          -0.2462         D2E/DX2 =    0.014              !
 ! D43   D(13,9,10,22)        -179.9851         D2E/DX2 =    0.0104             !
 ! D44   D(8,9,13,12)          179.0946         D2E/DX2 =    0.0076             !
 ! D45   D(8,9,13,24)            0.974          D2E/DX2 =    0.0021             !
 ! D46   D(10,9,13,12)          -0.0704         D2E/DX2 =    0.0123             !
 ! D47   D(10,9,13,24)        -178.1909         D2E/DX2 =    0.0044             !
 ! D48   D(9,10,11,12)           0.475          D2E/DX2 =    0.0174             !
 ! D49   D(22,10,11,12)       -179.7663         D2E/DX2 =    0.0104             !
 ! D50   D(10,11,12,13)         -0.5201         D2E/DX2 =    0.0184             !
 ! D51   D(10,11,12,23)        179.5002         D2E/DX2 =    0.0103             !
 ! D52   D(11,12,13,9)           0.3828         D2E/DX2 =    0.0171             !
 ! D53   D(11,12,13,24)        178.5101         D2E/DX2 =    0.0078             !
 ! D54   D(23,12,13,9)        -179.6366         D2E/DX2 =    0.0103             !
 ! D55   D(23,12,13,24)         -1.5093         D2E/DX2 =    0.0061             !
 ! D56   D(2,14,15,16)         176.5146         D2E/DX2 =    0.0099             !
 ! D57   D(2,14,15,27)          57.2117         D2E/DX2 =    0.0046             !
 ! D58   D(2,14,15,28)         -64.4294         D2E/DX2 =    0.0125             !
 ! D59   D(25,14,15,16)        -62.6158         D2E/DX2 =    0.0113             !
 ! D60   D(25,14,15,27)        178.0813         D2E/DX2 =    0.0022             !
 ! D61   D(25,14,15,28)         56.4402         D2E/DX2 =    0.0126             !
 ! D62   D(26,14,15,16)         57.8232         D2E/DX2 =    0.0095             !
 ! D63   D(26,14,15,27)        -61.4797         D2E/DX2 =    0.012              !
 ! D64   D(26,14,15,28)        176.8792         D2E/DX2 =   -0.0025             !
 ! D65   D(14,15,16,29)         60.3947         D2E/DX2 =    0.0103             !
 ! D66   D(14,15,16,30)       -179.5557         D2E/DX2 =    0.0124             !
 ! D67   D(14,15,16,31)        -59.6502         D2E/DX2 =    0.0088             !
 ! D68   D(27,15,16,29)       -177.6869         D2E/DX2 =    0.0139             !
 ! D69   D(27,15,16,30)        -57.6373         D2E/DX2 =    0.012              !
 ! D70   D(27,15,16,31)         62.2682         D2E/DX2 =    0.0153             !
 ! D71   D(28,15,16,29)        -61.9283         D2E/DX2 =    0.0159             !
 ! D72   D(28,15,16,30)         58.1213         D2E/DX2 =    0.0148             !
 ! D73   D(28,15,16,31)        178.0269         D2E/DX2 =    0.0153             !
 --------------------------------------------------------------------------------
 Trust Radius=3.00D-01 FncErr=1.00D-07 GrdErr=1.00D-06
 Number of steps in this run=    167 maximum allowed number of steps=    186.
 GradGradGradGradGradGradGradGradGradGradGradGradGradGradGradGradGradGrad

                          Input orientation:                          
 ---------------------------------------------------------------------
 Center     Atomic      Atomic             Coordinates (Angstroms)
 Number     Number       Type             X           Y           Z
 ---------------------------------------------------------------------
      1          8           0       -1.199497   -0.976815   -1.025355
      2          6           0       -1.104790   -0.516602    0.098803
      3          7           0       -0.032882   -0.645018    0.903152
      4          6           0        1.108765   -1.478997    0.564950
      5          6           0        1.269979   -2.511448    1.691270
      6          8           0        1.995426   -3.605105    1.410576
      7          8           0        0.809435   -2.328040    2.794966
      8          6           0        2.417117   -0.665380    0.442949
      9          6           0        2.387993    0.385319   -0.619707
     10          6           0        1.615987    0.583787   -1.735179
     11          7           0        2.007273    1.717318   -2.407503
     12          6           0        3.010093    2.201074   -1.721546
     13          7           0        3.281181    1.437444   -0.625206
     14          6           0       -2.265929    0.309932    0.678002
     15          6           0       -3.170879    0.690302   -0.480699
     16          7           0       -4.401359    1.442866    0.009859
     17          1           0       -0.118238   -0.429727    1.886975
     18          1           0        0.880470   -1.970810   -0.380676
     19          1           0        2.244836   -3.648674    0.479895
     20          1           0        2.618800   -0.207836    1.416585
     21          1           0        3.237747   -1.369230    0.269592
     22          1           0        0.799851   -0.021907   -2.089386
     23          1           0        3.574635    3.087271   -1.960008
     24          1           0        4.018805    1.596975    0.040172
     25          1           0       -1.881699    1.192203    1.193707
     26          1           0       -2.800456   -0.301545    1.411005
     27          1           0       -3.525224   -0.186829   -1.012938
     28          1           0       -2.671655    1.343228   -1.191706
     29          1           0       -4.145808    2.307161    0.491328
     30          1           0       -5.013493    1.692113   -0.769560
     31          1           0       -4.946499    0.877076    0.663491
 ---------------------------------------------------------------------
                    Distance matrix (angstroms):
                    1          2          3          4          5
     1  O    0.000000
     2  C    1.218399   0.000000
     3  N    2.278205   1.346274   0.000000
     4  C    2.847688   2.458317   1.453706   0.000000
     5  C    3.979128   3.486386   2.408763   1.536405   0.000000
     6  O    4.800957   4.568472   3.624035   2.453892   1.342068
     7  O    4.522882   3.770260   2.668524   2.404879   1.209911
     8  C    3.915712   3.541807   2.492929   1.545524   2.506432
     9  C    3.858761   3.678213   3.039955   2.552550   3.870637
    10  C    3.296404   3.460776   3.345074   3.130966   4.630417
    11  N    4.410449   4.577871   4.550088   4.456369   5.935150
    12  C    5.320179   5.256586   4.924325   4.731389   6.073152
    13  N    5.105413   4.855844   4.201850   3.826421   5.000475
    14  C    2.386299   1.538465   2.439081   3.821205   4.635681
    15  C    2.638614   2.461944   3.680374   4.910662   5.889812
    16  N    4.144689   3.835986   4.923496   6.261539   7.115322
    17  H    3.154377   2.044112   1.010715   2.086685   2.509782
    18  H    2.393720   2.507165   2.059162   1.090049   2.176457
    19  H    4.611728   4.601641   3.793296   2.450590   1.926411
    20  H    4.597149   3.961944   2.736084   2.149729   2.683542
    21  H    4.638966   4.428744   3.409237   2.152174   2.682898
    22  H    2.457927   2.942881   3.168122   3.043689   4.551065
    23  H    6.338983   6.254887   5.928056   5.771199   7.070285
    24  H    5.915269   5.542731   4.710354   4.266770   5.211651
    25  H    3.177149   2.173113   2.622581   4.058759   4.888525
    26  H    2.992475   2.154856   2.834670   4.169437   4.640114
    27  H    2.456265   2.683881   4.009712   5.062932   5.975832
    28  H    2.752731   2.753080   3.912119   5.034121   6.221460
    29  H    4.665359   4.168393   5.079479   6.476955   7.347761
    30  H    4.662100   4.572793   5.750359   7.022741   7.950323
    31  H    4.508785   4.125523   5.149547   6.498231   7.154231
                    6          7          8          9         10
     6  O    0.000000
     7  O    2.225759   0.000000
     8  C    3.123477   3.298646   0.000000
     9  C    4.494401   4.638335   1.494675   0.000000
    10  C    5.252291   5.445317   2.635615   1.371007   0.000000
    11  N    6.550271   6.698165   3.737686   2.261721   1.374778
    12  C    6.674687   6.764219   3.640497   2.213148   2.135260
    13  N    5.587922   5.655615   2.511858   1.380139   2.175693
    14  C    5.832951   4.571465   4.789300   4.832051   4.579051
    15  C    6.979839   5.973548   5.823805   5.568968   4.949662
    16  N    8.268184   7.009202   7.150096   6.900004   6.323893
    17  H    3.844158   2.299699   2.927246   3.637162   4.141829
    18  H    2.668825   3.196460   2.178024   2.807330   2.983560
    19  H    0.964506   3.027211   2.988493   4.183625   4.818271
    20  H    3.453992   3.109501   1.094527   2.133445   3.400870
    21  H    2.800776   3.632290   1.094939   2.142750   3.234732
    22  H    5.149606   5.401410   3.072837   2.201813   1.076293
    23  H    7.657848   7.718919   4.603959   3.241153   3.186578
    24  H    5.747496   5.770155   2.801050   2.136141   3.154671
    25  H    6.171977   4.711512   4.742792   4.708482   4.602429
    26  H    5.823572   4.365013   5.319076   5.613873   5.494293
    27  H    6.930772   6.154200   6.136777   5.953832   5.248574
    28  H    7.282823   6.441254   5.709834   5.181198   4.388165
    29  H    8.574068   7.165630   7.204881   6.900610   6.412927
    30  H    9.051986   7.923002   7.889354   7.517457   6.790494
    31  H    8.296891   6.924357   7.526662   7.462117   6.993272
                   11         12         13         14         15
    11  N    0.000000
    12  C    1.307748   0.000000
    13  N    2.208564   1.363298   0.000000
    14  C    5.455394   6.096774   5.808619   0.000000
    15  C    5.619661   6.482789   6.496783   1.518620   0.000000
    16  N    6.854891   7.648677   7.708745   2.507990   1.523509
    17  H    5.250728   5.452431   4.620977   2.573186   4.022309
    18  H    4.356604   4.872150   4.176051   4.027705   4.848191
    19  H    6.098145   6.296945   5.306963   6.004732   7.005672
    20  H    4.324793   3.975403   2.704553   4.967309   6.158468
    21  H    4.267046   4.094329   2.946179   5.768608   6.773117
    22  H    2.141020   3.156283   3.229632   4.143375   4.343019
    23  H    2.129237   1.077458   2.142368   6.984618   7.309978
    24  H    3.170466   2.118038   1.006115   6.446796   7.265323
    25  H    5.326215   5.783265   5.479409   1.091781   2.171987
    26  H    6.463054   7.059636   6.645039   1.094037   2.167837
    27  H    6.014907   6.993896   7.008263   2.166074   1.085448
    28  H    4.848760   5.770520   5.980473   2.174425   1.086769
    29  H    6.827264   7.490993   7.560636   2.749130   2.123571
    30  H    7.209344   8.095878   8.299838   3.399260   2.117142
    31  H    7.648003   8.411226   8.346824   2.739949   2.120585
                   16         17         18         19         20
    16  N    0.000000
    17  H    5.037390   0.000000
    18  H    6.301064   2.917978   0.000000
    19  H    8.385500   4.233865   2.327511   0.000000
    20  H    7.347538   2.786014   3.059413   3.585610   0.000000
    21  H    8.144402   3.842035   2.518234   2.495188   1.745716
    22  H    5.796980   4.101299   2.593147   4.673610   3.954108
    23  H    8.378599   6.387947   5.944493   7.286594   4.813807
    24  H    8.421628   4.963197   4.770256   5.554922   2.666809
    25  H    2.795176   2.494209   4.484742   6.400931   4.718504
    26  H    2.751194   2.727136   4.421061   6.125782   5.420068
    27  H    2.114150   4.480631   4.795047   6.892497   6.606969
    28  H    2.108450   4.375110   4.925262   7.203140   6.099008
    29  H    1.021824   5.065541   6.657694   8.735698   7.276072
    30  H    1.021923   5.960110   6.950326   9.097719   8.163389
    31  H    1.022022   5.149442   6.569193   8.498907   7.679709
                   21         22         23         24         25
    21  H    0.000000
    22  H    3.650122   0.000000
    23  H    4.994498   4.169311   0.000000
    24  H    3.075883   4.185386   2.533573   0.000000
    25  H    5.798592   4.409476   6.580941   6.025814   0.000000
    26  H    6.237201   5.029229   7.968035   7.210123   1.767092
    27  H    6.984321   4.460069   7.875574   7.823258   3.077692
    28  H    6.664372   3.836767   6.530552   6.807655   2.517347
    29  H    8.251176   6.045178   8.137742   8.207850   2.619666
    30  H    8.861976   6.202803   8.781774   9.069019   3.729941
    31  H    8.496054   6.434830   9.185719   9.015733   3.126249
                   26         27         28         29         30
    26  H    0.000000
    27  H    2.532577   0.000000
    28  H    3.081553   1.761139   0.000000
    29  H    3.075893   2.977906   2.436164   0.000000
    30  H    3.691486   2.409274   2.405022   1.649545   0.000000
    31  H    2.559966   2.441788   2.972199   1.647995   1.649973
                   31
    31  H    0.000000
 Symmetry turned off by external request.
 Stoichiometry    C9H15N4O3(1+)
 Framework group  C1[X(C9H15N4O3)]
 Deg. of freedom    87
 Full point group                 C1      NOp   1
 Rotational constants (GHZ):      0.4939655      0.3802462      0.2375871
 Standard basis: 6-311G(2df,2pd) (5D, 7F)
   690 basis functions,  1023 primitive gaussians,   785 cartesian basis functions
    60 alpha electrons       60 beta electrons
       nuclear repulsion energy      1128.3581751622 Hartrees.
 NAtoms=   31 NActive=   31 NUniq=   31 SFac= 1.00D+00 NAtFMM=   60 NAOKFM=F Big=F
 Integral buffers will be    131072 words long.
 Raffenetti 2 integral format.
 Two-electron integral symmetry is turned off.
 One-electron integrals computed using PRISM.
 NBasis=   690 RedAO= T EigKep=  1.69D-04  NBF=   690
 NBsUse=   690 1.00D-06 EigRej= -1.00D+00 NBFU=   690
 Initial guess from the checkpoint file:  "conf-214.chk"
 B after Tr=     0.000000    0.000000    0.000000
         Rot=    1.000000    0.000000    0.000000    0.000000 Ang=   0.00 deg.
 Requested convergence on RMS density matrix=1.00D-08 within 128 cycles.
 Requested convergence on MAX density matrix=1.00D-06.
 Requested convergence on             energy=1.00D-06.
 No special actions if energy rises.
 SCF Done:  E(RB3LYP) =  -796.718662145     A.U. after    1 cycles
            NFock=  1  Conv=0.64D-08     -V/T= 2.0038

 **********************************************************************

            Population analysis using the SCF density.

 **********************************************************************

 Alpha  occ. eigenvalues --  -19.27711 -19.22288 -19.21612 -14.63624 -14.46807
 Alpha  occ. eigenvalues --  -14.45207 -14.36941 -10.41376 -10.41341 -10.41169
 Alpha  occ. eigenvalues --  -10.35363 -10.34845 -10.30305 -10.30287 -10.29435
 Alpha  occ. eigenvalues --  -10.26251  -1.21490  -1.20308  -1.18016  -1.13314
 Alpha  occ. eigenvalues --   -1.10244  -1.06380  -0.96513  -0.95791  -0.91474
 Alpha  occ. eigenvalues --   -0.85435  -0.83015  -0.78847  -0.78546  -0.77093
 Alpha  occ. eigenvalues --   -0.73840  -0.72025  -0.70134  -0.69081  -0.67945
 Alpha  occ. eigenvalues --   -0.67443  -0.64557  -0.62780  -0.61547  -0.60287
 Alpha  occ. eigenvalues --   -0.57971  -0.57489  -0.56241  -0.55523  -0.54661
 Alpha  occ. eigenvalues --   -0.53910  -0.52556  -0.52417  -0.51465  -0.50242
 Alpha  occ. eigenvalues --   -0.49560  -0.49075  -0.48194  -0.43170  -0.40347
 Alpha  occ. eigenvalues --   -0.39914  -0.38628  -0.36998  -0.35308  -0.31687
 Alpha virt. eigenvalues --   -0.18728  -0.13037  -0.12178  -0.11087  -0.10712
 Alpha virt. eigenvalues --   -0.09885  -0.08239  -0.07304  -0.06529  -0.05319
 Alpha virt. eigenvalues --   -0.05034  -0.04446  -0.03000  -0.02453  -0.01674
 Alpha virt. eigenvalues --   -0.01004  -0.00265   0.00875   0.01694   0.02217
 Alpha virt. eigenvalues --    0.04396   0.05052   0.05629   0.07402   0.08035
 Alpha virt. eigenvalues --    0.09307   0.10682   0.11417   0.11979   0.12415
 Alpha virt. eigenvalues --    0.13171   0.14309   0.15457   0.15649   0.17520
 Alpha virt. eigenvalues --    0.18232   0.19552   0.19952   0.22051   0.22758
 Alpha virt. eigenvalues --    0.23823   0.24016   0.25578   0.25792   0.25912
 Alpha virt. eigenvalues --    0.26897   0.27094   0.28218   0.28560   0.29558
 Alpha virt. eigenvalues --    0.30019   0.30504   0.30886   0.31069   0.31397
 Alpha virt. eigenvalues --    0.31674   0.31874   0.32396   0.33311   0.33965
 Alpha virt. eigenvalues --    0.34561   0.35733   0.36257   0.36921   0.37212
 Alpha virt. eigenvalues --    0.37633   0.38113   0.38940   0.39503   0.40190
 Alpha virt. eigenvalues --    0.40460   0.41377   0.42942   0.43204   0.43446
 Alpha virt. eigenvalues --    0.44747   0.45637   0.46710   0.47212   0.48582
 Alpha virt. eigenvalues --    0.48905   0.50914   0.51142   0.51774   0.52608
 Alpha virt. eigenvalues --    0.53780   0.54902   0.55568   0.55787   0.56549
 Alpha virt. eigenvalues --    0.58440   0.59040   0.59821   0.60739   0.61841
 Alpha virt. eigenvalues --    0.62575   0.63756   0.64271   0.64558   0.64717
 Alpha virt. eigenvalues --    0.66315   0.67422   0.68042   0.68727   0.69396
 Alpha virt. eigenvalues --    0.70677   0.71277   0.71910   0.72991   0.73238
 Alpha virt. eigenvalues --    0.74408   0.74868   0.76492   0.77237   0.77525
 Alpha virt. eigenvalues --    0.79006   0.79430   0.81315   0.82081   0.83507
 Alpha virt. eigenvalues --    0.85191   0.85760   0.86661   0.86835   0.87341
 Alpha virt. eigenvalues --    0.88141   0.88978   0.89098   0.90126   0.90707
 Alpha virt. eigenvalues --    0.90996   0.91791   0.92575   0.93584   0.93918
 Alpha virt. eigenvalues --    0.94764   0.95354   0.96342   0.97477   0.98147
 Alpha virt. eigenvalues --    0.99446   1.00334   1.00880   1.01374   1.02733
 Alpha virt. eigenvalues --    1.02964   1.03979   1.04390   1.04770   1.06702
 Alpha virt. eigenvalues --    1.07021   1.08009   1.09044   1.09434   1.10428
 Alpha virt. eigenvalues --    1.10774   1.11767   1.12107   1.12738   1.13937
 Alpha virt. eigenvalues --    1.15327   1.16090   1.16706   1.17857   1.18457
 Alpha virt. eigenvalues --    1.19305   1.19957   1.20334   1.21031   1.22135
 Alpha virt. eigenvalues --    1.23492   1.24203   1.25115   1.25501   1.25602
 Alpha virt. eigenvalues --    1.26447   1.27210   1.27993   1.29400   1.29559
 Alpha virt. eigenvalues --    1.30210   1.30400   1.30551   1.32080   1.32341
 Alpha virt. eigenvalues --    1.33063   1.34025   1.35659   1.36313   1.37191
 Alpha virt. eigenvalues --    1.37907   1.39396   1.39705   1.41853   1.43036
 Alpha virt. eigenvalues --    1.44764   1.45186   1.45696   1.49428   1.49532
 Alpha virt. eigenvalues --    1.50342   1.51892   1.53143   1.53549   1.55597
 Alpha virt. eigenvalues --    1.56830   1.57551   1.58588   1.60749   1.62921
 Alpha virt. eigenvalues --    1.63481   1.63795   1.65142   1.67083   1.67645
 Alpha virt. eigenvalues --    1.68152   1.69629   1.72957   1.75263   1.76579
 Alpha virt. eigenvalues --    1.78603   1.80667   1.84872   1.86881   1.90905
 Alpha virt. eigenvalues --    1.92495   1.93682   1.94274   1.96666   1.97476
 Alpha virt. eigenvalues --    2.03995   2.05304   2.08157   2.10805   2.13332
 Alpha virt. eigenvalues --    2.13622   2.16114   2.16914   2.20729   2.21719
 Alpha virt. eigenvalues --    2.25537   2.27510   2.33465   2.35757   2.38610
 Alpha virt. eigenvalues --    2.39727   2.41127   2.44404   2.45906   2.47640
 Alpha virt. eigenvalues --    2.48942   2.51001   2.52224   2.52698   2.53446
 Alpha virt. eigenvalues --    2.54204   2.54393   2.56014   2.56721   2.58276
 Alpha virt. eigenvalues --    2.58942   2.59855   2.60660   2.62358   2.63178
 Alpha virt. eigenvalues --    2.64117   2.64992   2.65860   2.67040   2.68107
 Alpha virt. eigenvalues --    2.70079   2.70249   2.72437   2.73460   2.74714
 Alpha virt. eigenvalues --    2.74933   2.76096   2.76688   2.77654   2.78149
 Alpha virt. eigenvalues --    2.78774   2.80048   2.80852   2.81247   2.82221
 Alpha virt. eigenvalues --    2.82567   2.83685   2.84520   2.85599   2.86318
 Alpha virt. eigenvalues --    2.87163   2.87950   2.88489   2.88952   2.90256
 Alpha virt. eigenvalues --    2.90952   2.91642   2.92801   2.93533   2.94589
 Alpha virt. eigenvalues --    2.95138   2.95777   2.96103   2.96870   2.98127
 Alpha virt. eigenvalues --    2.99035   2.99110   2.99327   3.00105   3.00572
 Alpha virt. eigenvalues --    3.01691   3.02479   3.03257   3.03848   3.04554
 Alpha virt. eigenvalues --    3.05068   3.06098   3.06761   3.07303   3.08208
 Alpha virt. eigenvalues --    3.08927   3.09987   3.10488   3.11012   3.12506
 Alpha virt. eigenvalues --    3.12955   3.13909   3.14244   3.14891   3.14940
 Alpha virt. eigenvalues --    3.15449   3.16485   3.17242   3.18720   3.19390
 Alpha virt. eigenvalues --    3.19717   3.20565   3.21143   3.22087   3.23357
 Alpha virt. eigenvalues --    3.24376   3.24989   3.25854   3.26371   3.26804
 Alpha virt. eigenvalues --    3.27751   3.29110   3.29570   3.30045   3.31582
 Alpha virt. eigenvalues --    3.32349   3.33045   3.33602   3.34724   3.35108
 Alpha virt. eigenvalues --    3.36224   3.36730   3.37746   3.38707   3.38949
 Alpha virt. eigenvalues --    3.39864   3.40753   3.41580   3.42752   3.43211
 Alpha virt. eigenvalues --    3.44068   3.44105   3.45038   3.46898   3.47760
 Alpha virt. eigenvalues --    3.47937   3.48424   3.48762   3.49892   3.50107
 Alpha virt. eigenvalues --    3.51465   3.52919   3.53685   3.54515   3.55212
 Alpha virt. eigenvalues --    3.56158   3.56227   3.56940   3.57435   3.59199
 Alpha virt. eigenvalues --    3.59748   3.60684   3.61854   3.62422   3.62994
 Alpha virt. eigenvalues --    3.64121   3.65446   3.65555   3.67388   3.67659
 Alpha virt. eigenvalues --    3.70150   3.70348   3.71297   3.71947   3.73101
 Alpha virt. eigenvalues --    3.73506   3.74597   3.75125   3.76525   3.77821
 Alpha virt. eigenvalues --    3.78171   3.78839   3.80218   3.80986   3.81566
 Alpha virt. eigenvalues --    3.81898   3.82594   3.83646   3.84225   3.85338
 Alpha virt. eigenvalues --    3.85845   3.86898   3.87857   3.88417   3.89170
 Alpha virt. eigenvalues --    3.90141   3.90730   3.91603   3.91828   3.92852
 Alpha virt. eigenvalues --    3.94040   3.94483   3.96510   3.97523   3.98469
 Alpha virt. eigenvalues --    3.99154   4.00203   4.01489   4.01746   4.03076
 Alpha virt. eigenvalues --    4.04335   4.05857   4.06133   4.07816   4.08101
 Alpha virt. eigenvalues --    4.08636   4.11073   4.11398   4.11656   4.12114
 Alpha virt. eigenvalues --    4.14276   4.15905   4.16106   4.17431   4.19271
 Alpha virt. eigenvalues --    4.20736   4.21946   4.23481   4.25555   4.26814
 Alpha virt. eigenvalues --    4.27450   4.28018   4.30881   4.32621   4.35844
 Alpha virt. eigenvalues --    4.36689   4.37913   4.39584   4.40420   4.41136
 Alpha virt. eigenvalues --    4.41625   4.43617   4.44566   4.45458   4.47655
 Alpha virt. eigenvalues --    4.47999   4.49602   4.52108   4.54056   4.57483
 Alpha virt. eigenvalues --    4.58718   4.63063   4.65359   4.66213   4.66677
 Alpha virt. eigenvalues --    4.68038   4.69500   4.71518   4.72011   4.73855
 Alpha virt. eigenvalues --    4.74413   4.74670   4.76353   4.77966   4.78825
 Alpha virt. eigenvalues --    4.80133   4.81154   4.81516   4.82368   4.83978
 Alpha virt. eigenvalues --    4.85438   4.87002   4.88353   4.90051   4.91025
 Alpha virt. eigenvalues --    4.91716   4.93197   4.93583   4.94073   4.95093
 Alpha virt. eigenvalues --    4.95977   4.96354   4.97640   4.97877   4.98656
 Alpha virt. eigenvalues --    4.99284   5.00049   5.00843   5.01796   5.02851
 Alpha virt. eigenvalues --    5.03616   5.04473   5.04796   5.05850   5.07386
 Alpha virt. eigenvalues --    5.08359   5.09068   5.09925   5.12670   5.13512
 Alpha virt. eigenvalues --    5.13796   5.16797   5.18238   5.19287   5.20659
 Alpha virt. eigenvalues --    5.21486   5.23416   5.23919   5.24463   5.25330
 Alpha virt. eigenvalues --    5.26059   5.28242   5.31002   5.32747   5.32886
 Alpha virt. eigenvalues --    5.33278   5.35493   5.37992   5.38613   5.39953
 Alpha virt. eigenvalues --    5.42161   5.43075   5.44452   5.44600   5.45737
 Alpha virt. eigenvalues --    5.48712   5.49786   5.51407   5.52773   5.54713
 Alpha virt. eigenvalues --    5.57370   5.61857   5.62214   5.67975   5.69056
 Alpha virt. eigenvalues --    5.70707   5.72410   5.75123   5.77022   5.78424
 Alpha virt. eigenvalues --    5.79978   5.80540   5.81041   5.82229   5.85760
 Alpha virt. eigenvalues --    5.88667   5.95457   5.95710   5.97620   6.08515
 Alpha virt. eigenvalues --    6.11466   6.12703   6.14388   6.17420   6.19781
 Alpha virt. eigenvalues --    6.25007   6.26564   6.27785   6.29360   6.33971
 Alpha virt. eigenvalues --    6.37581   6.43463   6.47964   6.55441   6.62832
 Alpha virt. eigenvalues --    6.73852   6.76024   6.80907   6.83053   6.85018
 Alpha virt. eigenvalues --    6.86011   6.87880   6.91378   6.93803   6.97670
 Alpha virt. eigenvalues --    6.99433   7.08872   7.09952   7.13436   7.17376
 Alpha virt. eigenvalues --    7.17457   7.22652   7.30476   7.37172   7.43280
 Alpha virt. eigenvalues --    7.44705   7.46888   7.63845   7.86016  24.36189
 Alpha virt. eigenvalues --   24.48617  24.60137  24.69684  24.79307  24.85517
 Alpha virt. eigenvalues --   24.88607  24.94667  24.99496  35.90684  36.11470
 Alpha virt. eigenvalues --   36.15593  36.33826  50.05483  50.08949  50.18266
          Condensed to atoms (all electrons):
               1          2          3          4          5          6
     1  O    7.889343   0.624132  -0.091138  -0.004083  -0.001411   0.000000
     2  C    0.624132   4.300797   0.442128  -0.072468   0.008691  -0.000247
     3  N   -0.091138   0.442128   6.569471   0.194032  -0.003874   0.002793
     4  C   -0.004083  -0.072468   0.194032   5.400807   0.221430  -0.117644
     5  C   -0.001411   0.008691  -0.003874   0.221430   4.253632   0.399937
     6  O    0.000000  -0.000247   0.002793  -0.117644   0.399937   7.735920
     7  O   -0.000007   0.000466  -0.024102  -0.117420   0.716122  -0.061401
     8  C    0.000520   0.000330  -0.037976   0.273665  -0.041440   0.010176
     9  C   -0.001597   0.006287  -0.005183  -0.045237  -0.003610   0.000351
    10  C   -0.010106   0.004328   0.002267  -0.005311  -0.000322   0.000000
    11  N    0.000005  -0.000157  -0.000003  -0.000623  -0.000005   0.000000
    12  C   -0.000011  -0.000055   0.000037  -0.000209   0.000001   0.000000
    13  N    0.000008   0.000004  -0.000654   0.001189   0.000027   0.000000
    14  C   -0.081172   0.291873  -0.054044   0.009510  -0.001231  -0.000003
    15  C    0.007686  -0.055838  -0.000124  -0.000418   0.000025   0.000000
    16  N    0.000843  -0.001313   0.000019  -0.000002   0.000000   0.000000
    17  H    0.003708  -0.023127   0.329127  -0.055564   0.000588   0.001515
    18  H    0.026933  -0.019717  -0.038119   0.390425  -0.019944   0.001431
    19  H   -0.000081   0.000104   0.000437   0.005813  -0.048959   0.310672
    20  H   -0.000049  -0.001774   0.000722  -0.027397   0.002594  -0.001244
    21  H   -0.000032   0.000565   0.005026  -0.040590  -0.000067   0.007414
    22  H    0.023508  -0.002686  -0.003861   0.002158   0.000002   0.000004
    23  H    0.000000   0.000000   0.000000   0.000006   0.000000   0.000000
    24  H    0.000000  -0.000005  -0.000018  -0.000022  -0.000007   0.000001
    25  H    0.001621  -0.022456   0.007373   0.000071  -0.000055  -0.000002
    26  H    0.000017  -0.009470   0.000132  -0.000345   0.000143   0.000000
    27  H    0.021639   0.001872   0.000824  -0.000006   0.000004   0.000000
    28  H    0.004645   0.004078  -0.000044   0.000035   0.000002   0.000000
    29  H    0.000020   0.000235  -0.000017   0.000000   0.000000   0.000000
    30  H    0.000014  -0.000256   0.000001   0.000000   0.000000   0.000000
    31  H    0.000024   0.000058   0.000007   0.000001   0.000000   0.000000
               7          8          9         10         11         12
     1  O   -0.000007   0.000520  -0.001597  -0.010106   0.000005  -0.000011
     2  C    0.000466   0.000330   0.006287   0.004328  -0.000157  -0.000055
     3  N   -0.024102  -0.037976  -0.005183   0.002267  -0.000003   0.000037
     4  C   -0.117420   0.273665  -0.045237  -0.005311  -0.000623  -0.000209
     5  C    0.716122  -0.041440  -0.003610  -0.000322  -0.000005   0.000001
     6  O   -0.061401   0.010176   0.000351   0.000000   0.000000   0.000000
     7  O    7.790120   0.001099  -0.000136  -0.000002   0.000000   0.000000
     8  C    0.001099   4.870497   0.254337  -0.047858   0.014191  -0.001233
     9  C   -0.000136   0.254337   5.158766   0.504319  -0.051957  -0.126023
    10  C   -0.000002  -0.047858   0.504319   4.785299   0.465496  -0.151093
    11  N    0.000000   0.014191  -0.051957   0.465496   6.506228   0.583777
    12  C    0.000000  -0.001233  -0.126023  -0.151093   0.583777   4.577606
    13  N    0.000000  -0.040508   0.373923  -0.035644  -0.139071   0.475235
    14  C   -0.000657  -0.000340  -0.000336  -0.000060  -0.000001   0.000003
    15  C   -0.000001   0.000027   0.000000  -0.000297  -0.000008  -0.000001
    16  N    0.000000   0.000000   0.000000   0.000001   0.000000   0.000000
    17  H    0.042786   0.003387  -0.000862   0.000254  -0.000002  -0.000008
    18  H    0.002800  -0.046362  -0.005240   0.001683   0.000027  -0.000041
    19  H    0.004669  -0.000734   0.000133  -0.000055   0.000000   0.000001
    20  H    0.004563   0.380296  -0.050314   0.002121  -0.000460   0.000416
    21  H   -0.000483   0.383692  -0.025542   0.000605  -0.000312   0.000489
    22  H   -0.000005  -0.002983  -0.052457   0.414547  -0.016619   0.005512
    23  H    0.000000  -0.000164   0.005513   0.003203  -0.015975   0.426357
    24  H   -0.000001   0.006941  -0.030150   0.002209   0.007506  -0.025487
    25  H   -0.000136  -0.000149   0.000409   0.000424  -0.000004  -0.000009
    26  H    0.000272   0.000014   0.000015   0.000005   0.000000   0.000000
    27  H    0.000000  -0.000002   0.000004   0.000013  -0.000001   0.000000
    28  H    0.000000  -0.000014   0.000081   0.000657   0.000087  -0.000006
    29  H    0.000000   0.000000   0.000000  -0.000001   0.000000   0.000000
    30  H    0.000000   0.000000   0.000000   0.000000   0.000000   0.000000
    31  H    0.000000   0.000000   0.000000   0.000000   0.000000   0.000000
              13         14         15         16         17         18
     1  O    0.000008  -0.081172   0.007686   0.000843   0.003708   0.026933
     2  C    0.000004   0.291873  -0.055838  -0.001313  -0.023127  -0.019717
     3  N   -0.000654  -0.054044  -0.000124   0.000019   0.329127  -0.038119
     4  C    0.001189   0.009510  -0.000418  -0.000002  -0.055564   0.390425
     5  C    0.000027  -0.001231   0.000025   0.000000   0.000588  -0.019944
     6  O    0.000000  -0.000003   0.000000   0.000000   0.001515   0.001431
     7  O    0.000000  -0.000657  -0.000001   0.000000   0.042786   0.002800
     8  C   -0.040508  -0.000340   0.000027   0.000000   0.003387  -0.046362
     9  C    0.373923  -0.000336   0.000000   0.000000  -0.000862  -0.005240
    10  C   -0.035644  -0.000060  -0.000297   0.000001   0.000254   0.001683
    11  N   -0.139071  -0.000001  -0.000008   0.000000  -0.000002   0.000027
    12  C    0.475235   0.000003  -0.000001   0.000000  -0.000008  -0.000041
    13  N    6.245315   0.000000   0.000001   0.000000  -0.000006  -0.000153
    14  C    0.000000   4.986933   0.287727  -0.016597  -0.001442   0.004027
    15  C    0.000001   0.287727   4.756751   0.176522  -0.000147  -0.000288
    16  N    0.000000  -0.016597   0.176522   5.706678  -0.000045  -0.000003
    17  H   -0.000006  -0.001442  -0.000147  -0.000045   0.581211   0.007562
    18  H   -0.000153   0.004027  -0.000288  -0.000003   0.007562   0.642559
    19  H   -0.000006   0.000001   0.000000   0.000000  -0.000438   0.001398
    20  H   -0.000857  -0.000003  -0.000007   0.000000   0.002958   0.009385
    21  H   -0.000460   0.000019  -0.000001   0.000000  -0.000274  -0.006818
    22  H    0.005686   0.000337   0.000450   0.000005  -0.000107  -0.001231
    23  H   -0.036074   0.000000   0.000000   0.000000   0.000000   0.000000
    24  H    0.386395   0.000000   0.000000   0.000000  -0.000002   0.000019
    25  H   -0.000013   0.390305  -0.033655   0.000282  -0.002901  -0.000131
    26  H    0.000000   0.381776  -0.032470   0.000253   0.000702  -0.000299
    27  H    0.000000  -0.040961   0.403459  -0.021286  -0.000168  -0.000059
    28  H   -0.000004  -0.037621   0.408494  -0.023300  -0.000024  -0.000078
    29  H    0.000000  -0.000445  -0.023054   0.354216   0.000011   0.000000
    30  H    0.000000   0.002240  -0.016145   0.378247   0.000000   0.000000
    31  H    0.000000   0.000658  -0.025596   0.355120  -0.000002   0.000000
              19         20         21         22         23         24
     1  O   -0.000081  -0.000049  -0.000032   0.023508   0.000000   0.000000
     2  C    0.000104  -0.001774   0.000565  -0.002686   0.000000  -0.000005
     3  N    0.000437   0.000722   0.005026  -0.003861   0.000000  -0.000018
     4  C    0.005813  -0.027397  -0.040590   0.002158   0.000006  -0.000022
     5  C   -0.048959   0.002594  -0.000067   0.000002   0.000000  -0.000007
     6  O    0.310672  -0.001244   0.007414   0.000004   0.000000   0.000001
     7  O    0.004669   0.004563  -0.000483  -0.000005   0.000000  -0.000001
     8  C   -0.000734   0.380296   0.383692  -0.002983  -0.000164   0.006941
     9  C    0.000133  -0.050314  -0.025542  -0.052457   0.005513  -0.030150
    10  C   -0.000055   0.002121   0.000605   0.414547   0.003203   0.002209
    11  N    0.000000  -0.000460  -0.000312  -0.016619  -0.015975   0.007506
    12  C    0.000001   0.000416   0.000489   0.005512   0.426357  -0.025487
    13  N   -0.000006  -0.000857  -0.000460   0.005686  -0.036074   0.386395
    14  C    0.000001  -0.000003   0.000019   0.000337   0.000000   0.000000
    15  C    0.000000  -0.000007  -0.000001   0.000450   0.000000   0.000000
    16  N    0.000000   0.000000   0.000000   0.000005   0.000000   0.000000
    17  H   -0.000438   0.002958  -0.000274  -0.000107   0.000000  -0.000002
    18  H    0.001398   0.009385  -0.006818  -0.001231   0.000000   0.000019
    19  H    0.500681  -0.000099   0.002010  -0.000028   0.000000  -0.000001
    20  H   -0.000099   0.689490  -0.044434  -0.000224  -0.000020   0.001222
    21  H    0.002010  -0.044434   0.686221  -0.000235   0.000009   0.000355
    22  H   -0.000028  -0.000224  -0.000235   0.593004  -0.000355  -0.000476
    23  H    0.000000  -0.000020   0.000009  -0.000355   0.584551  -0.001108
    24  H   -0.000001   0.001222   0.000355  -0.000476  -0.001108   0.539906
    25  H    0.000002   0.000006   0.000009  -0.000375   0.000000   0.000000
    26  H   -0.000001  -0.000008   0.000001   0.000016   0.000000   0.000000
    27  H    0.000000   0.000001   0.000000  -0.000055   0.000000   0.000000
    28  H    0.000000  -0.000004   0.000001   0.000117   0.000000   0.000000
    29  H    0.000000   0.000000   0.000000   0.000001   0.000000   0.000000
    30  H    0.000000   0.000000   0.000000  -0.000001   0.000000   0.000000
    31  H    0.000000   0.000000   0.000000  -0.000001   0.000000   0.000000
              25         26         27         28         29         30
     1  O    0.001621   0.000017   0.021639   0.004645   0.000020   0.000014
     2  C   -0.022456  -0.009470   0.001872   0.004078   0.000235  -0.000256
     3  N    0.007373   0.000132   0.000824  -0.000044  -0.000017   0.000001
     4  C    0.000071  -0.000345  -0.000006   0.000035   0.000000   0.000000
     5  C   -0.000055   0.000143   0.000004   0.000002   0.000000   0.000000
     6  O   -0.000002   0.000000   0.000000   0.000000   0.000000   0.000000
     7  O   -0.000136   0.000272   0.000000   0.000000   0.000000   0.000000
     8  C   -0.000149   0.000014  -0.000002  -0.000014   0.000000   0.000000
     9  C    0.000409   0.000015   0.000004   0.000081   0.000000   0.000000
    10  C    0.000424   0.000005   0.000013   0.000657  -0.000001   0.000000
    11  N   -0.000004   0.000000  -0.000001   0.000087   0.000000   0.000000
    12  C   -0.000009   0.000000   0.000000  -0.000006   0.000000   0.000000
    13  N   -0.000013   0.000000   0.000000  -0.000004   0.000000   0.000000
    14  C    0.390305   0.381776  -0.040961  -0.037621  -0.000445   0.002240
    15  C   -0.033655  -0.032470   0.403459   0.408494  -0.023054  -0.016145
    16  N    0.000282   0.000253  -0.021286  -0.023300   0.354216   0.378247
    17  H   -0.002901   0.000702  -0.000168  -0.000024   0.000011   0.000000
    18  H   -0.000131  -0.000299  -0.000059  -0.000078   0.000000   0.000000
    19  H    0.000002  -0.000001   0.000000   0.000000   0.000000   0.000000
    20  H    0.000006  -0.000008   0.000001  -0.000004   0.000000   0.000000
    21  H    0.000009   0.000001   0.000000   0.000001   0.000000   0.000000
    22  H   -0.000375   0.000016  -0.000055   0.000117   0.000001  -0.000001
    23  H    0.000000   0.000000   0.000000   0.000000   0.000000   0.000000
    24  H    0.000000   0.000000   0.000000   0.000000   0.000000   0.000000
    25  H    0.645081  -0.038971   0.006994  -0.004514   0.002959   0.000046
    26  H   -0.038971   0.636588  -0.004960   0.005704  -0.001098   0.000029
    27  H    0.006994  -0.004960   0.576835  -0.029315   0.004671  -0.002504
    28  H   -0.004514   0.005704  -0.029315   0.583365  -0.005050  -0.002649
    29  H    0.002959  -0.001098   0.004671  -0.005050   0.558403  -0.024451
    30  H    0.000046   0.000029  -0.002504  -0.002649  -0.024451   0.541759
    31  H   -0.000858   0.004114  -0.004446   0.005222  -0.025281  -0.023749
              31
     1  O    0.000024
     2  C    0.000058
     3  N    0.000007
     4  C    0.000001
     5  C    0.000000
     6  O    0.000000
     7  O    0.000000
     8  C    0.000000
     9  C    0.000000
    10  C    0.000000
    11  N    0.000000
    12  C    0.000000
    13  N    0.000000
    14  C    0.000658
    15  C   -0.025596
    16  N    0.355120
    17  H   -0.000002
    18  H    0.000000
    19  H    0.000000
    20  H    0.000000
    21  H    0.000000
    22  H   -0.000001
    23  H    0.000000
    24  H    0.000000
    25  H   -0.000858
    26  H    0.004114
    27  H   -0.004446
    28  H    0.005222
    29  H   -0.025281
    30  H   -0.023749
    31  H    0.554783
 Mulliken charges:
               1
     1  O   -0.414983
     2  C    0.523620
     3  N   -0.295240
     4  C   -0.011801
     5  C    0.517729
     6  O   -0.289672
     7  O   -0.358547
     8  C    0.020593
     9  C    0.094503
    10  C    0.063321
    11  N   -0.352118
    12  C    0.234740
    13  N   -0.234332
    14  C   -0.120497
    15  C    0.146906
    16  N    0.090361
    17  H    0.111309
    18  H    0.050232
    19  H    0.224478
    20  H    0.033120
    21  H    0.032831
    22  H    0.036348
    23  H    0.034057
    24  H    0.112724
    25  H    0.048648
    26  H    0.057842
    27  H    0.087447
    28  H    0.090135
    29  H    0.158880
    30  H    0.147418
    31  H    0.159946
 Sum of Mulliken charges =   1.00000
 Mulliken charges with hydrogens summed into heavy atoms:
               1
     1  O   -0.414983
     2  C    0.523620
     3  N   -0.183931
     4  C    0.038431
     5  C    0.517729
     6  O   -0.065193
     7  O   -0.358547
     8  C    0.086544
     9  C    0.094503
    10  C    0.099669
    11  N   -0.352118
    12  C    0.268797
    13  N   -0.121608
    14  C   -0.014007
    15  C    0.324489
    16  N    0.556605
 Electronic spatial extent (au):  <R**2>=           4608.0637
 Charge=              1.0000 electrons
 Dipole moment (field-independent basis, Debye):
    X=            -13.2147    Y=              5.8872    Z=              2.2830  Tot=             14.6458
 Quadrupole moment (field-independent basis, Debye-Ang):
   XX=             13.4943   YY=            -77.1522   ZZ=           -107.2906
   XY=            -25.7097   XZ=             -0.5737   YZ=             11.6769
 Traceless Quadrupole moment (field-independent basis, Debye-Ang):
   XX=             70.4772   YY=            -20.1694   ZZ=            -50.3078
   XY=            -25.7097   XZ=             -0.5737   YZ=             11.6769
 Octapole moment (field-independent basis, Debye-Ang**2):
  XXX=           -418.2064  YYY=             81.8363  ZZZ=              2.7696  XYY=            -53.5323
  XXY=            160.7189  XXZ=              6.1448  XZZ=            -73.4208  YZZ=             41.0139
  YYZ=            -24.8409  XYZ=             16.7125
 Hexadecapole moment (field-independent basis, Debye-Ang**3):
 XXXX=           -948.3425 YYYY=          -1447.3106 ZZZZ=          -1256.5199 XXXY=           -283.9611
 XXXZ=            124.3013 YYYX=             43.5781 YYYZ=            535.8302 ZZZX=            133.0306
 ZZZY=            571.3040 XXYY=           -429.3233 XXZZ=           -670.5201 YYZZ=           -537.3846
 XXYZ=            130.4572 YYXZ=            -25.5690 ZZXY=             45.2296
 N-N= 1.128358175162D+03 E-N=-4.103588088841D+03  KE= 7.936635748598D+02
 Calling FoFJK, ICntrl=      2127 FMM=F ISym2X=0 I1Cent= 0 IOpClX= 0 NMat=1 NMatS=1 NMatT=0.
 -------------------------------------------------------------------
 Center     Atomic                   Forces (Hartrees/Bohr)
 Number     Number              X              Y              Z
 -------------------------------------------------------------------
      1        8           0.000050561   -0.000040477   -0.000166103
      2        6          -0.000068906   -0.000105620    0.000188634
      3        7           0.000024130    0.000113087   -0.000101111
      4        6          -0.000324449   -0.000263137    0.001292934
      5        6          -0.004993967    0.000898941    0.013633038
      6        8          -0.001797043    0.002195567    0.001836371
      7        8           0.007040869   -0.002929879   -0.016744867
      8        6           0.000135770   -0.000005290    0.000118615
      9        6           0.000002992   -0.000053537   -0.000089863
     10        6           0.000038858   -0.000016809   -0.000039526
     11        7          -0.000017912   -0.000020109    0.000004342
     12        6          -0.000013052   -0.000016143    0.000021435
     13        7          -0.000046703    0.000024671    0.000064426
     14        6          -0.000000237   -0.000027706    0.000023415
     15        6          -0.000012328   -0.000009148   -0.000003904
     16        7          -0.000009662   -0.000030685    0.000003617
     17        1           0.000093990    0.000030767    0.000075060
     18        1          -0.000046705   -0.000028152    0.000012610
     19        1          -0.000094440    0.000236053   -0.000115730
     20        1           0.000005380   -0.000002389   -0.000042937
     21        1          -0.000017586   -0.000033193    0.000015039
     22        1          -0.000010837    0.000002084   -0.000005215
     23        1           0.000004555   -0.000005793   -0.000000025
     24        1           0.000003577    0.000005225    0.000009541
     25        1           0.000032826    0.000002468   -0.000029847
     26        1           0.000004788    0.000039286    0.000032876
     27        1           0.000036499    0.000000369   -0.000021445
     28        1          -0.000020638    0.000039446    0.000020866
     29        1           0.000000158   -0.000000764    0.000007251
     30        1           0.000003075    0.000004210    0.000000827
     31        1          -0.000003565   -0.000003344   -0.000000324
 -------------------------------------------------------------------
 Cartesian Forces:  Max     0.016744867 RMS     0.002461966

 GradGradGradGradGradGradGradGradGradGradGradGradGradGradGradGradGradGrad
 Berny optimization.
 FormGI is forming the generalized inverse of G from B-inverse, IUseBI=4.
 Internal  Forces:  Max     0.018398511 RMS     0.001503107
 Search for a local minimum.
 Step number   1 out of a maximum of  167
 All quantities printed in internal units (Hartrees-Bohrs-Radians)
 Mixed Optimization -- RFO/linear search
 Second derivative matrix not updated -- first step.
 ITU=  0
     Eigenvalues ---   -0.95367  -0.00688  -0.00002   0.00031   0.00070
     Eigenvalues ---    0.00193   0.00251   0.00453   0.00532   0.00566
     Eigenvalues ---    0.00700   0.01046   0.01138   0.01993   0.02337
     Eigenvalues ---    0.02680   0.02826   0.03848   0.04016   0.04234
     Eigenvalues ---    0.04254   0.04491   0.04569   0.04897   0.05045
     Eigenvalues ---    0.05081   0.05161   0.05534   0.05842   0.06099
     Eigenvalues ---    0.06909   0.08048   0.08528   0.09897   0.10386
     Eigenvalues ---    0.11239   0.11524   0.11779   0.12007   0.12227
     Eigenvalues ---    0.12589   0.13354   0.14463   0.15102   0.16012
     Eigenvalues ---    0.16798   0.17802   0.17932   0.19416   0.21208
     Eigenvalues ---    0.21619   0.22525   0.23154   0.24055   0.24295
     Eigenvalues ---    0.25004   0.26974   0.29702   0.31195   0.32085
     Eigenvalues ---    0.32287   0.32669   0.33379   0.33627   0.33954
     Eigenvalues ---    0.34165   0.34752   0.35540   0.36873   0.37276
     Eigenvalues ---    0.38681   0.40485   0.42638   0.42647   0.42702
     Eigenvalues ---    0.44264   0.44883   0.45515   0.46299   0.47546
     Eigenvalues ---    0.48147   0.49382   0.52023   0.59289   0.77851
     Eigenvalues ---    0.94265   0.96777
 RFO step:  Lambda=-9.53669998D-01 EMin=-9.53669987D-01
 I=     1 Eig=   -9.54D-01 Dot1= -5.52D-05
 I=     1 Stepn= -6.00D-01 RXN=   6.00D-01 EDone=F
 I=     2 Eig=   -6.88D-03 Dot1= -1.60D-06
 I=     2 Stepn= -3.00D-01 RXN=   6.71D-01 EDone=F
 Mixed    2 eigenvectors in step.  Raw Step.Grad=  5.68D-05.
 RFO eigenvector is Hessian eigenvector with negative curvature.
 Taking step of  6.00D-01 in eigenvector direction(s).  Step.Grad=  1.10D-03.
 Linear search not attempted -- first point.
 Maximum step size (   0.300) exceeded in Quadratic search.
    -- Step size not scaled.
 Iteration  1 RMS(Cart)=  0.14586199 RMS(Int)=  0.00736473
 Iteration  2 RMS(Cart)=  0.01164146 RMS(Int)=  0.00142621
 Iteration  3 RMS(Cart)=  0.00009700 RMS(Int)=  0.00142537
 Iteration  4 RMS(Cart)=  0.00000027 RMS(Int)=  0.00142537
 Variable       Old X    -DE/DX   Delta X   Delta X   Delta X     New X
                                 (Linear)    (Quad)   (Total)
    R1        2.30244   0.00016   0.00000  -0.04220  -0.04220   2.26024
    R2        2.54409  -0.00005   0.00000   0.03697   0.03697   2.58105
    R3        2.90728  -0.00001   0.00000  -0.20272  -0.20272   2.70456
    R4        2.74711  -0.00009   0.00000  -0.01351  -0.01351   2.73359
    R5        1.90997   0.00007   0.00000  -0.01723  -0.01723   1.89274
    R6        2.90339  -0.00127   0.00000  -0.03920  -0.03920   2.86419
    R7        2.92062   0.00000   0.00000   0.07359   0.07359   2.99420
    R8        2.05989   0.00001   0.00000  -0.01752  -0.01752   2.04237
    R9        2.53614  -0.00336   0.00000  -0.02767  -0.02767   2.50847
   R10        2.28640  -0.01840   0.00000  -0.00017  -0.00017   2.28623
   R11        1.82265   0.00008   0.00000  -0.00234  -0.00234   1.82031
   R12        2.82453  -0.00003   0.00000  -0.01336  -0.01336   2.81116
   R13        2.06836  -0.00004   0.00000  -0.02239  -0.02239   2.04597
   R14        2.06914   0.00001   0.00000  -0.02531  -0.02531   2.04383
   R15        2.59083   0.00001   0.00000   0.00680   0.00685   2.59767
   R16        2.60808  -0.00003   0.00000   0.00266   0.00270   2.61079
   R17        2.59795  -0.00003   0.00000   0.00427   0.00426   2.60221
   R18        2.03390   0.00001   0.00000  -0.00521  -0.00521   2.02869
   R19        2.47129   0.00001   0.00000   0.02835   0.02829   2.49958
   R20        2.57626  -0.00001   0.00000  -0.01691  -0.01693   2.55932
   R21        2.03610   0.00000   0.00000  -0.00439  -0.00439   2.03171
   R22        1.90128   0.00001   0.00000  -0.00567  -0.00567   1.89561
   R23        2.86978   0.00000   0.00000   0.13908   0.13908   3.00885
   R24        2.06317   0.00000   0.00000   0.00698   0.00698   2.07014
   R25        2.06743   0.00000   0.00000  -0.04725  -0.04725   2.02017
   R26        2.87901  -0.00001   0.00000  -0.05838  -0.05838   2.82063
   R27        2.05120   0.00000   0.00000   0.11650   0.11650   2.16770
   R28        2.05370   0.00000   0.00000  -0.01739  -0.01739   2.03631
   R29        1.93097   0.00000   0.00000   0.00571   0.00571   1.93667
   R30        1.93116   0.00000   0.00000  -0.00191  -0.00191   1.92924
   R31        1.93134   0.00000   0.00000  -0.00678  -0.00678   1.92456
    A1        2.18598  -0.00003   0.00000   0.15301   0.15195   2.33794
    A2        2.08475   0.00008   0.00000  -0.20330  -0.20348   1.88127
    A3        2.01223  -0.00005   0.00000   0.04905   0.04865   2.06088
    A4        2.14243  -0.00005   0.00000  -0.06630  -0.06633   2.07611
    A5        2.08749   0.00009   0.00000   0.03246   0.03241   2.11990
    A6        1.99872  -0.00006   0.00000   0.02793   0.02792   2.02664
    A7        1.87273  -0.00005   0.00000   0.00697   0.00687   1.87961
    A8        1.96186   0.00006   0.00000   0.00373   0.00357   1.96543
    A9        1.87149   0.00002   0.00000  -0.02018  -0.02021   1.85129
   A10        1.89948   0.00001   0.00000   0.01347   0.01339   1.91288
   A11        1.93344  -0.00005   0.00000   0.00603   0.00611   1.93954
   A12        1.92446   0.00002   0.00000  -0.00980  -0.00988   1.91458
   A13        2.03868   0.00136   0.00000  -0.03246  -0.03248   2.00620
   A14        2.12577  -0.00051   0.00000   0.02155   0.02153   2.14731
   A15        2.11773  -0.00085   0.00000   0.01048   0.01046   2.12820
   A16        1.95887  -0.00049   0.00000  -0.00220  -0.00220   1.95667
   A17        1.99291  -0.00011   0.00000  -0.00766  -0.00766   1.98525
   A18        1.88161   0.00001   0.00000   0.01473   0.01451   1.89612
   A19        1.88447   0.00004   0.00000   0.01900   0.01892   1.90340
   A20        1.92002   0.00005   0.00000  -0.02618  -0.02616   1.89386
   A21        1.93255   0.00003   0.00000   0.00094   0.00095   1.93351
   A22        1.84570  -0.00001   0.00000   0.00074   0.00046   1.84616
   A23        2.33392   0.00000   0.00000   0.00472   0.00441   2.33833
   A24        2.12482  -0.00003   0.00000  -0.01132  -0.01162   2.11320
   A25        1.82432   0.00003   0.00000   0.00718   0.00708   1.83140
   A26        1.93583  -0.00001   0.00000  -0.01027  -0.01019   1.92565
   A27        2.23100   0.00001   0.00000   0.01171   0.01167   2.24267
   A28        2.11634   0.00000   0.00000  -0.00144  -0.00148   2.11486
   A29        1.84080  -0.00001   0.00000   0.00297   0.00293   1.84374
   A30        1.94669   0.00002   0.00000  -0.00510  -0.00513   1.94156
   A31        2.20179  -0.00001   0.00000   0.00190   0.00191   2.20370
   A32        2.13471  -0.00001   0.00000   0.00320   0.00321   2.13792
   A33        1.87709  -0.00002   0.00000   0.00516   0.00523   1.88231
   A34        2.20522   0.00001   0.00000  -0.00619  -0.00623   2.19899
   A35        2.20037   0.00001   0.00000   0.00085   0.00081   2.20118
   A36        1.87241   0.00003   0.00000   0.14491   0.14385   2.01626
   A37        1.92449   0.00000   0.00000  -0.09580  -0.09893   1.82556
   A38        1.89728  -0.00002   0.00000  -0.06980  -0.07572   1.82156
   A39        1.94734   0.00000   0.00000   0.00867   0.01212   1.95946
   A40        1.93912   0.00000   0.00000   0.03098   0.03221   1.97133
   A41        1.88298   0.00000   0.00000  -0.02316  -0.02843   1.85455
   A42        1.93835  -0.00002   0.00000   0.10327   0.10466   2.04301
   A43        1.94578   0.00000   0.00000  -0.07626  -0.07453   1.87125
   A44        1.95619   0.00001   0.00000  -0.03617  -0.03676   1.91943
   A45        1.86857   0.00000   0.00000  -0.06238  -0.06003   1.80854
   A46        1.85970   0.00000   0.00000  -0.02041  -0.02008   1.83962
   A47        1.89089   0.00000   0.00000   0.09349   0.09258   1.98347
   A48        1.94716   0.00000   0.00000  -0.05843  -0.05816   1.88900
   A49        1.93766   0.00000   0.00000   0.03770   0.03768   1.97533
   A50        1.94257   0.00000   0.00000   0.01371   0.01336   1.95593
   A51        1.87851   0.00000   0.00000   0.00724   0.00781   1.88632
   A52        1.87581   0.00000   0.00000   0.01127   0.01120   1.88701
   A53        1.87895   0.00000   0.00000  -0.01102  -0.01158   1.86737
    D1       -0.11200  -0.00008   0.00000   0.06065   0.05710  -0.05490
    D2       -2.88550   0.00001   0.00000   0.07346   0.07000  -2.81549
    D3        3.05256  -0.00010   0.00000   0.12714   0.13060  -3.10003
    D4        0.27906  -0.00001   0.00000   0.13995   0.14350   0.42256
    D5       -0.26837   0.00001   0.00000   0.02141   0.01796  -0.25041
    D6       -2.39232   0.00000   0.00000  -0.02302  -0.02120  -2.41352
    D7        1.83001   0.00001   0.00000   0.10255   0.09486   1.92486
    D8        2.85168   0.00002   0.00000  -0.03615  -0.03338   2.81830
    D9        0.72773   0.00001   0.00000  -0.08057  -0.07254   0.65519
   D10       -1.33313   0.00003   0.00000   0.04499   0.04351  -1.28961
   D11       -2.12820   0.00011   0.00000   0.01906   0.01904  -2.10916
   D12        2.06737   0.00011   0.00000  -0.00430  -0.00432   2.06305
   D13       -0.05036   0.00004   0.00000   0.01915   0.01909  -0.03128
   D14        0.66236   0.00006   0.00000   0.00898   0.00903   0.67139
   D15       -1.42526   0.00005   0.00000  -0.01438  -0.01433  -1.43959
   D16        2.74019  -0.00002   0.00000   0.00907   0.00907   2.74927
   D17        2.81300   0.00003   0.00000   0.02123   0.02120   2.83420
   D18       -0.37587   0.00000   0.00000   0.01111   0.01106  -0.36482
   D19       -1.34309   0.00007   0.00000   0.03767   0.03770  -1.30539
   D20        1.75122   0.00005   0.00000   0.02755   0.02755   1.77877
   D21        0.77547   0.00007   0.00000   0.03810   0.03814   0.81361
   D22       -2.41340   0.00004   0.00000   0.02797   0.02799  -2.38541
   D23       -1.06400  -0.00007   0.00000   0.06086   0.06090  -1.00310
   D24        1.07514  -0.00007   0.00000   0.03301   0.03291   1.10805
   D25        3.06175  -0.00006   0.00000   0.05057   0.05065   3.11240
   D26       -3.13598  -0.00004   0.00000   0.04105   0.04105  -3.09493
   D27       -0.99685  -0.00004   0.00000   0.01320   0.01306  -0.98379
   D28        0.98977  -0.00003   0.00000   0.03076   0.03080   1.02057
   D29        1.02316   0.00000   0.00000   0.03106   0.03112   1.05429
   D30       -3.12088   0.00000   0.00000   0.00321   0.00313  -3.11775
   D31       -1.13427   0.00001   0.00000   0.02077   0.02087  -1.11340
   D32       -0.11654   0.00001   0.00000  -0.01239  -0.01235  -0.12889
   D33        3.07211   0.00002   0.00000  -0.00264  -0.00267   3.06943
   D34       -0.34937  -0.00004   0.00000   0.01529   0.01532  -0.33405
   D35        2.81175  -0.00006   0.00000  -0.03209  -0.03195   2.77979
   D36       -2.46741  -0.00002   0.00000   0.02107   0.02096  -2.44646
   D37        0.69370  -0.00004   0.00000  -0.02631  -0.02632   0.66738
   D38        1.78192  -0.00005   0.00000   0.03544   0.03537   1.81729
   D39       -1.34015  -0.00007   0.00000  -0.01194  -0.01191  -1.35206
   D40       -3.12874  -0.00001   0.00000  -0.04505  -0.04531   3.10913
   D41        0.01741  -0.00001   0.00000  -0.04660  -0.04680  -0.02939
   D42       -0.00430   0.00000   0.00000  -0.00358  -0.00357  -0.00786
   D43       -3.14133   0.00001   0.00000  -0.00513  -0.00505   3.13681
   D44        3.12579   0.00001   0.00000   0.03556   0.03538  -3.12202
   D45        0.01700   0.00001   0.00000   0.04105   0.04090   0.05790
   D46       -0.00123   0.00000   0.00000   0.00015   0.00013  -0.00109
   D47       -3.11002  -0.00001   0.00000   0.00564   0.00566  -3.10436
   D48        0.00829   0.00000   0.00000   0.00563   0.00558   0.01387
   D49       -3.13751  -0.00001   0.00000   0.00710   0.00698  -3.13053
   D50       -0.00908   0.00000   0.00000  -0.00554  -0.00554  -0.01462
   D51        3.13287   0.00000   0.00000  -0.00975  -0.00978   3.12309
   D52        0.00668   0.00000   0.00000   0.00345   0.00344   0.01012
   D53        3.11559   0.00001   0.00000  -0.00219  -0.00227   3.11332
   D54       -3.13525   0.00000   0.00000   0.00747   0.00749  -3.12776
   D55       -0.02634   0.00001   0.00000   0.00183   0.00178  -0.02456
   D56        3.08076  -0.00004   0.00000  -0.02362  -0.02333   3.05743
   D57        0.99853  -0.00003   0.00000   0.03673   0.03795   1.03649
   D58       -1.12451  -0.00004   0.00000  -0.00357  -0.00342  -1.12792
   D59       -1.09285  -0.00003   0.00000  -0.04264  -0.04162  -1.13447
   D60        3.10810  -0.00002   0.00000   0.01771   0.01966   3.12777
   D61        0.98507  -0.00003   0.00000  -0.02258  -0.02171   0.96336
   D62        1.00921  -0.00003   0.00000  -0.04497  -0.04708   0.96213
   D63       -1.07302  -0.00003   0.00000   0.01537   0.01421  -1.05881
   D64        3.08712  -0.00003   0.00000  -0.02492  -0.02716   3.05996
   D65        1.05409   0.00000   0.00000   0.00638   0.00703   1.06111
   D66       -3.13384   0.00000   0.00000   0.00186   0.00204  -3.13179
   D67       -1.04109   0.00000   0.00000   0.02237   0.02297  -1.01812
   D68       -3.10122  -0.00001   0.00000  -0.06545  -0.06562   3.11634
   D69       -1.00596   0.00000   0.00000  -0.06997  -0.07060  -1.07657
   D70        1.08679   0.00000   0.00000  -0.04946  -0.04968   1.03711
   D71       -1.08085   0.00000   0.00000   0.00237   0.00240  -1.07845
   D72        1.01441   0.00000   0.00000  -0.00215  -0.00258   1.01183
   D73        3.10715   0.00000   0.00000   0.01836   0.01835   3.12550
         Item               Value     Threshold  Converged?
 Maximum Force            0.018399     0.000450     NO 
 RMS     Force            0.001503     0.000300     NO 
 Maximum Displacement     0.481199     0.001800     NO 
 RMS     Displacement     0.146526     0.001200     NO 
 Predicted change in Energy=-1.373576D-01
 GradGradGradGradGradGradGradGradGradGradGradGradGradGradGradGradGradGrad

                          Input orientation:                          
 ---------------------------------------------------------------------
 Center     Atomic      Atomic             Coordinates (Angstroms)
 Number     Number       Type             X           Y           Z
 ---------------------------------------------------------------------
      1          8           0       -1.369695   -1.059628   -0.845248
      2          6           0       -1.088528   -0.599790    0.222492
      3          7           0        0.010381   -0.680068    1.029622
      4          6           0        1.114491   -1.523700    0.627437
      5          6           0        1.322792   -2.559170    1.714472
      6          8           0        2.036020   -3.617748    1.350083
      7          8           0        0.926867   -2.413739    2.848386
      8          6           0        2.454951   -0.708404    0.406114
      9          6           0        2.335119    0.379217   -0.601697
     10          6           0        1.448701    0.645241   -1.618113
     11          7           0        1.774864    1.830002   -2.239542
     12          6           0        2.857299    2.271166   -1.620432
     13          7           0        3.226950    1.434188   -0.621907
     14          6           0       -2.147833    0.280121    0.612280
     15          6           0       -3.163779    0.685468   -0.544742
     16          7           0       -4.343753    1.511605   -0.153520
     17          1           0       -0.038878   -0.452963    2.003885
     18          1           0        0.813314   -1.988413   -0.300688
     19          1           0        2.221787   -3.621850    0.404909
     20          1           0        2.753685   -0.270758    1.350263
     21          1           0        3.245787   -1.395400    0.137115
     22          1           0        0.603301    0.065173   -1.936388
     23          1           0        3.401558    3.168742   -1.852935
     24          1           0        4.026719    1.541527   -0.026015
     25          1           0       -1.639842    1.150213    1.042331
     26          1           0       -2.623346   -0.221999    1.427504
     27          1           0       -3.632043   -0.284071   -0.940415
     28          1           0       -2.651596    1.257845   -1.300522
     29          1           0       -4.001317    2.395222    0.236689
     30          1           0       -4.959714    1.729321   -0.938026
     31          1           0       -4.914274    1.052759    0.554416
 ---------------------------------------------------------------------
                    Distance matrix (angstroms):
                    1          2          3          4          5
     1  O    0.000000
     2  C    1.196066   0.000000
     3  N    2.358774   1.365835   0.000000
     4  C    2.924951   2.422990   1.446556   0.000000
     5  C    4.006279   3.446685   2.392167   1.515662   0.000000
     6  O    4.791904   4.488021   3.582718   2.399265   1.327426
     7  O    4.555298   3.774592   2.674596   2.399997   1.209822
     8  C    4.039453   3.549895   2.522991   1.584463   2.533558
     9  C    3.981864   3.655010   3.031120   2.573285   3.876024
    10  C    3.383380   3.372753   3.291764   3.139824   4.624957
    11  N    4.492468   4.490492   4.483446   4.461275   5.924814
    12  C    5.437148   5.216158   4.882367   4.742499   6.066995
    13  N    5.234323   4.844938   4.188548   3.843493   5.003137
    14  C    2.127161   1.431190   2.398755   3.727835   4.617536
    15  C    2.520794   2.558750   3.797184   4.955605   5.980053
    16  N    3.991835   3.898187   5.016148   6.294076   7.222903
    17  H    3.202604   2.072845   1.001595   2.090776   2.524680
    18  H    2.434074   2.412259   2.031303   1.080778   2.155505
    19  H    4.585478   4.486012   3.732916   2.382826   1.911134
    20  H    4.737599   4.017802   2.792143   2.186161   2.723404
    21  H    4.730799   4.407559   3.431635   2.190731   2.745965
    22  H    2.519619   2.822273   3.115149   3.059252   4.553418
    23  H    6.454410   6.218529   5.884093   5.779440   7.060922
    24  H    6.046357   5.550923   4.709652   4.278281   5.211164
    25  H    2.918790   2.009625   2.464412   3.861126   4.794632
    26  H    2.727391   1.987572   2.702713   4.038063   4.595294
    27  H    2.393483   2.814515   4.159941   5.150186   6.064230
    28  H    2.687234   2.865931   4.033757   5.063341   6.281365
    29  H    4.475714   4.177875   5.116627   6.456169   7.421319
    30  H    4.546987   4.664509   5.863331   7.066030   8.055854
    31  H    4.357210   4.180600   5.242207   6.556635   7.300188
                    6          7          8          9         10
     6  O    0.000000
     7  O    2.219182   0.000000
     8  C    3.087210   3.347820   0.000000
[...]
 0002663,0.00000862,-0.00001004,0.00002139,0.00004100,0.00002616,-0.057
 37940,-0.11291285,-0.15467841,-0.00739970,-0.01791796,-0.01764589,0.00
 023168,0.00010897,0.00092535,-0.00023589,-0.00026375,0.00083023,-0.000
 12435,0.00011084,0.00001895,0.00000693,-0.00002970,-0.00001644,0.00001
 207,-0.00001015,0.00000368,-0.00001069,0.00000388,-0.00000222,-0.00001
 588,-0.00002022,0.00000832,0.00000819,0.00000022,-0.00000406,0.0000225
 1,-0.00000371,-0.00000147,0.06515700,0.12400494,0.16939754,0.00106865,
 0.00276829,-0.00138302,-0.01706877,-0.01676757,0.01255101,-0.00100019,
 0.00231516,0.00006322,0.00042374,0.00105031,-0.00103880,-0.00041923,-0
 .00000039,0.00088339,-0.00008294,0.00026582,-0.00024373,0.00020535,0.0
 0011232,-0.00034602,0.00022587,-0.00008801,-0.00006695,-0.00001293,0.0
 0001809,0.00000050,-0.00003202,0.00001858,-0.00002510,0.00000627,-0.00
 001057,0.00003149,-0.00001088,-0.00002637,-0.00000918,0.00001689,0.000
 01022,0.00003202,-0.14778765,-0.10353946,0.07657843,0.01014425,0.01288
 265,-0.00942807,0.00247272,0.00012022,0.00001871,-0.00068627,-0.000576
 82,0.00026799,-0.00001749,0.00004005,-0.00001254,0.00003236,-0.0000901
 7,-0.00003411,-0.00001270,-0.00003140,0.00000674,-0.00000365,0.0000097
 1,0.00001239,0.00000399,-0.00001182,-0.00002461,0.00000110,-0.00000157
 ,-0.00000101,0.00001782,0.00000648,0.00000151,-0.00642046,-0.00555870,
 0.00504161,0.15955074,-0.00035923,-0.00269517,0.00073661,0.01071012,0.
 01340533,-0.01041639,0.00052204,-0.00045426,0.00058420,-0.00027793,-0.
 00059439,0.00055876,0.00021645,-0.00002077,-0.00032390,0.00003831,-0.0
 0014051,0.00008704,-0.00008549,-0.00004673,0.00009319,-0.00012131,0.00
 008826,0.00002728,0.00001188,-0.00000867,0.00000661,-0.00001188,-0.000
 02068,-0.00000670,-0.00001530,0.00001735,-0.00000317,0.00002508,0.0000
 2919,0.00000644,-0.00001647,0.00001206,-0.00000739,-0.09818510,-0.1421
 9785,0.07245767,-0.00782197,-0.01070097,0.00840578,-0.00096095,0.00073
 707,-0.00103616,0.00014663,-0.00005853,0.00010174,-0.00004824,0.000014
 58,-0.00001592,-0.00000634,0.00002936,0.00001210,0.00001328,0.00001048
 ,0.00000221,-0.00002144,-0.00001098,-0.00000033,-0.00001227,0.00000417
 ,0.00002399,0.00000306,0.00000024,-0.00000170,0.00000712,-0.00000467,-
 0.00000331,-0.01343591,-0.01282095,0.01079248,0.10651674,0.15493561,-0
 .00024418,-0.00236171,0.00094638,0.00788538,0.00555238,-0.00678036,-0.
 00068748,0.00024158,0.00017141,0.00018756,-0.00029793,0.00000331,-0.00
 002288,-0.00002719,0.00015640,0.00000326,0.00001034,-0.00004818,0.0000
 5984,0.00001927,-0.00012759,-0.00006082,0.00010445,0.00002492,-0.00000
 930,0.00001670,-0.00002297,-0.00001044,0.00000026,-0.00002053,0.000022
 28,-0.00002554,0.00002047,-0.00001318,-0.00001404,-0.00001204,0.000022
 95,0.00002316,0.00003963,0.07308992,0.07540934,-0.10497598,0.01728586,
 0.01764247,-0.01454320,0.00068464,-0.00107826,0.00178013,-0.00010338,-
 0.00010948,0.00015496,-0.00003874,0.00002713,0.00000193,0.00000709,-0.
 00001464,-0.00000351,0.00001624,-0.00000370,0.00000710,-0.00003955,-0.
 00002518,0.00001501,-0.00001286,0.00001758,-0.00000129,0.00000134,-0.0
 0000006,-0.00000062,0.00000838,0.00000271,-0.00000216,-0.01338990,-0.0
 1225035,0.01151632,-0.08101668,-0.08459296,0.11367851,-0.00017491,0.00
 128249,0.00317353,-0.00038048,-0.00254138,-0.00517246,0.00110453,0.000
 77593,0.00162132,-0.00018159,0.00011386,0.00012994,-0.00001377,0.00012
 484,-0.00015424,0.00003514,-0.00006342,0.00004171,-0.00000193,-0.00006
 808,0.00013208,0.00000149,-0.00004569,-0.00001411,-0.00002358,-0.00001
 410,-0.00000567,-0.00006602,-0.00010942,-0.00003512,0.00001895,0.00006
 223,0.00001606,0.00002942,0.00003501,0.00000809,0.00004758,0.00005342,
 0.00003100,-0.00363612,-0.01033316,-0.00956515,-0.06303267,-0.05430605
 ,-0.04868607,-0.00157491,0.02948969,0.02707140,0.00032011,-0.00023710,
 0.00004400,-0.00013735,0.00005110,-0.00003369,-0.00002725,0.00002869,-
 0.00000084,0.00000833,0.00000779,0.00000378,0.00002439,0.00000888,-0.0
 0000997,-0.00008787,0.00001050,0.00004101,0.00001090,0.00000312,0.0000
 0008,0.00000282,-0.00000919,-0.00001166,-0.00095931,0.00256062,-0.0022
 0788,0.00064046,0.00043554,0.00031677,0.07263289,0.00092456,-0.0029885
 7,-0.00081786,0.00084137,0.00138866,0.00187156,-0.00086807,-0.00028278
 ,-0.00132313,0.00017980,-0.00015435,-0.00014530,0.00002415,-0.00008008
 ,0.00010354,-0.00004425,0.00005495,-0.00003184,-0.00002367,0.00005328,
 -0.00008737,-0.00000010,0.00005268,-0.00000287,0.00001706,0.00002471,-
 0.00001565,0.00001559,0.00002524,0.00001849,0.00000863,-0.00003966,0.0
 0001995,-0.00002969,-0.00003767,-0.00001327,0.00001102,-0.00001136,0.0
 0003071,0.00229748,0.01247817,0.00989499,-0.04535298,-0.18107464,-0.12
 980035,0.00097752,-0.00920214,-0.00727227,-0.00030053,0.00031471,0.000
 02312,0.00010916,-0.00002729,0.00003089,0.00003366,-0.00001659,-0.0000
 0069,-0.00000334,-0.00001164,0.00000267,-0.00002251,-0.00001695,0.0000
 1185,0.00000858,0.00004339,-0.00005632,-0.00000279,-0.00000138,-0.0000
 0235,0.00000383,0.00000848,0.00000600,0.00254773,-0.00144526,0.0023689
 5,-0.00057349,0.00082043,-0.00013558,0.04262351,0.19309939,0.00290597,
 -0.00053898,0.00120423,0.00001606,-0.00170075,-0.00195810,0.00009187,-
 0.00004813,0.00005018,0.00004238,0.00000682,0.00008455,0.00000016,0.00
 002394,-0.00002882,0.00001570,-0.00002191,0.00000631,0.00000841,-0.000
 00440,0.00002068,-0.00000735,-0.00001254,0.00002003,-0.00000925,-0.000
 02043,0.00001066,0.00003478,0.00003436,-0.00001330,0.00000235,-0.00001
 859,-0.00002649,0.00000398,0.00000990,0.00000017,-0.00002412,-0.000008
 12,-0.00002799,-0.00962016,-0.01581488,-0.01926056,-0.04144891,-0.1296
 5226,-0.18008169,0.00105154,-0.00453988,-0.00460025,0.00005701,-0.0001
 2713,0.00008672,-0.00004417,0.00003197,0.00003337,-0.00001086,0.000006
 25,0.00000614,0.00000767,0.00000647,-0.00000267,0.00000604,0.00000519,
 0.00000045,0.00002413,-0.00001797,0.00005523,-0.00000456,0.00000066,0.
 00000235,-0.00000422,-0.00000004,0.00000102,-0.00147538,0.00269878,-0.
 00266192,0.00070578,-0.00026378,0.00071039,0.04480208,0.14014492,0.194
 55522,-0.00027620,0.00014088,0.00029488,0.00197991,-0.00045950,-0.0004
 8984,-0.00064085,-0.00016313,-0.00005581,0.00015455,-0.00004674,-0.000
 06258,0.00002809,-0.00001193,-0.00010050,-0.00003558,0.00002620,0.0000
 1987,-0.00005731,0.00000759,0.00006848,0.00000815,0.00004898,-0.000028
 09,-0.00015296,-0.00001937,-0.00017868,0.00017231,0.00012189,-0.000072
 99,0.00013670,-0.00021654,0.00002682,-0.00008629,-0.00011367,-0.000040
 56,0.00012314,0.00010240,0.00013692,0.01131618,0.01248017,-0.00703102,
 -0.12866283,-0.10425616,0.05824215,-0.02620062,-0.01879159,0.01411072,
 0.00008898,0.00005948,0.00000265,0.00001201,0.00001833,0.00000367,0.00
 001628,0.00001536,-0.00000323,-0.00000385,-0.00001083,0.00001763,-0.00
 000412,-0.00003922,0.00002805,-0.00003649,0.00009587,0.00003771,0.0000
 0507,0.00000207,0.00000839,-0.00002839,0.00000822,-0.00000859,0.000611
 41,-0.00040644,0.00050129,-0.00157017,0.00190914,-0.00301055,-0.001963
 66,-0.00488076,0.00209709,0.14768847,0.00066204,0.00026610,-0.00123276
 ,-0.00091916,0.00081590,0.00169774,0.00042011,-0.00030388,-0.00013592,
 -0.00009444,0.00001385,0.00007387,-0.00002465,0.00002394,0.00004009,0.
 00003858,-0.00004817,-0.00000815,0.00004422,-0.00001689,-0.00004422,-0
 .00000870,-0.00003584,0.00003197,0.00008769,0.00001191,0.00015465,-0.0
 0006139,0.00007060,0.00004445,-0.00001320,0.00006388,-0.00006121,-0.00
 001945,0.00002770,-0.00004045,-0.00010012,-0.00011247,-0.00008217,-0.0
 0595750,-0.00857842,0.00487317,-0.11610518,-0.20242285,0.08250664,0.01
 719641,0.01292814,-0.01012350,-0.00008113,-0.00000850,-0.00002835,0.00
 000918,-0.00002016,0.00000437,-0.00001283,-0.00000085,0.00000824,-0.00
 000054,0.00000865,-0.00001467,0.00000890,0.00002431,-0.00001692,0.0000
 6904,-0.00011454,-0.00003317,-0.00001374,-0.00000111,-0.00000066,0.000
 00185,-0.00000348,0.00001240,0.00054683,0.00098820,-0.00035823,0.00175
 376,0.00036348,0.00149126,-0.01203060,-0.01355191,0.00998045,0.1122730
 9,0.20905551,0.00034980,0.00034370,0.00009870,0.00065231,-0.00040831,-
 0.00001481,-0.00020726,-0.00022347,0.00000396,-0.00002447,0.00001587,-
 0.00000233,0.00000681,0.00002404,-0.00001559,0.00000537,-0.00001370,0.
 00000385,-0.00001353,-0.00002107,0.00000849,-0.00001309,-0.00000580,0.
 00001923,-0.00000868,-0.00000879,-0.00004226,0.00008565,-0.00002501,0.
 00006122,-0.00012973,-0.00003076,-0.00005579,0.00004813,0.00004934,0.0
 0007970,-0.00006930,-0.00002037,-0.00011936,0.01265911,0.01933272,-0.0
 1084063,0.05884492,0.07791840,-0.09419500,0.00754161,0.00457690,-0.004
 40306,0.00003801,0.00012542,-0.00003849,-0.00000252,-0.00000189,-0.000
 00299,-0.00000215,0.00000574,0.00000305,-0.00000763,0.00000718,-0.0000
 1135,0.00000487,0.00000511,-0.00000379,0.00002484,-0.00005516,0.000032
 38,-0.00001009,-0.00000091,0.00000915,-0.00000885,0.00000975,0.0000029
 9,0.00088185,-0.00079989,0.00092443,-0.00297058,0.00210122,-0.00276505
 ,-0.01318905,-0.01487987,0.01115488,-0.06549108,-0.08770271,0.09983943
 ,-0.00055959,-0.00002512,-0.00136661,-0.00081745,0.00082916,0.00166712
 ,0.00010259,-0.00031394,-0.00028087,-0.00006782,0.00007219,0.00005603,
 -0.00004953,0.00011910,-0.00002988,0.00004983,-0.00009908,0.00000291,0
 .00002971,-0.00005978,0.00000932,0.00000932,-0.00001324,-0.00000247,-0
 .00000303,-0.00000754,-0.00001586,0.00004026,0.00000696,-0.00000162,0.
 00002927,-0.00002270,-0.00002566,-0.00001609,-0.00001260,0.00000423,0.
 00000787,-0.00000974,-0.00001791,0.00243819,-0.00026129,0.00082852,0.0
 0846824,0.02341983,0.02225203,-0.06368023,-0.03380821,-0.03102038,-0.0
 0006416,0.00010707,-0.00007748,0.00001693,-0.00001480,-0.00001664,-0.0
 0000950,0.00002914,0.00000926,-0.00001185,0.00000499,-0.00000361,0.000
 01590,-0.00000071,-0.00000536,-0.00000183,0.00000708,0.00001893,-0.000
 00932,0.00000253,0.00000811,-0.00002592,0.00000647,0.00000717,-0.00066
 919,-0.00032498,-0.00093194,-0.00013593,-0.00006605,-0.00014535,-0.006
 06777,0.00133947,0.00050576,0.00081778,-0.00067022,0.00029561,0.066019
 12,-0.00023479,0.00039138,0.00072619,0.00125130,-0.00090354,-0.0009628
 8,-0.00071748,0.00026687,0.00004481,0.00016689,-0.00013206,-0.00015505
 ,0.00006356,-0.00016091,0.00007138,-0.00008946,0.00014175,-0.00001855,
 -0.00007368,0.00007509,-0.00003699,-0.00000389,0.00007771,0.00000305,0
 .00000834,0.00003844,0.00000846,-0.00000058,0.00005313,0.00000821,-0.0
 0001152,-0.00005621,0.00001260,-0.00001241,-0.00002955,-0.00000808,-0.
 00001395,-0.00003026,-0.00000409,-0.00143771,0.00081426,0.00091088,0.0
 0119381,-0.00930757,-0.00871493,-0.04132525,-0.23930616,-0.16670398,0.
 00008128,0.00003610,0.00009422,0.00001989,0.00000794,0.00001733,0.0000
 3648,-0.00003078,-0.00001145,0.00000348,-0.00001125,0.00000084,-0.0000
 3433,-0.00002588,0.00001598,0.00002147,-0.00000683,-0.00004111,-0.0000
 1270,0.00000002,0.00000375,0.00000622,0.00002087,0.00000785,0.00040414
 ,-0.00001636,0.00022893,0.00003929,-0.00045388,0.00007320,0.00222124,0
 .00074452,0.00021344,-0.00074533,0.00123364,0.00065189,0.03977912,0.24
 933170,-0.00007635,-0.00006011,-0.00025785,-0.00005784,0.00007739,-0.0
 0032401,-0.00025821,0.00007084,-0.00004229,-0.00001515,-0.00004816,-0.
 00004972,-0.00002882,-0.00000605,0.00012998,0.00001211,-0.00000552,-0.
 00003523,0.00002247,-0.00000223,-0.00009577,-0.00001670,0.00001711,0.0
 0002280,0.00003104,0.00001310,0.00001986,-0.00001064,-0.00000550,0.000
 01959,-0.00005301,0.00002964,-0.00002290,0.00003288,0.00000968,0.00003
 286,-0.00003898,-0.00002327,-0.00005202,0.00032067,0.00139502,0.002090
 91,0.00240767,-0.00592823,-0.00499223,-0.03826174,-0.16543431,-0.21955
 625,-0.00003586,0.00007190,0.00005173,0.00001451,-0.00000710,0.0000025
 3,0.00000477,-0.00000849,0.00000420,-0.00000363,-0.00000007,-0.0000097
 4,-0.00000958,0.00000221,-0.00000476,0.00001203,-0.00001592,-0.0000024
 8,0.00000131,-0.00000181,0.00000133,0.00000137,0.00000416,0.00001116,-
 0.00027690,-0.00072415,0.00004627,0.00005632,0.00017555,0.00003752,0.0
 0132203,0.00044017,0.00069451,-0.00008041,0.00037688,-0.00034973,0.037
 03569,0.18061086,0.22820802,0.00043449,-0.00020734,0.00087346,-0.00009
 909,-0.00028797,-0.00301453,-0.00041061,0.00044544,0.00046460,-0.00004
 344,-0.00012245,-0.00008350,-0.00004424,0.00004227,0.00001433,0.000017
 54,-0.00002263,-0.00000646,0.00001263,-0.00002142,0.00000128,-0.000024
 42,0.00007165,-0.00000417,-0.00002389,-0.00000014,-0.00004027,0.000025
 23,0.00000529,-0.00002817,0.00007147,-0.00004918,0.00001279,-0.0000407
 6,-0.00003104,-0.00002163,0.00005338,0.00002053,0.00004890,-0.00495609
 ,0.00248401,0.00419854,-0.01226369,0.01134583,-0.02324050,-0.12570859,
 0.06004635,-0.12858777,0.00003344,0.00003604,0.00002971,-0.00000351,0.
 00000828,0.00000095,-0.00000331,0.00001148,-0.00000035,-0.00000161,-0.
 00000167,0.00000525,-0.00001113,-0.00002978,0.00000866,-0.00002423,0.0
 0003002,0.00000235,-0.00000518,0.00000283,0.00000512,-0.00001637,0.000
 00558,0.,0.00020620,-0.00027213,0.00012544,0.00045481,-0.00006542,0.00
 022511,0.00163877,0.00009751,0.00023925,0.00010658,-0.00115827,-0.0002
 5021,-0.00276483,0.00189962,-0.00352445,0.12966645,-0.00042615,0.00003
 590,-0.00052636,0.00050432,0.00067727,0.00162881,0.00008701,-0.0002959
 9,-0.00032242,0.00003753,0.00000217,0.00005146,0.00003835,-0.00002787,
 -0.00002518,-0.00002289,0.00001185,0.00000507,-0.00002484,0.00001378,0
 .00000575,0.00001321,-0.00000024,-0.00000274,0.00000469,0.00000544,0.0
 0001837,0.00000707,0.00003697,0.00000467,0.00000388,-0.00002930,0.0000
 0309,-0.00001179,-0.00000491,-0.00001890,-0.00001294,-0.00002106,-0.00
 000162,0.00223672,-0.00111268,-0.00175633,0.00587059,-0.00573605,0.009
 93336,0.05825491,-0.11710264,0.11317531,-0.00000002,0.00001809,-0.0000
 1299,0.00001436,-0.00000200,0.00000159,0.00001362,0.00000105,0.0000015
 0,0.00000089,-0.00000346,0.00000064,-0.00000204,0.00000006,0.00000372,
 0.00001574,-0.00000722,-0.00001030,-0.00000847,0.00000134,-0.00000034,
 0.00000256,0.00000661,0.00000226,0.00019833,0.00012186,0.00008381,-0.0
 0013238,0.00031062,-0.00035565,-0.00025804,-0.00068049,-0.00004154,-0.
 00098688,0.00087141,-0.00012483,-0.01381119,0.01518449,-0.02373329,-0.
 06557667,0.11748694,0.00026157,-0.00013453,-0.00010792,0.00000399,-0.0
 0014328,0.00082084,0.00045693,-0.00024716,-0.00013698,-0.00006270,0.00
 011552,0.00008368,-0.00006793,0.00014207,-0.00000054,0.00007181,-0.000
 12041,-0.00000359,0.00005818,-0.00006423,-0.00000908,0.00000619,-0.000
 05802,0.00000763,0.00000434,-0.00002388,-0.00000655,0.00002845,-0.0000
 2828,0.00000966,-0.00002011,0.00002098,-0.00004885,0.00003117,0.000021
 30,0.00003451,-0.00002118,0.00000401,-0.00005133,0.00198891,-0.0008074
 1,-0.00136674,0.00210582,-0.00397625,0.01354439,-0.11992325,0.10870170
 ,-0.27916756,-0.00007852,0.00000145,-0.00007949,-0.00000328,-0.0000083
 4,-0.00000264,-0.00002116,0.00002601,0.00001476,-0.00000634,0.00000881
 ,-0.00000763,0.00002733,0.00002007,-0.00001207,-0.00001023,-0.00000066
 ,0.00004522,0.00000026,0.00000112,0.00000597,-0.00001462,-0.00000201,0
 .00000523,0.00011254,0.00003054,0.00001931,-0.00013749,-0.00003734,-0.
 00013554,0.00026785,-0.00036480,0.00051124,0.00024404,-0.00000148,0.00
 041280,-0.01045134,0.01182357,-0.01930983,0.13131839,-0.11902658,0.295
 47245,0.00042955,-0.00041968,-0.00046176,-0.00071184,0.00114755,0.0008
 6426,0.00080835,-0.00041238,-0.00008487,-0.00021282,0.00011910,0.00022
 684,-0.00007389,0.00024407,-0.00012745,0.00011460,-0.00021258,0.000028
 01,0.00007472,-0.00012034,0.00006169,0.00000577,-0.00006967,0.00000382
 ,0.00000129,-0.00003477,0.00000878,0.00000457,-0.00003311,-0.00000569,
 0.00002570,0.00003324,-0.00002759,0.00000606,0.00002519,0.00000195,0.0
 0000612,0.00000485,-0.00001928,0.00169060,-0.00163158,-0.00084604,-0.0
 1998460,-0.01972887,0.01248862,-0.18603675,-0.15092829,0.08113430,-0.0
 0008121,0.00001377,-0.00012046,-0.00001566,-0.00000892,-0.00001538,-0.
 00003785,0.00005501,0.00001837,-0.00000790,0.00001538,-0.00000474,0.00
 004047,0.00002147,-0.00001813,-0.00001760,-0.00000100,0.00004174,-0.00
 000194,0.00000410,0.00000385,-0.00002230,-0.00000791,0.00000067,0.0000
 0206,0.00004584,-0.00004244,-0.00000373,0.00095592,-0.00101135,0.00181
 341,0.00004155,0.00003100,-0.00354631,0.00415943,0.00095933,-0.0030909
 5,-0.00248306,0.00147341,0.01372400,0.01397053,-0.00616962,0.19509807,
 -0.00009177,-0.00023381,0.00017961,0.00008167,-0.00031440,0.00006126,-
 0.00006560,-0.00001767,-0.00004105,0.00005532,0.00003755,-0.00001479,0
 .00001962,0.00003187,-0.00004084,-0.00002143,-0.00000584,0.00000520,-0
 .00003945,-0.00001988,0.00003223,0.00002229,0.00001084,-0.00001354,-0.
 00002143,0.00000446,-0.00003063,0.00002614,0.00000386,-0.00001571,0.00
 002973,-0.00004259,0.00000848,-0.00002146,-0.00002113,-0.00000620,0.00
 002853,0.00000996,0.00002708,0.00037765,0.00153272,-0.00166460,0.00769
 267,0.01617456,-0.00601258,-0.14157420,-0.22070019,0.08993249,0.000014
 36,0.00005249,-0.00000828,0.00000148,0.00000979,-0.00000931,0.00001723
 ,0.00001271,-0.00000135,-0.00000382,-0.00000487,0.00000386,0.00000159,
 -0.00001088,0.00000632,-0.00001293,0.00002472,0.00000199,-0.00000369,0
 .00000121,0.00000304,-0.00000640,0.00000835,0.00000069,-0.00027997,-0.
 00024074,0.00016440,-0.00051896,-0.00054924,0.00066044,0.00012776,0.00
 051417,-0.00033182,0.00383844,-0.00154814,-0.00084474,-0.01620192,-0.0
 1794667,0.01270971,-0.00870663,-0.00976194,0.00412751,0.15523517,0.232
 98873,-0.00012517,-0.00028524,-0.00056786,-0.00028899,0.00078663,0.000
 24695,-0.00003273,-0.00001011,-0.00008192,-0.00003872,-0.00002107,0.00
 000886,-0.00004890,0.00002909,0.00009126,0.00003428,-0.00004326,-0.000
 02582,0.00004745,-0.00000904,-0.00007429,-0.00001518,0.00000117,0.0000
 0913,0.00001396,-0.00000601,0.00000580,0.00000870,-0.00000060,0.000009
 04,-0.00001577,0.00001126,-0.00001965,0.00001345,0.00000815,0.00001249
 ,-0.00001924,-0.00000556,-0.00002398,-0.00109546,-0.00145092,0.0013918
 4,0.00714923,0.00480250,-0.00386989,0.07869399,0.09378945,-0.11407070,
 -0.00003964,-0.00000538,0.00001872,0.00000790,-0.00000702,0.00000133,-
 0.00000414,0.00000266,0.00000894,-0.00000164,0.00000072,-0.00000436,-0
 .00000018,0.00000431,-0.00000317,0.00000584,-0.00000327,0.00001071,0.0
 0000094,-0.00000042,0.00000034,-0.00000143,-0.00000152,0.00000462,-0.0
 0014045,0.00002672,-0.00012908,0.00048679,0.00053618,0.00017463,0.0000
 6318,-0.00001829,-0.00054653,0.00081355,-0.00141161,0.00020597,-0.0183
 0769,-0.01887032,0.01373154,0.02122789,0.02103967,-0.01054137,-0.08839
 183,-0.09888887,0.11402645\\-0.00000022,-0.00000089,-0.00000109,0.0000
 0258,-0.00000015,0.00000148,0.00000038,-0.00000072,-0.00000009,0.00000
 040,0.00000048,-0.00000067,0.00000097,-0.00000084,-0.00000040,-0.00000
 027,0.00000061,0.00000040,-0.00000041,-0.00000005,0.00000007,-0.000000
 12,0.00000036,0.00000005,-0.00000032,-0.00000045,0.00000059,-0.0000001
 6,0.00000059,-0.00000073,0.00000035,-0.00000003,0.00000030,-0.00000051
 ,0.00000053,-0.00000070,0.00000019,0.00000018,0.00000094,-0.00000116,-
 0.00000015,0.00000109,-0.00000039,-0.00000202,0.00000038,-0.00000081,0
 .00000107,0.00000031,-0.00000021,-0.00000011,-0.00000020,0.,-0.0000002
 4,-0.00000003,0.00000016,0.00000007,-0.00000039,0.00000017,0.00000007,
 0.00000022,0.00000010,-0.00000011,0.00000026,0.00000024,0.00000014,-0.
 00000006,0.00000005,0.00000047,0.00000036,0.00000039,0.00000032,0.0000
 0065,-0.00000060,0.00000012,-0.00000049,-0.00000012,0.00000030,-0.0000
 0089,-0.00000033,-0.00000034,-0.00000061,0.00000038,0.00000121,-0.0000
 0018,-0.00000039,-0.00000007,0.00000019,-0.00000032,0.00000009,-0.0000
 0054,-0.00000002,-0.00000045,-0.00000021\\\@


 ...THOSE SCIENCES ARE VAIN AND FULL OF ERRORS WHICH 
 ARE NOT BORN FROM EXPERIMENT, THE MOTHER OF CERTAINTY...

                          -- LEONARDO DA VINCI, 1452-1519
 Job cpu time:       0 days 14 hours 38 minutes 54.2 seconds.
 File lengths (MBytes):  RWF=   1140 Int=      0 D2E=      0 Chk=     37 Scr=      1
 Normal termination of Gaussian 09 at Sat Jul 31 08:36:37 2021.
