 Entering Gaussian System, Link 0=g09
 Input=opt_freq-conf-342.com
 Output=opt_freq-conf-342.log
 Initial command:
 /aerosol/software/g09/l1.exe "/scratch/nicole/10745/Gau-85695.inp" -scrdir="/scratch/nicole/10745/"
 Entering Link 1 = /aerosol/software/g09/l1.exe PID=     85700.
  
 Copyright (c) 1988,1990,1992,1993,1995,1998,2003,2009,2013,
            Gaussian, Inc.  All Rights Reserved.
  
 This is part of the Gaussian(R) 09 program.  It is based on
 the Gaussian(R) 03 system (copyright 2003, Gaussian, Inc.),
 the Gaussian(R) 98 system (copyright 1998, Gaussian, Inc.),
 the Gaussian(R) 94 system (copyright 1995, Gaussian, Inc.),
 the Gaussian 92(TM) system (copyright 1992, Gaussian, Inc.),
 the Gaussian 90(TM) system (copyright 1990, Gaussian, Inc.),
 the Gaussian 88(TM) system (copyright 1988, Gaussian, Inc.),
 the Gaussian 86(TM) system (copyright 1986, Carnegie Mellon
 University), and the Gaussian 82(TM) system (copyright 1983,
 Carnegie Mellon University). Gaussian is a federally registered
 trademark of Gaussian, Inc.
  
 This software contains proprietary and confidential information,
 including trade secrets, belonging to Gaussian, Inc.
  
 This software is provided under written license and may be
 used, copied, transmitted, or stored only in accord with that
 written license.
  
 The following legend is applicable only to US Government
 contracts under FAR:
  
                    RESTRICTED RIGHTS LEGEND
  
 Use, reproduction and disclosure by the US Government is
 subject to restrictions as set forth in subparagraphs (a)
 and (c) of the Commercial Computer Software - Restricted
 Rights clause in FAR 52.227-19.
  
 Gaussian, Inc.
 340 Quinnipiac St., Bldg. 40, Wallingford CT 06492
  
  
 ---------------------------------------------------------------
 Warning -- This program may not be used in any manner that
 competes with the business of Gaussian, Inc. or will provide
 assistance to any competitor of Gaussian, Inc.  The licensee
 of this program is prohibited from giving any competitor of
 Gaussian, Inc. access to this program.  By using this program,
 the user acknowledges that Gaussian, Inc. is engaged in the
 business of creating and licensing software in the field of
 computational chemistry and represents and warrants to the
 licensee that it is not a competitor of Gaussian, Inc. and that
 it will not use this program in any manner prohibited above.
 ---------------------------------------------------------------
  

 Cite this work as:
 Gaussian 09, Revision D.01,
 M. J. Frisch, G. W. Trucks, H. B. Schlegel, G. E. Scuseria, 
 M. A. Robb, J. R. Cheeseman, G. Scalmani, V. Barone, B. Mennucci, 
 G. A. Petersson, H. Nakatsuji, M. Caricato, X. Li, H. P. Hratchian, 
 A. F. Izmaylov, J. Bloino, G. Zheng, J. L. Sonnenberg, M. Hada, 
 M. Ehara, K. Toyota, R. Fukuda, J. Hasegawa, M. Ishida, T. Nakajima, 
 Y. Honda, O. Kitao, H. Nakai, T. Vreven, J. A. Montgomery, Jr., 
 J. E. Peralta, F. Ogliaro, M. Bearpark, J. J. Heyd, E. Brothers, 
 K. N. Kudin, V. N. Staroverov, T. Keith, R. Kobayashi, J. Normand, 
 K. Raghavachari, A. Rendell, J. C. Burant, S. S. Iyengar, J. Tomasi, 
 M. Cossi, N. Rega, J. M. Millam, M. Klene, J. E. Knox, J. B. Cross, 
 V. Bakken, C. Adamo, J. Jaramillo, R. Gomperts, R. E. Stratmann, 
 O. Yazyev, A. J. Austin, R. Cammi, C. Pomelli, J. W. Ochterski, 
 R. L. Martin, K. Morokuma, V. G. Zakrzewski, G. A. Voth, 
 P. Salvador, J. J. Dannenberg, S. Dapprich, A. D. Daniels, 
 O. Farkas, J. B. Foresman, J. V. Ortiz, J. Cioslowski, 
 and D. J. Fox, Gaussian, Inc., Wallingford CT, 2013.
 
 ******************************************
 Gaussian 09:  ES64L-G09RevD.01 24-Apr-2013
                29-Jul-2021 
 ******************************************
 %mem=2gb
 %nproc=4
 Will use up to    4 processors via shared memory.
 %chk=conf-342.chk
 ----------------------------------------------------------------------
 # B3LYP/6-311G(2df,2pd) guess=read geom=checkpoint opt=readfc freq=nor
 aman nosymm integral(ultrafinegrid)
 ----------------------------------------------------------------------
 1/10=3,14=-1,18=20,19=15,26=4,29=2,38=1/1,3;
 2/9=110,12=2,15=1,40=1/2;
 3/5=4,6=6,7=404,11=2,14=-4,16=1,25=1,30=1,71=1,74=-5,75=-5,116=-2/1,2,3;
 4/5=1/1;
 5/5=2,38=6/2;
 6/7=2,8=2,9=2,10=2,28=1/1;
 7/30=1/1,2,3,16;
 1/14=-1,18=20,19=15,26=4/3(2);
 2/9=110,15=1/2;
 99//99;
 2/9=110,15=1/2;
 3/5=4,6=6,7=404,11=2,14=-2,16=1,25=1,30=1,71=1,74=-5,75=-5/1,2,3;
 4/5=5,16=3,69=1/1;
 5/5=2,38=5/2;
 7/30=1/1,2,3,16;
 1/14=-1,18=20,19=15,26=4/3(-5);
 2/9=110,15=1/2;
 6/7=2,8=2,9=2,10=2,19=2,28=1/1;
 99/9=1/99;
 ------------------------------------------------------------
 Candidate Structure: Conf:342 OPT and FREQ calc in gas phase
 ------------------------------------------------------------
 Structure from the checkpoint file:  "conf-342.chk"
 Charge =  1 Multiplicity = 1
 Redundant internal coordinates found in file.
 O,0,1.0703445206,-1.2179921998,0.1306516178
 C,0,1.4195620794,-0.088284412,-0.2088262737
 N,0,0.580617312,0.9147142795,-0.5166969646
 C,0,-0.8570070029,0.7191804364,-0.6431910472
 C,0,-1.3680394485,1.9269172775,-1.4540519604
 O,0,-2.6781539887,1.9981038275,-1.671722013
 O,0,-0.6013759972,2.7683109074,-1.8722254963
 C,0,-1.5624521617,0.567322012,0.7392537201
 C,0,-2.9335761188,-0.0236149999,0.6436409597
 C,0,-4.2019344385,0.5214600948,0.709458874
 N,0,-5.1665687877,-0.4482288482,0.5600530492
 C,0,-4.5056737439,-1.572537136,0.4062840916
 N,0,-3.1520843958,-1.3769632942,0.4403226262
 C,0,2.9229256857,0.2546948775,-0.3158971897
 C,0,3.6812400579,-0.6925961523,0.6027473002
 N,0,5.1782735156,-0.6804258894,0.3009596001
 H,0,0.9016066381,1.7940165581,-0.9182217722
 H,0,-1.0415269367,-0.1934484708,-1.2245912448
 H,0,-3.1702376198,1.3003556922,-1.1921043037
 H,0,-1.6148951377,1.5419284817,1.2336619818
 H,0,-0.9237512946,-0.0739368456,1.3540446257
 H,0,-4.4658013858,1.5558323518,0.8891400943
 H,0,-4.9446364617,-2.5505431937,0.2643483741
 H,0,-2.4396901949,-2.0904994544,0.379267847
 H,0,3.1093398073,1.3046787569,-0.0681549342
 H,0,3.2207500343,0.0996076043,-1.3622089171
 H,0,3.3271567227,-1.714691147,0.4629626997
 H,0,3.5811556835,-0.4254831105,1.6561901731
 H,0,5.3623023748,-0.9612161932,-0.6687982184
 H,0,5.5845024651,0.2526548298,0.4312479936
 H,0,5.6873564578,-1.3283747905,0.9124446671
 Recover connectivity data from disk.

 GradGradGradGradGradGradGradGradGradGradGradGradGradGradGradGradGradGrad
 Berny optimization.
 Initialization pass.
 Force constant matrix read from checkpoint file:
 "conf-342.chk"
                           ----------------------------
                           !    Initial Parameters    !
                           ! (Angstroms and Degrees)  !
 --------------------------                            --------------------------
 ! Name  Definition              Value          Derivative Info.                !
 --------------------------------------------------------------------------------
 ! R1    R(1,2)                  1.2302         D2E/DX2 =    0.7763             !
 ! R2    R(2,3)                  1.3434         D2E/DX2 =    0.5096             !
 ! R3    R(2,14)                 1.5457         D2E/DX2 =    0.2496             !
 ! R4    R(3,4)                  1.4564         D2E/DX2 =    0.3337             !
 ! R5    R(3,17)                 1.0185         D2E/DX2 =    0.4387             !
 ! R6    R(4,5)                  1.5418         D2E/DX2 =    0.268              !
 ! R7    R(4,8)                  1.5594         D2E/DX2 =    0.2505             !
 ! R8    R(4,18)                 1.0977         D2E/DX2 =    0.3292             !
 ! R9    R(5,6)                  1.33           D2E/DX2 =    0.4716             !
 ! R10   R(5,7)                  1.2127         D2E/DX2 =    0.8538             !
 ! R11   R(6,19)                 0.9793         D2E/DX2 =    0.458              !
 ! R12   R(8,9)                  1.4961         D2E/DX2 =    0.3151             !
 ! R13   R(8,20)                 1.0941         D2E/DX2 =    0.3399             !
 ! R14   R(8,21)                 1.0941         D2E/DX2 =    0.3385             !
 ! R15   R(9,10)                 1.3821         D2E/DX2 =    0.3965             !
 ! R16   R(9,13)                 1.3859         D2E/DX2 =    0.3587             !
 ! R17   R(10,11)                1.3759         D2E/DX2 =    0.3373             !
 ! R18   R(10,22)                1.0825         D2E/DX2 =    0.3708             !
 ! R19   R(11,12)                1.3132         D2E/DX2 =    0.467              !
 ! R20   R(12,13)                1.3681         D2E/DX2 =    0.3563             !
 ! R21   R(12,23)                1.0814         D2E/DX2 =    0.3749             !
 ! R22   R(13,24)                1.0101         D2E/DX2 =    0.4728             !
 ! R23   R(14,15)                1.5219         D2E/DX2 =    0.2906             !
 ! R24   R(14,25)                1.0948         D2E/DX2 =    0.3387             !
 ! R25   R(14,26)                1.0989         D2E/DX2 =    0.3295             !
 ! R26   R(15,16)                1.5272         D2E/DX2 =    0.2345             !
 ! R27   R(15,27)                1.0907         D2E/DX2 =    0.3519             !
 ! R28   R(15,28)                1.0914         D2E/DX2 =    0.3487             !
 ! R29   R(16,29)                1.0262         D2E/DX2 =    0.4275             !
 ! R30   R(16,30)                1.026          D2E/DX2 =    0.428              !
 ! R31   R(16,31)                1.0261         D2E/DX2 =    0.428              !
 ! A1    A(1,2,3)              124.8616         D2E/DX2 =    0.1967             !
 ! A2    A(1,2,14)             119.9318         D2E/DX2 =    0.1842             !
 ! A3    A(3,2,14)             115.205          D2E/DX2 =    0.1644             !
 ! A4    A(2,3,4)              122.4211         D2E/DX2 =    0.1269             !
 ! A5    A(2,3,17)             122.5543         D2E/DX2 =    0.0865             !
 ! A6    A(4,3,17)             113.1262         D2E/DX2 =    0.0946             !
 ! A7    A(3,4,5)              105.5267         D2E/DX2 =    0.116              !
 ! A8    A(3,4,8)              112.4964         D2E/DX2 =    0.0941             !
 ! A9    A(3,4,18)             108.8784         D2E/DX2 =    0.0308             !
 ! A10   A(5,4,8)              113.1137         D2E/DX2 =    0.11               !
 ! A11   A(5,4,18)             108.4803         D2E/DX2 =    0.0248             !
 ! A12   A(8,4,18)             108.2118         D2E/DX2 =    0.0342             !
 ! A13   A(4,5,6)              117.0321         D2E/DX2 =    0.1971             !
 ! A14   A(4,5,7)              121.0171         D2E/DX2 =    0.2184             !
 ! A15   A(6,5,7)              121.9508         D2E/DX2 =    0.2074             !
 ! A16   A(5,6,19)             112.1286         D2E/DX2 =    0.1981             !
 ! A17   A(4,8,9)              113.3526         D2E/DX2 =    0.1746             !
 ! A18   A(4,8,20)             109.6051         D2E/DX2 =    0.0613             !
 ! A19   A(4,8,21)             106.9253         D2E/DX2 =    0.0622             !
 ! A20   A(9,8,20)             109.6818         D2E/DX2 =    0.0525             !
 ! A21   A(9,8,21)             109.8404         D2E/DX2 =    0.0563             !
 ! A22   A(20,8,21)            107.2263         D2E/DX2 =    0.0209             !
 ! A23   A(8,9,10)             133.018          D2E/DX2 =    0.0952             !
 ! A24   A(8,9,13)             122.6556         D2E/DX2 =    0.1014             !
 ! A25   A(10,9,13)            104.325          D2E/DX2 =    0.1022             !
 ! A26   A(9,10,11)            111.1172         D2E/DX2 =    0.1137             !
 ! A27   A(9,10,22)            127.4772         D2E/DX2 =    0.0822             !
 ! A28   A(11,10,22)           121.3691         D2E/DX2 =    0.0899             !
 ! A29   A(10,11,12)           105.2639         D2E/DX2 =    0.1302             !
 ! A30   A(11,12,13)           111.8784         D2E/DX2 =    0.1182             !
 ! A31   A(11,12,23)           125.8316         D2E/DX2 =    0.0897             !
 ! A32   A(13,12,23)           122.2897         D2E/DX2 =    0.0905             !
 ! A33   A(9,13,12)            107.4127         D2E/DX2 =    0.1028             !
 ! A34   A(9,13,24)            125.978          D2E/DX2 =    0.0779             !
 ! A35   A(12,13,24)           126.534          D2E/DX2 =    0.0784             !
 ! A36   A(2,14,15)            107.7392         D2E/DX2 =    0.1655             !
 ! A37   A(2,14,25)            111.2686         D2E/DX2 =    0.0537             !
 ! A38   A(2,14,26)            107.3521         D2E/DX2 =    0.0438             !
 ! A39   A(15,14,25)           112.0561         D2E/DX2 =    0.0578             !
 ! A40   A(15,14,26)           110.6002         D2E/DX2 =    0.0533             !
 ! A41   A(25,14,26)           107.7385         D2E/DX2 =    0.0225             !
 ! A42   A(14,15,16)           111.3569         D2E/DX2 =    0.1471             !
 ! A43   A(14,15,27)           110.1309         D2E/DX2 =    0.0435             !
 ! A44   A(14,15,28)           112.6183         D2E/DX2 =    0.0452             !
 ! A45   A(16,15,27)           107.48           D2E/DX2 =    0.0537             !
 ! A46   A(16,15,28)           106.1816         D2E/DX2 =    0.0578             !
 ! A47   A(27,15,28)           108.8622         D2E/DX2 =    0.0192             !
 ! A48   A(15,16,29)           111.121          D2E/DX2 =    0.0973             !
 ! A49   A(15,16,30)           111.7326         D2E/DX2 =    0.0973             !
 ! A50   A(15,16,31)           111.3174         D2E/DX2 =    0.0963             !
 ! A51   A(29,16,30)           107.3278         D2E/DX2 =    0.054              !
 ! A52   A(29,16,31)           107.5409         D2E/DX2 =    0.0531             !
 ! A53   A(30,16,31)           107.5878         D2E/DX2 =    0.0538             !
 ! D1    D(1,2,3,4)             -7.944          D2E/DX2 =    0.0128             !
 ! D2    D(1,2,3,17)          -171.1767         D2E/DX2 =    0.0115             !
 ! D3    D(14,2,3,4)           171.5904         D2E/DX2 =    0.0117             !
 ! D4    D(14,2,3,17)            8.3577         D2E/DX2 =    0.008              !
 ! D5    D(1,2,14,15)          -24.8943         D2E/DX2 =    0.0149             !
 ! D6    D(1,2,14,25)         -148.0965         D2E/DX2 =    0.0158             !
 ! D7    D(1,2,14,26)           94.2478         D2E/DX2 =    0.0164             !
 ! D8    D(3,2,14,15)          155.5465         D2E/DX2 =    0.015              !
 ! D9    D(3,2,14,25)           32.3443         D2E/DX2 =    0.0163             !
 ! D10   D(3,2,14,26)          -85.3114         D2E/DX2 =    0.0154             !
 ! D11   D(2,3,4,5)           -160.963          D2E/DX2 =    0.0165             !
 ! D12   D(2,3,4,8)             75.2545         D2E/DX2 =    0.0168             !
 ! D13   D(2,3,4,18)           -44.6872         D2E/DX2 =    0.0087             !
 ! D14   D(17,3,4,5)             3.7052         D2E/DX2 =    0.0184             !
 ! D15   D(17,3,4,8)          -120.0772         D2E/DX2 =    0.0169             !
 ! D16   D(17,3,4,18)          119.981          D2E/DX2 =    0.0106             !
 ! D17   D(3,4,5,6)           -178.0646         D2E/DX2 =    0.0236             !
 ! D18   D(3,4,5,7)              2.0413         D2E/DX2 =    0.0229             !
 ! D19   D(8,4,5,6)            -54.6729         D2E/DX2 =    0.0264             !
 ! D20   D(8,4,5,7)            125.433          D2E/DX2 =    0.0227             !
 ! D21   D(18,4,5,6)            65.3887         D2E/DX2 =    0.0171             !
 ! D22   D(18,4,5,7)          -114.5054         D2E/DX2 =    0.016              !
 ! D23   D(3,4,8,9)           -163.0988         D2E/DX2 =    0.0206             !
 ! D24   D(3,4,8,20)            73.9988         D2E/DX2 =    0.02               !
 ! D25   D(3,4,8,21)           -41.9134         D2E/DX2 =    0.0207             !
 ! D26   D(5,4,8,9)             77.4432         D2E/DX2 =    0.0285             !
 ! D27   D(5,4,8,20)           -45.4592         D2E/DX2 =    0.021              !
 ! D28   D(5,4,8,21)          -161.3714         D2E/DX2 =    0.0237             !
 ! D29   D(18,4,8,9)           -42.7718         D2E/DX2 =    0.0132             !
 ! D30   D(18,4,8,20)         -165.6742         D2E/DX2 =    0.0149             !
 ! D31   D(18,4,8,21)           78.4135         D2E/DX2 =    0.0137             !
 ! D32   D(4,5,6,19)             6.1938         D2E/DX2 =    0.0141             !
 ! D33   D(7,5,6,19)          -173.9132         D2E/DX2 =    0.0229             !
 ! D34   D(4,8,9,10)          -102.7838         D2E/DX2 =    0.0147             !
 ! D35   D(4,8,9,13)            76.7225         D2E/DX2 =    0.0142             !
 ! D36   D(20,8,9,10)           20.0762         D2E/DX2 =    0.0132             !
 ! D37   D(20,8,9,13)         -160.4175         D2E/DX2 =    0.0143             !
 ! D38   D(21,8,9,10)          137.6851         D2E/DX2 =    0.0143             !
 ! D39   D(21,8,9,13)          -42.8087         D2E/DX2 =    0.0141             !
 ! D40   D(8,9,10,11)          179.8292         D2E/DX2 =    0.0097             !
 ! D41   D(8,9,10,22)           -2.3681         D2E/DX2 =    0.0073             !
 ! D42   D(13,9,10,11)           0.2582         D2E/DX2 =    0.0141             !
 ! D43   D(13,9,10,22)         178.0609         D2E/DX2 =    0.0103             !
 ! D44   D(8,9,13,12)          179.8947         D2E/DX2 =    0.0082             !
 ! D45   D(8,9,13,24)            2.8925         D2E/DX2 =    0.0027             !
 ! D46   D(10,9,13,12)          -0.4779         D2E/DX2 =    0.0124             !
 ! D47   D(10,9,13,24)        -177.48           D2E/DX2 =    0.0047             !
 ! D48   D(9,10,11,12)           0.072          D2E/DX2 =    0.0173             !
 ! D49   D(22,10,11,12)       -177.8858         D2E/DX2 =    0.0103             !
 ! D50   D(10,11,12,13)         -0.3918         D2E/DX2 =    0.0184             !
 ! D51   D(10,11,12,23)        179.8116         D2E/DX2 =    0.0106             !
 ! D52   D(11,12,13,9)           0.566          D2E/DX2 =    0.0172             !
 ! D53   D(11,12,13,24)        177.5468         D2E/DX2 =    0.0081             !
 ! D54   D(23,12,13,9)        -179.6291         D2E/DX2 =    0.0106             !
 ! D55   D(23,12,13,24)         -2.6483         D2E/DX2 =    0.0066             !
 ! D56   D(2,14,15,16)         165.2699         D2E/DX2 =    0.0147             !
 ! D57   D(2,14,15,27)          46.1368         D2E/DX2 =    0.0143             !
 ! D58   D(2,14,15,28)         -75.5813         D2E/DX2 =    0.0144             !
 ! D59   D(25,14,15,16)        -72.0102         D2E/DX2 =    0.0158             !
 ! D60   D(25,14,15,27)        168.8566         D2E/DX2 =    0.0151             !
 ! D61   D(25,14,15,28)         47.1386         D2E/DX2 =    0.0162             !
 ! D62   D(26,14,15,16)         48.2202         D2E/DX2 =    0.0157             !
 ! D63   D(26,14,15,27)        -70.9129         D2E/DX2 =    0.0166             !
 ! D64   D(26,14,15,28)        167.369          D2E/DX2 =    0.0157             !
 ! D65   D(14,15,16,29)        -59.4212         D2E/DX2 =    0.014              !
 ! D66   D(14,15,16,30)         60.4264         D2E/DX2 =    0.014              !
 ! D67   D(14,15,16,31)       -179.2602         D2E/DX2 =    0.0141             !
 ! D68   D(27,15,16,29)         61.2809         D2E/DX2 =    0.0154             !
 ! D69   D(27,15,16,30)       -178.8714         D2E/DX2 =    0.0148             !
 ! D70   D(27,15,16,31)        -58.5581         D2E/DX2 =    0.0151             !
 ! D71   D(28,15,16,29)        177.66           D2E/DX2 =    0.0147             !
 ! D72   D(28,15,16,30)        -62.4924         D2E/DX2 =    0.0154             !
 ! D73   D(28,15,16,31)         57.821          D2E/DX2 =    0.015              !
 --------------------------------------------------------------------------------
 Trust Radius=3.00D-01 FncErr=1.00D-07 GrdErr=1.00D-06
 Number of steps in this run=    167 maximum allowed number of steps=    186.
 GradGradGradGradGradGradGradGradGradGradGradGradGradGradGradGradGradGrad

                          Input orientation:                          
 ---------------------------------------------------------------------
 Center     Atomic      Atomic             Coordinates (Angstroms)
 Number     Number       Type             X           Y           Z
 ---------------------------------------------------------------------
      1          8           0        1.070345   -1.217992    0.130652
      2          6           0        1.419562   -0.088284   -0.208826
      3          7           0        0.580617    0.914714   -0.516697
      4          6           0       -0.857007    0.719180   -0.643191
      5          6           0       -1.368039    1.926917   -1.454052
      6          8           0       -2.678154    1.998104   -1.671722
      7          8           0       -0.601376    2.768311   -1.872225
      8          6           0       -1.562452    0.567322    0.739254
      9          6           0       -2.933576   -0.023615    0.643641
     10          6           0       -4.201934    0.521460    0.709459
     11          7           0       -5.166569   -0.448229    0.560053
     12          6           0       -4.505674   -1.572537    0.406284
     13          7           0       -3.152084   -1.376963    0.440323
     14          6           0        2.922926    0.254695   -0.315897
     15          6           0        3.681240   -0.692596    0.602747
     16          7           0        5.178274   -0.680426    0.300960
     17          1           0        0.901607    1.794017   -0.918222
     18          1           0       -1.041527   -0.193448   -1.224591
     19          1           0       -3.170238    1.300356   -1.192104
     20          1           0       -1.614895    1.541928    1.233662
     21          1           0       -0.923751   -0.073937    1.354045
     22          1           0       -4.465801    1.555832    0.889140
     23          1           0       -4.944636   -2.550543    0.264348
     24          1           0       -2.439690   -2.090499    0.379268
     25          1           0        3.109340    1.304679   -0.068155
     26          1           0        3.220750    0.099608   -1.362209
     27          1           0        3.327157   -1.714691    0.462963
     28          1           0        3.581156   -0.425483    1.656190
     29          1           0        5.362302   -0.961216   -0.668798
     30          1           0        5.584502    0.252655    0.431248
     31          1           0        5.687356   -1.328375    0.912445
 ---------------------------------------------------------------------
                    Distance matrix (angstroms):
                    1          2          3          4          5
     1  O    0.000000
     2  C    1.230219   0.000000
     3  N    2.281957   1.343361   0.000000
     4  C    2.840098   2.454270   1.456365   0.000000
     5  C    4.283393   3.658189   2.387562   1.541842   0.000000
     6  O    5.257667   4.825387   3.623176   2.451550   1.329980
     7  O    4.764114   3.874432   2.582709   2.403083   1.212677
     8  C    3.238728   3.197043   2.508155   1.559445   2.587834
     9  C    4.209641   4.436293   3.817905   2.553394   3.264322
    10  C    5.581903   5.728548   4.952869   3.613488   3.832369
    11  N    6.298889   6.640622   6.003928   4.624172   4.911900
    12  C    5.594073   6.139201   5.736608   4.434652   5.054877
    13  N    4.236753   4.793959   4.483384   3.291687   4.205603
    14  C    2.408375   1.545704   2.441793   3.822402   4.743849
    15  C    2.704753   2.477707   3.667487   4.913366   6.048760
    16  N    4.146452   3.839066   4.934722   6.266971   7.261716
    17  H    3.193870   2.077156   1.018542   2.079336   2.335823
    18  H    2.710420   2.664544   2.088179   1.097709   2.157594
    19  H    5.106300   4.895040   3.830641   2.447469   1.925906
    20  H    4.005534   3.734474   2.877052   2.184922   2.726346
    21  H    2.604222   2.816716   2.596195   2.149986   3.476523
    22  H    6.238455   6.208555   5.277665   4.008918   3.901843
    23  H    6.162269   6.840295   6.568597   5.312573   5.982692
    24  H    3.625386   4.387317   4.353886   3.382988   4.544132
    25  H    3.249753   2.194421   2.597633   4.050356   4.728088
    26  H    2.930690   2.147061   2.889566   4.186760   4.940090
    27  H    2.334597   2.595268   3.926447   4.965333   6.243487
    28  H    3.042945   2.874800   3.939644   5.127835   6.300946
    29  H    4.373323   4.064331   5.138751   6.442375   7.365829
    30  H    4.757182   4.227607   5.135736   6.547145   7.395630
    31  H    4.684035   4.583573   5.757836   7.031442   8.122552
                    6          7          8          9         10
     6  O    0.000000
     7  O    2.224057   0.000000
     8  C    3.017405   3.547935   0.000000
     9  C    3.084395   4.423075   1.496105   0.000000
    10  C    3.189421   4.967641   2.640049   1.382090   0.000000
    11  N    4.142170   6.091231   3.748748   2.274542   1.375914
    12  C    4.517457   6.267225   3.654096   2.219682   2.137521
    13  N    4.009541   5.388626   2.529137   1.385870   2.186008
    14  C    6.020783   4.600122   4.618408   5.941110   7.203204
    15  C    7.270142   6.036901   5.394658   6.648684   7.976826
    16  N    8.531673   7.072543   6.869233   8.145608   9.465712
    17  H    3.663891   2.029367   3.213034   4.522370   5.505895
    18  H    2.771529   3.063524   2.169521   2.664392   3.773569
    19  H    0.979302   3.035870   2.617720   2.275713   2.299352
    20  H    3.127279   3.489666   1.094097   2.130251   2.830003
    21  H    4.065285   4.311742   1.094130   2.132276   3.393593
    22  H    3.154251   4.901941   3.070677   2.214190   1.082514
    23  H    5.438336   7.191597   4.624477   3.251706   3.191698
    24  H    4.580404   5.661860   2.821906   2.141455   3.168101
    25  H    6.045440   4.377933   4.798046   6.227989   7.394109
    26  H    6.204608   4.689429   5.245372   6.474129   7.717902
    27  H    7.376007   6.401858   5.402980   6.487616   7.858012
    28  H    7.491844   6.335898   5.318189   6.605186   7.897436
    29  H    8.626260   7.136040   7.229887   8.451224   9.776121
    30  H    8.702906   7.063965   7.160506   8.525204   9.794080
    31  H    9.366170   8.005334   7.495558   8.723252  10.062861
                   11         12         13         14         15
    11  N    0.000000
    12  C    1.313201   0.000000
    13  N    2.221493   1.368069   0.000000
    14  C    8.167087   7.684036   6.335608   0.000000
    15  C    8.851286   8.236410   6.869430   1.521942   0.000000
    16  N   10.350691   9.725523   8.360589   2.518245   1.527198
    17  H    6.635941   6.505896   5.322891   2.611137   4.027773
    18  H    4.501759   4.069638   2.937192   4.091875   5.088501
    19  H    3.180085   3.548485   3.135791   6.244020   7.357724
    20  H    4.126604   4.329094   3.392973   4.964869   5.782750
    21  H    4.332669   3.996776   2.738290   4.206379   4.706711
    22  H    2.148403   3.165665   3.244777   7.598576   8.456461
    23  H    2.134577   1.081356   2.149767   8.372848   8.830188
    24  H    3.188354   2.130095   1.010132   5.894136   6.282505
    25  H    8.482806   8.154256   6.830460   1.094803   2.183183
    26  H    8.622200   8.100695   6.785455   1.098872   2.168108
    27  H    8.588174   7.834325   6.488077   2.156040   1.090685
    28  H    8.816162   8.262857   6.907979   2.187473   1.091379
    29  H   10.612745   9.945173   8.596382   2.748370   2.124842
    30  H   10.774663  10.253956   8.887277   2.764457   2.131975
    31  H   10.895253  10.208510   8.852173   3.414236   2.127118
                   16         17         18         19         20
    16  N    0.000000
    17  H    5.089121   0.000000
    18  H    6.422645   2.796363   0.000000
    19  H    8.709212   4.110794   2.600753   0.000000
    20  H    7.208046   3.320683   3.063216   2.891676   0.000000
    21  H    6.221859   3.461846   2.584089   3.663094   1.761588
    22  H    9.917408   5.668541   4.387881   2.464819   2.871682
    23  H   10.294270   7.379175   4.796572   4.483210   5.364240
    24  H    7.747762   5.285566   2.850619   3.807993   3.821624
    25  H    2.890912   2.415813   4.561954   6.379371   4.906059
    26  H    2.684489   2.906299   4.274556   6.505033   5.674707
    27  H    2.126637   4.483525   4.924166   7.351591   5.968536
    28  H    2.110078   4.328251   5.451783   7.528121   5.572090
    29  H    1.026226   5.248936   6.473593   8.842669   7.652867
    30  H    1.025981   5.111397   6.844346   8.965401   7.357814
    31  H    1.026118   6.000339   7.150724   9.476092   7.852687
                   21         22         23         24         25
    21  H    0.000000
    22  H    3.926627   0.000000
    23  H    4.846497   4.181144   0.000000
    24  H    2.704586   4.202479   2.549432   0.000000
    25  H    4.493223   7.639519   8.935314   6.520671   0.000000
    26  H    4.958331   8.140776   8.737421   6.314261   1.771774
    27  H    4.642878   8.462160   8.316289   5.779685   3.073455
    28  H    4.528693   8.322710   8.896192   6.376002   2.487858
    29  H    6.662854  10.264226  10.470421   7.952661   3.251291
    30  H    6.581457  10.144779  10.897180   8.359470   2.735432
    31  H    6.743543  10.554895  10.721614   8.180098   3.813229
                   26         27         28         29         30
    26  H    0.000000
    27  H    2.575705   0.000000
    28  H    3.084857   1.774927   0.000000
    29  H    2.488456   2.447534   2.977426   0.000000
    30  H    2.971067   2.994506   2.444126   1.653166   0.000000
    31  H    3.646550   2.433478   2.409243   1.655535   1.655833
                   31
    31  H    0.000000
 Symmetry turned off by external request.
 Stoichiometry    C9H15N4O3(1+)
 Framework group  C1[X(C9H15N4O3)]
 Deg. of freedom    87
 Full point group                 C1      NOp   1
 Rotational constants (GHZ):      0.9301064      0.2404222      0.1987105
 Standard basis: 6-311G(2df,2pd) (5D, 7F)
   690 basis functions,  1023 primitive gaussians,   785 cartesian basis functions
    60 alpha electrons       60 beta electrons
       nuclear repulsion energy      1113.1696754731 Hartrees.
 NAtoms=   31 NActive=   31 NUniq=   31 SFac= 1.00D+00 NAtFMM=   60 NAOKFM=F Big=F
 Integral buffers will be    131072 words long.
 Raffenetti 2 integral format.
 Two-electron integral symmetry is turned off.
 One-electron integrals computed using PRISM.
 NBasis=   690 RedAO= T EigKep=  2.15D-04  NBF=   690
 NBsUse=   690 1.00D-06 EigRej= -1.00D+00 NBFU=   690
 Initial guess from the checkpoint file:  "conf-342.chk"
 B after Tr=     0.000000    0.000000    0.000000
         Rot=    1.000000    0.000000    0.000000    0.000000 Ang=   0.00 deg.
 Requested convergence on RMS density matrix=1.00D-08 within 128 cycles.
 Requested convergence on MAX density matrix=1.00D-06.
 Requested convergence on             energy=1.00D-06.
 No special actions if energy rises.
 SCF Done:  E(RB3LYP) =  -796.723622307     A.U. after   11 cycles
            NFock= 11  Conv=0.63D-08     -V/T= 2.0041

 **********************************************************************

            Population analysis using the SCF density.

 **********************************************************************

 Alpha  occ. eigenvalues --  -19.26383 -19.22727 -19.21202 -14.64173 -14.46933
 Alpha  occ. eigenvalues --  -14.46020 -14.37707 -10.41817 -10.41810 -10.40985
 Alpha  occ. eigenvalues --  -10.35948 -10.34752 -10.31245 -10.30462 -10.30112
 Alpha  occ. eigenvalues --  -10.27629  -1.20724  -1.20534  -1.17818  -1.12714
 Alpha  occ. eigenvalues --   -1.10685  -1.06176  -0.96835  -0.96377  -0.91138
 Alpha  occ. eigenvalues --   -0.85944  -0.83126  -0.79096  -0.78799  -0.77534
 Alpha  occ. eigenvalues --   -0.73126  -0.71105  -0.70541  -0.69477  -0.68539
 Alpha  occ. eigenvalues --   -0.67303  -0.64950  -0.63611  -0.60861  -0.60229
 Alpha  occ. eigenvalues --   -0.58406  -0.57452  -0.56865  -0.55128  -0.54787
 Alpha  occ. eigenvalues --   -0.54051  -0.53196  -0.51936  -0.50845  -0.50675
 Alpha  occ. eigenvalues --   -0.49903  -0.48970  -0.47622  -0.42479  -0.40610
 Alpha  occ. eigenvalues --   -0.39921  -0.38877  -0.37643  -0.35785  -0.32697
 Alpha virt. eigenvalues --   -0.19216  -0.13646  -0.12580  -0.12025  -0.10796
 Alpha virt. eigenvalues --   -0.10030  -0.08121  -0.07555  -0.06203  -0.05167
 Alpha virt. eigenvalues --   -0.04650  -0.04419  -0.03190  -0.02620  -0.01755
 Alpha virt. eigenvalues --   -0.01540  -0.00247   0.00070   0.01536   0.02374
 Alpha virt. eigenvalues --    0.03147   0.03401   0.06354   0.07296   0.08142
 Alpha virt. eigenvalues --    0.08923   0.10740   0.11119   0.11376   0.12419
 Alpha virt. eigenvalues --    0.12495   0.14244   0.14384   0.15134   0.17312
 Alpha virt. eigenvalues --    0.18295   0.19446   0.20530   0.20792   0.21439
 Alpha virt. eigenvalues --    0.23134   0.23849   0.24794   0.25161   0.25822
 Alpha virt. eigenvalues --    0.26706   0.27184   0.28250   0.28750   0.29157
 Alpha virt. eigenvalues --    0.29368   0.29469   0.30060   0.30715   0.30993
 Alpha virt. eigenvalues --    0.31369   0.31929   0.32223   0.32821   0.33624
 Alpha virt. eigenvalues --    0.34130   0.34575   0.35248   0.35930   0.37170
 Alpha virt. eigenvalues --    0.37580   0.37919   0.38889   0.39730   0.40525
 Alpha virt. eigenvalues --    0.40753   0.42124   0.42309   0.42744   0.44007
 Alpha virt. eigenvalues --    0.44596   0.45032   0.45579   0.46522   0.47648
 Alpha virt. eigenvalues --    0.48236   0.48769   0.50881   0.51124   0.52349
 Alpha virt. eigenvalues --    0.54091   0.54571   0.55470   0.56620   0.57886
 Alpha virt. eigenvalues --    0.58447   0.58690   0.59005   0.59818   0.60159
 Alpha virt. eigenvalues --    0.60852   0.62077   0.64061   0.65469   0.66506
 Alpha virt. eigenvalues --    0.66893   0.67514   0.67989   0.68730   0.70473
 Alpha virt. eigenvalues --    0.71057   0.71384   0.72331   0.72984   0.74094
 Alpha virt. eigenvalues --    0.74489   0.75302   0.76622   0.77220   0.78242
 Alpha virt. eigenvalues --    0.78617   0.79771   0.80998   0.81209   0.82065
 Alpha virt. eigenvalues --    0.84125   0.84656   0.86162   0.86559   0.87720
 Alpha virt. eigenvalues --    0.87974   0.88279   0.89674   0.89929   0.90920
 Alpha virt. eigenvalues --    0.91570   0.92177   0.92466   0.92809   0.94881
 Alpha virt. eigenvalues --    0.95607   0.96089   0.96225   0.97372   0.98015
 Alpha virt. eigenvalues --    0.98317   0.99485   1.00137   1.00708   1.01762
 Alpha virt. eigenvalues --    1.02409   1.03422   1.05240   1.05467   1.06446
 Alpha virt. eigenvalues --    1.06901   1.07174   1.08655   1.09120   1.09725
 Alpha virt. eigenvalues --    1.10223   1.11519   1.12229   1.12999   1.14860
 Alpha virt. eigenvalues --    1.15690   1.15939   1.16344   1.16745   1.17556
 Alpha virt. eigenvalues --    1.18005   1.18744   1.19303   1.20309   1.20550
 Alpha virt. eigenvalues --    1.21882   1.22481   1.23289   1.24325   1.24845
 Alpha virt. eigenvalues --    1.25920   1.26424   1.27116   1.27575   1.29454
 Alpha virt. eigenvalues --    1.29792   1.29871   1.30846   1.31302   1.32132
 Alpha virt. eigenvalues --    1.32610   1.33066   1.34855   1.35901   1.37517
 Alpha virt. eigenvalues --    1.38855   1.40461   1.41030   1.42786   1.43501
 Alpha virt. eigenvalues --    1.45217   1.45602   1.47513   1.47812   1.49249
 Alpha virt. eigenvalues --    1.49908   1.51711   1.52650   1.55372   1.55447
 Alpha virt. eigenvalues --    1.56643   1.56939   1.60969   1.61290   1.62097
 Alpha virt. eigenvalues --    1.63043   1.63630   1.66148   1.68808   1.69210
 Alpha virt. eigenvalues --    1.70543   1.72876   1.73804   1.76306   1.78612
 Alpha virt. eigenvalues --    1.80297   1.81300   1.82230   1.86476   1.88505
 Alpha virt. eigenvalues --    1.91335   1.93450   1.96840   1.97756   2.01371
 Alpha virt. eigenvalues --    2.04199   2.06105   2.07352   2.09276   2.11573
 Alpha virt. eigenvalues --    2.14565   2.17036   2.17624   2.19397   2.21231
 Alpha virt. eigenvalues --    2.26890   2.28970   2.34400   2.37015   2.39298
 Alpha virt. eigenvalues --    2.40105   2.41142   2.43022   2.44287   2.47257
 Alpha virt. eigenvalues --    2.47996   2.49608   2.51155   2.51469   2.52920
 Alpha virt. eigenvalues --    2.53560   2.54223   2.54334   2.55840   2.56935
 Alpha virt. eigenvalues --    2.58114   2.59395   2.59783   2.61842   2.62859
 Alpha virt. eigenvalues --    2.63930   2.66168   2.66564   2.67086   2.68060
 Alpha virt. eigenvalues --    2.69562   2.70818   2.72290   2.73547   2.74973
 Alpha virt. eigenvalues --    2.75289   2.75870   2.76539   2.77129   2.77994
 Alpha virt. eigenvalues --    2.78426   2.79465   2.80064   2.81512   2.81848
 Alpha virt. eigenvalues --    2.82199   2.83405   2.83941   2.84742   2.84929
 Alpha virt. eigenvalues --    2.85974   2.86788   2.87128   2.88950   2.89648
 Alpha virt. eigenvalues --    2.90145   2.91259   2.92186   2.93307   2.93870
 Alpha virt. eigenvalues --    2.94033   2.95421   2.96219   2.97351   2.97729
 Alpha virt. eigenvalues --    2.98387   2.98751   2.98895   2.99435   3.00421
 Alpha virt. eigenvalues --    3.01190   3.01928   3.02510   3.03703   3.04223
 Alpha virt. eigenvalues --    3.05357   3.05398   3.05896   3.07364   3.07679
 Alpha virt. eigenvalues --    3.09306   3.10438   3.11436   3.11737   3.12109
 Alpha virt. eigenvalues --    3.12585   3.13351   3.13887   3.14469   3.15241
 Alpha virt. eigenvalues --    3.15790   3.16692   3.17243   3.17394   3.18087
 Alpha virt. eigenvalues --    3.19473   3.20472   3.21056   3.21255   3.23323
 Alpha virt. eigenvalues --    3.23929   3.24559   3.25333   3.26131   3.27049
 Alpha virt. eigenvalues --    3.27690   3.28558   3.28999   3.30469   3.31176
 Alpha virt. eigenvalues --    3.31773   3.32455   3.33139   3.33643   3.34287
 Alpha virt. eigenvalues --    3.34694   3.35487   3.36313   3.37902   3.38225
 Alpha virt. eigenvalues --    3.38837   3.39177   3.39784   3.40703   3.42786
 Alpha virt. eigenvalues --    3.43148   3.43864   3.44355   3.46033   3.47216
 Alpha virt. eigenvalues --    3.47599   3.48568   3.49086   3.49589   3.50520
 Alpha virt. eigenvalues --    3.51030   3.51860   3.52806   3.53309   3.54720
 Alpha virt. eigenvalues --    3.56730   3.57216   3.58067   3.58951   3.59909
 Alpha virt. eigenvalues --    3.60773   3.61471   3.62076   3.63189   3.64642
 Alpha virt. eigenvalues --    3.65746   3.66131   3.66906   3.69121   3.69886
 Alpha virt. eigenvalues --    3.70592   3.71216   3.71570   3.72846   3.73141
 Alpha virt. eigenvalues --    3.74372   3.74908   3.75383   3.75751   3.76134
 Alpha virt. eigenvalues --    3.77567   3.78251   3.79563   3.80376   3.80975
 Alpha virt. eigenvalues --    3.81713   3.83031   3.83375   3.84304   3.85804
 Alpha virt. eigenvalues --    3.86151   3.87164   3.87317   3.87913   3.88158
 Alpha virt. eigenvalues --    3.89400   3.90538   3.90893   3.91890   3.93253
 Alpha virt. eigenvalues --    3.94343   3.95314   3.96035   3.97254   3.97470
 Alpha virt. eigenvalues --    3.98590   3.99834   4.00377   4.01395   4.02755
 Alpha virt. eigenvalues --    4.03564   4.04233   4.05296   4.06426   4.09027
 Alpha virt. eigenvalues --    4.09635   4.10077   4.10776   4.13271   4.13777
 Alpha virt. eigenvalues --    4.14492   4.14866   4.16268   4.18021   4.20397
 Alpha virt. eigenvalues --    4.21354   4.22168   4.23962   4.24821   4.26394
 Alpha virt. eigenvalues --    4.28788   4.30177   4.30381   4.32660   4.33905
 Alpha virt. eigenvalues --    4.35888   4.36314   4.37826   4.39705   4.40936
 Alpha virt. eigenvalues --    4.42478   4.43005   4.45163   4.45562   4.48232
 Alpha virt. eigenvalues --    4.48954   4.50279   4.52751   4.53442   4.55117
 Alpha virt. eigenvalues --    4.57544   4.58016   4.59777   4.64281   4.64521
 Alpha virt. eigenvalues --    4.65996   4.67258   4.69992   4.71327   4.71746
 Alpha virt. eigenvalues --    4.73051   4.73549   4.74164   4.74949   4.76043
 Alpha virt. eigenvalues --    4.77546   4.79073   4.81012   4.83036   4.83900
 Alpha virt. eigenvalues --    4.84942   4.85585   4.87043   4.87851   4.88595
 Alpha virt. eigenvalues --    4.89175   4.91066   4.92445   4.93628   4.94470
 Alpha virt. eigenvalues --    4.95043   4.95381   4.96765   4.97092   4.97596
 Alpha virt. eigenvalues --    4.99165   4.99641   5.00148   5.01255   5.01669
 Alpha virt. eigenvalues --    5.02277   5.03648   5.04945   5.05830   5.06438
 Alpha virt. eigenvalues --    5.07372   5.08375   5.08871   5.10882   5.12291
 Alpha virt. eigenvalues --    5.14003   5.14955   5.15623   5.17919   5.18648
 Alpha virt. eigenvalues --    5.20065   5.21462   5.22258   5.24038   5.24345
 Alpha virt. eigenvalues --    5.26192   5.28560   5.29458   5.30598   5.32047
 Alpha virt. eigenvalues --    5.32491   5.34469   5.35769   5.36651   5.39107
 Alpha virt. eigenvalues --    5.40876   5.41007   5.42651   5.42993   5.45177
 Alpha virt. eigenvalues --    5.46905   5.49078   5.50264   5.51973   5.52989
 Alpha virt. eigenvalues --    5.54768   5.58984   5.62956   5.64764   5.68172
 Alpha virt. eigenvalues --    5.69751   5.70942   5.76148   5.77390   5.77508
 Alpha virt. eigenvalues --    5.79335   5.79626   5.80476   5.82880   5.83844
 Alpha virt. eigenvalues --    5.90420   5.93161   5.95170   5.97253   6.05672
 Alpha virt. eigenvalues --    6.08837   6.10203   6.10757   6.16534   6.17599
 Alpha virt. eigenvalues --    6.20107   6.24455   6.25046   6.30378   6.32257
 Alpha virt. eigenvalues --    6.35688   6.41209   6.43168   6.57527   6.59827
 Alpha virt. eigenvalues --    6.74023   6.76325   6.77645   6.82003   6.89550
 Alpha virt. eigenvalues --    6.90986   6.91569   6.92301   6.94997   6.95356
 Alpha virt. eigenvalues --    7.01546   7.05201   7.09994   7.11761   7.14421
 Alpha virt. eigenvalues --    7.17354   7.26423   7.32443   7.41059   7.44264
 Alpha virt. eigenvalues --    7.45312   7.47020   7.67806   7.85652  24.35093
 Alpha virt. eigenvalues --   24.50266  24.58349  24.66703  24.75693  24.82689
 Alpha virt. eigenvalues --   24.85152  24.92145  24.95791  35.88920  36.08421
 Alpha virt. eigenvalues --   36.12850  36.31362  50.06210  50.08902  50.17967
          Condensed to atoms (all electrons):
               1          2          3          4          5          6
     1  O    7.899723   0.660776  -0.095563  -0.013835   0.000034  -0.000001
     2  C    0.660776   4.266513   0.446824  -0.054385  -0.000225  -0.000121
     3  N   -0.095563   0.446824   6.578837   0.232315  -0.019199   0.002233
     4  C   -0.013835  -0.054385   0.232315   5.370052   0.199899  -0.103883
     5  C    0.000034  -0.000225  -0.019199   0.199899   4.239594   0.421405
     6  O   -0.000001  -0.000121   0.002233  -0.103883   0.421405   7.717327
     7  O   -0.000008  -0.002251  -0.034614  -0.108697   0.708886  -0.063937
     8  C    0.000530  -0.002989  -0.030189   0.262023  -0.061590   0.017459
     9  C   -0.001717   0.000906   0.001828  -0.068526   0.003336  -0.016820
    10  C    0.000010   0.000004  -0.000058  -0.006510   0.002427  -0.000946
    11  N    0.000000   0.000000   0.000000  -0.000332  -0.000056   0.000033
    12  C   -0.000007   0.000002   0.000000   0.000368   0.000018   0.000134
    13  N   -0.000203   0.000003   0.000076   0.002447  -0.000993  -0.000198
    14  C   -0.086376   0.308307  -0.054344   0.001637   0.000086  -0.000001
    15  C   -0.001610  -0.051586  -0.000993  -0.000150  -0.000013   0.000000
    16  N    0.000570  -0.001397   0.000018  -0.000001   0.000000   0.000000
    17  H    0.003339  -0.016662   0.326397  -0.047419  -0.011529   0.002177
    18  H    0.011913  -0.004461  -0.036253   0.374349  -0.005686   0.002304
    19  H   -0.000015   0.000088  -0.000116   0.000277  -0.028479   0.302087
    20  H    0.000008   0.000520   0.006723  -0.038917   0.001695  -0.001050
    21  H    0.013077   0.003299  -0.008442  -0.044887   0.001177  -0.000104
    22  H    0.000000   0.000001  -0.000009  -0.000139   0.000105   0.002310
    23  H   -0.000001   0.000000   0.000000   0.000017   0.000001   0.000002
    24  H    0.002440   0.000061  -0.000167  -0.000683   0.000101  -0.000025
    25  H    0.002758  -0.016893   0.004642   0.000587  -0.000059  -0.000001
    26  H    0.000311  -0.016011   0.000330   0.000106   0.000028   0.000000
    27  H    0.035082  -0.000687   0.001819   0.000091   0.000002   0.000000
    28  H    0.000940   0.003976   0.000420   0.000028   0.000000   0.000000
    29  H    0.000042   0.000347   0.000000   0.000001   0.000000   0.000000
    30  H    0.000020   0.000057  -0.000005   0.000000   0.000000   0.000000
    31  H    0.000014  -0.000265   0.000002   0.000000   0.000000   0.000000
               7          8          9         10         11         12
     1  O   -0.000008   0.000530  -0.001717   0.000010   0.000000  -0.000007
     2  C   -0.002251  -0.002989   0.000906   0.000004   0.000000   0.000002
     3  N   -0.034614  -0.030189   0.001828  -0.000058   0.000000   0.000000
     4  C   -0.108697   0.262023  -0.068526  -0.006510  -0.000332   0.000368
     5  C    0.708886  -0.061590   0.003336   0.002427  -0.000056   0.000018
     6  O   -0.063937   0.017459  -0.016820  -0.000946   0.000033   0.000134
     7  O    7.797576  -0.001570   0.000512  -0.000052   0.000000   0.000000
     8  C   -0.001570   5.068633   0.123628  -0.028915   0.010338  -0.002181
     9  C    0.000512   0.123628   5.427348   0.451208  -0.063334  -0.121361
    10  C   -0.000052  -0.028915   0.451208   4.753436   0.475774  -0.153792
    11  N    0.000000   0.010338  -0.063334   0.475774   6.478845   0.581818
    12  C    0.000000  -0.002181  -0.121361  -0.153792   0.581818   4.559643
    13  N   -0.000003  -0.038529   0.324307  -0.048990  -0.124342   0.470557
    14  C   -0.000493  -0.000301  -0.000006   0.000000   0.000000   0.000000
    15  C   -0.000003   0.000010  -0.000008   0.000000   0.000000   0.000000
    16  N    0.000000   0.000000   0.000000   0.000000   0.000000   0.000000
    17  H    0.066942   0.004993  -0.000301   0.000007   0.000000   0.000000
    18  H    0.001393  -0.090878   0.021637  -0.000767  -0.000116   0.000310
    19  H    0.003114  -0.011928   0.027776   0.019505   0.000544  -0.000511
    20  H    0.001444   0.371598  -0.012276  -0.005018   0.000347  -0.000193
    21  H   -0.000313   0.403079  -0.035057   0.002800  -0.000579   0.000351
    22  H   -0.000036   0.001191  -0.061477   0.439078  -0.015208   0.005580
    23  H    0.000000  -0.000283   0.005237   0.003603  -0.015935   0.425796
    24  H   -0.000001   0.004599  -0.032145   0.003629   0.006773  -0.024196
    25  H   -0.000276  -0.000024   0.000016   0.000000   0.000000   0.000000
    26  H    0.000047  -0.000031   0.000004   0.000000   0.000000   0.000000
    27  H    0.000000  -0.000006   0.000004   0.000000   0.000000   0.000000
    28  H    0.000000  -0.000009   0.000002   0.000000   0.000000   0.000000
    29  H    0.000000   0.000000   0.000000   0.000000   0.000000   0.000000
    30  H    0.000000   0.000000   0.000000   0.000000   0.000000   0.000000
    31  H    0.000000   0.000000   0.000000   0.000000   0.000000   0.000000
              13         14         15         16         17         18
     1  O   -0.000203  -0.086376  -0.001610   0.000570   0.003339   0.011913
     2  C    0.000003   0.308307  -0.051586  -0.001397  -0.016662  -0.004461
     3  N    0.000076  -0.054344  -0.000993   0.000018   0.326397  -0.036253
     4  C    0.002447   0.001637  -0.000150  -0.000001  -0.047419   0.374349
     5  C   -0.000993   0.000086  -0.000013   0.000000  -0.011529  -0.005686
     6  O   -0.000198  -0.000001   0.000000   0.000000   0.002177   0.002304
     7  O   -0.000003  -0.000493  -0.000003   0.000000   0.066942   0.001393
     8  C   -0.038529  -0.000301   0.000010   0.000000   0.004993  -0.090878
     9  C    0.324307  -0.000006  -0.000008   0.000000  -0.000301   0.021637
    10  C   -0.048990   0.000000   0.000000   0.000000   0.000007  -0.000767
    11  N   -0.124342   0.000000   0.000000   0.000000   0.000000  -0.000116
    12  C    0.470557   0.000000   0.000000   0.000000   0.000000   0.000310
    13  N    6.305913  -0.000001   0.000000   0.000000  -0.000001   0.004939
    14  C   -0.000001   4.985527   0.270592  -0.017833  -0.004281   0.002048
    15  C    0.000000   0.270592   4.795887   0.197680  -0.000304  -0.000272
    16  N    0.000000  -0.017833   0.197680   5.677386  -0.000031  -0.000001
    17  H   -0.000001  -0.004281  -0.000304  -0.000031   0.558000   0.003640
    18  H    0.004939   0.002048  -0.000272  -0.000001   0.003640   0.678401
    19  H   -0.001567   0.000000   0.000000   0.000000  -0.000557   0.000737
    20  H    0.002565   0.000118  -0.000033   0.000000   0.000620   0.009287
    21  H   -0.000263   0.000196   0.000274   0.000001  -0.000425  -0.005897
    22  H    0.004457   0.000000   0.000000   0.000000  -0.000001  -0.000013
    23  H   -0.036009   0.000000   0.000000   0.000000   0.000000   0.000021
    24  H    0.376915   0.000033  -0.000002   0.000000   0.000004   0.001734
    25  H    0.000000   0.391061  -0.031891  -0.000726  -0.002174   0.000068
    26  H    0.000000   0.387675  -0.041017  -0.000647   0.000443  -0.000061
    27  H    0.000000  -0.046064   0.390501  -0.019229  -0.000185  -0.000044
    28  H    0.000000  -0.032261   0.404821  -0.024144  -0.000010   0.000003
    29  H    0.000000   0.000509  -0.029056   0.359295   0.000001   0.000001
    30  H    0.000000  -0.000337  -0.024081   0.358275   0.000010   0.000000
    31  H    0.000000   0.002191  -0.016064   0.377235   0.000000   0.000000
              19         20         21         22         23         24
     1  O   -0.000015   0.000008   0.013077   0.000000  -0.000001   0.002440
     2  C    0.000088   0.000520   0.003299   0.000001   0.000000   0.000061
     3  N   -0.000116   0.006723  -0.008442  -0.000009   0.000000  -0.000167
     4  C    0.000277  -0.038917  -0.044887  -0.000139   0.000017  -0.000683
     5  C   -0.028479   0.001695   0.001177   0.000105   0.000001   0.000101
     6  O    0.302087  -0.001050  -0.000104   0.002310   0.000002  -0.000025
     7  O    0.003114   0.001444  -0.000313  -0.000036   0.000000  -0.000001
     8  C   -0.011928   0.371598   0.403079   0.001191  -0.000283   0.004599
     9  C    0.027776  -0.012276  -0.035057  -0.061477   0.005237  -0.032145
    10  C    0.019505  -0.005018   0.002800   0.439078   0.003603   0.003629
    11  N    0.000544   0.000347  -0.000579  -0.015208  -0.015935   0.006773
    12  C   -0.000511  -0.000193   0.000351   0.005580   0.425796  -0.024196
    13  N   -0.001567   0.002565  -0.000263   0.004457  -0.036009   0.376915
    14  C    0.000000   0.000118   0.000196   0.000000   0.000000   0.000033
    15  C    0.000000  -0.000033   0.000274   0.000000   0.000000  -0.000002
    16  N    0.000000   0.000000   0.000001   0.000000   0.000000   0.000000
    17  H   -0.000557   0.000620  -0.000425  -0.000001   0.000000   0.000004
    18  H    0.000737   0.009287  -0.005897  -0.000013   0.000021   0.001734
    19  H    0.456339   0.000706   0.000727  -0.000263   0.000010  -0.000146
    20  H    0.000706   0.659730  -0.037722   0.001061   0.000019  -0.000035
    21  H    0.000727  -0.037722   0.673097  -0.000016  -0.000028   0.001436
    22  H   -0.000263   0.001061  -0.000016   0.583485  -0.000360  -0.000364
    23  H    0.000010   0.000019  -0.000028  -0.000360   0.577802  -0.001222
    24  H   -0.000146  -0.000035   0.001436  -0.000364  -0.001222   0.538558
    25  H    0.000001   0.000022  -0.000236   0.000000   0.000000  -0.000001
    26  H    0.000000   0.000002   0.000022   0.000000   0.000000  -0.000001
    27  H    0.000000  -0.000003  -0.000050   0.000000   0.000000  -0.000007
    28  H    0.000000   0.000004   0.000048   0.000000   0.000000   0.000000
    29  H    0.000000   0.000000   0.000000   0.000000   0.000000   0.000000
    30  H    0.000000   0.000000   0.000000   0.000000   0.000000   0.000000
    31  H    0.000000   0.000000   0.000000   0.000000   0.000000   0.000000
              25         26         27         28         29         30
     1  O    0.002758   0.000311   0.035082   0.000940   0.000042   0.000020
     2  C   -0.016893  -0.016011  -0.000687   0.003976   0.000347   0.000057
     3  N    0.004642   0.000330   0.001819   0.000420   0.000000  -0.000005
     4  C    0.000587   0.000106   0.000091   0.000028   0.000001   0.000000
     5  C   -0.000059   0.000028   0.000002   0.000000   0.000000   0.000000
     6  O   -0.000001   0.000000   0.000000   0.000000   0.000000   0.000000
     7  O   -0.000276   0.000047   0.000000   0.000000   0.000000   0.000000
     8  C   -0.000024  -0.000031  -0.000006  -0.000009   0.000000   0.000000
     9  C    0.000016   0.000004   0.000004   0.000002   0.000000   0.000000
    10  C    0.000000   0.000000   0.000000   0.000000   0.000000   0.000000
    11  N    0.000000   0.000000   0.000000   0.000000   0.000000   0.000000
    12  C    0.000000   0.000000   0.000000   0.000000   0.000000   0.000000
    13  N    0.000000   0.000000   0.000000   0.000000   0.000000   0.000000
    14  C    0.391061   0.387675  -0.046064  -0.032261   0.000509  -0.000337
    15  C   -0.031891  -0.041017   0.390501   0.404821  -0.029056  -0.024081
    16  N   -0.000726  -0.000647  -0.019229  -0.024144   0.359295   0.358275
    17  H   -0.002174   0.000443  -0.000185  -0.000010   0.000001   0.000010
    18  H    0.000068  -0.000061  -0.000044   0.000003   0.000001   0.000000
    19  H    0.000001   0.000000   0.000000   0.000000   0.000000   0.000000
    20  H    0.000022   0.000002  -0.000003   0.000004   0.000000   0.000000
    21  H   -0.000236   0.000022  -0.000050   0.000048   0.000000   0.000000
    22  H    0.000000   0.000000   0.000000   0.000000   0.000000   0.000000
    23  H    0.000000   0.000000   0.000000   0.000000   0.000000   0.000000
    24  H   -0.000001  -0.000001  -0.000007   0.000000   0.000000   0.000000
    25  H    0.632214  -0.036471   0.006986  -0.005612  -0.000577   0.002896
    26  H   -0.036471   0.643150  -0.002397   0.005624   0.004619  -0.001216
    27  H    0.006986  -0.002397   0.578502  -0.029285  -0.003923   0.004427
    28  H   -0.005612   0.005624  -0.029285   0.596990   0.005558  -0.005256
    29  H   -0.000577   0.004619  -0.003923   0.005558   0.547899  -0.025351
    30  H    0.002896  -0.001216   0.004427  -0.005256  -0.025351   0.555004
    31  H   -0.000091   0.000168  -0.002419  -0.002546  -0.022829  -0.024479
              31
     1  O    0.000014
     2  C   -0.000265
     3  N    0.000002
     4  C    0.000000
     5  C    0.000000
     6  O    0.000000
     7  O    0.000000
     8  C    0.000000
     9  C    0.000000
    10  C    0.000000
    11  N    0.000000
    12  C    0.000000
    13  N    0.000000
    14  C    0.002191
    15  C   -0.016064
    16  N    0.377235
    17  H    0.000000
    18  H    0.000000
    19  H    0.000000
    20  H    0.000000
    21  H    0.000000
    22  H    0.000000
    23  H    0.000000
    24  H    0.000000
    25  H   -0.000091
    26  H    0.000168
    27  H   -0.002419
    28  H   -0.002546
    29  H   -0.022829
    30  H   -0.024479
    31  H    0.539832
 Mulliken charges:
               1
     1  O   -0.432251
     2  C    0.476248
     3  N   -0.322511
     4  C    0.044168
     5  C    0.549032
     6  O   -0.280383
     7  O   -0.367662
     8  C    0.001343
     9  C    0.025279
    10  C    0.093567
    11  N   -0.334568
    12  C    0.257663
    13  N   -0.241082
    14  C   -0.107683
    15  C    0.137318
    16  N    0.093549
    17  H    0.117309
    18  H    0.031664
    19  H    0.231672
    20  H    0.038778
    21  H    0.034434
    22  H    0.040618
    23  H    0.041330
    24  H    0.122714
    25  H    0.053781
    26  H    0.055321
    27  H    0.086885
    28  H    0.080710
    29  H    0.163467
    30  H    0.160035
    31  H    0.149254
 Sum of Mulliken charges =   1.00000
 Mulliken charges with hydrogens summed into heavy atoms:
               1
     1  O   -0.432251
     2  C    0.476248
     3  N   -0.205202
     4  C    0.075832
     5  C    0.549032
     6  O   -0.048711
     7  O   -0.367662
     8  C    0.074555
     9  C    0.025279
    10  C    0.134185
    11  N   -0.334568
    12  C    0.298993
    13  N   -0.118369
    14  C    0.001420
    15  C    0.304912
    16  N    0.566305
 Electronic spatial extent (au):  <R**2>=           5393.4128
 Charge=              1.0000 electrons
 Dipole moment (field-independent basis, Debye):
    X=             21.4244    Y=             -4.3908    Z=              2.1379  Tot=             21.9740
 Quadrupole moment (field-independent basis, Debye-Ang):
   XX=             14.4267   YY=            -89.3671   ZZ=            -92.7951
   XY=             -4.7124   XZ=              5.7955   YZ=              6.4607
 Traceless Quadrupole moment (field-independent basis, Debye-Ang):
   XX=             70.3385   YY=            -33.4553   ZZ=            -36.8832
   XY=             -4.7124   XZ=              5.7955   YZ=              6.4607
 Octapole moment (field-independent basis, Debye-Ang**2):
  XXX=            904.4623  YYY=           -105.1816  ZZZ=             39.3444  XYY=             60.0235
  XXY=           -111.8532  XXZ=             34.0074  XZZ=             90.5834  YZZ=            -35.6108
  YYZ=             38.7582  XYZ=            -15.2046
 Hexadecapole moment (field-independent basis, Debye-Ang**3):
 XXXX=          -2789.5790 YYYY=           -992.7343 ZZZZ=           -531.8977 XXXY=           -259.2232
 XXXZ=            300.8474 YYYX=            174.4658 YYYZ=            290.4439 ZZZX=             35.3036
 ZZZY=            257.6471 XXYY=           -793.9737 XXZZ=           -931.9258 YYZZ=           -292.9267
 XXYZ=             74.6131 YYXZ=            -21.1417 ZZXY=             27.2373
 N-N= 1.113169675473D+03 E-N=-4.072841993747D+03  KE= 7.934329781744D+02
 Calling FoFJK, ICntrl=      2127 FMM=F ISym2X=0 I1Cent= 0 IOpClX= 0 NMat=1 NMatS=1 NMatT=0.
 -------------------------------------------------------------------
 Center     Atomic                   Forces (Hartrees/Bohr)
 Number     Number              X              Y              Z
 -------------------------------------------------------------------
      1        8           0.003397742    0.011337611   -0.003670749
      2        6          -0.004089175   -0.004957486    0.001405506
      3        7           0.001764153   -0.003035930    0.000143272
      4        6          -0.000621978    0.000394258   -0.000350689
      5        6           0.006072738    0.007345578   -0.004200067
      6        8           0.002805277   -0.002487515    0.001903531
      7        8          -0.009744849   -0.009700704    0.004832995
      8        6          -0.000317797   -0.000143965    0.000774499
      9        6          -0.003937658   -0.000438124   -0.000319694
     10        6           0.002721893   -0.001232670    0.000617038
     11        7           0.007025928   -0.003326712   -0.000582603
     12        6          -0.000316297    0.002547832    0.000223726
     13        7          -0.002104304    0.001729606    0.000370057
     14        6           0.000256250   -0.000363822    0.000415980
     15        6          -0.000017801   -0.000152364    0.000120075
     16        7           0.001707729    0.000036046   -0.000478643
     17        1          -0.000481472   -0.002796455    0.001229435
     18        1           0.000375619    0.002507943    0.001437592
     19        1           0.001661863    0.002595202   -0.001676331
     20        1           0.000118283   -0.002314015   -0.001363237
     21        1          -0.001712077    0.001508056   -0.001483827
     22        1           0.000839353   -0.002762853   -0.000624959
     23        1           0.001118825    0.002483355    0.000384684
     24        1          -0.002389272    0.002015125    0.000235032
     25        1          -0.000649969   -0.002666710   -0.000521255
     26        1          -0.000966614    0.000243176    0.002565930
     27        1           0.001360928    0.002382927    0.000456153
     28        1           0.000171439   -0.000704711   -0.002642583
     29        1          -0.000814542    0.000844371    0.003011885
     30        1          -0.001370223   -0.002936258   -0.000348394
     31        1          -0.001863991    0.002049205   -0.001864359
 -------------------------------------------------------------------
 Cartesian Forces:  Max     0.011337611 RMS     0.002908560

 GradGradGradGradGradGradGradGradGradGradGradGradGradGradGradGradGradGrad
 Berny optimization.
 FormGI is forming the generalized inverse of G from B-inverse, IUseBI=4.
 Internal  Forces:  Max     0.014557932 RMS     0.002177936
 Search for a local minimum.
 Step number   1 out of a maximum of  167
 All quantities printed in internal units (Hartrees-Bohrs-Radians)
 Mixed Optimization -- RFO/linear search
 Second derivative matrix not updated -- first step.
 ITU=  0
     Eigenvalues ---    0.00089   0.00175   0.00201   0.00269   0.00325
     Eigenvalues ---    0.00493   0.00550   0.00600   0.01004   0.01017
     Eigenvalues ---    0.02065   0.02155   0.02620   0.02800   0.03434
     Eigenvalues ---    0.03786   0.04023   0.04095   0.04185   0.04344
     Eigenvalues ---    0.04570   0.04575   0.04895   0.04998   0.05037
     Eigenvalues ---    0.05176   0.05518   0.06058   0.06370   0.06917
     Eigenvalues ---    0.07694   0.07888   0.10004   0.10234   0.11101
     Eigenvalues ---    0.11299   0.11533   0.11892   0.12548   0.12741
     Eigenvalues ---    0.13195   0.15007   0.15350   0.17291   0.17922
     Eigenvalues ---    0.18306   0.19025   0.19266   0.21440   0.21697
     Eigenvalues ---    0.22294   0.22850   0.23108   0.24382   0.24416
     Eigenvalues ---    0.25535   0.25648   0.30610   0.31458   0.32519
     Eigenvalues ---    0.32932   0.33704   0.34002   0.34345   0.34418
     Eigenvalues ---    0.34630   0.34964   0.35446   0.36884   0.37186
     Eigenvalues ---    0.37381   0.38213   0.39936   0.41939   0.42683
     Eigenvalues ---    0.42725   0.43204   0.44306   0.45041   0.46084
     Eigenvalues ---    0.47158   0.47607   0.50518   0.50840   0.57700
     Eigenvalues ---    0.81068   0.88019
 RFO step:  Lambda=-1.35213379D-03 EMin= 8.93599908D-04
 Linear search not attempted -- first point.
 Iteration  1 RMS(Cart)=  0.03571330 RMS(Int)=  0.00063473
 Iteration  2 RMS(Cart)=  0.00089507 RMS(Int)=  0.00000424
 Iteration  3 RMS(Cart)=  0.00000060 RMS(Int)=  0.00000423
 Variable       Old X    -DE/DX   Delta X   Delta X   Delta X     New X
                                 (Linear)    (Quad)   (Total)
    R1        2.32478  -0.01239   0.00000  -0.01516  -0.01516   2.30962
    R2        2.53858  -0.00597   0.00000  -0.00832  -0.00832   2.53026
    R3        2.92096  -0.00246   0.00000  -0.00718  -0.00718   2.91378
    R4        2.75213  -0.00169   0.00000  -0.00475  -0.00475   2.74738
    R5        1.92477  -0.00305   0.00000  -0.00770  -0.00770   1.91706
    R6        2.91366  -0.00248   0.00000  -0.00745  -0.00745   2.90621
    R7        2.94692  -0.00205   0.00000  -0.00760  -0.00760   2.93933
    R8        2.07437  -0.00291   0.00000  -0.00831  -0.00831   2.06606
    R9        2.51330  -0.00443   0.00000  -0.00527  -0.00527   2.50803
   R10        2.29163  -0.01456   0.00000  -0.01670  -0.01670   2.27493
   R11        1.85061  -0.00351   0.00000  -0.00849  -0.00849   1.84212
   R12        2.82723  -0.00313   0.00000  -0.00848  -0.00848   2.81874
   R13        2.06754  -0.00268   0.00000  -0.00749  -0.00749   2.06005
   R14        2.06761  -0.00272   0.00000  -0.00729  -0.00729   2.06032
   R15        2.61177  -0.00686   0.00000  -0.01276  -0.01276   2.59901
   R16        2.61891  -0.00376   0.00000  -0.00760  -0.00760   2.61131
   R17        2.60010  -0.00330   0.00000  -0.00632  -0.00632   2.59378
   R18        2.04566  -0.00295   0.00000  -0.00789  -0.00789   2.03776
   R19        2.48159  -0.00647   0.00000  -0.01081  -0.01081   2.47078
   R20        2.58528  -0.00482   0.00000  -0.00812  -0.00813   2.57715
   R21        2.04347  -0.00275   0.00000  -0.00707  -0.00707   2.03640
   R22        1.90887  -0.00312   0.00000  -0.00652  -0.00652   1.90235
   R23        2.87605  -0.00241   0.00000  -0.00874  -0.00874   2.86732
   R24        2.06888  -0.00279   0.00000  -0.00751  -0.00751   2.06136
   R25        2.07657  -0.00274   0.00000  -0.00774  -0.00774   2.06883
   R26        2.88599  -0.00236   0.00000  -0.00834  -0.00834   2.87765
   R27        2.06110  -0.00273   0.00000  -0.00778  -0.00778   2.05331
   R28        2.06241  -0.00274   0.00000  -0.00759  -0.00759   2.05481
   R29        1.93929  -0.00322   0.00000  -0.00745  -0.00745   1.93184
   R30        1.93882  -0.00326   0.00000  -0.00748  -0.00748   1.93134
   R31        1.93908  -0.00333   0.00000  -0.00768  -0.00768   1.93140
    A1        2.17925  -0.00034   0.00000   0.00028   0.00027   2.17952
    A2        2.09320  -0.00004   0.00000   0.00046   0.00046   2.09366
    A3        2.01071   0.00038   0.00000  -0.00076  -0.00077   2.00994
    A4        2.13665   0.00099   0.00000   0.00356   0.00356   2.14021
    A5        2.13898  -0.00102   0.00000  -0.00901  -0.00901   2.12996
    A6        1.97442   0.00004   0.00000   0.00389   0.00388   1.97831
    A7        1.84179   0.00004   0.00000   0.00318   0.00317   1.84496
    A8        1.96343  -0.00023   0.00000  -0.00123  -0.00125   1.96218
    A9        1.90029   0.00005   0.00000  -0.00192  -0.00192   1.89836
   A10        1.97421   0.00041   0.00000   0.00484   0.00484   1.97904
   A11        1.89334  -0.00037   0.00000  -0.00463  -0.00462   1.88872
   A12        1.88865   0.00008   0.00000  -0.00057  -0.00057   1.88808
   A13        2.04260   0.00054   0.00000  -0.00132  -0.00133   2.04127
   A14        2.11215   0.00052   0.00000   0.00399   0.00399   2.11614
   A15        2.12844  -0.00106   0.00000  -0.00268  -0.00268   2.12576
   A16        1.95701   0.00019   0.00000   0.00441   0.00441   1.96143
   A17        1.97838   0.00025   0.00000   0.00321   0.00321   1.98159
   A18        1.91297  -0.00015   0.00000  -0.00158  -0.00158   1.91139
   A19        1.86620   0.00001   0.00000   0.00005   0.00005   1.86625
   A20        1.91431  -0.00007   0.00000  -0.00102  -0.00102   1.91329
   A21        1.91708  -0.00014   0.00000  -0.00003  -0.00003   1.91704
   A22        1.87145   0.00009   0.00000  -0.00081  -0.00081   1.87064
   A23        2.32160  -0.00045   0.00000  -0.00433  -0.00434   2.31727
   A24        2.14074   0.00039   0.00000   0.00267   0.00267   2.14341
   A25        1.82082   0.00007   0.00000   0.00168   0.00168   1.82250
   A26        1.93936  -0.00069   0.00000  -0.00284  -0.00284   1.93652
   A27        2.22490   0.00022   0.00000   0.00082   0.00081   2.22571
   A28        2.11829   0.00047   0.00000   0.00230   0.00228   2.12057
   A29        1.83720   0.00113   0.00000   0.00360   0.00360   1.84080
   A30        1.95265  -0.00082   0.00000  -0.00285  -0.00285   1.94980
   A31        2.19618   0.00041   0.00000   0.00173   0.00173   2.19791
   A32        2.13436   0.00041   0.00000   0.00112   0.00112   2.13548
   A33        1.87470   0.00031   0.00000   0.00042   0.00042   1.87512
   A34        2.19873   0.00009   0.00000   0.00190   0.00190   2.20064
   A35        2.20843  -0.00040   0.00000  -0.00241  -0.00241   2.20603
   A36        1.88040   0.00154   0.00000   0.00894   0.00894   1.88934
   A37        1.94200  -0.00063   0.00000  -0.00428  -0.00428   1.93772
   A38        1.87365  -0.00057   0.00000  -0.00227  -0.00228   1.87137
   A39        1.95575  -0.00031   0.00000  -0.00152  -0.00151   1.95424
   A40        1.93034  -0.00038   0.00000  -0.00055  -0.00055   1.92979
   A41        1.88039   0.00031   0.00000  -0.00048  -0.00049   1.87990
   A42        1.94354  -0.00029   0.00000  -0.00200  -0.00200   1.94155
   A43        1.92215   0.00043   0.00000   0.00670   0.00670   1.92885
   A44        1.96556  -0.00002   0.00000  -0.00057  -0.00057   1.96499
   A45        1.87588  -0.00028   0.00000  -0.00319  -0.00319   1.87269
   A46        1.85322   0.00020   0.00000   0.00191   0.00191   1.85513
   A47        1.90000  -0.00008   0.00000  -0.00326  -0.00326   1.89674
   A48        1.93943  -0.00025   0.00000  -0.00170  -0.00170   1.93773
   A49        1.95010  -0.00002   0.00000  -0.00001  -0.00001   1.95009
   A50        1.94286  -0.00027   0.00000  -0.00197  -0.00197   1.94088
   A51        1.87322   0.00017   0.00000   0.00133   0.00133   1.87455
   A52        1.87694   0.00024   0.00000   0.00156   0.00155   1.87850
   A53        1.87776   0.00015   0.00000   0.00105   0.00105   1.87881
    D1       -0.13865   0.00027   0.00000   0.00219   0.00221  -0.13644
    D2       -2.98760   0.00021   0.00000   0.00829   0.00828  -2.97931
    D3        2.99482   0.00010   0.00000  -0.00181  -0.00180   2.99302
    D4        0.14587   0.00004   0.00000   0.00429   0.00428   0.15015
    D5       -0.43449   0.00005   0.00000   0.03257   0.03256  -0.40192
    D6       -2.58477  -0.00019   0.00000   0.03116   0.03116  -2.55361
    D7        1.64493   0.00013   0.00000   0.03549   0.03548   1.68042
    D8        2.71480   0.00021   0.00000   0.03636   0.03635   2.75115
    D9        0.56451  -0.00003   0.00000   0.03495   0.03496   0.59947
   D10       -1.48896   0.00029   0.00000   0.03928   0.03928  -1.44969
   D11       -2.80933   0.00049   0.00000   0.03148   0.03148  -2.77785
   D12        1.31344   0.00009   0.00000   0.02404   0.02405   1.33749
   D13       -0.77994   0.00011   0.00000   0.02684   0.02684  -0.75310
   D14        0.06467   0.00036   0.00000   0.02389   0.02388   0.08855
   D15       -2.09574  -0.00004   0.00000   0.01645   0.01645  -2.07929
   D16        2.09406  -0.00002   0.00000   0.01925   0.01924   2.11331
   D17       -3.10781  -0.00019   0.00000  -0.01434  -0.01434  -3.12216
   D18        0.03563  -0.00009   0.00000  -0.01051  -0.01052   0.02511
   D19       -0.95422  -0.00020   0.00000  -0.01070  -0.01069  -0.96491
   D20        2.18922  -0.00010   0.00000  -0.00687  -0.00686   2.18236
   D21        1.14125  -0.00009   0.00000  -0.01153  -0.01153   1.12972
   D22       -1.99850   0.00001   0.00000  -0.00771  -0.00771  -2.00620
   D23       -2.84661   0.00003   0.00000  -0.00106  -0.00106  -2.84767
   D24        1.29152   0.00005   0.00000  -0.00082  -0.00082   1.29070
   D25       -0.73153   0.00002   0.00000   0.00092   0.00092  -0.73061
   D26        1.35164  -0.00015   0.00000  -0.00777  -0.00777   1.34386
   D27       -0.79341  -0.00013   0.00000  -0.00754  -0.00753  -0.80095
   D28       -2.81646  -0.00016   0.00000  -0.00580  -0.00579  -2.82226
   D29       -0.74651   0.00000   0.00000  -0.00462  -0.00462  -0.75113
   D30       -2.89156   0.00002   0.00000  -0.00438  -0.00438  -2.89594
   D31        1.36857  -0.00001   0.00000  -0.00264  -0.00264   1.36594
   D32        0.10810   0.00014   0.00000   0.01645   0.01645   0.12455
   D33       -3.03536   0.00004   0.00000   0.01260   0.01260  -3.02275
   D34       -1.79392  -0.00003   0.00000  -0.00858  -0.00857  -1.80249
   D35        1.33906   0.00000   0.00000  -0.00512  -0.00512   1.33394
   D36        0.35040  -0.00010   0.00000  -0.00912  -0.00912   0.34128
   D37       -2.79981  -0.00007   0.00000  -0.00566  -0.00566  -2.80548
   D38        2.40306  -0.00012   0.00000  -0.01074  -0.01074   2.39232
   D39       -0.74715  -0.00008   0.00000  -0.00728  -0.00728  -0.75443
   D40        3.13861  -0.00011   0.00000   0.00026   0.00025   3.13887
   D41       -0.04133   0.00009   0.00000   0.00876   0.00875  -0.03258
   D42        0.00451  -0.00014   0.00000  -0.00276  -0.00276   0.00175
   D43        3.10775   0.00006   0.00000   0.00574   0.00574   3.11349
   D44        3.13976   0.00009   0.00000  -0.00042  -0.00043   3.13933
   D45        0.05048   0.00005   0.00000   0.00129   0.00128   0.05177
   D46       -0.00834   0.00011   0.00000   0.00216   0.00217  -0.00618
   D47       -3.09761   0.00008   0.00000   0.00387   0.00387  -3.09374
   D48        0.00126   0.00011   0.00000   0.00226   0.00226   0.00352
   D49       -3.10469  -0.00007   0.00000  -0.00561  -0.00562  -3.11031
   D50       -0.00684  -0.00003   0.00000  -0.00079  -0.00080  -0.00763
   D51        3.13830  -0.00005   0.00000  -0.00152  -0.00152   3.13678
   D52        0.00988  -0.00006   0.00000  -0.00092  -0.00092   0.00896
   D53        3.09878   0.00000   0.00000  -0.00247  -0.00247   3.09631
   D54       -3.13512  -0.00004   0.00000  -0.00021  -0.00022  -3.13533
   D55       -0.04622   0.00002   0.00000  -0.00177  -0.00177  -0.04799
   D56        2.88450  -0.00009   0.00000   0.01470   0.01470   2.89920
   D57        0.80524   0.00016   0.00000   0.01559   0.01559   0.82083
   D58       -1.31914  -0.00004   0.00000   0.01536   0.01536  -1.30378
   D59       -1.25682  -0.00002   0.00000   0.01450   0.01450  -1.24232
   D60        2.94710   0.00023   0.00000   0.01539   0.01539   2.96249
   D61        0.82272   0.00002   0.00000   0.01516   0.01516   0.83789
   D62        0.84160  -0.00010   0.00000   0.01249   0.01249   0.85409
   D63       -1.23766   0.00015   0.00000   0.01338   0.01338  -1.22428
   D64        2.92114  -0.00006   0.00000   0.01316   0.01315   2.93429
   D65       -1.03710  -0.00011   0.00000  -0.00108  -0.00108  -1.03818
   D66        1.05464  -0.00006   0.00000  -0.00056  -0.00056   1.05408
   D67       -3.12868  -0.00007   0.00000  -0.00059  -0.00059  -3.12927
   D68        1.06955   0.00008   0.00000   0.00391   0.00391   1.07347
   D69       -3.12190   0.00012   0.00000   0.00444   0.00444  -3.11746
   D70       -1.02203   0.00012   0.00000   0.00440   0.00440  -1.01763
   D71        3.10075  -0.00004   0.00000  -0.00043  -0.00043   3.10032
   D72       -1.09070   0.00000   0.00000   0.00010   0.00010  -1.09060
   D73        1.00917   0.00000   0.00000   0.00006   0.00006   1.00923
         Item               Value     Threshold  Converged?
 Maximum Force            0.014558     0.000450     NO 
 RMS     Force            0.002178     0.000300     NO 
 Maximum Displacement     0.157093     0.001800     NO 
 RMS     Displacement     0.035704     0.001200     NO 
 Predicted change in Energy=-6.879686D-04
 GradGradGradGradGradGradGradGradGradGradGradGradGradGradGradGradGradGrad

                          Input orientation:                          
 ---------------------------------------------------------------------
 Center     Atomic      Atomic             Coordinates (Angstroms)
 Number     Number       Type             X           Y           Z
 ---------------------------------------------------------------------
      1          8           0        1.075050   -1.221483    0.129906
      2          6           0        1.418087   -0.092859   -0.189941
      3          7           0        0.578824    0.905877   -0.491550
      4          6           0       -0.854893    0.709620   -0.631620
      5          6           0       -1.357835    1.897195   -1.469390
      6          8           0       -2.660980    1.951117   -1.715047
      7          8           0       -0.598694    2.733559   -1.885847
      8          6           0       -1.572339    0.575044    0.741881
      9          6           0       -2.939621   -0.013168    0.644605
     10          6           0       -4.199053    0.536290    0.703630
     11          7           0       -5.163287   -0.429392    0.556476
     12          6           0       -4.511722   -1.553947    0.413829
     13          7           0       -3.161877   -1.363337    0.451878
     14          6           0        2.916386    0.258737   -0.284587
     15          6           0        3.689334   -0.717840    0.582078
     16          7           0        5.181261   -0.659990    0.282610
     17          1           0        0.904801    1.782847   -0.883732
     18          1           0       -1.030507   -0.207963   -1.199535
     19          1           0       -3.159076    1.269430   -1.227757
     20          1           0       -1.627587    1.552590    1.221191
     21          1           0       -0.941871   -0.055879    1.368889
     22          1           0       -4.457560    1.569993    0.869290
     23          1           0       -4.953033   -2.527665    0.278281
     24          1           0       -2.455873   -2.079132    0.400850
     25          1           0        3.094657    1.294163    0.008691
     26          1           0        3.207921    0.155133   -1.334733
     27          1           0        3.361248   -1.736402    0.393615
     28          1           0        3.583007   -0.508613    1.643809
     29          1           0        5.367789   -0.886220   -0.696723
     30          1           0        5.567174    0.269501    0.460496
     31          1           0        5.699998   -1.326263    0.858447
 ---------------------------------------------------------------------
                    Distance matrix (angstroms):
                    1          2          3          4          5
     1  O    0.000000
     2  C    1.222198   0.000000
     3  N    2.271147   1.338956   0.000000
     4  C    2.834389   2.450611   1.453851   0.000000
     5  C    4.266477   3.647334   2.385273   1.537902   0.000000
     6  O    5.237094   4.810672   3.617430   2.444805   1.327193
     7  O    4.744157   3.864212   2.582834   2.394796   1.203842
     8  C    3.257405   3.202660   2.501660   1.555424   2.585307
     9  C    4.224041   4.437616   3.809848   2.548973   3.258912
    10  C    5.588836   5.722461   4.938943   3.605044   3.827087
    11  N    6.302874   6.632110   5.987749   4.612069   4.898838
    12  C    5.603853   6.136934   5.725740   4.425957   5.040228
    13  N    4.251510   4.796052   4.475738   3.285315   4.192482
    14  C    2.398619   1.541907   2.434301   3.813958   4.728347
    15  C    2.700481   2.478947   3.669388   4.915355   6.043248
    16  N    4.147235   3.834895   4.922773   6.256741   7.236606
    17  H    3.175286   2.064723   1.014467   2.076511   2.339998
    18  H    2.688495   2.651064   2.081304   1.093310   2.147477
    19  H    5.096637   4.887055   3.827018   2.444999   1.922744
    20  H    4.023759   3.738305   2.867048   2.177283   2.725939
    21  H    2.638500   2.828554   2.588189   2.143733   3.470353
    22  H    6.240897   6.197602   5.259096   3.996521   3.896766
    23  H    6.169758   6.836570   6.556165   5.301197   5.963153
    24  H    3.643678   4.393391   4.349258   3.377317   4.529312
    25  H    3.228309   2.184988   2.594306   4.043592   4.730016
    26  H    2.930764   2.139055   2.861246   4.160323   4.888665
    27  H    2.358259   2.611062   3.937898   4.980962   6.240477
    28  H    3.014951   2.867467   3.947867   5.133870   6.315998
    29  H    4.384441   4.060344   5.117411   6.424385   7.319729
    30  H    4.744628   4.215364   5.118105   6.529117   7.370861
    31  H    4.683151   4.577681   5.747292   7.023655   8.100772
                    6          7          8          9         10
     6  O    0.000000
     7  O    2.212332   0.000000
     8  C    3.019140   3.537248   0.000000
     9  C    3.082857   4.407678   1.491615   0.000000
    10  C    3.196467   4.949340   2.627278   1.375339   0.000000
    11  N    4.133785   6.066688   3.733387   2.264001   1.372568
    12  C    4.499203   6.243637   3.644200   2.213314   2.133269
    13  N    3.991499   5.368372   2.523500   1.381846   2.178921
    14  C    6.001447   4.587435   4.615446   5.935499   7.189094
    15  C    7.261308   6.032411   5.420543   6.666597   7.988383
    16  N    8.503484   7.044590   6.880941   8.154639   9.465655
[...]
 -0.00003109,0.00000277,0.00000371,0.00001102,-0.00000230,0.00000900,-0
 .00001174,-0.00001186,-0.00002633,-0.00001053,0.00000026,0.00000272,0.
 00000229,0.00000087,-0.00001208,0.00001599,0.00000140,-0.02733099,-0.1
 2107857,-0.14172478,0.00220933,0.01035477,0.00780905,0.00084007,0.0000
 2959,0.00041520,-0.00045666,-0.00024122,-0.00045340,0.00004269,0.00003
 525,-0.00002387,0.00001097,-0.00001234,0.00001390,0.00000661,-0.000000
 39,0.00000964,0.00000464,0.00003533,-0.00003067,0.00000116,-0.00000077
 ,0.00000281,-0.00000004,0.00000041,-0.00000051,0.00000921,0.00000626,-
 0.00000031,0.02936298,0.13111991,0.14939306,-0.00514532,-0.00276592,-0
 .00287191,-0.00355203,-0.00841158,0.03252969,0.00020838,0.00059613,-0.
 00206653,-0.00006388,-0.00024218,-0.00078036,-0.00024174,-0.00038788,0
 .00018881,0.00004042,0.00012541,-0.00004043,0.00018156,0.00017108,-0.0
 0023835,0.00020670,0.00005025,-0.00005969,0.00002693,-0.00002305,-0.00
 002429,0.00000830,-0.00000536,-0.00001449,-0.00003916,-0.00000823,-0.0
 0000282,0.00001951,0.00000884,0.00000365,-0.00002434,0.00001307,-0.000
 00004,-0.06357243,-0.01327245,0.06394802,0.00339623,0.00606586,-0.0205
 5207,0.00195544,-0.00052758,-0.00055754,-0.00096404,0.00053467,0.00035
 452,-0.00012056,0.00012090,0.00001023,0.00001743,-0.00001634,0.0000279
 1,-0.00000545,0.00000368,0.00000798,0.00004152,-0.00000790,-0.00004514
 ,0.00000102,0.,0.00000439,-0.00000086,0.00000014,0.00000073,0.00004966
 ,0.00001873,-0.00000580,0.00134116,0.00166303,-0.00547227,0.06817735,-
 0.00220143,-0.00041999,-0.00089856,-0.00347391,-0.00384491,0.00737701,
 0.00158349,0.00011369,-0.00025509,-0.00032025,-0.00030577,-0.00043314,
 0.00007130,0.00022517,-0.00009961,-0.00003455,-0.00006405,0.00003291,-
 0.00008355,-0.00014862,0.00008865,0.00014636,0.00000722,0.00007763,0.0
 0001572,-0.00002835,-0.00003974,-0.00001878,0.00001636,0.00000429,0.00
 002267,0.00002769,0.00000563,0.00002258,0.00000112,0.00000009,0.000004
 47,-0.00001977,-0.00000757,-0.01203155,-0.06428613,0.06009366,-0.00733
 280,-0.00806273,0.02670026,-0.00085074,0.00112230,-0.00058019,0.000560
 74,0.00044431,0.00000061,-0.00003247,0.00002778,0.00005363,-0.00001473
 ,0.00000969,-0.00001228,-0.00000179,0.00000322,-0.00001706,-0.00000548
 ,-0.00002078,0.00002110,-0.00000180,0.00000091,-0.00000256,0.00000063,
 -0.00000049,0.00000214,0.00000851,-0.00000687,0.00000840,0.00685129,0.
 00771466,-0.02393887,0.01392266,0.06958574,-0.00004762,-0.00111389,0.0
 0011453,0.00029549,0.00110624,0.00035400,-0.00040529,0.00021318,0.0005
 8798,0.00028660,0.00004432,0.00038936,0.00006801,0.00005883,-0.0000513
 0,-0.00002665,-0.00001500,0.00001443,-0.00003922,-0.00007100,-0.000006
 47,-0.00012746,-0.00004916,-0.00005957,-0.00001563,0.00002052,0.000046
 54,0.00000351,-0.00000493,0.00000727,0.00000709,-0.00001172,-0.0000044
 5,-0.00002447,-0.00000147,-0.00000130,0.00001291,0.00000109,-0.0000008
 6,0.05965287,0.06044051,-0.27171916,0.00197446,0.00275705,-0.00802223,
 -0.00019508,-0.00069309,0.00073004,0.00023740,-0.00041931,-0.00004785,
 -0.00000805,-0.00003693,-0.00002392,-0.00000147,0.00000767,-0.00000389
 ,0.00000582,0.00000485,-0.00001136,-0.00000177,-0.00000608,0.00000461,
 0.00000005,0.00000007,-0.00000100,-0.00000086,-0.00000029,-0.00000045,
 -0.00001360,-0.00000060,-0.00000134,0.00502210,0.00482429,-0.01755763,
 -0.06454677,-0.06885640,0.29370940,-0.00153407,-0.00181542,-0.00034179
 ,0.00153355,0.00293637,-0.00042480,-0.00018572,-0.00086774,0.00025081,
 -0.00004312,0.00002811,0.00002425,0.00000708,0.00005824,-0.00004138,-0
 .00001276,-0.00001915,0.00000464,-0.00001489,-0.00006517,0.00003265,-0
 .00002194,-0.00000634,-0.00000612,0.00000025,0.00002288,0.00000025,0.0
 0000429,0.00000066,0.00000302,0.00001829,-0.00001376,-0.00000233,-0.00
 003046,-0.00000415,-0.00000082,0.00001482,-0.00001127,-0.00001125,0.00
 382722,0.01349529,0.01166829,-0.05001108,-0.02171954,-0.01625177,-0.01
 689758,-0.03118695,-0.02319849,0.00021499,0.00003186,0.00015735,-0.000
 04934,0.00000065,-0.00001067,-0.00000274,0.00000936,-0.00000252,0.0000
 1695,-0.00001249,0.00000345,-0.00000189,0.00002452,0.00003040,0.000000
 97,-0.00000071,0.00000059,-0.00000208,-0.00000048,0.00000197,-0.000026
 93,0.00000648,0.00001607,-0.00241931,0.00266437,-0.00179700,0.00068431
 ,-0.00061887,-0.00028256,0.06573887,-0.00086662,0.00155231,0.00008408,
 -0.00114988,-0.00158375,0.00033941,0.00001502,0.00036048,0.00003620,0.
 00003274,0.00004896,0.00005580,0.00002965,-0.00001724,0.00001474,-0.00
 002074,0.00000110,-0.00000434,-0.00001356,0.00002565,0.00000354,0.0000
 0765,0.00000147,-0.00000534,0.00000310,0.00000851,0.00000714,0.0000080
 7,-0.00000485,0.00000043,-0.00000525,-0.00001236,0.00000091,-0.0000098
 2,0.00000311,-0.00000059,0.00000051,0.00000066,0.00000227,-0.00104273,
 -0.02053200,-0.01479639,-0.03021138,-0.22114845,-0.13179747,-0.0018771
 0,-0.00225888,-0.00119285,-0.00008698,-0.00006706,-0.00016951,0.000032
 42,0.00001408,-0.00000005,0.00000850,0.00000361,-0.00000651,-0.0000092
 8,0.00000369,-0.00000235,0.00000906,-0.00001236,-0.00001537,0.00000067
 ,-0.00000083,-0.00000100,-0.00000176,0.00000030,-0.00000083,0.00000160
 ,0.00001521,-0.00000182,0.00269748,-0.00233449,0.00224488,-0.00074997,
 0.00103279,0.00012828,0.03182068,0.23630890,-0.00076785,0.00097326,-0.
 00020189,-0.00030560,-0.00116361,0.00093672,0.00006530,0.00038557,-0.0
 0032046,0.00005682,-0.00004100,-0.00003352,0.00000656,-0.00000854,0.00
 002911,-0.00000228,0.00000497,-0.00001081,-0.00000909,0.00001219,-0.00
 004167,0.00000444,-0.00000614,0.00000968,0.00000324,-0.00000731,-0.000
 00368,-0.00000338,0.00000142,-0.00000343,-0.00000691,0.00000516,-0.000
 00190,0.00001017,0.00000075,0.00000071,-0.00000500,0.00000169,-0.00000
 559,0.00225469,0.00984912,0.00801131,-0.02433195,-0.13373090,-0.154829
 88,0.00194268,0.00449422,0.00247044,0.00000169,0.00005895,0.00004908,-
 0.00003003,-0.00000927,0.00001897,-0.00000301,-0.00000249,0.00001158,-
 0.00000033,0.00000346,-0.00000733,-0.00000050,-0.00000538,-0.00001305,
 -0.00000031,0.00000038,0.00000134,0.00000052,-0.00000028,0.00000193,0.
 00001228,-0.00000459,0.00001036,-0.00163198,0.00214692,0.00021893,0.00
 075012,-0.00017082,0.00087168,0.02619133,0.13982084,0.15789782,-0.0018
 6963,-0.00114576,0.00122745,0.00153851,0.00242475,-0.00132676,-0.00012
 523,-0.00089325,0.00025640,-0.00005671,-0.00000631,-0.00000944,0.00003
 482,0.00008325,-0.00007818,-0.00003612,-0.00002307,0.00002250,-0.00004
 252,-0.00007720,0.00007624,-0.00003534,0.00002104,-0.00004078,-0.00001
 219,0.00001291,0.00002343,-0.00000055,0.00000242,0.00001400,0.00002763
 ,-0.00000216,-0.00000080,-0.00002527,-0.00000595,-0.00000179,0.0000191
 0,-0.00001013,0.00000684,0.00567968,0.00352663,-0.01727334,-0.05745768
 ,-0.01276713,0.04844487,-0.01972699,-0.01052020,0.03512140,0.00025732,
 -0.00007428,-0.00005196,-0.00001526,0.00001711,-0.00001853,0.00000523,
 0.00001229,-0.00002627,0.00000229,-0.00000362,0.00000746,-0.00002329,0
 .00000175,0.00001797,-0.00000038,0.00000006,-0.00000339,-0.00000041,-0
 .00000040,-0.00000141,-0.00002799,-0.00000517,-0.00001718,0.00071556,-
 0.00032115,0.00058864,-0.00259759,0.00313861,-0.00064208,0.00296619,0.
 00192352,-0.00443381,0.07453462,-0.00028791,0.00032643,-0.00061292,-0.
 00066682,-0.00021435,0.00051511,-0.00005282,-0.00017955,-0.00014798,0.
 00001500,0.00003120,-0.00009074,-0.00004196,-0.00004061,0.00003489,0.0
 0000832,0.00001125,-0.00000992,0.00003459,0.00001674,-0.00002585,0.000
 02376,0.00000374,0.00002046,0.00000903,0.00001873,-0.00001577,0.000009
 43,-0.00000300,-0.00000465,-0.00000266,-0.00001877,0.00000116,-0.00001
 845,0.00000051,0.00000045,0.00000182,-0.00000407,0.00000114,-0.0043663
 3,-0.00728092,0.02589898,-0.01428744,-0.06745305,0.06274131,-0.0036640
 4,-0.00251350,0.00562263,-0.00010246,0.00009062,0.00010609,0.00000922,
 -0.00000452,-0.00000627,0.00000400,0.00000228,0.00000362,0.00000808,-0
 .00000971,0.00000641,0.00001633,0.00002484,-0.00000206,0.00000185,-0.0
 0000116,0.00000133,-0.00000232,0.00000004,-0.00000078,-0.00000770,0.00
 001707,-0.00000524,-0.00103831,0.00095870,-0.00030073,0.00308784,-0.00
 328024,0.00097117,0.00635626,0.00774039,-0.02347597,0.01569223,0.07133
 913,0.00102913,-0.00149015,0.00121392,0.00109287,0.00230326,-0.0005610
 9,-0.00002608,-0.00063832,0.00012086,-0.00010016,0.00000319,0.00000557
 ,-0.00001781,0.00001924,-0.00004652,0.00001230,-0.00000796,0.00000909,
 0.00000740,-0.00002860,0.00003983,0.00000263,0.00000104,0.00000566,-0.
 00000284,0.00000223,-0.00000510,0.00000001,0.00000255,-0.00000057,0.00
 000924,-0.00000107,-0.00000055,-0.00000638,-0.00000107,-0.00000028,0.0
 0000604,-0.00000236,-0.00000670,-0.00012747,0.00245525,-0.00707460,0.0
 5994864,0.06521108,-0.30123822,-0.00249951,-0.00199380,0.00570165,0.00
 007207,-0.00005553,-0.00001028,-0.00001289,0.00001949,-0.00002049,-0.0
 0000503,0.00000050,0.00000059,0.00000561,-0.00000692,0.00000463,-0.000
 00542,0.00001102,0.00002717,0.00000010,-0.00000018,0.00000100,0.000000
 06,0.00000007,0.00000119,-0.00001304,-0.00000202,0.00001055,-0.0001580
 1,0.00002798,0.00097439,-0.00078814,0.00105543,0.00127053,0.00396223,0
 .00501485,-0.01634347,-0.06201950,-0.07156414,0.31424655,0.00021815,0.
 00093051,-0.00055101,-0.00172414,-0.00145640,-0.00011085,0.00071711,0.
 00004637,-0.00001488,-0.00023284,-0.00010239,0.00003776,-0.00019343,0.
 00009546,-0.00010551,0.00020039,-0.00003482,0.00005294,0.00013714,-0.0
 0004595,0.00004974,0.00001460,0.00000139,0.00004867,-0.00000201,-0.000
 00762,-0.00004282,-0.00003288,0.00001829,-0.00000252,0.00005437,0.0000
 3128,0.00000102,-0.00000216,-0.00000068,0.00000140,0.00002595,-0.00002
 913,-0.00001148,0.00256166,0.00005398,0.00120126,-0.00954121,-0.007953
 19,0.03333643,-0.08645056,-0.02361353,0.09989557,-0.00008342,0.0001858
 4,-0.00004151,0.00003585,0.00001039,0.00000691,-0.00005320,-0.00001800
 ,0.00002207,0.00000224,-0.00000150,-0.00000386,-0.00000682,0.00000124,
 0.00002624,-0.00000677,0.00000345,0.00000354,-0.00000018,-0.00000061,0
 .00000245,-0.00002207,-0.00002166,0.00001573,-0.00007062,0.00009239,-0
 .00010837,-0.00033241,0.00080295,-0.00114297,0.00148294,-0.00040171,-0
 .00041288,-0.00615693,-0.00092520,-0.00209178,0.08971798,-0.00029380,-
 0.00055084,0.00009458,0.00072356,0.00017476,0.00015419,-0.00005118,-0.
 00001470,0.00001871,0.00006274,0.00000224,0.00001338,0.00012624,0.0000
 5594,-0.00001263,-0.00009623,-0.00001728,-0.00000651,-0.00008586,-0.00
 005135,0.00001670,-0.00000277,-0.00000024,-0.00001435,0.00000125,0.000
 01552,0.00001496,0.00001372,-0.00000512,0.00000461,-0.00001106,-0.0000
 2112,-0.00000069,-0.00001402,0.00000161,-0.00000107,-0.00000108,-0.000
 00033,0.,0.00014652,0.00076158,-0.00172844,-0.00321312,-0.00166423,0.0
 0601710,-0.02125129,-0.08128111,0.07492320,0.00006455,-0.00001433,0.00
 000029,-0.00001696,-0.00000596,0.00000122,0.00001832,0.00001751,-0.000
 01399,0.00000168,-0.00000128,-0.00000173,0.00000022,0.00000051,-0.0000
 0428,0.00000301,-0.00000171,-0.00000226,-0.00000185,0.00000004,-0.0000
 0005,0.00000096,0.00001560,-0.00000017,0.00017640,-0.00012293,-0.00019
 731,-0.00005132,0.00034315,0.00065645,-0.00023915,-0.00054594,0.000308
 40,-0.00110790,0.00021099,-0.00064824,0.02587781,0.07821972,-0.0004425
 7,0.00019371,-0.00025917,0.00037338,-0.00006230,-0.00002521,-0.0004753
 7,0.00018883,-0.00012221,0.00012932,0.00010374,-0.00001164,0.00000421,
 -0.00012341,0.00012610,-0.00004353,0.00003900,-0.00005155,-0.00000388,
 0.00007104,-0.00010568,-0.00001058,-0.00001002,-0.00000232,0.00000806,
 -0.00000032,0.00000629,0.00001070,-0.00000544,-0.00000899,-0.00002983,
 -0.00001268,-0.00000543,0.00000701,0.00000259,0.00000132,-0.00001539,0
 .00001278,-0.00000495,-0.00074242,-0.00164534,0.00184826,0.00447320,0.
 00049709,0.00468228,0.08985370,0.07296054,-0.35380078,-0.00001747,-0.0
 0005498,0.00010330,-0.00001660,-0.00001888,0.00001236,0.00001328,-0.00
 000175,0.00001933,0.00000180,-0.00000013,0.00000003,0.00000931,0.00000
 336,-0.00002344,0.00000249,-0.00000118,0.00000350,-0.00000022,0.000000
 04,0.00000244,0.00001795,0.00000959,0.00000951,0.00012560,-0.00001931,
 -0.00029443,0.00028509,0.00005232,-0.00051405,-0.00059698,-0.00008531,
 0.00069789,-0.00147531,-0.00005954,0.00121653,-0.10064915,-0.08009358,
 0.37486911,0.00017239,0.00104544,-0.00012729,-0.00168321,-0.00109794,0
 .00084668,0.00067728,0.00008037,0.00000201,-0.00022033,-0.00011924,0.0
 0000474,-0.00016635,0.00009948,-0.00011877,0.00017715,-0.00003493,0.00
 005712,0.00011251,-0.00004484,0.00006916,0.00001864,0.00000865,0.00003
 396,-0.00000591,-0.00001250,-0.00003261,-0.00003274,0.00001821,0.00000
 172,0.00005471,0.00003439,0.00000185,0.00000111,-0.00000084,0.00000098
 ,0.00002597,-0.00002701,-0.00000496,0.00258143,-0.00072678,-0.00073909
 ,-0.00614608,-0.02743370,-0.02238184,-0.07192793,-0.05982970,-0.048823
 90,-0.00006903,0.00012829,-0.00013183,0.00003830,0.00001938,0.00000130
 ,-0.00004656,-0.00001550,0.00001078,-0.00000427,0.00000247,-0.00000488
 ,-0.00001006,-0.00000856,0.00002630,-0.00000709,0.00000359,0.00000171,
 0.00000044,-0.00000048,0.00000121,-0.00001991,-0.00002382,0.00000473,-
 0.00038179,0.00134093,0.00038189,-0.00006640,0.00015021,0.00004658,-0.
 00651178,0.00027434,0.00150550,0.00135470,-0.00008244,0.00066248,0.002
 39604,0.01069114,0.00663848,0.07438989,0.00004442,-0.00054920,0.000179
 25,0.00033260,0.00005007,-0.00019142,0.00026441,-0.00015657,0.00002951
 ,-0.00002929,-0.00005728,0.00003242,0.00005401,0.00009292,-0.00004984,
 -0.00001658,-0.00003100,0.00001416,-0.00002937,-0.00007505,0.00002588,
 -0.00000281,0.00001400,0.00000293,0.00000329,0.00001314,-0.00000283,0.
 00000283,0.00000342,0.00000327,0.00000968,-0.00001233,-0.00000063,-0.0
 0001751,-0.00000055,-0.00000026,0.00000779,-0.00001220,-0.00000210,0.0
 0043562,0.00278363,0.00097113,-0.00534962,-0.00347873,-0.00166708,-0.0
 5158583,-0.26204104,-0.15855306,0.00004242,0.00007486,0.00004171,-0.00
 001227,-0.00000149,-0.00000417,-0.00000111,0.00001096,-0.00000538,0.00
 000978,-0.00000716,0.00000105,-0.00000401,0.00000795,0.00000872,0.0000
 0150,-0.00000064,-0.00000024,-0.00000180,-0.00000027,0.00000023,-0.000
 01139,0.00000742,0.,-0.00014990,-0.00027848,-0.00081296,0.00006298,-0.
 00007143,0.00004548,-0.00028431,0.00095669,0.00091815,0.00019428,-0.00
 017359,0.00042152,0.00343463,0.01007342,0.00660069,0.06041604,0.274563
 13,0.00055199,0.00017364,-0.00020816,-0.00089985,-0.00013374,0.0001006
 9,0.00047077,-0.00014913,0.00003460,-0.00016663,-0.00006049,0.00002359
 ,-0.00013534,0.00003436,-0.00005183,0.00013844,-0.00001584,0.00002305,
 0.00009974,-0.00001433,0.00001498,0.00000920,0.00000191,0.00003957,0.0
 0000427,-0.00000277,-0.00003776,-0.00001825,0.00001300,-0.00000744,0.0
 0003049,0.00001454,-0.00000372,-0.00000205,-0.00000023,0.00000238,0.00
 001405,-0.00001719,-0.00001520,0.00071451,0.00083434,-0.00021670,-0.00
 281008,0.00240398,0.00310999,-0.04244060,-0.15714812,-0.18760916,-0.00
 004248,0.00009259,-0.00001390,0.00001562,0.00000967,-0.00000445,-0.000
 03704,-0.00001449,0.00002784,0.00001019,-0.00000958,0.00000357,-0.0000
 0801,0.00001542,0.00002772,-0.00000296,0.00000146,0.00000624,-0.000000
 09,-0.00000031,0.00000422,-0.00001751,-0.00001194,0.00002157,-0.000236
 33,-0.00007771,0.00016852,-0.00017349,-0.00013795,-0.00035125,0.001166
 10,0.00037286,0.00081593,0.00068580,0.00078727,0.00045104,-0.00875406,
 -0.02931210,-0.01985023,0.04730102,0.17163759,0.19384060,0.00060513,-0
 .00101007,0.00039995,0.00047937,0.00346175,-0.00121799,-0.00076103,-0.
 00063238,0.00013383,0.00002219,0.00018976,-0.00004630,-0.00012464,-0.0
 0005560,0.00001730,0.00002001,0.00001961,-0.00001191,0.00004295,0.0000
 0637,0.00000148,-0.00002089,-0.00000298,-0.00002181,-0.00000754,0.0000
 1911,0.00001070,-0.00000017,0.00000044,0.00000580,0.00002323,-0.000006
 56,-0.00000176,-0.00002759,-0.00000110,-0.00000101,0.00001902,-0.00001
 078,0.00000002,-0.00670945,-0.00406920,0.00106196,-0.01602743,0.026019
 63,-0.00983571,-0.14799620,0.14839590,-0.05602289,0.00001297,-0.000034
 73,0.00002313,-0.00000670,0.00000126,-0.00000599,0.00000090,0.00000329
 ,-0.00000480,-0.00000021,-0.00000090,0.00000230,-0.00000457,0.00000268
 ,0.00001417,-0.00000185,0.00000043,-0.00000048,-0.00000216,-0.00000036
 ,-0.00000002,-0.00001987,0.00000229,-0.00000162,0.00036072,-0.00018307
 ,0.00026895,0.00037028,-0.00027950,-0.00009137,0.00125499,-0.00041823,
 -0.00086045,0.00107443,0.00026908,0.00106324,0.00734720,-0.01147056,0.
 00256574,0.00529886,-0.00782048,0.00453257,0.15477804,-0.00029064,0.00
 006372,-0.00009387,-0.00014952,0.00052037,0.00001127,-0.00052705,0.000
 00437,-0.00003742,0.00013573,0.00007574,-0.00002773,0.00014670,-0.0000
 2771,0.00006098,-0.00014639,0.00001104,-0.00003423,-0.00010100,0.00000
 383,-0.00003130,-0.00000303,-0.00000032,-0.00003039,0.00000448,0.00001
 897,0.00002750,0.00002687,-0.00001194,0.00000261,-0.00003152,-0.000036
 26,-0.00000069,-0.00001622,0.00000367,-0.00000129,-0.00001035,0.000010
 47,0.00000506,-0.00163687,-0.00110791,0.00030467,-0.00157276,0.0112504
 1,-0.00415856,0.13901986,-0.28009936,0.08278790,0.00005706,-0.00009464
 ,0.00006958,-0.00002374,-0.00000855,-0.00000294,0.00003719,0.00002026,
 -0.00001776,0.00000180,-0.00000251,0.00000211,0.00000931,0.00000246,-0
 .00001576,0.00000529,-0.00000311,-0.00000253,-0.00000256,0.00000050,-0
 .00000154,0.00000888,0.00002764,-0.00000765,-0.00006524,0.00008457,0.0
 0014858,0.00002448,-0.00011567,-0.00000013,-0.00059025,0.00044028,-0.0
 0035914,-0.00008718,0.00038437,-0.00010832,0.00302642,-0.00559412,0.00
 145885,0.01514534,-0.02170460,0.01071327,-0.15239508,0.29588405,0.0001
 3748,-0.00013548,-0.00011847,0.00005431,0.00018003,0.00047789,0.000144
 63,-0.00004399,-0.00001159,-0.00004481,-0.00002099,-0.00003252,-0.0000
 6570,-0.00000648,-0.00000929,0.00005523,0.00000047,0.00000198,0.000044
 12,0.00000201,-0.00000465,0.00001235,-0.00000338,0.00002258,0.00000315
 ,-0.00000385,-0.00001763,-0.00000881,0.00000581,-0.00000506,0.00001083
 ,0.00000837,-0.00000358,0.00000332,0.00000065,0.00000135,0.00000446,-0
 .00000606,-0.00001108,0.00020900,0.00018276,-0.00002391,-0.00028135,-0
 .00268707,0.00040653,-0.05276937,0.08328994,-0.09442515,-0.00002286,0.
 00004689,0.00000253,-0.00000321,0.00000469,0.00000116,-0.00001567,-0.0
 0000739,0.00001703,0.00000233,-0.00000289,0.00000017,-0.00000425,0.000
 00427,0.00001104,-0.00000146,0.00000063,0.00000370,0.00000013,-0.00000
 016,0.00000368,-0.00000435,-0.00000580,0.00001736,-0.00010089,0.000248
 21,0.00008198,0.00012899,-0.00012392,0.00027771,-0.00054494,-0.0000464
 9,-0.00023678,0.00092753,-0.00038946,0.00000712,-0.02065807,0.02981361
 ,-0.00851818,0.01476495,-0.01964375,0.00965368,0.05802295,-0.09066116,
 0.09243041\\0.00000040,-0.00000049,0.00000001,-0.00000029,0.00000277,-
 0.00000005,-0.00000020,-0.00000046,0.00000020,0.00000006,-0.00000007,-
 0.00000019,-0.00000019,-0.00000007,0.00000010,0.00000017,-0.00000012,0
 .00000018,-0.00000055,-0.00000015,0.00000018,-0.00000002,-0.00000025,0
 .00000007,-0.00000005,-0.00000009,-0.00000010,-0.00000051,-0.00000065,
 0.00000005,0.00000106,-0.00000053,0.00000003,-0.00000039,-0.00000010,0
 .00000002,0.00000003,-0.00000023,0.00000004,-0.00000018,-0.00000078,0.
 00000056,-0.00000023,-0.00000040,0.00000053,0.00000023,0.00000055,-0.0
 0000038,-0.00000011,-0.00000013,0.00000016,-0.00000004,0.00000024,-0.0
 0000010,-0.00000003,0.00000005,0.00000014,-0.00000010,-0.00000038,0.00
 000003,-0.00000009,-0.00000001,-0.00000005,0.,-0.00000058,0.,0.0000002
 8,-0.00000027,-0.00000010,0.00000013,-0.00000024,-0.00000013,-0.000000
 46,0.00000015,-0.00000054,0.00000011,0.00000070,-0.00000005,0.00000082
 ,0.00000013,0.00000010,0.00000030,0.00000028,-0.00000039,0.00000002,0.
 00000036,0.00000022,-0.00000007,0.00000008,-0.00000025,-0.00000008,0.0
 0000068,-0.00000026\\\@


 THE FIRST AND LAST THING REQUIRED OF GENIUS IS THE LOVE OF TRUTH.

                          -- GOETHE
 Job cpu time:       0 days 14 hours 28 minutes 41.8 seconds.
 File lengths (MBytes):  RWF=   1140 Int=      0 D2E=      0 Chk=     37 Scr=      1
 Normal termination of Gaussian 09 at Thu Jul 29 08:38:12 2021.
