 Entering Gaussian System, Link 0=g09
 Input=opt_freq-conf-318.com
 Output=opt_freq-conf-318.log
 Initial command:
 /aerosol/software/g09/l1.exe "/scratch/nicole/10740/Gau-85966.inp" -scrdir="/scratch/nicole/10740/"
 Entering Link 1 = /aerosol/software/g09/l1.exe PID=     85967.
  
 Copyright (c) 1988,1990,1992,1993,1995,1998,2003,2009,2013,
            Gaussian, Inc.  All Rights Reserved.
  
 This is part of the Gaussian(R) 09 program.  It is based on
 the Gaussian(R) 03 system (copyright 2003, Gaussian, Inc.),
 the Gaussian(R) 98 system (copyright 1998, Gaussian, Inc.),
 the Gaussian(R) 94 system (copyright 1995, Gaussian, Inc.),
 the Gaussian 92(TM) system (copyright 1992, Gaussian, Inc.),
 the Gaussian 90(TM) system (copyright 1990, Gaussian, Inc.),
 the Gaussian 88(TM) system (copyright 1988, Gaussian, Inc.),
 the Gaussian 86(TM) system (copyright 1986, Carnegie Mellon
 University), and the Gaussian 82(TM) system (copyright 1983,
 Carnegie Mellon University). Gaussian is a federally registered
 trademark of Gaussian, Inc.
  
 This software contains proprietary and confidential information,
 including trade secrets, belonging to Gaussian, Inc.
  
 This software is provided under written license and may be
 used, copied, transmitted, or stored only in accord with that
 written license.
  
 The following legend is applicable only to US Government
 contracts under FAR:
  
                    RESTRICTED RIGHTS LEGEND
  
 Use, reproduction and disclosure by the US Government is
 subject to restrictions as set forth in subparagraphs (a)
 and (c) of the Commercial Computer Software - Restricted
 Rights clause in FAR 52.227-19.
  
 Gaussian, Inc.
 340 Quinnipiac St., Bldg. 40, Wallingford CT 06492
  
  
 ---------------------------------------------------------------
 Warning -- This program may not be used in any manner that
 competes with the business of Gaussian, Inc. or will provide
 assistance to any competitor of Gaussian, Inc.  The licensee
 of this program is prohibited from giving any competitor of
 Gaussian, Inc. access to this program.  By using this program,
 the user acknowledges that Gaussian, Inc. is engaged in the
 business of creating and licensing software in the field of
 computational chemistry and represents and warrants to the
 licensee that it is not a competitor of Gaussian, Inc. and that
 it will not use this program in any manner prohibited above.
 ---------------------------------------------------------------
  

 Cite this work as:
 Gaussian 09, Revision D.01,
 M. J. Frisch, G. W. Trucks, H. B. Schlegel, G. E. Scuseria, 
 M. A. Robb, J. R. Cheeseman, G. Scalmani, V. Barone, B. Mennucci, 
 G. A. Petersson, H. Nakatsuji, M. Caricato, X. Li, H. P. Hratchian, 
 A. F. Izmaylov, J. Bloino, G. Zheng, J. L. Sonnenberg, M. Hada, 
 M. Ehara, K. Toyota, R. Fukuda, J. Hasegawa, M. Ishida, T. Nakajima, 
 Y. Honda, O. Kitao, H. Nakai, T. Vreven, J. A. Montgomery, Jr., 
 J. E. Peralta, F. Ogliaro, M. Bearpark, J. J. Heyd, E. Brothers, 
 K. N. Kudin, V. N. Staroverov, T. Keith, R. Kobayashi, J. Normand, 
 K. Raghavachari, A. Rendell, J. C. Burant, S. S. Iyengar, J. Tomasi, 
 M. Cossi, N. Rega, J. M. Millam, M. Klene, J. E. Knox, J. B. Cross, 
 V. Bakken, C. Adamo, J. Jaramillo, R. Gomperts, R. E. Stratmann, 
 O. Yazyev, A. J. Austin, R. Cammi, C. Pomelli, J. W. Ochterski, 
 R. L. Martin, K. Morokuma, V. G. Zakrzewski, G. A. Voth, 
 P. Salvador, J. J. Dannenberg, S. Dapprich, A. D. Daniels, 
 O. Farkas, J. B. Foresman, J. V. Ortiz, J. Cioslowski, 
 and D. J. Fox, Gaussian, Inc., Wallingford CT, 2013.
 
 ******************************************
 Gaussian 09:  ES64L-G09RevD.01 24-Apr-2013
                29-Jul-2021 
 ******************************************
 %mem=2gb
 %nproc=4
 Will use up to    4 processors via shared memory.
 %chk=conf-318.chk
 ----------------------------------------------------------------------
 # B3LYP/6-311G(2df,2pd) guess=read geom=checkpoint opt=readfc freq=nor
 aman nosymm integral(ultrafinegrid)
 ----------------------------------------------------------------------
 1/10=3,14=-1,18=20,19=15,26=4,29=2,38=1/1,3;
 2/9=110,12=2,15=1,40=1/2;
 3/5=4,6=6,7=404,11=2,14=-4,16=1,25=1,30=1,71=1,74=-5,75=-5,116=-2/1,2,3;
 4/5=1/1;
 5/5=2,38=6/2;
 6/7=2,8=2,9=2,10=2,28=1/1;
 7/30=1/1,2,3,16;
 1/14=-1,18=20,19=15,26=4/3(2);
 2/9=110,15=1/2;
 99//99;
 2/9=110,15=1/2;
 3/5=4,6=6,7=404,11=2,14=-2,16=1,25=1,30=1,71=1,74=-5,75=-5/1,2,3;
 4/5=5,16=3,69=1/1;
 5/5=2,38=5/2;
 7/30=1/1,2,3,16;
 1/14=-1,18=20,19=15,26=4/3(-5);
 2/9=110,15=1/2;
 6/7=2,8=2,9=2,10=2,19=2,28=1/1;
 99/9=1/99;
 ------------------------------------------------------------
 Candidate Structure: Conf:318 OPT and FREQ calc in gas phase
 ------------------------------------------------------------
 Structure from the checkpoint file:  "conf-318.chk"
 Charge =  1 Multiplicity = 1
 Redundant internal coordinates found in file.
 O,0,1.0401780815,0.59267196,1.5752747864
 C,0,1.0333991161,-0.2690078307,0.7006811609
 N,0,0.0934877057,-1.2174372958,0.5455945221
 C,0,-1.1684133206,-1.2530357859,1.2685188563
 C,0,-1.9407148198,-2.4505081944,0.6777349668
 O,0,-3.0880074761,-2.7855383944,1.279822696
 O,0,-1.5327322874,-3.067901951,-0.279015741
 C,0,-1.9677121326,0.0763839081,1.2123160333
 C,0,-2.1232968409,0.6627240819,-0.1587212529
 C,0,-1.9933709702,0.1710508384,-1.4399602655
 N,0,-2.2249607343,1.1546969819,-2.3758202232
 C,0,-2.50365186,2.2341736644,-1.6806271701
 N,0,-2.4497283291,1.9966746762,-0.3352825312
 C,0,2.1500378834,-0.3016490052,-0.3668988479
 C,0,3.3370134327,0.4869833436,0.1643926638
 N,0,4.306887547,0.8426441161,-0.960373377
 H,0,0.1290658497,-1.8813805388,-0.2237020864
 H,0,-0.9768028138,-1.469970787,2.3284181376
 H,0,-3.2734901442,-2.2270096009,2.0495171654
 H,0,-2.9474487374,-0.0979967965,1.6812940888
 H,0,-1.4429735641,0.7879297892,1.85717284
 H,0,-1.7648127437,-0.8412454706,-1.7413911119
 H,0,-2.7518894124,3.2053245164,-2.0862164992
 H,0,-2.6421019339,2.6651592924,0.3964436532
 H,0,1.7374681581,0.1702086613,-1.2697075641
 H,0,2.4233695013,-1.3302937257,-0.6247557132
 H,0,3.9164219738,-0.0684470023,0.9037230289
 H,0,2.9990069528,1.4215318189,0.6136114437
 H,0,4.6825736012,0.0039917762,-1.4164244373
 H,0,5.1019365415,1.3886434004,-0.6106071054
 H,0,3.8412139454,1.4008714235,-1.6848114967
 Recover connectivity data from disk.

 GradGradGradGradGradGradGradGradGradGradGradGradGradGradGradGradGradGrad
 Berny optimization.
 Initialization pass.
 Force constant matrix read from checkpoint file:
 "conf-318.chk"
                           ----------------------------
                           !    Initial Parameters    !
                           ! (Angstroms and Degrees)  !
 --------------------------                            --------------------------
 ! Name  Definition              Value          Derivative Info.                !
 --------------------------------------------------------------------------------
 ! R1    R(1,2)                  1.2278         D2E/DX2 =    0.7866             !
 ! R2    R(2,3)                  1.3442         D2E/DX2 =    0.5057             !
 ! R3    R(2,14)                 1.5452         D2E/DX2 =    0.2498             !
 ! R4    R(3,4)                  1.4547         D2E/DX2 =    0.3407             !
 ! R5    R(3,17)                 1.0168         D2E/DX2 =    0.4442             !
 ! R6    R(4,5)                  1.5425         D2E/DX2 =    0.2626             !
 ! R7    R(4,8)                  1.5522         D2E/DX2 =    0.2587             !
 ! R8    R(4,18)                 1.0987         D2E/DX2 =    0.3266             !
 ! R9    R(5,6)                  1.3383         D2E/DX2 =    0.4447             !
 ! R10   R(5,7)                  1.2095         D2E/DX2 =    0.8672             !
 ! R11   R(6,19)                 0.9689         D2E/DX2 =    0.5166             !
 ! R12   R(8,9)                  1.4992         D2E/DX2 =    0.3144             !
 ! R13   R(8,20)                 1.1001         D2E/DX2 =    0.3223             !
 ! R14   R(8,21)                 1.0943         D2E/DX2 =    0.3385             !
 ! R15   R(9,10)                 1.3785         D2E/DX2 =    0.4017             !
 ! R16   R(9,13)                 1.3846         D2E/DX2 =    0.3608             !
 ! R17   R(10,11)                1.3773         D2E/DX2 =    0.3357             !
 ! R18   R(10,22)                1.0807         D2E/DX2 =    0.3746             !
 ! R19   R(11,12)                1.3139         D2E/DX2 =    0.4667             !
 ! R20   R(12,13)                1.3672         D2E/DX2 =    0.3604             !
 ! R21   R(12,23)                1.0813         D2E/DX2 =    0.3745             !
 ! R22   R(13,24)                1.0096         D2E/DX2 =    0.4742             !
 ! R23   R(14,15)                1.5209         D2E/DX2 =    0.2924             !
 ! R24   R(14,25)                1.0991         D2E/DX2 =    0.3293             !
 ! R25   R(14,26)                1.0951         D2E/DX2 =    0.3378             !
 ! R26   R(15,16)                1.5272         D2E/DX2 =    0.2348             !
 ! R27   R(15,27)                1.0912         D2E/DX2 =    0.349              !
 ! R28   R(15,28)                1.0906         D2E/DX2 =    0.3521             !
 ! R29   R(16,29)                1.0259         D2E/DX2 =    0.4283             !
 ! R30   R(16,30)                1.0259         D2E/DX2 =    0.4285             !
 ! R31   R(16,31)                1.0263         D2E/DX2 =    0.4272             !
 ! A1    A(1,2,3)              125.5355         D2E/DX2 =    0.1943             !
 ! A2    A(1,2,14)             120.1977         D2E/DX2 =    0.1843             !
 ! A3    A(3,2,14)             114.2468         D2E/DX2 =    0.1662             !
 ! A4    A(2,3,4)              124.5033         D2E/DX2 =    0.1401             !
 ! A5    A(2,3,17)             121.5686         D2E/DX2 =    0.0925             !
 ! A6    A(4,3,17)             112.9762         D2E/DX2 =    0.1033             !
 ! A7    A(3,4,5)              105.2464         D2E/DX2 =    0.11               !
 ! A8    A(3,4,8)              114.0621         D2E/DX2 =    0.1031             !
 ! A9    A(3,4,18)             109.4475         D2E/DX2 =    0.031              !
 ! A10   A(5,4,8)              113.1532         D2E/DX2 =    0.0878             !
 ! A11   A(5,4,18)             107.6682         D2E/DX2 =    0.0261             !
 ! A12   A(8,4,18)             107.0878         D2E/DX2 =    0.0341             !
 ! A13   A(4,5,6)              116.8238         D2E/DX2 =    0.1755             !
 ! A14   A(4,5,7)              122.0273         D2E/DX2 =    0.2043             !
 ! A15   A(6,5,7)              121.1476         D2E/DX2 =    0.2041             !
 ! A16   A(5,6,19)             112.1599         D2E/DX2 =    0.1716             !
 ! A17   A(4,8,9)              114.9295         D2E/DX2 =    0.1995             !
 ! A18   A(4,8,20)             107.9026         D2E/DX2 =    0.0672             !
 ! A19   A(4,8,21)             106.7764         D2E/DX2 =    0.0659             !
 ! A20   A(9,8,20)             111.0645         D2E/DX2 =    0.0576             !
 ! A21   A(9,8,21)             109.5335         D2E/DX2 =    0.0559             !
 ! A22   A(20,8,21)            106.195          D2E/DX2 =    0.0209             !
 ! A23   A(8,9,10)             134.4833         D2E/DX2 =    0.114              !
 ! A24   A(8,9,13)             121.1886         D2E/DX2 =    0.117              !
 ! A25   A(10,9,13)            104.3194         D2E/DX2 =    0.1029             !
 ! A26   A(9,10,11)            111.1597         D2E/DX2 =    0.1138             !
 ! A27   A(9,10,22)            127.8286         D2E/DX2 =    0.0841             !
 ! A28   A(11,10,22)           120.999          D2E/DX2 =    0.0916             !
 ! A29   A(10,11,12)           105.2427         D2E/DX2 =    0.1307             !
 ! A30   A(11,12,13)           111.6892         D2E/DX2 =    0.1183             !
 ! A31   A(11,12,23)           126.024          D2E/DX2 =    0.0894             !
 ! A32   A(13,12,23)           122.2865         D2E/DX2 =    0.0903             !
 ! A33   A(9,13,12)            107.5856         D2E/DX2 =    0.1029             !
 ! A34   A(9,13,24)            126.1854         D2E/DX2 =    0.0783             !
 ! A35   A(12,13,24)           126.2024         D2E/DX2 =    0.0795             !
 ! A36   A(2,14,15)            108.1606         D2E/DX2 =    0.1651             !
 ! A37   A(2,14,25)            106.6898         D2E/DX2 =    0.0441             !
 ! A38   A(2,14,26)            111.2773         D2E/DX2 =    0.0541             !
 ! A39   A(15,14,25)           110.9344         D2E/DX2 =    0.0531             !
 ! A40   A(15,14,26)           111.9943         D2E/DX2 =    0.0578             !
 ! A41   A(25,14,26)           107.6705         D2E/DX2 =    0.0226             !
 ! A42   A(14,15,16)           111.0464         D2E/DX2 =    0.1478             !
 ! A43   A(14,15,27)           112.7761         D2E/DX2 =    0.0451             !
 ! A44   A(14,15,28)           110.2637         D2E/DX2 =    0.0433             !
 ! A45   A(16,15,27)           106.2795         D2E/DX2 =    0.0577             !
 ! A46   A(16,15,28)           107.4953         D2E/DX2 =    0.0536             !
 ! A47   A(27,15,28)           108.7625         D2E/DX2 =    0.0193             !
 ! A48   A(15,16,29)           111.6904         D2E/DX2 =    0.0974             !
 ! A49   A(15,16,30)           111.4078         D2E/DX2 =    0.0961             !
 ! A50   A(15,16,31)           111.0015         D2E/DX2 =    0.0976             !
 ! A51   A(29,16,30)           107.6274         D2E/DX2 =    0.0538             !
 ! A52   A(29,16,31)           107.2788         D2E/DX2 =    0.0539             !
 ! A53   A(30,16,31)           107.626          D2E/DX2 =    0.0531             !
 ! D1    D(1,2,3,4)              9.5822         D2E/DX2 =    0.0111             !
 ! D2    D(1,2,3,17)           177.6228         D2E/DX2 =    0.0119             !
 ! D3    D(14,2,3,4)          -168.7839         D2E/DX2 =    0.0097             !
 ! D4    D(14,2,3,17)           -0.7433         D2E/DX2 =    0.0081             !
 ! D5    D(1,2,14,15)           19.5631         D2E/DX2 =    0.0146             !
 ! D6    D(1,2,14,25)          -99.8376         D2E/DX2 =    0.0166             !
 ! D7    D(1,2,14,26)          142.9796         D2E/DX2 =    0.0154             !
 ! D8    D(3,2,14,15)         -161.9753         D2E/DX2 =    0.0147             !
 ! D9    D(3,2,14,25)           78.624          D2E/DX2 =    0.0155             !
 ! D10   D(3,2,14,26)          -38.5588         D2E/DX2 =    0.0162             !
 ! D11   D(2,3,4,5)            175.8619         D2E/DX2 =    0.0137             !
 ! D12   D(2,3,4,8)             51.2493         D2E/DX2 =    0.0144             !
 ! D13   D(2,3,4,18)           -68.6802         D2E/DX2 =    0.0085             !
 ! D14   D(17,3,4,5)             6.9178         D2E/DX2 =    0.0157             !
 ! D15   D(17,3,4,8)          -117.6948         D2E/DX2 =    0.0148             !
 ! D16   D(17,3,4,18)          122.3757         D2E/DX2 =    0.0103             !
 ! D17   D(3,4,5,6)            173.0526         D2E/DX2 =    0.0245             !
 ! D18   D(3,4,5,7)             -6.5357         D2E/DX2 =    0.0246             !
 ! D19   D(8,4,5,6)            -61.7654         D2E/DX2 =    0.0227             !
 ! D20   D(8,4,5,7)            118.6464         D2E/DX2 =    0.0225             !
 ! D21   D(18,4,5,6)            56.3735         D2E/DX2 =    0.0159             !
 ! D22   D(18,4,5,7)          -123.2147         D2E/DX2 =    0.0155             !
 ! D23   D(3,4,8,9)             48.7594         D2E/DX2 =    0.0202             !
 ! D24   D(3,4,8,20)           173.2776         D2E/DX2 =    0.0211             !
 ! D25   D(3,4,8,21)           -72.9242         D2E/DX2 =    0.0207             !
 ! D26   D(5,4,8,9)            -71.5172         D2E/DX2 =    0.021              !
 ! D27   D(5,4,8,20)            53.001          D2E/DX2 =    0.0189             !
 ! D28   D(5,4,8,21)           166.7992         D2E/DX2 =    0.0224             !
 ! D29   D(18,4,8,9)           170.0066         D2E/DX2 =    0.0136             !
 ! D30   D(18,4,8,20)          -65.4751         D2E/DX2 =    0.0131             !
 ! D31   D(18,4,8,21)           48.323          D2E/DX2 =    0.0141             !
 ! D32   D(4,5,6,19)            -1.7181         D2E/DX2 =    0.0086             !
 ! D33   D(7,5,6,19)           177.874          D2E/DX2 =    0.0155             !
 ! D34   D(4,8,9,10)            17.8862         D2E/DX2 =    0.0114             !
 ! D35   D(4,8,9,13)          -160.8569         D2E/DX2 =    0.0115             !
 ! D36   D(20,8,9,10)         -104.953          D2E/DX2 =    0.0138             !
 ! D37   D(20,8,9,13)           76.3039         D2E/DX2 =    0.0139             !
 ! D38   D(21,8,9,10)          138.0607         D2E/DX2 =    0.0145             !
 ! D39   D(21,8,9,13)          -40.6823         D2E/DX2 =    0.014              !
 ! D40   D(8,9,10,11)         -178.7444         D2E/DX2 =    0.0093             !
 ! D41   D(8,9,10,22)            2.5615         D2E/DX2 =    0.0073             !
 ! D42   D(13,9,10,11)           0.1459         D2E/DX2 =    0.0139             !
 ! D43   D(13,9,10,22)        -178.5483         D2E/DX2 =    0.0105             !
 ! D44   D(8,9,13,12)          179.2958         D2E/DX2 =    0.008              !
 ! D45   D(8,9,13,24)           -2.4917         D2E/DX2 =    0.0025             !
 ! D46   D(10,9,13,12)           0.2212         D2E/DX2 =    0.0123             !
 ! D47   D(10,9,13,24)         178.4338         D2E/DX2 =    0.0044             !
 ! D48   D(9,10,11,12)          -0.4651         D2E/DX2 =    0.0173             !
 ! D49   D(22,10,11,12)        178.3317         D2E/DX2 =    0.0104             !
 ! D50   D(10,11,12,13)          0.6107         D2E/DX2 =    0.0184             !
 ! D51   D(10,11,12,23)       -179.2242         D2E/DX2 =    0.0103             !
 ! D52   D(11,12,13,9)          -0.5404         D2E/DX2 =    0.0172             !
 ! D53   D(11,12,13,24)       -178.7526         D2E/DX2 =    0.0078             !
 ! D54   D(23,12,13,9)         179.3017         D2E/DX2 =    0.0104             !
 ! D55   D(23,12,13,24)          1.0895         D2E/DX2 =    0.0062             !
 ! D56   D(2,14,15,16)        -163.6489         D2E/DX2 =    0.0146             !
 ! D57   D(2,14,15,27)          77.1862         D2E/DX2 =    0.0142             !
 ! D58   D(2,14,15,28)         -44.6083         D2E/DX2 =    0.0141             !
 ! D59   D(25,14,15,16)        -46.9634         D2E/DX2 =    0.0156             !
 ! D60   D(25,14,15,27)       -166.1283         D2E/DX2 =    0.0156             !
 ! D61   D(25,14,15,28)         72.0771         D2E/DX2 =    0.0165             !
 ! D62   D(26,14,15,16)         73.3692         D2E/DX2 =    0.0158             !
 ! D63   D(26,14,15,27)        -45.7957         D2E/DX2 =    0.0162             !
 ! D64   D(26,14,15,28)       -167.5902         D2E/DX2 =    0.015              !
 ! D65   D(14,15,16,29)        -60.5702         D2E/DX2 =    0.014              !
 ! D66   D(14,15,16,30)        179.0325         D2E/DX2 =    0.0142             !
 ! D67   D(14,15,16,31)         59.1058         D2E/DX2 =    0.0141             !
 ! D68   D(27,15,16,29)         62.4203         D2E/DX2 =    0.0154             !
 ! D69   D(27,15,16,30)        -57.977          D2E/DX2 =    0.015              !
 ! D70   D(27,15,16,31)       -177.9037         D2E/DX2 =    0.0148             !
 ! D71   D(28,15,16,29)        178.7403         D2E/DX2 =    0.0148             !
 ! D72   D(28,15,16,30)         58.343          D2E/DX2 =    0.0151             !
 ! D73   D(28,15,16,31)        -61.5837         D2E/DX2 =    0.0154             !
 --------------------------------------------------------------------------------
 Trust Radius=3.00D-01 FncErr=1.00D-07 GrdErr=1.00D-06
 Number of steps in this run=    167 maximum allowed number of steps=    186.
 GradGradGradGradGradGradGradGradGradGradGradGradGradGradGradGradGradGrad

                          Input orientation:                          
 ---------------------------------------------------------------------
 Center     Atomic      Atomic             Coordinates (Angstroms)
 Number     Number       Type             X           Y           Z
 ---------------------------------------------------------------------
      1          8           0        1.040178    0.592672    1.575275
      2          6           0        1.033399   -0.269008    0.700681
      3          7           0        0.093488   -1.217437    0.545595
      4          6           0       -1.168413   -1.253036    1.268519
      5          6           0       -1.940715   -2.450508    0.677735
      6          8           0       -3.088007   -2.785538    1.279823
      7          8           0       -1.532732   -3.067902   -0.279016
      8          6           0       -1.967712    0.076384    1.212316
      9          6           0       -2.123297    0.662724   -0.158721
     10          6           0       -1.993371    0.171051   -1.439960
     11          7           0       -2.224961    1.154697   -2.375820
     12          6           0       -2.503652    2.234174   -1.680627
     13          7           0       -2.449728    1.996675   -0.335283
     14          6           0        2.150038   -0.301649   -0.366899
     15          6           0        3.337013    0.486983    0.164393
     16          7           0        4.306888    0.842644   -0.960373
     17          1           0        0.129066   -1.881381   -0.223702
     18          1           0       -0.976803   -1.469971    2.328418
     19          1           0       -3.273490   -2.227010    2.049517
     20          1           0       -2.947449   -0.097997    1.681294
     21          1           0       -1.442974    0.787930    1.857173
     22          1           0       -1.764813   -0.841245   -1.741391
     23          1           0       -2.751889    3.205325   -2.086216
     24          1           0       -2.642102    2.665159    0.396444
     25          1           0        1.737468    0.170209   -1.269708
     26          1           0        2.423370   -1.330294   -0.624756
     27          1           0        3.916422   -0.068447    0.903723
     28          1           0        2.999007    1.421532    0.613611
     29          1           0        4.682574    0.003992   -1.416424
     30          1           0        5.101937    1.388643   -0.610607
     31          1           0        3.841214    1.400871   -1.684811
 ---------------------------------------------------------------------
                    Distance matrix (angstroms):
                    1          2          3          4          5
     1  O    0.000000
     2  C    1.227783   0.000000
     3  N    2.287566   1.344248   0.000000
     4  C    2.894583   2.477646   1.454744   0.000000
     5  C    4.353418   3.688472   2.382416   1.542535   0.000000
     6  O    5.342426   4.863571   3.622146   2.456325   1.338296
     7  O    4.843352   3.921562   2.597844   2.412743   1.209544
     8  C    3.073385   3.063941   2.523299   1.552222   2.582961
     9  C    3.608216   3.401680   2.990853   2.572733   3.228809
    10  C    4.297886   3.733274   3.197703   3.169296   3.370457
    11  N    5.156370   4.701989   4.420055   4.493849   4.733128
    12  C    5.084698   4.944419   4.859508   4.758251   5.274942
    13  N    4.219111   4.282373   4.192184   3.843770   4.589416
    14  C    2.409074   1.545210   2.429138   3.819928   4.737416
    15  C    2.697631   2.483096   3.683860   4.954355   6.061913
    16  N    4.142872   3.835440   4.925912   6.272061   7.249882
    17  H    3.191767   2.066894   1.016811   2.074848   2.328194
    18  H    2.981599   2.851798   2.094697   1.098709   2.148333
    19  H    5.175253   4.919596   3.823292   2.447434   1.925624
    20  H    4.048386   4.103413   3.433694   2.160895   2.748628
    21  H    2.506718   2.930360   2.846480   2.141830   3.482284
    22  H    4.574316   3.757814   2.970708   3.095936   2.910814
    23  H    5.883217   5.845185   5.880767   5.799881   6.347116
    24  H    4.386802   4.712877   4.751868   4.276041   5.171182
    25  H    2.959495   2.138003   2.814881   4.112465   4.918305
    26  H    3.232824   2.194340   2.609752   4.060956   4.690053
    27  H    3.026688   2.897114   4.007900   5.233725   6.327032
    28  H    2.334270   2.594055   3.925663   4.994958   6.276755
    29  H    4.750142   4.227664   5.138202   6.559199   7.367362
    30  H    4.680762   4.584788   5.763074   7.058815   8.123906
    31  H    4.373460   4.045108   5.086817   6.392320   7.337946
                    6          7          8          9         10
     6  O    0.000000
     7  O    2.220042   0.000000
     8  C    3.074121   3.507109   0.000000
     9  C    3.858833   3.778996   1.499248   0.000000
    10  C    4.163757   3.471426   2.654089   1.378476   0.000000
    11  N    5.443715   4.765093   3.755484   2.273302   1.377326
    12  C    5.856897   5.569489   3.648617   2.220433   2.138874
    13  N    5.087782   5.147231   2.512950   1.384614   2.182081
    14  C    6.026485   4.606807   4.426363   4.385743   4.306129
    15  C    7.296196   6.045514   5.422808   5.472685   5.575550
    16  N    8.536197   7.061004   6.684185   6.482460   6.354077
    17  H    3.664376   2.042661   3.208032   3.398504   3.193195
    18  H    2.699529   3.108240   2.149139   3.471123   4.234033
    19  H    0.968911   3.026451   2.776974   3.814423   4.423330
    20  H    2.720995   3.829435   1.100106   2.154897   3.274886
    21  H    3.976072   4.408945   1.094298   2.131278   3.399200
    22  H    3.828688   2.674024   3.099613   2.212528   1.080668
    23  H    6.879944   6.641211   4.613623   3.251951   3.193715
    24  H    5.539792   5.878345   2.796821   2.141755   3.164460
    25  H    6.206590   4.707552   4.460673   4.047514   3.734722
    26  H    6.010028   4.334693   4.963383   4.986129   4.735630
    27  H    7.522371   6.331578   5.894000   6.175889   6.362064
    28  H    7.429335   6.441154   5.180364   5.235483   5.541182
    29  H    8.685226   7.025686   7.151351   6.952382   6.678076
    30  H    9.384706   7.999349   7.417884   7.275655   7.246637
    31  H    8.621438   7.129200   6.625046   6.200742   5.967813
                   11         12         13         14         15
    11  N    0.000000
    12  C    1.313861   0.000000
    13  N    2.218838   1.367211   0.000000
    14  C    5.029644   5.460138   5.142095   0.000000
    15  C    6.150941   6.369470   6.001268   1.520895   0.000000
    16  N    6.690733   6.988460   6.882905   2.512692   1.527170
    17  H    4.403501   5.098198   4.658534   2.569121   4.006332
    18  H    5.529615   5.667839   4.613290   4.290320   5.207849
    19  H    5.667360   5.865900   4.919895   6.241854   7.390413
    20  H    4.307134   4.115640   2.949908   5.497357   6.491352
    21  H    4.320214   3.966445   2.698422   4.363875   5.079798
    22  H    2.144300   3.163507   3.240377   4.184071   5.605786
    23  H    2.136960   1.081323   2.148931   6.267680   7.037710
    24  H    3.184486   2.125827   1.009605   5.687640   6.367740
    25  H    4.230076   4.734544   4.662804   1.099057   2.171528
    26  H    5.554132   6.172182   5.907588   1.095130   2.181742
    27  H    7.068809   7.293715   6.806448   2.188373   1.091250
    28  H    6.024761   6.016907   5.560567   2.156734   1.090608
    29  H    7.068139   7.528967   7.483942   2.758379   2.131384
    30  H    7.540168   7.726891   7.581105   3.410306   2.128043
    31  H    6.110366   6.399354   6.461591   2.737799   2.123433
                   16         17         18         19         20
    16  N    0.000000
    17  H    5.041546   0.000000
    18  H    6.639407   2.811676   0.000000
    19  H    8.714605   4.106625   2.434269   0.000000
    20  H    7.777442   4.034155   2.486871   2.185083   0.000000
    21  H    6.403317   3.731831   2.353190   3.532371   1.754778
    22  H    6.349096   2.640462   4.192804   4.308995   3.696731
    23  H    7.528354   6.135424   6.670706   6.847380   5.014410
    24  H    7.311017   5.360501   4.858503   5.202367   3.062533
    25  H    2.673906   2.808933   4.796245   6.470982   5.543356
    26  H    2.895158   2.393401   4.505765   6.356890   5.973450
    27  H    2.111257   4.347629   5.285610   7.593884   6.907837
    28  H    2.126756   4.454984   5.206574   7.397155   6.229707
    29  H    1.025895   5.070665   6.944419   8.960417   8.235503
    30  H    1.025941   5.964243   7.332163   9.502472   8.500324
    31  H    1.026294   5.166049   6.896451   8.816221   7.724197
                   21         22         23         24         25
    21  H    0.000000
    22  H    3.963263   0.000000
    23  H    4.807013   4.179468   0.000000
    24  H    2.663762   4.199387   2.543115   0.000000
    25  H    4.502685   3.675799   5.480232   5.308622   0.000000
    26  H    5.059194   4.361985   7.034984   6.531883   1.771421
    27  H    5.510496   6.314291   8.007727   7.123494   3.086843
    28  H    4.656081   5.775827   6.598772   5.780647   2.589243
    29  H    6.989515   6.510670   8.122093   8.001198   2.953439
    30  H    7.020445   7.307758   8.195141   7.912887   3.638495
    31  H    6.390930   6.038032   6.847349   6.925564   2.472365
                   26         27         28         29         30
    26  H    0.000000
    27  H    2.481473   0.000000
    28  H    3.072044   1.773655   0.000000
    29  H    2.740631   2.444447   2.994138   0.000000
    30  H    3.816745   2.412831   2.433538   1.656040   0.000000
    31  H    3.254730   2.977426   2.447956   1.652631   1.656347
                   31
    31  H    0.000000
 Symmetry turned off by external request.
 Stoichiometry    C9H15N4O3(1+)
 Framework group  C1[X(C9H15N4O3)]
 Deg. of freedom    87
 Full point group                 C1      NOp   1
 Rotational constants (GHZ):      0.5968139      0.3565899      0.2702905
 Standard basis: 6-311G(2df,2pd) (5D, 7F)
   690 basis functions,  1023 primitive gaussians,   785 cartesian basis functions
    60 alpha electrons       60 beta electrons
       nuclear repulsion energy      1146.9427811282 Hartrees.
 NAtoms=   31 NActive=   31 NUniq=   31 SFac= 1.00D+00 NAtFMM=   60 NAOKFM=F Big=F
 Integral buffers will be    131072 words long.
 Raffenetti 2 integral format.
 Two-electron integral symmetry is turned off.
 One-electron integrals computed using PRISM.
 NBasis=   690 RedAO= T EigKep=  1.98D-04  NBF=   690
 NBsUse=   690 1.00D-06 EigRej= -1.00D+00 NBFU=   690
 Initial guess from the checkpoint file:  "conf-318.chk"
 B after Tr=     0.000000    0.000000    0.000000
         Rot=    1.000000    0.000000    0.000000    0.000000 Ang=   0.00 deg.
 Requested convergence on RMS density matrix=1.00D-08 within 128 cycles.
 Requested convergence on MAX density matrix=1.00D-06.
 Requested convergence on             energy=1.00D-06.
 No special actions if energy rises.
 SCF Done:  E(RB3LYP) =  -796.717877164     A.U. after   11 cycles
            NFock= 11  Conv=0.62D-08     -V/T= 2.0041

 **********************************************************************

            Population analysis using the SCF density.

 **********************************************************************

 Alpha  occ. eigenvalues --  -19.28135 -19.22191 -19.22125 -14.63585 -14.46502
 Alpha  occ. eigenvalues --  -14.45668 -14.37512 -10.41966 -10.41251 -10.41162
 Alpha  occ. eigenvalues --  -10.35475 -10.35181 -10.30870 -10.30486 -10.29986
 Alpha  occ. eigenvalues --  -10.26975  -1.22004  -1.19953  -1.17284  -1.13895
 Alpha  occ. eigenvalues --   -1.10333  -1.06020  -0.96250  -0.95983  -0.91272
 Alpha  occ. eigenvalues --   -0.85465  -0.82892  -0.78734  -0.78493  -0.77515
 Alpha  occ. eigenvalues --   -0.74147  -0.70901  -0.70390  -0.68820  -0.68104
 Alpha  occ. eigenvalues --   -0.67311  -0.64551  -0.63675  -0.60445  -0.60017
 Alpha  occ. eigenvalues --   -0.58463  -0.57447  -0.56510  -0.55419  -0.54760
 Alpha  occ. eigenvalues --   -0.54310  -0.53254  -0.51798  -0.51067  -0.50222
 Alpha  occ. eigenvalues --   -0.49690  -0.49136  -0.48990  -0.43549  -0.40007
 Alpha  occ. eigenvalues --   -0.39581  -0.39385  -0.37318  -0.35768  -0.32006
 Alpha virt. eigenvalues --   -0.18664  -0.13023  -0.12063  -0.11670  -0.10925
 Alpha virt. eigenvalues --   -0.09844  -0.08959  -0.07166  -0.06503  -0.05516
 Alpha virt. eigenvalues --   -0.05362  -0.04276  -0.02886  -0.02585  -0.01813
 Alpha virt. eigenvalues --   -0.01110  -0.00085   0.01215   0.01688   0.02538
 Alpha virt. eigenvalues --    0.03881   0.05296   0.06743   0.07575   0.07897
 Alpha virt. eigenvalues --    0.09077   0.09577   0.10865   0.11104   0.12172
 Alpha virt. eigenvalues --    0.12769   0.13370   0.14064   0.15460   0.17079
 Alpha virt. eigenvalues --    0.18207   0.18938   0.21287   0.21943   0.22406
 Alpha virt. eigenvalues --    0.23662   0.23912   0.24891   0.25157   0.25495
 Alpha virt. eigenvalues --    0.26439   0.27307   0.27665   0.28857   0.29205
 Alpha virt. eigenvalues --    0.29278   0.29747   0.30261   0.30472   0.31103
 Alpha virt. eigenvalues --    0.31528   0.32174   0.32504   0.32757   0.33823
 Alpha virt. eigenvalues --    0.34222   0.35175   0.35770   0.36284   0.36761
 Alpha virt. eigenvalues --    0.37663   0.38159   0.39137   0.40036   0.40269
 Alpha virt. eigenvalues --    0.40790   0.41749   0.42393   0.42825   0.43322
 Alpha virt. eigenvalues --    0.44395   0.44716   0.45853   0.47227   0.47656
 Alpha virt. eigenvalues --    0.47979   0.48775   0.49531   0.50902   0.52962
 Alpha virt. eigenvalues --    0.53560   0.54772   0.55615   0.56003   0.57571
 Alpha virt. eigenvalues --    0.58536   0.59197   0.59715   0.60415   0.61092
 Alpha virt. eigenvalues --    0.61457   0.62763   0.63532   0.64638   0.66441
 Alpha virt. eigenvalues --    0.66742   0.67233   0.67662   0.68845   0.69656
 Alpha virt. eigenvalues --    0.70230   0.71501   0.72001   0.72343   0.73507
 Alpha virt. eigenvalues --    0.74917   0.75739   0.76981   0.77309   0.77979
 Alpha virt. eigenvalues --    0.79554   0.80888   0.81350   0.82289   0.83046
 Alpha virt. eigenvalues --    0.84580   0.85118   0.85210   0.87366   0.88107
 Alpha virt. eigenvalues --    0.88333   0.89140   0.89645   0.90734   0.91111
 Alpha virt. eigenvalues --    0.91473   0.91879   0.93048   0.93710   0.94282
 Alpha virt. eigenvalues --    0.94358   0.95299   0.96208   0.97049   0.97565
 Alpha virt. eigenvalues --    0.97875   0.99345   0.99760   1.01120   1.01521
 Alpha virt. eigenvalues --    1.02404   1.03579   1.04732   1.05642   1.06656
 Alpha virt. eigenvalues --    1.07408   1.08096   1.08249   1.09747   1.10435
 Alpha virt. eigenvalues --    1.11402   1.12301   1.12681   1.12850   1.14178
 Alpha virt. eigenvalues --    1.15479   1.16350   1.16777   1.17567   1.18041
 Alpha virt. eigenvalues --    1.18962   1.19147   1.20220   1.20876   1.21494
 Alpha virt. eigenvalues --    1.22158   1.23879   1.24120   1.24566   1.25532
 Alpha virt. eigenvalues --    1.26038   1.26642   1.27528   1.28050   1.28874
 Alpha virt. eigenvalues --    1.29367   1.31040   1.31451   1.31854   1.32507
 Alpha virt. eigenvalues --    1.32984   1.34778   1.35231   1.36036   1.36998
 Alpha virt. eigenvalues --    1.37683   1.38742   1.39471   1.42026   1.42838
 Alpha virt. eigenvalues --    1.43502   1.45319   1.46647   1.47143   1.48417
 Alpha virt. eigenvalues --    1.48957   1.51028   1.52442   1.53916   1.54731
 Alpha virt. eigenvalues --    1.56543   1.57583   1.59610   1.60746   1.62061
 Alpha virt. eigenvalues --    1.63312   1.65077   1.65653   1.66472   1.67096
 Alpha virt. eigenvalues --    1.68382   1.70332   1.73041   1.74212   1.77125
 Alpha virt. eigenvalues --    1.79116   1.81461   1.85524   1.86729   1.89398
 Alpha virt. eigenvalues --    1.92321   1.94569   1.95516   1.97829   2.00060
 Alpha virt. eigenvalues --    2.04642   2.05730   2.06955   2.09359   2.12615
 Alpha virt. eigenvalues --    2.14013   2.15614   2.17368   2.19570   2.22175
 Alpha virt. eigenvalues --    2.27076   2.31720   2.34877   2.36626   2.38344
 Alpha virt. eigenvalues --    2.42105   2.43407   2.45443   2.45977   2.47572
 Alpha virt. eigenvalues --    2.47861   2.49619   2.51090   2.52652   2.53301
 Alpha virt. eigenvalues --    2.53644   2.54155   2.55140   2.56363   2.57565
 Alpha virt. eigenvalues --    2.58954   2.59755   2.60538   2.61640   2.62037
 Alpha virt. eigenvalues --    2.62781   2.65572   2.66403   2.66900   2.68595
 Alpha virt. eigenvalues --    2.69179   2.69928   2.71583   2.73708   2.74690
 Alpha virt. eigenvalues --    2.75620   2.75800   2.76740   2.76901   2.77841
 Alpha virt. eigenvalues --    2.78397   2.79211   2.80072   2.80815   2.81511
 Alpha virt. eigenvalues --    2.82526   2.82938   2.83585   2.85059   2.85848
 Alpha virt. eigenvalues --    2.86912   2.87421   2.88495   2.89509   2.89954
 Alpha virt. eigenvalues --    2.90405   2.91136   2.92457   2.92677   2.94234
 Alpha virt. eigenvalues --    2.95445   2.96005   2.96612   2.98008   2.98163
 Alpha virt. eigenvalues --    2.98232   2.98874   2.99386   3.00468   3.00561
 Alpha virt. eigenvalues --    3.01324   3.02276   3.02613   3.03613   3.04325
 Alpha virt. eigenvalues --    3.05011   3.05872   3.06117   3.07451   3.08879
 Alpha virt. eigenvalues --    3.09761   3.10765   3.11160   3.11983   3.12183
 Alpha virt. eigenvalues --    3.13045   3.13436   3.13991   3.14829   3.15804
 Alpha virt. eigenvalues --    3.16057   3.16923   3.17614   3.18863   3.19278
 Alpha virt. eigenvalues --    3.19951   3.20123   3.21495   3.22101   3.23468
 Alpha virt. eigenvalues --    3.24087   3.24551   3.24936   3.25755   3.26649
 Alpha virt. eigenvalues --    3.27320   3.28324   3.28775   3.29478   3.30273
 Alpha virt. eigenvalues --    3.30970   3.32376   3.33030   3.33772   3.34844
 Alpha virt. eigenvalues --    3.36128   3.37165   3.37826   3.38357   3.39005
 Alpha virt. eigenvalues --    3.39439   3.40018   3.40682   3.41204   3.42840
 Alpha virt. eigenvalues --    3.43014   3.43986   3.44950   3.45922   3.46466
 Alpha virt. eigenvalues --    3.47925   3.48419   3.48727   3.49328   3.51392
 Alpha virt. eigenvalues --    3.52024   3.53063   3.53621   3.54366   3.55325
 Alpha virt. eigenvalues --    3.56070   3.57199   3.57233   3.58244   3.59207
 Alpha virt. eigenvalues --    3.60154   3.61216   3.61666   3.62347   3.63208
 Alpha virt. eigenvalues --    3.64273   3.65814   3.66319   3.66692   3.69037
 Alpha virt. eigenvalues --    3.70145   3.71101   3.71454   3.72367   3.73034
 Alpha virt. eigenvalues --    3.74338   3.74848   3.75065   3.76399   3.76756
 Alpha virt. eigenvalues --    3.77639   3.78324   3.78490   3.80509   3.81302
 Alpha virt. eigenvalues --    3.81898   3.82203   3.83013   3.84162   3.84850
 Alpha virt. eigenvalues --    3.85410   3.86027   3.87313   3.87892   3.88948
 Alpha virt. eigenvalues --    3.89413   3.90528   3.91274   3.92045   3.93318
 Alpha virt. eigenvalues --    3.93730   3.95096   3.96164   3.96452   3.97904
 Alpha virt. eigenvalues --    3.98867   3.99793   4.00577   4.00794   4.02158
 Alpha virt. eigenvalues --    4.03795   4.04973   4.05827   4.06408   4.07753
 Alpha virt. eigenvalues --    4.08867   4.10368   4.12070   4.12197   4.13963
 Alpha virt. eigenvalues --    4.14339   4.15504   4.15956   4.18542   4.20312
 Alpha virt. eigenvalues --    4.21302   4.22092   4.23470   4.24936   4.25866
 Alpha virt. eigenvalues --    4.27813   4.28550   4.31138   4.33894   4.34450
 Alpha virt. eigenvalues --    4.35195   4.35566   4.37163   4.37939   4.39195
 Alpha virt. eigenvalues --    4.41439   4.42850   4.44374   4.44879   4.45658
 Alpha virt. eigenvalues --    4.48889   4.52012   4.52907   4.55903   4.56588
 Alpha virt. eigenvalues --    4.57591   4.60948   4.63504   4.64939   4.66432
 Alpha virt. eigenvalues --    4.66994   4.68038   4.70060   4.71370   4.71630
 Alpha virt. eigenvalues --    4.73305   4.74403   4.74947   4.75596   4.76769
 Alpha virt. eigenvalues --    4.78097   4.80469   4.81194   4.81833   4.83697
 Alpha virt. eigenvalues --    4.84423   4.87165   4.87793   4.88521   4.89834
 Alpha virt. eigenvalues --    4.90687   4.92462   4.92989   4.93691   4.93943
 Alpha virt. eigenvalues --    4.95391   4.95785   4.95940   4.96663   4.98509
 Alpha virt. eigenvalues --    4.98984   4.99333   5.00095   5.00501   5.01090
 Alpha virt. eigenvalues --    5.02347   5.03237   5.05204   5.05616   5.06414
 Alpha virt. eigenvalues --    5.07396   5.08573   5.09098   5.10217   5.12131
 Alpha virt. eigenvalues --    5.13652   5.14152   5.16644   5.16966   5.19816
 Alpha virt. eigenvalues --    5.20166   5.20906   5.22063   5.22586   5.24852
 Alpha virt. eigenvalues --    5.25613   5.28271   5.28871   5.29836   5.31302
 Alpha virt. eigenvalues --    5.33089   5.33678   5.35224   5.37447   5.38583
 Alpha virt. eigenvalues --    5.39831   5.41929   5.43230   5.43602   5.45521
 Alpha virt. eigenvalues --    5.47491   5.48168   5.49996   5.51254   5.53432
 Alpha virt. eigenvalues --    5.55935   5.59312   5.61645   5.63871   5.68775
 Alpha virt. eigenvalues --    5.69918   5.72752   5.75704   5.76643   5.78668
 Alpha virt. eigenvalues --    5.78748   5.79822   5.81721   5.82180   5.85054
 Alpha virt. eigenvalues --    5.88553   5.93769   5.95823   5.98833   6.05958
 Alpha virt. eigenvalues --    6.10307   6.11243   6.13382   6.17665   6.18741
 Alpha virt. eigenvalues --    6.22876   6.25564   6.26225   6.29400   6.30951
 Alpha virt. eigenvalues --    6.35567   6.41350   6.45340   6.54781   6.60013
 Alpha virt. eigenvalues --    6.73816   6.78740   6.79795   6.81900   6.86499
 Alpha virt. eigenvalues --    6.87864   6.91915   6.92948   6.93081   6.96040
 Alpha virt. eigenvalues --    7.01888   7.06188   7.09063   7.13627   7.15693
 Alpha virt. eigenvalues --    7.18831   7.24772   7.31867   7.38777   7.42709
 Alpha virt. eigenvalues --    7.45826   7.46368   7.64005   7.84845  24.33961
 Alpha virt. eigenvalues --   24.48384  24.60575  24.66413  24.76779  24.83268
 Alpha virt. eigenvalues --   24.86905  24.92616  24.97585  35.88786  36.09855
 Alpha virt. eigenvalues --   36.13451  36.31958  50.06753  50.07870  50.17158
          Condensed to atoms (all electrons):
               1          2          3          4          5          6
     1  O    7.882597   0.671273  -0.097310   0.004420   0.000345   0.000000
     2  C    0.671273   4.249635   0.447824  -0.049766   0.000034  -0.000130
     3  N   -0.097310   0.447824   6.584757   0.209360  -0.019477   0.002735
     4  C    0.004420  -0.049766   0.209360   5.255757   0.246626  -0.104842
     5  C    0.000345   0.000034  -0.019477   0.246626   4.285689   0.414118
     6  O    0.000000  -0.000130   0.002735  -0.104842   0.414118   7.696308
     7  O   -0.000008  -0.001831  -0.024140  -0.105798   0.655023  -0.056905
     8  C   -0.019544  -0.015990  -0.049546   0.269270  -0.056207   0.009110
     9  C    0.003071   0.004992  -0.012046  -0.042559   0.004101  -0.001913
    10  C   -0.000522   0.001583   0.004483  -0.003654  -0.001185  -0.000096
    11  N    0.000003   0.000018  -0.000127  -0.000243  -0.000054  -0.000001
    12  C   -0.000005  -0.000053   0.000045  -0.000380  -0.000008   0.000001
    13  N   -0.000335   0.000098   0.000326  -0.000307   0.000107   0.000009
    14  C   -0.090944   0.289367  -0.063567   0.004856   0.000188   0.000000
    15  C   -0.000382  -0.061454  -0.000206  -0.000476  -0.000013   0.000000
    16  N    0.000587  -0.001155   0.000027  -0.000001   0.000000   0.000000
    17  H    0.003523  -0.020480   0.336361  -0.049758  -0.011271   0.002031
    18  H    0.005240   0.000447  -0.017309   0.406232  -0.021288   0.001085
    19  H   -0.000001   0.000121   0.000289   0.009142  -0.052704   0.317818
    20  H   -0.000049   0.000887   0.004982  -0.036322  -0.007264   0.006578
    21  H    0.025661  -0.004116  -0.005134  -0.013899   0.004073  -0.000111
    22  H   -0.000075   0.000164   0.002202   0.005276  -0.000288  -0.000733
    23  H    0.000000   0.000001   0.000000   0.000007   0.000000   0.000000
    24  H   -0.000041   0.000001   0.000011   0.000041  -0.000023  -0.000001
    25  H    0.000727  -0.014456  -0.001533   0.000268  -0.000023   0.000000
    26  H    0.002374  -0.012283   0.002923   0.000494  -0.000082  -0.000001
    27  H    0.001508   0.004862   0.000278   0.000027   0.000000   0.000000
    28  H    0.033956   0.000442   0.001729  -0.000024  -0.000002   0.000000
    29  H    0.000016  -0.000036  -0.000001   0.000000   0.000000   0.000000
    30  H    0.000017  -0.000255   0.000002   0.000000   0.000000   0.000000
    31  H    0.000044   0.000487  -0.000001   0.000001   0.000000   0.000000
               7          8          9         10         11         12
     1  O   -0.000008  -0.019544   0.003071  -0.000522   0.000003  -0.000005
     2  C   -0.001831  -0.015990   0.004992   0.001583   0.000018  -0.000053
     3  N   -0.024140  -0.049546  -0.012046   0.004483  -0.000127   0.000045
     4  C   -0.105798   0.269270  -0.042559  -0.003654  -0.000243  -0.000380
     5  C    0.655023  -0.056207   0.004101  -0.001185  -0.000054  -0.000008
     6  O   -0.056905   0.009110  -0.001913  -0.000096  -0.000001   0.000001
     7  O    7.815720   0.000686  -0.001492  -0.002091   0.000036   0.000001
     8  C    0.000686   5.062575   0.234105  -0.061119   0.013627   0.000511
     9  C   -0.001492   0.234105   5.137559   0.494130  -0.052423  -0.127041
    10  C   -0.002091  -0.061119   0.494130   4.792825   0.464884  -0.154917
    11  N    0.000036   0.013627  -0.052423   0.464884   6.502566   0.580915
    12  C    0.000001   0.000511  -0.127041  -0.154917   0.580915   4.587154
    13  N   -0.000003  -0.033044   0.366534  -0.036998  -0.131790   0.470201
    14  C   -0.000461  -0.002333   0.000182  -0.000416  -0.000101  -0.000037
    15  C   -0.000003  -0.000097  -0.000002   0.000066   0.000000  -0.000001
    16  N    0.000000   0.000000   0.000000   0.000001   0.000000   0.000000
    17  H    0.059409   0.007796   0.000158   0.000312   0.000099  -0.000034
    18  H    0.002087  -0.057530   0.006419   0.000764  -0.000005   0.000025
    19  H    0.004248  -0.002555   0.000252   0.000018  -0.000001   0.000005
    20  H    0.000111   0.384425  -0.030458   0.000554  -0.000275   0.000434
    21  H   -0.000343   0.363363  -0.036945   0.001822  -0.000366   0.000261
    22  H    0.013394  -0.008658  -0.057309   0.428861  -0.015408   0.005943
    23  H    0.000000  -0.000166   0.005410   0.003180  -0.016125   0.425901
    24  H    0.000000   0.006714  -0.030812   0.002495   0.007079  -0.024988
    25  H   -0.000015   0.000247   0.001127   0.003328   0.000647   0.000033
    26  H   -0.000209   0.000090   0.000069  -0.000030  -0.000001  -0.000001
    27  H    0.000000   0.000009  -0.000002  -0.000001   0.000000   0.000000
    28  H    0.000000   0.000073   0.000024  -0.000001   0.000000  -0.000003
    29  H    0.000000   0.000000   0.000000   0.000000   0.000000   0.000000
    30  H    0.000000   0.000000   0.000000   0.000000   0.000000   0.000000
    31  H    0.000000   0.000001  -0.000002  -0.000011  -0.000001   0.000000
              13         14         15         16         17         18
     1  O   -0.000335  -0.090944  -0.000382   0.000587   0.003523   0.005240
     2  C    0.000098   0.289367  -0.061454  -0.001155  -0.020480   0.000447
     3  N    0.000326  -0.063567  -0.000206   0.000027   0.336361  -0.017309
     4  C   -0.000307   0.004856  -0.000476  -0.000001  -0.049758   0.406232
     5  C    0.000107   0.000188  -0.000013   0.000000  -0.011271  -0.021288
     6  O    0.000009   0.000000   0.000000   0.000000   0.002031   0.001085
     7  O   -0.000003  -0.000461  -0.000003   0.000000   0.059409   0.002087
     8  C   -0.033044  -0.002333  -0.000097   0.000000   0.007796  -0.057530
     9  C    0.366534   0.000182  -0.000002   0.000000   0.000158   0.006419
    10  C   -0.036998  -0.000416   0.000066   0.000001   0.000312   0.000764
    11  N   -0.131790  -0.000101   0.000000   0.000000   0.000099  -0.000005
    12  C    0.470201  -0.000037  -0.000001   0.000000  -0.000034   0.000025
    13  N    6.250785  -0.000016   0.000000   0.000000  -0.000008  -0.000086
    14  C   -0.000016   5.036463   0.280239  -0.017971  -0.003966   0.000804
    15  C    0.000000   0.280239   4.788873   0.196934  -0.000814   0.000131
    16  N    0.000000  -0.017971   0.196934   5.676521  -0.000043   0.000000
    17  H   -0.000008  -0.003966  -0.000814  -0.000043   0.559877   0.002886
    18  H   -0.000086   0.000804   0.000131   0.000000   0.002886   0.624684
    19  H   -0.000021   0.000004   0.000000   0.000000  -0.000642   0.001875
    20  H    0.001434   0.000032   0.000001   0.000000  -0.000102   0.000817
    21  H   -0.001061   0.001664  -0.000073  -0.000001  -0.000863  -0.009586
    22  H    0.004375   0.000255   0.000013   0.000000   0.000570   0.000426
    23  H   -0.035968   0.000000   0.000000   0.000000   0.000000   0.000000
    24  H    0.385096  -0.000008   0.000000   0.000000  -0.000004  -0.000022
    25  H   -0.000126   0.373582  -0.039827  -0.000366   0.000427  -0.000036
    26  H   -0.000002   0.388167  -0.030814  -0.000396  -0.000815  -0.000201
    27  H    0.000000  -0.033835   0.407655  -0.023735  -0.000017  -0.000005
    28  H   -0.000001  -0.047093   0.392930  -0.018889  -0.000177  -0.000049
    29  H    0.000000  -0.000408  -0.023972   0.357705   0.000007   0.000000
    30  H    0.000000   0.002067  -0.016306   0.378082   0.000000   0.000000
    31  H    0.000000   0.001002  -0.029133   0.358718   0.000004   0.000000
              19         20         21         22         23         24
     1  O   -0.000001  -0.000049   0.025661  -0.000075   0.000000  -0.000041
     2  C    0.000121   0.000887  -0.004116   0.000164   0.000001   0.000001
     3  N    0.000289   0.004982  -0.005134   0.002202   0.000000   0.000011
     4  C    0.009142  -0.036322  -0.013899   0.005276   0.000007   0.000041
     5  C   -0.052704  -0.007264   0.004073  -0.000288   0.000000  -0.000023
     6  O    0.317818   0.006578  -0.000111  -0.000733   0.000000  -0.000001
     7  O    0.004248   0.000111  -0.000343   0.013394   0.000000   0.000000
     8  C   -0.002555   0.384425   0.363363  -0.008658  -0.000166   0.006714
     9  C    0.000252  -0.030458  -0.036945  -0.057309   0.005410  -0.030812
    10  C    0.000018   0.000554   0.001822   0.428861   0.003180   0.002495
    11  N   -0.000001  -0.000275  -0.000366  -0.015408  -0.016125   0.007079
    12  C    0.000005   0.000434   0.000261   0.005943   0.425901  -0.024988
    13  N   -0.000021   0.001434  -0.001061   0.004375  -0.035968   0.385096
    14  C    0.000004   0.000032   0.001664   0.000255   0.000000  -0.000008
    15  C    0.000000   0.000001  -0.000073   0.000013   0.000000   0.000000
    16  N    0.000000   0.000000  -0.000001   0.000000   0.000000   0.000000
    17  H   -0.000642  -0.000102  -0.000863   0.000570   0.000000  -0.000004
    18  H    0.001875   0.000817  -0.009586   0.000426   0.000000  -0.000022
    19  H    0.492044   0.005928  -0.000169   0.000001   0.000000   0.000000
    20  H    0.005928   0.682051  -0.040971  -0.000342   0.000009   0.000005
    21  H   -0.000169  -0.040971   0.666537   0.000106  -0.000017   0.001520
    22  H    0.000001  -0.000342   0.000106   0.589236  -0.000358  -0.000418
    23  H    0.000000   0.000009  -0.000017  -0.000358   0.583100  -0.001114
    24  H    0.000000   0.000005   0.001520  -0.000418  -0.001114   0.538474
    25  H    0.000000   0.000013  -0.000290   0.000004   0.000001  -0.000007
    26  H    0.000001  -0.000003  -0.000041  -0.000069   0.000000   0.000000
    27  H    0.000000   0.000000  -0.000006   0.000000   0.000000   0.000000
    28  H    0.000000  -0.000001  -0.000048  -0.000002   0.000000   0.000003
    29  H    0.000000   0.000000   0.000000   0.000000   0.000000   0.000000
    30  H    0.000000   0.000000   0.000000   0.000000   0.000000   0.000000
    31  H    0.000000   0.000000   0.000000   0.000000   0.000000   0.000000
              25         26         27         28         29         30
     1  O    0.000727   0.002374   0.001508   0.033956   0.000016   0.000017
     2  C   -0.014456  -0.012283   0.004862   0.000442  -0.000036  -0.000255
     3  N   -0.001533   0.002923   0.000278   0.001729  -0.000001   0.000002
     4  C    0.000268   0.000494   0.000027  -0.000024   0.000000   0.000000
     5  C   -0.000023  -0.000082   0.000000  -0.000002   0.000000   0.000000
     6  O    0.000000  -0.000001   0.000000   0.000000   0.000000   0.000000
     7  O   -0.000015  -0.000209   0.000000   0.000000   0.000000   0.000000
     8  C    0.000247   0.000090   0.000009   0.000073   0.000000   0.000000
     9  C    0.001127   0.000069  -0.000002   0.000024   0.000000   0.000000
    10  C    0.003328  -0.000030  -0.000001  -0.000001   0.000000   0.000000
    11  N    0.000647  -0.000001   0.000000   0.000000   0.000000   0.000000
    12  C    0.000033  -0.000001   0.000000  -0.000003   0.000000   0.000000
    13  N   -0.000126  -0.000002   0.000000  -0.000001   0.000000   0.000000
    14  C    0.373582   0.388167  -0.033835  -0.047093  -0.000408   0.002067
    15  C   -0.039827  -0.030814   0.407655   0.392930  -0.023972  -0.016306
    16  N   -0.000366  -0.000396  -0.023735  -0.018889   0.357705   0.378082
    17  H    0.000427  -0.000815  -0.000017  -0.000177   0.000007   0.000000
    18  H   -0.000036  -0.000201  -0.000005  -0.000049   0.000000   0.000000
    19  H    0.000000   0.000001   0.000000   0.000000   0.000000   0.000000
    20  H    0.000013  -0.000003   0.000000  -0.000001   0.000000   0.000000
    21  H   -0.000290  -0.000041  -0.000006  -0.000048   0.000000   0.000000
    22  H    0.000004  -0.000069   0.000000  -0.000002   0.000000   0.000000
    23  H    0.000001   0.000000   0.000000   0.000000   0.000000   0.000000
    24  H   -0.000007   0.000000   0.000000   0.000003   0.000000   0.000000
    25  H    0.647288  -0.035365   0.005276  -0.002081  -0.001188   0.000251
    26  H   -0.035365   0.629466  -0.006151   0.006908   0.002880  -0.000133
    27  H    0.005276  -0.006151   0.596306  -0.029884  -0.005286  -0.002442
    28  H   -0.002081   0.006908  -0.029884   0.578583   0.004394  -0.002555
    29  H   -0.001188   0.002880  -0.005286   0.004394   0.555775  -0.024721
    30  H    0.000251  -0.000133  -0.002442  -0.002555  -0.024721   0.541266
    31  H    0.004049  -0.000641   0.005579  -0.003962  -0.025303  -0.022986
              31
     1  O    0.000044
     2  C    0.000487
     3  N   -0.000001
     4  C    0.000001
     5  C    0.000000
     6  O    0.000000
     7  O    0.000000
     8  C    0.000001
     9  C   -0.000002
    10  C   -0.000011
    11  N   -0.000001
    12  C    0.000000
    13  N    0.000000
    14  C    0.001002
    15  C   -0.029133
    16  N    0.358718
    17  H    0.000004
    18  H    0.000000
    19  H    0.000000
    20  H    0.000000
    21  H    0.000000
    22  H    0.000000
    23  H    0.000000
    24  H    0.000000
    25  H    0.004049
    26  H   -0.000641
    27  H    0.005579
    28  H   -0.003962
    29  H   -0.025303
    30  H   -0.022986
    31  H    0.547837
 Mulliken charges:
               1
     1  O   -0.426148
     2  C    0.509771
     3  N   -0.307938
     4  C   -0.003748
     5  C    0.559582
     6  O   -0.285057
     7  O   -0.357417
     8  C   -0.045811
     9  C    0.134870
    10  C    0.061736
    11  N   -0.352955
    12  C    0.236038
    13  N   -0.239200
    14  C   -0.117715
    15  C    0.136731
    16  N    0.093982
    17  H    0.115534
    18  H    0.052194
    19  H    0.224346
    20  H    0.027524
    21  H    0.049037
    22  H    0.032836
    23  H    0.036137
    24  H    0.115999
    25  H    0.058041
    26  H    0.053863
    27  H    0.079867
    28  H    0.085729
    29  H    0.160139
    30  H    0.147714
    31  H    0.164319
 Sum of Mulliken charges =   1.00000
 Mulliken charges with hydrogens summed into heavy atoms:
               1
     1  O   -0.426148
     2  C    0.509771
     3  N   -0.192404
     4  C    0.048446
     5  C    0.559582
     6  O   -0.060712
     7  O   -0.357417
     8  C    0.030750
     9  C    0.134870
    10  C    0.094572
    11  N   -0.352955
    12  C    0.272175
    13  N   -0.123201
    14  C   -0.005811
    15  C    0.302327
    16  N    0.566154
 Electronic spatial extent (au):  <R**2>=           4306.4596
 Charge=              1.0000 electrons
 Dipole moment (field-independent basis, Debye):
    X=             14.8330    Y=              4.4840    Z=              0.7195  Tot=             15.5127
 Quadrupole moment (field-independent basis, Debye-Ang):
   XX=             -3.0336   YY=            -83.7480   ZZ=            -88.9239
   XY=              4.2172   XZ=            -34.4026   YZ=             -8.9945
 Traceless Quadrupole moment (field-independent basis, Debye-Ang):
   XX=             55.5349   YY=            -25.1795   ZZ=            -30.3554
   XY=              4.2172   XZ=            -34.4026   YZ=             -8.9945
 Octapole moment (field-independent basis, Debye-Ang**2):
  XXX=            480.8308  YYY=            123.1495  ZZZ=             32.5712  XYY=             56.9769
  XXY=            102.3463  XXZ=            -33.0045  XZZ=             62.1519  YZZ=             -0.5394
  YYZ=              2.4294  XYZ=             -3.3785
 Hexadecapole moment (field-independent basis, Debye-Ang**3):
 XXXX=          -1328.4620 YYYY=          -1440.6697 ZZZZ=           -900.8396 XXXY=            100.6132
 XXXZ=           -459.4818 YYYX=           -301.4591 YYYZ=            182.5628 ZZZX=           -173.2722
 ZZZY=            212.8736 XXYY=           -597.1309 XXZZ=           -516.7825 YYZZ=           -333.0494
 XXYZ=            -16.2462 YYXZ=            -39.6519 ZZXY=              3.7128
 N-N= 1.146942781128D+03 E-N=-4.140427114166D+03  KE= 7.934270798406D+02
 Calling FoFJK, ICntrl=      2127 FMM=F ISym2X=0 I1Cent= 0 IOpClX= 0 NMat=1 NMatS=1 NMatT=0.
 -------------------------------------------------------------------
 Center     Atomic                   Forces (Hartrees/Bohr)
 Number     Number              X              Y              Z
 -------------------------------------------------------------------
      1        8          -0.000203403   -0.008976349   -0.008786228
      2        6          -0.001693788    0.003432714    0.005310210
      3        7           0.001792927    0.002945351    0.000148449
      4        6          -0.000654052   -0.000789249    0.000637739
      5        6           0.003229338   -0.006143787   -0.008562925
      6        8           0.002908150    0.003088885    0.001267860
      7        8          -0.005459758    0.007102383    0.011930406
      8        6           0.000078924   -0.000160911    0.000534355
      9        6          -0.000239114    0.001566472   -0.003488074
     10        6          -0.000378010    0.000740682    0.002307182
     11        7          -0.000778389    0.003217167    0.006934368
     12        6           0.000618717   -0.002443072   -0.000285563
     13        7           0.000145265   -0.001716640   -0.002353920
     14        6           0.000316041    0.000190340    0.000309642
     15        6           0.000009163    0.000061722    0.000122469
     16        7           0.001044466    0.000433178   -0.001389724
     17        1           0.000296059    0.002183411    0.002256137
     18        1          -0.000627239    0.000468520   -0.002726261
     19        1           0.000685302   -0.002430497   -0.003289462
     20        1           0.002481621    0.000518180   -0.001556064
     21        1          -0.001406846   -0.001542265   -0.001751065
     22        1          -0.000711231    0.002780324    0.000645377
     23        1           0.000621744   -0.002494060    0.001018011
     24        1           0.000589644   -0.001989347   -0.002311249
     25        1           0.001004600   -0.000980082    0.002295748
     26        1          -0.000762995    0.002574039    0.000814825
     27        1          -0.001521561    0.001433816   -0.001789409
     28        1           0.001261575   -0.002111128   -0.001285165
     29        1          -0.001220009    0.002605499    0.001548264
     30        1          -0.002675619   -0.001802494   -0.000907705
     31        1           0.001248477   -0.001762803    0.002401774
 -------------------------------------------------------------------
 Cartesian Forces:  Max     0.011930406 RMS     0.002962687

 GradGradGradGradGradGradGradGradGradGradGradGradGradGradGradGradGradGrad
 Berny optimization.
 FormGI is forming the generalized inverse of G from B-inverse, IUseBI=4.
 Internal  Forces:  Max     0.014904022 RMS     0.002186646
 Search for a local minimum.
 Step number   1 out of a maximum of  167
 All quantities printed in internal units (Hartrees-Bohrs-Radians)
 Mixed Optimization -- RFO/linear search
 Second derivative matrix not updated -- first step.
 ITU=  0
     Eigenvalues ---    0.00057   0.00068   0.00136   0.00201   0.00214
     Eigenvalues ---    0.00388   0.00517   0.00666   0.00896   0.01015
     Eigenvalues ---    0.01142   0.02027   0.02103   0.02662   0.03284
     Eigenvalues ---    0.03775   0.03930   0.04030   0.04182   0.04361
     Eigenvalues ---    0.04559   0.04638   0.04904   0.04995   0.05173
     Eigenvalues ---    0.05220   0.05319   0.06094   0.06130   0.06884
     Eigenvalues ---    0.07753   0.08394   0.10262   0.10344   0.11211
     Eigenvalues ---    0.11880   0.11946   0.12293   0.12544   0.12752
     Eigenvalues ---    0.13206   0.15341   0.15994   0.16283   0.17182
     Eigenvalues ---    0.18884   0.19226   0.20488   0.21494   0.22103
     Eigenvalues ---    0.22914   0.24140   0.24182   0.24477   0.24763
     Eigenvalues ---    0.25673   0.26362   0.29131   0.30883   0.32279
     Eigenvalues ---    0.32378   0.32901   0.33722   0.33962   0.34587
     Eigenvalues ---    0.34740   0.35250   0.35439   0.36241   0.37182
     Eigenvalues ---    0.37369   0.37856   0.38425   0.40666   0.42674
     Eigenvalues ---    0.42764   0.43221   0.44750   0.45164   0.47015
     Eigenvalues ---    0.47651   0.47735   0.50720   0.51933   0.57816
     Eigenvalues ---    0.81823   0.89237
 RFO step:  Lambda=-1.34821043D-03 EMin= 5.70562502D-04
 Linear search not attempted -- first point.
 Iteration  1 RMS(Cart)=  0.04807004 RMS(Int)=  0.00033096
 Iteration  2 RMS(Cart)=  0.00083371 RMS(Int)=  0.00005495
 Iteration  3 RMS(Cart)=  0.00000028 RMS(Int)=  0.00005495
 Variable       Old X    -DE/DX   Delta X   Delta X   Delta X     New X
                                 (Linear)    (Quad)   (Total)
    R1        2.32017  -0.01256   0.00000  -0.01440  -0.01440   2.30578
    R2        2.54026  -0.00585   0.00000  -0.00975  -0.00975   2.53051
    R3        2.92002  -0.00241   0.00000  -0.00708  -0.00708   2.91295
    R4        2.74907  -0.00147   0.00000  -0.00486  -0.00486   2.74420
    R5        1.92149  -0.00312   0.00000  -0.00773  -0.00773   1.91376
    R6        2.91497  -0.00245   0.00000  -0.00762  -0.00762   2.90735
    R7        2.93328  -0.00182   0.00000  -0.00907  -0.00907   2.92421
    R8        2.07626  -0.00283   0.00000  -0.00809  -0.00809   2.06817
    R9        2.52901  -0.00415   0.00000  -0.00539  -0.00539   2.52362
   R10        2.28571  -0.01490   0.00000  -0.01684  -0.01684   2.26887
   R11        1.83098  -0.00415   0.00000  -0.00835  -0.00835   1.82262
   R12        2.83317  -0.00237   0.00000  -0.00670  -0.00670   2.82647
   R13        2.07890  -0.00296   0.00000  -0.00840  -0.00840   2.07050
   R14        2.06792  -0.00271   0.00000  -0.00715  -0.00715   2.06077
   R15        2.60494  -0.00600   0.00000  -0.01099  -0.01099   2.59395
   R16        2.61654  -0.00385   0.00000  -0.00813  -0.00812   2.60842
   R17        2.60277  -0.00311   0.00000  -0.00596  -0.00596   2.59681
   R18        2.04217  -0.00293   0.00000  -0.00756  -0.00756   2.03461
   R19        2.48284  -0.00649   0.00000  -0.01112  -0.01113   2.47171
   R20        2.58365  -0.00487   0.00000  -0.00813  -0.00813   2.57553
   R21        2.04340  -0.00276   0.00000  -0.00713  -0.00713   2.03627
   R22        1.90788  -0.00310   0.00000  -0.00644  -0.00644   1.90143
   R23        2.87408  -0.00249   0.00000  -0.00837  -0.00837   2.86571
   R24        2.07692  -0.00268   0.00000  -0.00786  -0.00786   2.06906
   R25        2.06950  -0.00280   0.00000  -0.00747  -0.00747   2.06202
   R26        2.88593  -0.00236   0.00000  -0.00818  -0.00818   2.87775
   R27        2.06216  -0.00275   0.00000  -0.00763  -0.00763   2.05453
   R28        2.06095  -0.00273   0.00000  -0.00787  -0.00787   2.05308
   R29        1.93866  -0.00326   0.00000  -0.00748  -0.00748   1.93118
   R30        1.93875  -0.00334   0.00000  -0.00768  -0.00768   1.93107
   R31        1.93942  -0.00322   0.00000  -0.00747  -0.00747   1.93194
    A1        2.19101  -0.00055   0.00000  -0.00149  -0.00149   2.18952
    A2        2.09785   0.00000   0.00000  -0.00025  -0.00025   2.09760
    A3        1.99398   0.00055   0.00000   0.00174   0.00174   1.99572
    A4        2.17299   0.00124   0.00000   0.00464   0.00426   2.17725
    A5        2.12177  -0.00100   0.00000  -0.00152  -0.00192   2.11985
    A6        1.97181  -0.00019   0.00000   0.00559   0.00521   1.97702
    A7        1.83690  -0.00015   0.00000   0.00288   0.00287   1.83976
    A8        1.99076   0.00030   0.00000  -0.00022  -0.00024   1.99051
    A9        1.91022  -0.00004   0.00000  -0.00235  -0.00235   1.90787
   A10        1.97490   0.00028   0.00000   0.00559   0.00558   1.98048
   A11        1.87916  -0.00026   0.00000  -0.00397  -0.00396   1.87520
   A12        1.86903  -0.00017   0.00000  -0.00235  -0.00234   1.86669
   A13        2.03896   0.00028   0.00000  -0.00224  -0.00224   2.03672
   A14        2.12978   0.00061   0.00000   0.00356   0.00356   2.13334
   A15        2.11442  -0.00089   0.00000  -0.00135  -0.00135   2.11307
   A16        1.95756   0.00021   0.00000   0.00523   0.00523   1.96279
   A17        2.00590   0.00194   0.00000   0.00720   0.00720   2.01310
   A18        1.88326  -0.00049   0.00000   0.00009   0.00010   1.88336
   A19        1.86360  -0.00031   0.00000   0.00075   0.00074   1.86434
   A20        1.93844  -0.00075   0.00000  -0.00526  -0.00526   1.93318
   A21        1.91172  -0.00076   0.00000  -0.00140  -0.00142   1.91030
   A22        1.85345   0.00029   0.00000  -0.00181  -0.00182   1.85164
   A23        2.34718   0.00053   0.00000  -0.00014  -0.00015   2.34703
   A24        2.11514  -0.00037   0.00000  -0.00115  -0.00116   2.11398
   A25        1.82072  -0.00016   0.00000   0.00141   0.00140   1.82212
   A26        1.94010  -0.00080   0.00000  -0.00339  -0.00339   1.93671
   A27        2.23103   0.00058   0.00000   0.00365   0.00365   2.23468
   A28        2.11183   0.00022   0.00000  -0.00024  -0.00024   2.11159
   A29        1.83683   0.00115   0.00000   0.00391   0.00391   1.84074
   A30        1.94934  -0.00076   0.00000  -0.00286  -0.00286   1.94648
   A31        2.19953   0.00036   0.00000   0.00147   0.00147   2.20100
   A32        2.13430   0.00040   0.00000   0.00139   0.00139   2.13570
   A33        1.87772   0.00057   0.00000   0.00094   0.00094   1.87866
   A34        2.20235  -0.00020   0.00000  -0.00016  -0.00016   2.20219
   A35        2.20265  -0.00037   0.00000  -0.00070  -0.00070   2.20195
   A36        1.88776   0.00136   0.00000   0.00598   0.00598   1.89374
   A37        1.86209  -0.00035   0.00000   0.00290   0.00290   1.86499
   A38        1.94216  -0.00060   0.00000  -0.00433  -0.00432   1.93783
   A39        1.93617  -0.00049   0.00000  -0.00256  -0.00258   1.93359
   A40        1.95467  -0.00024   0.00000  -0.00170  -0.00169   1.95297
   A41        1.87920   0.00028   0.00000  -0.00022  -0.00022   1.87898
   A42        1.93812  -0.00028   0.00000  -0.00162  -0.00161   1.93651
   A43        1.96831   0.00000   0.00000  -0.00075  -0.00074   1.96757
   A44        1.92446   0.00040   0.00000   0.00678   0.00678   1.93125
   A45        1.85493   0.00019   0.00000   0.00182   0.00182   1.85674
   A46        1.87615  -0.00026   0.00000  -0.00330  -0.00330   1.87285
   A47        1.89826  -0.00007   0.00000  -0.00335  -0.00335   1.89491
   A48        1.94936  -0.00003   0.00000  -0.00017  -0.00018   1.94919
   A49        1.94443  -0.00026   0.00000  -0.00213  -0.00213   1.94231
   A50        1.93734  -0.00025   0.00000  -0.00138  -0.00138   1.93596
   A51        1.87845   0.00016   0.00000   0.00098   0.00098   1.87943
   A52        1.87237   0.00018   0.00000   0.00144   0.00144   1.87381
   A53        1.87843   0.00025   0.00000   0.00151   0.00151   1.87994
    D1        0.16724  -0.00011   0.00000  -0.03352  -0.03347   0.13377
    D2        3.10010   0.00014   0.00000   0.02120   0.02115   3.12125
    D3       -2.94583  -0.00013   0.00000  -0.03356  -0.03351  -2.97935
    D4       -0.01297   0.00013   0.00000   0.02115   0.02110   0.00813
    D5        0.34144  -0.00017   0.00000  -0.02597  -0.02596   0.31548
    D6       -1.74250  -0.00012   0.00000  -0.02770  -0.02770  -1.77020
    D7        2.49546   0.00007   0.00000  -0.02683  -0.02683   2.46863
    D8       -2.82700  -0.00017   0.00000  -0.02595  -0.02594  -2.85295
    D9        1.37225  -0.00012   0.00000  -0.02768  -0.02769   1.34456
   D10       -0.67298   0.00007   0.00000  -0.02681  -0.02681  -0.69979
   D11        3.06937   0.00046   0.00000   0.06128   0.06133   3.13070
   D12        0.89447   0.00002   0.00000   0.05223   0.05228   0.94675
   D13       -1.19870   0.00006   0.00000   0.05707   0.05712  -1.14157
   D14        0.12074   0.00033   0.00000   0.01145   0.01140   0.13213
   D15       -2.05416  -0.00011   0.00000   0.00240   0.00235  -2.05181
   D16        2.13586  -0.00007   0.00000   0.00724   0.00719   2.14305
   D17        3.02034  -0.00031   0.00000  -0.00308  -0.00309   3.01725
   D18       -0.11407  -0.00013   0.00000   0.00148   0.00147  -0.11260
   D19       -1.07801   0.00014   0.00000   0.00225   0.00226  -1.07575
   D20        2.07077   0.00032   0.00000   0.00681   0.00682   2.07759
   D21        0.98390  -0.00008   0.00000   0.00004   0.00004   0.98394
   D22       -2.15050   0.00010   0.00000   0.00460   0.00460  -2.14590
   D23        0.85101   0.00004   0.00000   0.00963   0.00963   0.86064
   D24        3.02426   0.00004   0.00000   0.00793   0.00793   3.03220
   D25       -1.27277  -0.00001   0.00000   0.00625   0.00625  -1.26652
   D26       -1.24821  -0.00021   0.00000   0.00168   0.00168  -1.24653
   D27        0.92504  -0.00020   0.00000  -0.00002  -0.00002   0.92502
   D28        2.91120  -0.00025   0.00000  -0.00170  -0.00171   2.90949
   D29        2.96718   0.00006   0.00000   0.00486   0.00486   2.97203
   D30       -1.14276   0.00007   0.00000   0.00316   0.00316  -1.13960
   D31        0.84340   0.00002   0.00000   0.00148   0.00148   0.84487
   D32       -0.02999   0.00011   0.00000   0.00768   0.00767  -0.02232
   D33        3.10449  -0.00007   0.00000   0.00318   0.00319   3.10768
   D34        0.31217  -0.00001   0.00000   0.00057   0.00057   0.31274
   D35       -2.80748  -0.00009   0.00000  -0.00843  -0.00843  -2.81591
   D36       -1.83178  -0.00022   0.00000  -0.00080  -0.00079  -1.83257
   D37        1.33175  -0.00030   0.00000  -0.00980  -0.00979   1.32196
   D38        2.40961   0.00035   0.00000   0.00540   0.00539   2.41501
   D39       -0.71004   0.00026   0.00000  -0.00360  -0.00360  -0.71364
   D40       -3.11968   0.00000   0.00000  -0.00659  -0.00659  -3.12627
   D41        0.04471   0.00000   0.00000  -0.00744  -0.00745   0.03726
   D42        0.00255   0.00008   0.00000   0.00134   0.00134   0.00389
   D43       -3.11625   0.00008   0.00000   0.00048   0.00049  -3.11577
   D44        3.12930   0.00001   0.00000   0.00516   0.00516   3.13446
   D45       -0.04349   0.00004   0.00000   0.00797   0.00797  -0.03552
   D46        0.00386  -0.00006   0.00000  -0.00146  -0.00146   0.00240
   D47        3.11426  -0.00003   0.00000   0.00135   0.00135   3.11561
   D48       -0.00812  -0.00007   0.00000  -0.00071  -0.00071  -0.00882
   D49        3.11247  -0.00006   0.00000   0.00014   0.00014   3.11261
   D50        0.01066   0.00002   0.00000  -0.00028  -0.00028   0.01038
   D51       -3.12805   0.00003   0.00000  -0.00049  -0.00049  -3.12854
   D52       -0.00943   0.00003   0.00000   0.00114   0.00114  -0.00829
   D53       -3.11982  -0.00001   0.00000  -0.00168  -0.00168  -3.12150
   D54        3.12940   0.00002   0.00000   0.00135   0.00135   3.13075
   D55        0.01902  -0.00002   0.00000  -0.00147  -0.00148   0.01754
   D56       -2.85621   0.00004   0.00000  -0.02758  -0.02757  -2.88378
   D57        1.34715  -0.00001   0.00000  -0.02827  -0.02827   1.31889
   D58       -0.77856  -0.00021   0.00000  -0.02834  -0.02834  -0.80690
   D59       -0.81967   0.00014   0.00000  -0.02196  -0.02196  -0.84163
   D60       -2.89949   0.00009   0.00000  -0.02265  -0.02266  -2.92214
   D61        1.25798  -0.00010   0.00000  -0.02272  -0.02272   1.23526
   D62        1.28053   0.00000   0.00000  -0.02516  -0.02516   1.25537
   D63       -0.79929  -0.00004   0.00000  -0.02586  -0.02586  -0.82514
   D64       -2.92500  -0.00024   0.00000  -0.02593  -0.02593  -2.95093
   D65       -1.05715   0.00005   0.00000  -0.00011  -0.00010  -1.05725
   D66        3.12471   0.00005   0.00000   0.00023   0.00024   3.12494
   D67        1.03159   0.00009   0.00000   0.00067   0.00067   1.03226
   D68        1.08944   0.00000   0.00000  -0.00081  -0.00081   1.08863
   D69       -1.01189   0.00001   0.00000  -0.00047  -0.00047  -1.01236
   D70       -3.10500   0.00004   0.00000  -0.00003  -0.00003  -3.10504
   D71        3.11961  -0.00011   0.00000  -0.00536  -0.00536   3.11424
   D72        1.01828  -0.00011   0.00000  -0.00502  -0.00502   1.01326
   D73       -1.07484  -0.00008   0.00000  -0.00458  -0.00458  -1.07942
         Item               Value     Threshold  Converged?
 Maximum Force            0.014904     0.000450     NO 
 RMS     Force            0.002187     0.000300     NO 
 Maximum Displacement     0.231036     0.001800     NO 
 RMS     Displacement     0.047808     0.001200     NO 
 Predicted change in Energy=-6.922357D-04
 GradGradGradGradGradGradGradGradGradGradGradGradGradGradGradGradGradGrad

                          Input orientation:                          
 ---------------------------------------------------------------------
 Center     Atomic      Atomic             Coordinates (Angstroms)
 Number     Number       Type             X           Y           Z
 ---------------------------------------------------------------------
      1          8           0        1.066603    0.574891    1.579937
      2          6           0        1.051265   -0.262451    0.692568
      3          7           0        0.095599   -1.182361    0.509191
      4          6           0       -1.156959   -1.232074    1.242284
      5          6           0       -1.917319   -2.441399    0.670988
      6          8           0       -3.048918   -2.785964    1.290802
      7          8           0       -1.516816   -3.060111   -0.276804
      8          6           0       -1.968262    0.084751    1.194496
      9          6           0       -2.158693    0.670257   -0.168605
     10          6           0       -2.051242    0.183958   -1.447733
     11          7           0       -2.321349    1.165175   -2.371098
     12          6           0       -2.601285    2.234565   -1.671928
     13          7           0       -2.512111    1.994354   -0.333321
     14          6           0        2.176516   -0.296504   -0.360411
     15          6           0        3.361844    0.482166    0.176567
     16          7           0        4.355239    0.796454   -0.934032
     17          1           0        0.135190   -1.839432   -0.260411
     18          1           0       -0.951262   -1.442100    2.296492
     19          1           0       -3.237634   -2.224742    2.052156
     20          1           0       -2.934708   -0.097238    1.677543
     21          1           0       -1.444120    0.801450    1.827613
     22          1           0       -1.813422   -0.819129   -1.758330
     23          1           0       -2.874148    3.198802   -2.068039
     24          1           0       -2.696823    2.655691    0.402168
     25          1           0        1.779219    0.175364   -1.265009
     26          1           0        2.445094   -1.323402   -0.613414
     27          1           0        3.914404   -0.064800    0.936524
     28          1           0        3.038474    1.429624    0.598609
     29          1           0        4.723988   -0.054770   -1.362753
     30          1           0        5.148652    1.334835   -0.580656
     31          1           0        3.912937    1.344384   -1.675194
 ---------------------------------------------------------------------
                    Distance matrix (angstroms):
                    1          2          3          4          5
     1  O    0.000000
     2  C    1.220164   0.000000
     3  N    2.275363   1.339088   0.000000
     4  C    2.885022   2.473582   1.452170   0.000000
     5  C    4.339122   3.682496   2.379747   1.538504   0.000000
     6  O    5.321320   4.851546   3.615307   2.448763   1.335444
     7  O    4.830608   3.919390   2.596848   2.403923   1.200632
     8  C    3.098259   3.080589   2.516891   1.547425   2.580327
     9  C    3.670018   3.451869   2.995569   2.571564   3.231963
    10  C    4.363550   3.795486   3.210188   3.168766   3.376302
    11  N    5.238066   4.774798   4.432678   4.489893   4.735495
    12  C    5.175185   5.016677   4.868865   4.753556   5.274628
    13  N    4.299143   4.340884   4.195414   3.837813   4.586755
    14  C    2.399205   1.541464   2.423049   3.815229   4.735382
    15  C    2.691872   2.481831   3.680984   4.949136   6.054853
    16  N    4.145390   3.831886   4.913566   6.263833   7.239114
    17  H    3.175431   2.057724   1.012718   2.072830   2.332952
    18  H    2.941679   2.823873   2.087541   1.094430   2.138721
    19  H    5.156296   4.908536   3.818081   2.443459   1.922965
    20  H    4.058543   4.109191   3.424222   2.153531   2.746511
    21  H    2.533061   2.940606   2.836279   2.135484   3.475309
    22  H    4.624052   3.810934   2.986294   3.099218   2.923036
    23  H    5.976802   5.916933   5.886944   5.791342   6.342686
    24  H    4.458727   4.758997   4.747601   4.265172   5.163353
    25  H    2.959926   2.133941   2.797459   4.109567   4.925437
    26  H    3.211626   2.184940   2.607731   4.052991   4.682975
    27  H    2.988839   2.880303   4.001853   5.212940   6.302994
    28  H    2.362595   2.611694   3.935858   5.010051   6.288875
    29  H    4.736282   4.213831   5.118361   6.538945   7.344322
    30  H    4.680684   4.578318   5.749555   7.047897   8.108915
    31  H    4.391995   4.046897   5.072282   6.391686   7.336798
                    6          7          8          9         10
     6  O    0.000000
     7  O    2.209045   0.000000
     8  C    3.068891   3.501240   0.000000
     9  C    3.855883   3.786734   1.495703   0.000000
    10  C    4.161174   3.490082   2.645392   1.372661   0.000000
    11  N    5.436025   4.783972   3.742386   2.263267   1.374172
    12  C    5.846695   5.581759   3.638517   2.214255   2.134900
    13  N    5.077142   5.151837   2.505311   1.380315   2.175281
    14  C    6.019059   4.613590   4.443228   4.445836   4.391702
    15  C    7.281487   6.046039   5.440969   5.534515   5.659397
    16  N    8.520865   7.055925   6.709979   6.559963   6.456163
[...]
 233,-0.00005341,0.00003196,0.00002938,0.00000596,0.00000792,-0.0000228
 3,-0.00002372,0.00002171,-0.08410251,0.06524147,-0.25146184,-0.0020815
 9,0.00192491,-0.00807973,0.00024052,0.00000186,0.00163844,0.00010455,0
 .00072938,-0.00023395,-0.00022370,-0.00006681,0.00007759,0.00000471,-0
 .00000177,-0.00000663,0.00004248,-0.00001823,0.00004867,-0.00007287,0.
 00006372,0.00003809,0.00002850,0.00001276,0.00001405,0.00000710,0.0000
 0046,0.00000454,0.00000877,0.00000749,-0.00001899,0.09019474,-0.068426
 54,0.27252674,-0.00184216,-0.00152743,0.00403550,-0.00516551,0.0250239
 8,-0.00188145,0.00012181,-0.00232021,0.00065377,0.00020683,-0.00033912
 ,0.00017395,-0.00002474,0.00026481,0.00032144,-0.00001068,-0.00006178,
 -0.00009075,0.00006289,-0.00022454,-0.00017970,0.00008793,-0.00004815,
 -0.00007502,-0.00001670,-0.00002597,0.00001347,-0.00003353,0.00003965,
 0.00004701,-0.00001859,-0.00000782,-0.00002585,0.00001134,0.00000516,0
 .00000044,-0.00000653,-0.00002739,-0.00002240,-0.08483835,0.08857054,0
 .00396179,0.00876774,-0.02731867,-0.00180890,0.00213443,0.00016520,-0.
 00035852,-0.00118258,0.00018252,-0.00000575,-0.00012071,-0.00002043,-0
 .00003343,0.00003351,0.00002696,-0.00001838,-0.00001222,-0.00000495,0.
 00000487,0.00006292,-0.00003258,-0.00000712,-0.00001245,0.00001743,0.0
 0000371,0.00000127,-0.00000019,-0.00000135,0.00001495,-0.00001396,-0.0
 0000191,-0.00405642,0.01014654,0.00129803,0.08880545,0.00067822,0.0006
 3354,0.00076763,0.00004377,0.00019782,-0.00213354,-0.00108685,0.000144
 48,0.00036803,0.00025195,0.00045728,-0.00039612,0.00005974,0.00001555,
 0.00000088,-0.00002999,-0.00000973,0.00000560,-0.00002669,-0.00003012,
 0.00001699,-0.00013587,-0.00008343,0.00007849,0.00001028,-0.00002412,0
 .00002170,0.00000452,-0.00001224,-0.00000121,0.00000091,0.00001596,-0.
 00000121,-0.00000645,0.00001714,-0.00001377,0.00001185,0.00002099,-0.0
 0000081,0.08452070,-0.27013526,-0.01551873,0.00698037,-0.01966067,-0.0
 0210817,0.00043714,0.00108359,0.00048890,0.00022868,0.00003198,0.00036
 526,0.00000099,-0.00002630,0.00002828,0.00000639,0.00000341,-0.0000051
 4,-0.00002158,0.00005800,0.00000323,-0.00001697,0.00000631,0.00001208,
 -0.00000033,0.00000486,0.00000095,-0.00000452,0.00000093,-0.00000166,-
 0.00001556,-0.00000681,0.00000091,0.00318195,-0.00745444,-0.00034690,-
 0.09083172,0.29497222,0.00252040,0.00148027,-0.00444164,0.00653644,-0.
 02244186,-0.00138805,-0.00132163,0.00121467,0.00053875,-0.00007394,0.0
 0036216,-0.00054713,-0.00002170,0.00005979,0.00007845,0.00002319,-0.00
 002433,-0.00002185,0.00000463,-0.00002031,-0.00007675,-0.00015945,-0.0
 0002754,0.00006863,-0.00000418,-0.00001544,-0.00002700,-0.00002068,0.0
 0002863,0.00002047,-0.00001835,-0.00001529,0.00000906,0.00000977,-0.00
 001435,-0.00001036,-0.00000757,-0.00001117,0.00000656,0.00432666,-0.01
 708713,-0.04564708,0.00457362,-0.00956454,-0.00163483,-0.00016004,0.00
 062260,0.00032367,0.00011977,-0.00003411,0.00048487,0.00011296,-0.0000
 2058,0.00002426,0.00000780,0.00000323,-0.00000038,-0.00003742,0.000039
 49,0.00001258,-0.00002653,-0.00000545,-0.00001434,0.00000197,0.0000070
 6,0.00001052,0.00000389,-0.00000025,0.00000079,0.00000099,-0.00000293,
 -0.00000591,-0.01031237,0.02756711,0.00323759,-0.00546802,0.01915734,0
 .04823517,0.00055940,0.00061853,0.00227820,0.00053872,-0.00169921,-0.0
 0329137,0.00002184,0.00055849,0.00067602,-0.00004918,-0.00002931,0.000
 02431,-0.00000835,-0.00003396,-0.00004604,-0.00001062,-0.00000036,0.00
 002036,0.00000736,0.00003131,0.00005405,0.00000003,-0.00000043,-0.0000
 3844,-0.00000502,-0.00001569,-0.00005743,-0.00003551,-0.00000589,0.000
 00747,-0.00001842,-0.00002457,0.00003389,0.00001174,-0.00001324,0.0000
 0811,-0.00000984,0.00003301,0.00002261,-0.00911512,0.00703525,-0.01977
 362,-0.09800838,0.03718691,-0.10828324,0.00584414,-0.01046740,0.034084
 41,0.00013642,0.00018904,-0.00014278,-0.00003455,-0.00001300,0.0000223
 0,-0.00000623,0.00000207,-0.00000549,0.00000464,0.00000019,0.00001789,
 -0.00002620,0.00002021,0.00001639,0.00002480,0.00001607,-0.00000500,0.
 00000347,0.00000099,0.00000269,0.00000299,0.00000345,-0.00001160,-0.00
 280563,-0.00363590,-0.00009120,0.00121191,-0.00005729,0.00061295,0.106
 65233,-0.00054566,-0.00022372,0.00013595,0.00022150,0.00072701,-0.0001
 3311,0.00005100,-0.00035399,-0.00002451,0.00005679,-0.00001298,0.00004
 989,0.00001202,0.00001307,-0.00001838,-0.00000694,-0.00000673,0.000007
 86,-0.00000889,-0.00002459,0.00001707,0.00000159,0.00000832,0.00000097
 ,0.00000138,-0.00001941,-0.00001615,-0.00001464,-0.00001022,0.00000247
 ,-0.00000096,-0.00000491,0.00000555,-0.00000033,0.00000466,0.00000107,
 0.00000328,0.00002338,0.00000985,-0.00957685,0.00688442,-0.02016907,0.
 03361855,-0.07524816,0.07125480,-0.00003752,-0.00061739,-0.00070345,-0
 .00000070,0.00010977,-0.00011394,-0.00003965,0.00001118,0.00002246,-0.
 00000276,0.00000730,-0.00000315,-0.00000311,-0.00000242,0.00000170,0.0
 0000024,-0.00000502,0.00000535,0.00001524,0.00001173,-0.00000026,-0.00
 000336,0.00000127,0.00000077,-0.00000451,0.00000018,0.00000318,-0.0035
 6764,-0.00226007,-0.00096680,0.00098080,0.00106507,-0.00022627,-0.0320
 6745,0.07611517,0.00131618,0.00046306,-0.00021435,0.00013347,-0.000359
 39,-0.00012727,0.00007792,-0.00002742,-0.00002241,-0.00000594,-0.00003
 477,0.00007196,-0.00001865,-0.00000458,0.00001546,0.00001620,0.0000096
 8,-0.00001329,0.00001496,-0.00000446,-0.00000909,0.00000569,0.00000163
 ,-0.00000231,0.00000074,0.00000130,-0.00000143,0.00000033,-0.00000124,
 -0.00000283,0.00000310,0.00000056,-0.00000094,-0.00000163,0.00000137,-
 0.00000114,0.00000417,0.00000450,0.00000086,-0.00566329,0.00095205,-0.
 00617754,-0.09711116,0.06848531,-0.25271713,-0.00290982,0.00662767,-0.
 02204399,-0.00004708,0.00004469,-0.00001658,0.00000548,0.00000223,0.00
 000170,-0.00000142,-0.00000187,0.00000621,0.00000412,-0.00000086,-0.00
 000023,-0.00000689,-0.00000217,0.00000629,0.,0.00000069,-0.00000037,-0
 .00000203,0.00000002,-0.00000019,-0.00000461,0.00000003,0.00000383,-0.
 00027445,-0.00095891,0.00059639,0.00034340,0.00001883,0.00043719,0.101
 25110,-0.07437652,0.27642319,-0.00171332,0.00118259,0.00126588,0.00070
 603,-0.00194497,-0.00170305,0.00018286,0.00060138,0.00047500,-0.000051
 00,0.00001408,0.00005741,-0.00000831,-0.00009942,-0.00006335,-0.000001
 46,0.00003212,0.00001310,-0.00001303,0.00008223,0.00005456,-0.00003059
 ,-0.00004336,0.00001633,0.00003913,-0.00003091,0.00001529,0.00002262,-
 0.00002153,-0.00003121,0.00001362,0.00001575,0.00002573,-0.00002519,0.
 00001654,-0.00004266,0.00003607,0.00006943,0.00002275,0.01031423,-0.02
 313781,-0.00179077,-0.08045110,0.08653357,0.00528825,-0.01640219,0.024
 14696,0.00693748,0.00032105,-0.00007369,-0.00002975,-0.00000851,-0.000
 00849,-0.00000890,-0.00000964,-0.00002091,0.00001137,0.00000969,0.0000
 2369,-0.00000206,-0.00003512,-0.00000012,0.00002989,-0.00000107,-0.000
 00235,-0.00000004,-0.00000939,0.00000154,-0.00000243,-0.00005201,-0.00
 000015,0.00000913,0.00109849,0.00065800,-0.00010576,-0.00415904,-0.002
 98462,-0.00112885,-0.00314124,0.01148907,0.00055794,0.09507681,0.00121
 150,0.00219098,0.00051686,0.00049348,-0.00178511,-0.00265000,0.0001895
 1,0.00053424,0.00046207,-0.00011198,0.00000588,0.00005305,-0.00001869,
 -0.00006509,-0.00002277,0.00001181,0.00001900,0.00000413,0.00000983,0.
 00005546,0.00002721,0.00000490,-0.00000469,-0.00000115,0.00000845,0.00
 002341,-0.00000526,0.00001145,-0.00000980,-0.00001340,0.00000907,-0.00
 001181,-0.00000023,-0.00000473,-0.00000006,0.00002362,-0.00001045,0.00
 000109,-0.00000887,0.00459510,-0.01868354,-0.00087105,0.09493020,-0.29
 484773,-0.02184937,-0.00437729,0.00772387,0.00180679,0.00019013,-0.000
 02930,0.00003780,-0.00001089,-0.00002185,-0.00001359,-0.00000807,-0.00
 000648,0.00000435,0.00001175,0.00000599,0.00000559,-0.00003029,0.00002
 368,0.00001033,-0.00000204,-0.00000494,-0.00000345,0.00000346,0.,0.000
 00229,0.00000840,0.00001289,0.00000098,0.00011442,0.00109615,-0.000155
 20,-0.00316354,-0.00052519,-0.00132422,0.00262569,-0.00705700,-0.00078
 940,-0.09603270,0.30988365,0.00073569,-0.00049588,-0.00105016,0.000236
 17,0.00102567,0.00155091,-0.00021559,-0.00044241,-0.00066603,0.0000491
 0,0.00009431,-0.00005094,0.00003311,0.00002276,0.00000072,-0.00000555,
 -0.00000490,-0.00000057,-0.00002888,-0.00002776,-0.00002014,-0.0000072
 3,-0.00000634,0.00005073,0.00000723,0.00001060,0.00004461,0.00002824,-
 0.00001523,-0.00001057,0.00002851,0.00001966,-0.00004244,-0.00001541,0
 .00002489,0.00001525,0.00000791,-0.00001370,-0.00002421,0.00208057,-0.
 01114221,-0.00057677,0.00221593,-0.01419480,-0.05068779,0.01521380,-0.
 02333170,-0.00766396,-0.00005329,-0.00006189,0.00006001,0.00000053,0.0
 0002213,0.00000321,0.00000378,0.00000170,0.00000332,-0.00000671,0.0000
 0927,-0.00001625,0.00001834,-0.00000561,-0.00000981,-0.00000941,-0.000
 00543,0.00000702,-0.00000982,0.00000074,-0.00000033,0.00000130,0.00000
 010,0.00001823,0.00076530,0.00001759,0.00032131,-0.00094039,-0.0011189
 4,0.00001173,-0.01031961,0.02576010,0.00461391,-0.01214547,0.02432332,
 0.05547671,0.00003827,-0.00080747,-0.00090249,-0.00113538,0.00025435,0
 .00206987,0.00066101,0.00009426,-0.00036878,-0.00020179,0.00006671,0.0
 0019308,-0.00019619,-0.00016183,0.00001539,0.00018801,0.00010294,-0.00
 006575,0.00013081,0.00007473,-0.00002590,0.00002876,0.00003531,-0.0000
 2033,0.00001052,0.00004028,-0.00000571,0.00002934,0.00001208,-0.000025
 53,0.00003557,-0.00002138,0.00001290,-0.00000664,-0.00001285,0.0000093
 4,0.00001170,-0.00001883,0.00000525,0.00161153,0.00126393,-0.00166996,
 -0.01109253,0.02344600,0.00311235,-0.11979173,0.13369960,0.01241778,-0
 .00014402,-0.00011418,-0.00008550,0.00004416,-0.00000080,-0.00003485,-
 0.00004709,-0.00001641,0.00003331,0.00003754,-0.00002149,0.00000301,-0
 .00003066,0.00001051,0.00001917,-0.00002922,-0.00002109,-0.00001355,-0
 .00000293,-0.00000323,-0.00000041,-0.00001508,0.00001864,0.00000668,-0
 .00028879,0.00002773,-0.00006798,-0.00017199,-0.00117159,0.00008439,0.
 00153480,-0.00040885,-0.00057283,-0.00266653,-0.00198533,0.00336848,0.
 12207190,-0.00036031,-0.00054157,-0.00017338,0.00002864,0.00001493,0.0
 0036630,-0.00032291,-0.00023404,0.00002808,0.00003062,-0.00003203,-0.0
 0008160,-0.00000498,0.00011919,0.00008921,-0.00000895,-0.00004215,-0.0
 0001574,0.00000992,-0.00009439,-0.00005397,-0.00000332,0.00001212,0.00
 000312,-0.00000709,0.00000138,0.00000045,-0.00001220,0.00001710,0.0000
 0692,-0.00001412,-0.00001678,-0.00000562,0.00000492,-0.00000565,0.0000
 1070,-0.00001062,-0.00001933,-0.00001066,-0.00023497,0.00285880,0.0009
 3848,0.00147640,0.00657418,-0.00367101,0.12588951,-0.33801454,-0.03339
 325,-0.00006617,0.00009275,0.00001474,-0.00000603,0.00001190,0.0000132
 7,0.00000788,0.00001846,-0.00000991,-0.00001132,-0.00000253,0.00000274
 ,0.00001509,-0.00001123,-0.00000873,0.00000338,0.00000460,0.00000196,0
 .00000803,-0.00000016,0.00000062,0.00001860,0.00000424,-0.00000227,0.0
 0007638,-0.00017051,0.00001340,0.00044742,-0.00076221,0.00013051,-0.00
 040325,0.00037505,-0.00002317,-0.00166310,0.00084922,0.00083510,-0.139
 38486,0.35797519,0.00022920,0.00034451,-0.00008691,-0.00004490,-0.0003
 3369,-0.00069231,-0.00017297,0.00004363,0.00015641,0.00003361,-0.00004
 356,-0.00003142,0.00000925,0.00004834,0.00005778,-0.00001661,-0.000015
 17,-0.00001367,-0.00001187,-0.00002618,-0.00004101,-0.00000321,-0.0000
 1293,0.00000406,-0.00000366,-0.00000010,0.00001111,0.00000007,0.000005
 36,0.00000955,0.00000150,0.00000116,-0.00002095,-0.00000160,0.00001186
 ,0.00000705,0.00000025,-0.00001342,-0.00001992,-0.00107826,0.00022137,
 0.00079136,0.00992642,-0.02260952,-0.00188182,0.01415957,-0.04024461,-
 0.06400224,0.00002505,0.00002080,0.00006272,-0.00000418,-0.00000456,0.
 00000007,0.00001187,-0.00000192,0.00000150,-0.00000214,0.00000905,-0.0
 0000351,0.00000138,-0.00000127,-0.00000153,-0.00000157,-0.00000037,0.0
 0001018,0.00000058,0.00000008,0.00000080,0.00000149,-0.00000205,0.0000
 0251,-0.00021715,0.00024415,-0.00006121,0.00037774,0.00044154,0.000443
 50,-0.00060993,-0.00050121,-0.00026907,0.00321847,0.00170723,-0.002883
 41,-0.01774047,0.03814609,0.06303395,0.00074962,0.00079068,0.00028935,
 -0.00030964,-0.00212982,-0.00203338,-0.00027789,0.00033041,0.00057492,
 -0.00005560,-0.00010297,-0.00007602,-0.00011619,-0.00001535,0.00009290
 ,0.00004573,0.00001228,-0.00003671,0.00005144,0.00001829,-0.00003153,-
 0.00000841,-0.00001133,0.00000656,0.00001116,0.00000656,0.00001244,0.0
 0001913,-0.00000290,-0.00000915,0.00002694,0.00000592,-0.00000081,-0.0
 0001011,0.00001218,-0.00001053,0.00002026,0.00000235,0.00000199,-0.003
 26032,0.00118154,0.00481088,-0.01669223,-0.01418778,-0.00641278,-0.228
 67930,-0.15645577,-0.08185250,-0.00000436,-0.00000716,0.00001271,0.000
 00354,-0.00000537,-0.00000632,-0.00001228,-0.00001188,0.00000916,0.000
 01152,0.00000943,-0.00000576,-0.00002022,0.00000739,0.00000879,-0.0000
 1370,-0.00000914,0.00000018,-0.00000954,-0.00000076,-0.00000169,-0.000
 02672,0.00000140,0.00000647,0.00041360,0.00028097,0.00002411,0.0003022
 0,-0.00008515,0.00004324,0.00162939,-0.00007055,-0.00021310,0.00020329
 ,0.00091038,-0.00072658,0.01519964,0.01099115,0.00642563,0.23924923,0.
 00038551,0.00013111,0.00008597,-0.00008193,0.00007198,-0.00053408,0.00
 022628,0.00009403,-0.00000923,-0.00007173,-0.00001959,0.00006513,-0.00
 009388,-0.00003644,0.00004523,0.00007848,0.00002962,-0.00003350,0.0000
 6427,0.00000972,-0.00002430,0.00001654,0.00002401,-0.00000915,0.000005
 12,0.00003032,-0.00000047,0.00001528,0.00000862,-0.00001400,0.00001469
 ,-0.00002485,0.00000170,-0.00000554,-0.00000322,0.00001742,-0.00000252
 ,-0.00002296,-0.00000883,-0.00015492,0.00004310,0.00006794,-0.00031964
 ,0.00146790,0.00336906,-0.15171757,-0.20259847,-0.06978993,-0.00006236
 ,-0.00003753,-0.00003600,0.00000618,-0.00000263,-0.00001169,-0.0000203
 0,0.00000079,0.00000951,0.00001567,-0.00001056,0.00000411,-0.00001856,
 0.00000766,0.00000786,-0.00001252,-0.00001094,-0.00000603,0.00000648,-
 0.00000110,0.00000118,0.00000461,0.00001926,0.00000201,-0.00009222,-0.
 00001729,-0.00016333,0.00013807,0.00027242,-0.00007484,0.00007397,-0.0
 0010452,0.00031266,0.00101301,0.00048481,-0.00019166,-0.02633100,-0.02
 010709,-0.01098959,0.16614557,0.20987981,-0.00028533,-0.00029669,-0.00
 032534,0.00067113,0.00134785,0.00176160,0.00058342,-0.00011567,-0.0005
 9610,-0.00006167,0.00012455,0.00012994,-0.00004051,-0.00007518,-0.0000
 2867,0.00008020,0.00005348,-0.00002213,0.00003954,0.00002961,-0.000009
 25,0.00001055,0.00002115,0.00000228,-0.00000156,0.00001853,-0.00000238
 ,0.00000901,0.00000041,-0.00000725,0.00001532,-0.00000649,-0.00001178,
 -0.00000118,-0.00000262,0.00001974,0.00000165,-0.00001273,-0.00000804,
 0.00296553,-0.00122630,-0.00470735,0.01540986,0.01698675,0.01095460,-0
 .07442820,-0.06510330,-0.09155964,-0.00006169,-0.00009259,-0.00003550,
 0.00002722,0.00000719,-0.00001732,-0.00001711,-0.00000529,0.00001896,0
 .00001386,-0.00001017,-0.00000158,-0.00000711,-0.00000294,0.00000494,-
 0.00000804,-0.00000643,-0.00000354,-0.00000255,-0.00000087,0.00000213,
 0.00000146,0.00000810,0.00000791,-0.00002821,-0.00027990,0.00018052,-0
 .00030289,-0.00013387,-0.00007920,-0.00021683,0.00077543,-0.00008365,-
 0.00032645,-0.00039348,0.00077924,-0.00224829,-0.00165012,-0.00187149,
 0.08192825,0.07468588,0.09417248,-0.00037173,-0.00049570,-0.00080234,-
 0.00096394,0.00087994,0.00104919,0.00021566,-0.00003997,-0.00025008,-0
 .00007655,0.00000063,0.00009844,-0.00011588,-0.00009850,0.00003417,0.0
 0010274,0.00006326,-0.00004615,0.00006088,0.00005227,-0.00003354,0.000
 01999,0.00000064,0.00001816,0.00001283,0.00004249,0.00004521,0.0000551
 3,-0.00001772,-0.00002023,0.00006541,0.00001781,-0.00003602,-0.0000228
 6,0.00003166,0.00001131,0.00002076,-0.00003580,-0.00002256,0.00269758,
 0.00009647,0.00122546,0.01374961,-0.00978852,0.02418553,-0.09665821,0.
 03408523,-0.10036682,-0.00004904,-0.00013484,0.00001815,0.00002565,0.0
 0000512,-0.00002510,-0.00002483,-0.00002091,0.00002568,0.00002304,0.00
 000117,-0.00001589,-0.00001602,0.00000351,0.00000749,-0.00003484,-0.00
 002592,0.00000120,-0.00001307,-0.00000141,-0.00000165,-0.00002393,0.00
 000967,0.00001677,-0.00089590,0.00006139,-0.00119778,-0.00015298,0.000
 05770,-0.00022197,-0.00490969,-0.00009108,0.00309814,0.00075483,0.0004
 1648,-0.00031006,-0.00581300,0.00350628,-0.01451354,-0.00844020,0.0107
 7497,-0.02371939,0.10077856,0.00033166,-0.00041864,-0.00056866,-0.0010
 2322,0.00027624,0.00070715,0.00040296,0.00009749,-0.00015050,-0.000149
 95,0.00003041,0.00011541,-0.00012877,-0.00005578,0.00004664,0.00012367
 ,0.00004747,-0.00004771,0.00009511,0.00001143,-0.00004057,0.00002127,0
 .00003666,-0.00002982,0.00000716,0.00004088,-0.00000565,0.00000998,0.0
 0003154,-0.00002145,-0.00000506,-0.00004450,0.00002087,0.00000008,-0.0
 0002657,0.00001082,-0.00001110,-0.00003533,-0.00000424,0.00110855,-0.0
 0041330,0.00007211,-0.00131178,0.00036914,0.00074128,0.03646868,-0.095
 41787,0.09279434,-0.00008343,-0.00006512,-0.00002306,0.00002675,-0.000
 00638,-0.00002224,-0.00002922,0.00000285,0.00001375,0.00002268,-0.0000
 2079,0.00001334,-0.00002279,0.00001110,0.00001391,-0.00001889,-0.00001
 597,-0.00000948,0.00001836,-0.00000306,0.00000008,0.00001416,0.0000245
 7,-0.00000532,-0.00044935,0.00036863,-0.00023930,-0.00004065,-0.000271
 04,0.00023774,0.00007176,0.00059357,-0.00034153,0.00018417,0.00014229,
 -0.00110946,0.01133412,-0.00887492,0.03355501,-0.00761057,0.01042205,-
 0.02464432,-0.03935631,0.09316295,-0.00022316,-0.00004052,0.00021578,0
 .00058543,-0.00038389,-0.00067804,-0.00065422,-0.00016677,0.00022168,0
 .00015112,-0.00007718,-0.00017170,0.00009862,0.00014770,0.00007779,-0.
 00010759,-0.00007088,0.00001078,-0.00007931,-0.00007799,-0.00005062,-0
 .00001341,-0.00003137,0.00003775,-0.00001859,0.00000205,0.00002703,-0.
 00000076,-0.00001044,0.00003446,0.00001650,0.00001865,-0.00007365,-0.0
 0000068,0.00004156,0.00004111,-0.00001115,-0.00004122,-0.00005872,-0.0
 0060539,0.00021809,0.00283205,-0.00381040,0.00641091,-0.02103484,-0.11
 037976,0.09439556,-0.32903736,0.00006243,0.00008239,0.00010685,-0.0000
 2190,0.00000815,0.00002032,0.00003550,0.00000611,-0.00001350,-0.000026
 05,0.00002347,-0.00001587,0.00002719,-0.00001022,-0.00002551,0.0000021
 9,0.00000290,0.00002518,-0.00000333,0.00000162,0.00000432,0.00001826,-
 0.00000897,0.00000508,0.00041491,0.00060306,0.00009139,-0.00001329,0.0
 0000343,-0.00004928,0.00375981,-0.00080164,-0.00047317,-0.00061783,-0.
 00088417,0.00074646,0.00249732,-0.00150225,0.00728793,-0.00283070,0.00
 322100,-0.00866414,0.11174825,-0.10107913,0.34856043\\-0.00000042,-0.0
 0000073,-0.00000097,0.00000053,0.00000134,0.00000140,-0.00000101,-0.00
 000044,0.,-0.00000044,0.00000006,0.00000043,-0.00000102,0.00000036,0.0
 0000113,0.00000013,0.00000090,0.00000023,-0.00000038,0.00000006,0.0000
 0060,-0.00000013,0.00000056,0.00000003,-0.00000015,0.00000069,-0.00000
 081,0.00000026,-0.00000025,0.00000016,0.00000049,-0.00000077,-0.000000
 48,0.00000027,0.00000042,0.00000008,0.00000020,-0.00000015,-0.00000069
 ,0.00000097,0.00000002,0.00000072,0.00000068,-0.00000080,-0.00000134,0
 .00000024,-0.00000030,0.00000010,0.00000015,-0.00000009,0.00000032,-0.
 00000025,0.00000065,0.00000007,-0.00000027,0.00000072,0.00000024,0.,0.
 00000074,-0.00000013,0.,0.00000061,-0.00000027,-0.00000025,0.00000017,
 0.00000022,0.00000040,0.00000007,-0.00000086,0.00000037,0.00000040,-0.
 00000079,-0.00000025,-0.00000033,0.00000022,-0.00000009,-0.00000036,0.
 00000061,0.00000002,-0.00000075,0.00000004,-0.00000039,-0.00000020,-0.
 00000030,-0.00000005,-0.00000086,0.00000027,0.00000025,-0.00000078,-0.
 00000015,0.00000014,-0.00000094,-0.00000005\\\@


 IT CANNOT BE MY BEAUTY, FOR I HAVE NONE; AND IT CANNOT BE MY WIT,
 FOR HE HAS NOT ENOUGH TO KNOW THAT I HAVE ANY.
 -- CATHARINE SEDLEY, PUZZLED ABOUT WHY SHE WAS MISTRESS TO JAMES II
 Job cpu time:       0 days 15 hours 18 minutes 45.3 seconds.
 File lengths (MBytes):  RWF=   1140 Int=      0 D2E=      0 Chk=     37 Scr=      1
 Normal termination of Gaussian 09 at Thu Jul 29 08:04:50 2021.
