 Entering Gaussian System, Link 0=g09
 Input=opt_freq-conf-719.com
 Output=opt_freq-conf-719.log
 Initial command:
 /aerosol/software/g09/l1.exe "/scratch/nicole/10765/Gau-635578.inp" -scrdir="/scratch/nicole/10765/"
 Entering Link 1 = /aerosol/software/g09/l1.exe PID=    635581.
  
 Copyright (c) 1988,1990,1992,1993,1995,1998,2003,2009,2013,
            Gaussian, Inc.  All Rights Reserved.
  
 This is part of the Gaussian(R) 09 program.  It is based on
 the Gaussian(R) 03 system (copyright 2003, Gaussian, Inc.),
 the Gaussian(R) 98 system (copyright 1998, Gaussian, Inc.),
 the Gaussian(R) 94 system (copyright 1995, Gaussian, Inc.),
 the Gaussian 92(TM) system (copyright 1992, Gaussian, Inc.),
 the Gaussian 90(TM) system (copyright 1990, Gaussian, Inc.),
 the Gaussian 88(TM) system (copyright 1988, Gaussian, Inc.),
 the Gaussian 86(TM) system (copyright 1986, Carnegie Mellon
 University), and the Gaussian 82(TM) system (copyright 1983,
 Carnegie Mellon University). Gaussian is a federally registered
 trademark of Gaussian, Inc.
  
 This software contains proprietary and confidential information,
 including trade secrets, belonging to Gaussian, Inc.
  
 This software is provided under written license and may be
 used, copied, transmitted, or stored only in accord with that
 written license.
  
 The following legend is applicable only to US Government
 contracts under FAR:
  
                    RESTRICTED RIGHTS LEGEND
  
 Use, reproduction and disclosure by the US Government is
 subject to restrictions as set forth in subparagraphs (a)
 and (c) of the Commercial Computer Software - Restricted
 Rights clause in FAR 52.227-19.
  
 Gaussian, Inc.
 340 Quinnipiac St., Bldg. 40, Wallingford CT 06492
  
  
 ---------------------------------------------------------------
 Warning -- This program may not be used in any manner that
 competes with the business of Gaussian, Inc. or will provide
 assistance to any competitor of Gaussian, Inc.  The licensee
 of this program is prohibited from giving any competitor of
 Gaussian, Inc. access to this program.  By using this program,
 the user acknowledges that Gaussian, Inc. is engaged in the
 business of creating and licensing software in the field of
 computational chemistry and represents and warrants to the
 licensee that it is not a competitor of Gaussian, Inc. and that
 it will not use this program in any manner prohibited above.
 ---------------------------------------------------------------
  

 Cite this work as:
 Gaussian 09, Revision D.01,
 M. J. Frisch, G. W. Trucks, H. B. Schlegel, G. E. Scuseria, 
 M. A. Robb, J. R. Cheeseman, G. Scalmani, V. Barone, B. Mennucci, 
 G. A. Petersson, H. Nakatsuji, M. Caricato, X. Li, H. P. Hratchian, 
 A. F. Izmaylov, J. Bloino, G. Zheng, J. L. Sonnenberg, M. Hada, 
 M. Ehara, K. Toyota, R. Fukuda, J. Hasegawa, M. Ishida, T. Nakajima, 
 Y. Honda, O. Kitao, H. Nakai, T. Vreven, J. A. Montgomery, Jr., 
 J. E. Peralta, F. Ogliaro, M. Bearpark, J. J. Heyd, E. Brothers, 
 K. N. Kudin, V. N. Staroverov, T. Keith, R. Kobayashi, J. Normand, 
 K. Raghavachari, A. Rendell, J. C. Burant, S. S. Iyengar, J. Tomasi, 
 M. Cossi, N. Rega, J. M. Millam, M. Klene, J. E. Knox, J. B. Cross, 
 V. Bakken, C. Adamo, J. Jaramillo, R. Gomperts, R. E. Stratmann, 
 O. Yazyev, A. J. Austin, R. Cammi, C. Pomelli, J. W. Ochterski, 
 R. L. Martin, K. Morokuma, V. G. Zakrzewski, G. A. Voth, 
 P. Salvador, J. J. Dannenberg, S. Dapprich, A. D. Daniels, 
 O. Farkas, J. B. Foresman, J. V. Ortiz, J. Cioslowski, 
 and D. J. Fox, Gaussian, Inc., Wallingford CT, 2013.
 
 ******************************************
 Gaussian 09:  ES64L-G09RevD.01 24-Apr-2013
                30-Jul-2021 
 ******************************************
 %mem=2gb
 %nproc=4
 Will use up to    4 processors via shared memory.
 %chk=conf-719.chk
 ----------------------------------------------------------------------
 # B3LYP/6-311G(2df,2pd) guess=read geom=checkpoint opt=readfc freq=nor
 aman nosymm integral(ultrafinegrid)
 ----------------------------------------------------------------------
 1/10=3,14=-1,18=20,19=15,26=4,29=2,38=1/1,3;
 2/9=110,12=2,15=1,40=1/2;
 3/5=4,6=6,7=404,11=2,14=-4,16=1,25=1,30=1,71=1,74=-5,75=-5,116=-2/1,2,3;
 4/5=1/1;
 5/5=2,38=6/2;
 6/7=2,8=2,9=2,10=2,28=1/1;
 7/30=1/1,2,3,16;
 1/14=-1,18=20,19=15,26=4/3(2);
 2/9=110,15=1/2;
 99//99;
 2/9=110,15=1/2;
 3/5=4,6=6,7=404,11=2,14=-2,16=1,25=1,30=1,71=1,74=-5,75=-5/1,2,3;
 4/5=5,16=3,69=1/1;
 5/5=2,38=5/2;
 7/30=1/1,2,3,16;
 1/14=-1,18=20,19=15,26=4/3(-5);
 2/9=110,15=1/2;
 6/7=2,8=2,9=2,10=2,19=2,28=1/1;
 99/9=1/99;
 ------------------------------------------------------------
 Candidate Structure: Conf:719 OPT and FREQ calc in gas phase
 ------------------------------------------------------------
 Structure from the checkpoint file:  "conf-719.chk"
 Charge =  1 Multiplicity = 1
 Redundant internal coordinates found in file.
 O,0,-0.9736804892,0.2221963619,1.3350702741
 C,0,-1.3719399683,0.267884151,0.1835189297
 N,0,-0.5816753267,0.2969363476,-0.900252412
 C,0,0.8715698895,0.3613193872,-0.8054917127
 C,0,1.3415282897,0.8820385172,-2.1544290498
 O,0,2.6648974212,1.0602852985,-2.2137969277
 O,0,0.6125000536,1.0959052144,-3.0719747103
 C,0,1.5031733049,-1.0161557986,-0.4215396039
 C,0,2.7723825496,-0.9515736968,0.3557828588
 C,0,2.9960962806,-1.1373889174,1.6960270624
 N,0,4.3262684799,-1.0062651185,1.9968709617
 C,0,4.9140658169,-0.7429602015,0.8565421804
 N,0,4.022545951,-0.7001529058,-0.1713586825
 C,0,-2.8876623071,0.2645525882,-0.1017952157
 C,0,-3.5978154636,0.5828009841,1.2016091313
 N,0,-5.1017769407,0.3770735667,1.0741744826
 H,0,-0.9569985059,0.4473766088,-1.8273212498
 H,0,1.1482934939,1.0793921081,-0.0315682784
 H,0,2.874653219,1.3973110805,-3.0988320162
 H,0,0.7730560674,-1.5121311481,0.21449447
 H,0,1.6050930204,-1.6293541841,-1.320724137
 H,0,2.2642921143,-1.3639983018,2.4539848972
 H,0,5.968552479,-0.575129614,0.7121607575
 H,0,4.2241905829,-0.4794304927,-1.1304277939
 H,0,-3.1651556299,-0.7295698946,-0.4647475269
 H,0,-3.1362079494,0.9840419956,-0.8844305046
 H,0,-3.4539487345,1.61472995,1.5108065045
 H,0,-3.2514175682,-0.0643412292,2.0017361986
 H,0,-5.3215115385,-0.5884196218,0.8209868539
 H,0,-5.5764477651,0.5814430047,1.9558407157
 H,0,-5.5067032668,0.9816402703,0.3567948631
 Recover connectivity data from disk.

 GradGradGradGradGradGradGradGradGradGradGradGradGradGradGradGradGradGrad
 Berny optimization.
 Initialization pass.
 Force constant matrix read from checkpoint file:
 "conf-719.chk"
                           ----------------------------
                           !    Initial Parameters    !
                           ! (Angstroms and Degrees)  !
 --------------------------                            --------------------------
 ! Name  Definition              Value          Derivative Info.                !
 --------------------------------------------------------------------------------
 ! R1    R(1,2)                  1.2193         D2E/DX2 =    0.6619             !
 ! R2    R(2,3)                  1.3416         D2E/DX2 =    0.3962             !
 ! R3    R(2,14)                 1.5423         D2E/DX2 =    0.2566             !
 ! R4    R(3,4)                  1.4578         D2E/DX2 =    0.3143             !
 ! R5    R(3,17)                 1.0114         D2E/DX2 =    0.4377             !
 ! R6    R(4,5)                  1.5204         D2E/DX2 =    0.2312             !
 ! R7    R(4,8)                  1.5633         D2E/DX2 =    0.1062             !
 ! R8    R(4,18)                 1.0914         D2E/DX2 =    0.3268             !
 ! R9    R(5,6)                  1.3366         D2E/DX2 =    0.4262             !
 ! R10   R(5,7)                  1.1913         D2E/DX2 =    0.8073             !
 ! R11   R(6,19)                 0.97           D2E/DX2 =    0.4989             !
 ! R12   R(8,9)                  1.4897         D2E/DX2 =   -0.0913             !
 ! R13   R(8,20)                 1.0879         D2E/DX2 =    0.3427             !
 ! R14   R(8,21)                 1.0931         D2E/DX2 =    0.3183             !
 ! R15   R(9,10)                 1.3714         D2E/DX2 =    0.3237             !
 ! R16   R(9,13)                 1.3799         D2E/DX2 =    0.3326             !
 ! R17   R(10,11)                1.3701         D2E/DX2 =    0.3406             !
 ! R18   R(10,22)                1.0777         D2E/DX2 =    0.3675             !
 ! R19   R(11,12)                1.3097         D2E/DX2 =    0.391              !
 ! R20   R(12,13)                1.3613         D2E/DX2 =    0.3557             !
 ! R21   R(12,23)                1.0775         D2E/DX2 =    0.3696             !
 ! R22   R(13,24)                1.0046         D2E/DX2 =    0.3989             !
 ! R23   R(14,15)                1.518          D2E/DX2 =    0.1028             !
 ! R24   R(14,25)                1.0941         D2E/DX2 =   -0.3594             !
 ! R25   R(14,26)                1.0918         D2E/DX2 =    0.3308             !
 ! R26   R(15,16)                1.5233         D2E/DX2 =    0.1606             !
 ! R27   R(15,27)                1.0868         D2E/DX2 =    0.2169             !
 ! R28   R(15,28)                1.0858         D2E/DX2 =   -6.1342             !
 ! R29   R(16,29)                1.022          D2E/DX2 =    0.4236             !
 ! R30   R(16,30)                1.022          D2E/DX2 =    0.4226             !
 ! R31   R(16,31)                1.0218         D2E/DX2 =    0.3964             !
 ! A1    A(1,2,3)              124.8428         D2E/DX2 =   -0.7143             !
 ! A2    A(1,2,14)             119.7098         D2E/DX2 =   -7.7486             !
 ! A3    A(3,2,14)             115.4349         D2E/DX2 =   -3.2867             !
 ! A4    A(2,3,4)              122.389          D2E/DX2 =    0.1026             !
 ! A5    A(2,3,17)             121.6738         D2E/DX2 =    0.0786             !
 ! A6    A(4,3,17)             115.0213         D2E/DX2 =    0.0946             !
 ! A7    A(3,4,5)              105.4024         D2E/DX2 =   -0.1119             !
 ! A8    A(3,4,8)              112.3231         D2E/DX2 =    0.0715             !
 ! A9    A(3,4,18)             109.1424         D2E/DX2 =    0.021              !
 ! A10   A(5,4,8)              113.254          D2E/DX2 =   -0.2238             !
 ! A11   A(5,4,18)             108.9916         D2E/DX2 =    0.0229             !
 ! A12   A(8,4,18)             107.6462         D2E/DX2 =    0.0253             !
 ! A13   A(4,5,6)              113.0236         D2E/DX2 =    0.01               !
 ! A14   A(4,5,7)              123.758          D2E/DX2 =    0.1949             !
 ! A15   A(6,5,7)              123.2129         D2E/DX2 =    0.0529             !
 ! A16   A(5,6,19)             107.5153         D2E/DX2 =    0.0754             !
 ! A17   A(4,8,9)              115.7331         D2E/DX2 =   -0.6082             !
 ! A18   A(4,8,20)             105.9114         D2E/DX2 =   -0.265              !
 ! A19   A(4,8,21)             109.2644         D2E/DX2 =    0.0589             !
 ! A20   A(9,8,20)             106.6471         D2E/DX2 =   -0.0689             !
 ! A21   A(9,8,21)             111.9684         D2E/DX2 =    0.0545             !
 ! A22   A(20,8,21)            106.7226         D2E/DX2 =    0.0139             !
 ! A23   A(8,9,10)             130.0177         D2E/DX2 =   -0.0695             !
 ! A24   A(8,9,13)             125.4828         D2E/DX2 =   -0.1809             !
 ! A25   A(10,9,13)            104.4914         D2E/DX2 =    0.0818             !
 ! A26   A(9,10,11)            111.1001         D2E/DX2 =    0.1028             !
 ! A27   A(9,10,22)            127.2324         D2E/DX2 =    0.0794             !
 ! A28   A(11,10,22)           121.6664         D2E/DX2 =    0.0867             !
 ! A29   A(10,11,12)           105.2957         D2E/DX2 =    0.1255             !
 ! A30   A(11,12,13)           111.706          D2E/DX2 =    0.1132             !
 ! A31   A(11,12,23)           125.961          D2E/DX2 =    0.0877             !
 ! A32   A(13,12,23)           122.333          D2E/DX2 =    0.0897             !
 ! A33   A(9,13,12)            107.4065         D2E/DX2 =    0.1019             !
 ! A34   A(9,13,24)            125.9168         D2E/DX2 =    0.0772             !
 ! A35   A(12,13,24)           126.6065         D2E/DX2 =    0.0791             !
 ! A36   A(2,14,15)            107.4845         D2E/DX2 =    0.1656             !
 ! A37   A(2,14,25)            108.215          D2E/DX2 =   -0.5267             !
 ! A38   A(2,14,26)            110.7879         D2E/DX2 =   -0.0899             !
 ! A39   A(15,14,25)           110.8961         D2E/DX2 =   -0.0875             !
 ! A40   A(15,14,26)           111.7673         D2E/DX2 =    0.0567             !
 ! A41   A(25,14,26)           107.6531         D2E/DX2 =    0.0192             !
 ! A42   A(14,15,16)           111.2062         D2E/DX2 =   -6.6863             !
 ! A43   A(14,15,27)           112.4205         D2E/DX2 =   -1.1572             !
 ! A44   A(14,15,28)           111.0089         D2E/DX2 =   -0.8543             !
 ! A45   A(16,15,27)           106.4229         D2E/DX2 =    0.0565             !
 ! A46   A(16,15,28)           107.225          D2E/DX2 =   -3.5664             !
 ! A47   A(27,15,28)           108.3018         D2E/DX2 =   -1.8768             !
 ! A48   A(15,16,29)           111.1353         D2E/DX2 =   -0.2002             !
 ! A49   A(15,16,30)           111.0628         D2E/DX2 =    0.0069             !
 ! A50   A(15,16,31)           111.7203         D2E/DX2 =   -0.6977             !
 ! A51   A(29,16,30)           107.6242         D2E/DX2 =   -0.0648             !
 ! A52   A(29,16,31)           107.446          D2E/DX2 =    0.0246             !
 ! A53   A(30,16,31)           107.6562         D2E/DX2 =    0.0054             !
 ! D1    D(1,2,3,4)             -3.9635         D2E/DX2 =   -0.0389             !
 ! D2    D(1,2,3,17)          -172.4616         D2E/DX2 =   -0.0798             !
 ! D3    D(14,2,3,4)           177.3361         D2E/DX2 =    0.0011             !
 ! D4    D(14,2,3,17)            8.8381         D2E/DX2 =    0.0068             !
 ! D5    D(1,2,14,15)           15.2804         D2E/DX2 =   -0.0178             !
 ! D6    D(1,2,14,25)         -104.5436         D2E/DX2 =   -0.0496             !
 ! D7    D(1,2,14,26)          137.6552         D2E/DX2 =    0.0126             !
 ! D8    D(3,2,14,15)         -165.9477         D2E/DX2 =   -0.1629             !
 ! D9    D(3,2,14,25)           74.2283         D2E/DX2 =   -0.2338             !
 ! D10   D(3,2,14,26)          -43.5728         D2E/DX2 =   -0.0187             !
 ! D11   D(2,3,4,5)           -159.779          D2E/DX2 =   -0.0759             !
 ! D12   D(2,3,4,8)             76.4545         D2E/DX2 =    0.0131             !
 ! D13   D(2,3,4,18)           -42.8467         D2E/DX2 =   -0.0146             !
 ! D14   D(17,3,4,5)             9.4271         D2E/DX2 =   -0.0408             !
 ! D15   D(17,3,4,8)          -114.3394         D2E/DX2 =    0.0118             !
 ! D16   D(17,3,4,18)          126.3594         D2E/DX2 =    0.0024             !
 ! D17   D(3,4,5,6)            177.0779         D2E/DX2 =   -0.0016             !
 ! D18   D(3,4,5,7)             -3.7527         D2E/DX2 =    0.0193             !
 ! D19   D(8,4,5,6)            -59.7471         D2E/DX2 =   -0.0571             !
 ! D20   D(8,4,5,7)            119.4223         D2E/DX2 =   -0.0116             !
 ! D21   D(18,4,5,6)            60.0433         D2E/DX2 =    0.014              !
 ! D22   D(18,4,5,7)          -120.7873         D2E/DX2 =    0.012              !
 ! D23   D(3,4,8,9)           -149.806          D2E/DX2 =   -0.055              !
 ! D24   D(3,4,8,20)           -31.896          D2E/DX2 =    0.0202             !
 ! D25   D(3,4,8,21)            82.7229         D2E/DX2 =   -0.0418             !
 ! D26   D(5,4,8,9)             90.9229         D2E/DX2 =   -0.287              !
 ! D27   D(5,4,8,20)          -151.1672         D2E/DX2 =   -0.0663             !
 ! D28   D(5,4,8,21)           -36.5482         D2E/DX2 =    0.0186             !
 ! D29   D(18,4,8,9)           -29.6337         D2E/DX2 =   -0.0422             !
 ! D30   D(18,4,8,20)           88.2762         D2E/DX2 =    0.0124             !
 ! D31   D(18,4,8,21)         -157.1048         D2E/DX2 =   -0.0693             !
 ! D32   D(4,5,6,19)          -179.5846         D2E/DX2 =   -0.029              !
 ! D33   D(7,5,6,19)             1.2408         D2E/DX2 =    0.0051             !
 ! D34   D(4,8,9,10)           102.2288         D2E/DX2 =   -0.1659             !
 ! D35   D(4,8,9,13)           -78.9692         D2E/DX2 =   -0.2468             !
 ! D36   D(20,8,9,10)          -15.272          D2E/DX2 =    0.0108             !
 ! D37   D(20,8,9,13)          163.5299         D2E/DX2 =   -0.0069             !
 ! D38   D(21,8,9,10)         -131.6605         D2E/DX2 =    0.008              !
 ! D39   D(21,8,9,13)           47.1415         D2E/DX2 =    0.0139             !
 ! D40   D(8,9,10,11)          179.0913         D2E/DX2 =    0.0051             !
 ! D41   D(8,9,10,22)           -0.5412         D2E/DX2 =   -0.0066             !
 ! D42   D(13,9,10,11)           0.0989         D2E/DX2 =    0.0143             !
 ! D43   D(13,9,10,22)        -179.5336         D2E/DX2 =    0.008              !
 ! D44   D(8,9,13,12)         -179.2145         D2E/DX2 =    0.0021             !
 ! D45   D(8,9,13,24)            3.6748         D2E/DX2 =   -0.0202             !
 ! D46   D(10,9,13,12)          -0.1622         D2E/DX2 =    0.0126             !
 ! D47   D(10,9,13,24)        -177.2728         D2E/DX2 =   -0.0025             !
 ! D48   D(9,10,11,12)           0.0059         D2E/DX2 =    0.0165             !
 ! D49   D(22,10,11,12)        179.6621         D2E/DX2 =    0.0097             !
 ! D50   D(10,11,12,13)         -0.1142         D2E/DX2 =    0.0172             !
 ! D51   D(10,11,12,23)        179.863          D2E/DX2 =   -0.013              !
 ! D52   D(11,12,13,9)           0.1794         D2E/DX2 =    0.0166             !
 ! D53   D(11,12,13,24)        177.2644         D2E/DX2 =   -0.001              !
 ! D54   D(23,12,13,9)        -179.7988         D2E/DX2 =   -0.0128             !
 ! D55   D(23,12,13,24)         -2.7138         D2E/DX2 =   -0.0011             !
 ! D56   D(2,14,15,16)        -170.6294         D2E/DX2 =   -1.6311             !
 ! D57   D(2,14,15,27)          70.152          D2E/DX2 =   -0.076              !
 ! D58   D(2,14,15,28)         -51.3374         D2E/DX2 =    0.0181             !
 ! D59   D(25,14,15,16)        -52.5262         D2E/DX2 =   -0.3779             !
 ! D60   D(25,14,15,27)       -171.7448         D2E/DX2 =   -0.1086             !
 ! D61   D(25,14,15,28)         66.7657         D2E/DX2 =   -0.464              !
 ! D62   D(26,14,15,16)         67.6045         D2E/DX2 =   -0.6037             !
 ! D63   D(26,14,15,27)        -51.6141         D2E/DX2 =   -0.0219             !
 ! D64   D(26,14,15,28)       -173.1035         D2E/DX2 =   -0.2675             !
 ! D65   D(14,15,16,29)         59.5569         D2E/DX2 =   -0.0988             !
 ! D66   D(14,15,16,30)        179.3406         D2E/DX2 =   -0.0292             !
 ! D67   D(14,15,16,31)        -60.4424         D2E/DX2 =   -0.0934             !
 ! D68   D(27,15,16,29)       -177.7004         D2E/DX2 =   -0.0106             !
 ! D69   D(27,15,16,30)        -57.9166         D2E/DX2 =    0.0141             !
 ! D70   D(27,15,16,31)         62.3004         D2E/DX2 =   -0.0073             !
 ! D71   D(28,15,16,29)        -61.9702         D2E/DX2 =   -0.2105             !
 ! D72   D(28,15,16,30)         57.8135         D2E/DX2 =   -0.3489             !
 ! D73   D(28,15,16,31)        178.0305         D2E/DX2 =   -0.219              !
 --------------------------------------------------------------------------------
 Trust Radius=3.00D-01 FncErr=1.00D-07 GrdErr=1.00D-06
 Number of steps in this run=    167 maximum allowed number of steps=    186.
 GradGradGradGradGradGradGradGradGradGradGradGradGradGradGradGradGradGrad

                          Input orientation:                          
 ---------------------------------------------------------------------
 Center     Atomic      Atomic             Coordinates (Angstroms)
 Number     Number       Type             X           Y           Z
 ---------------------------------------------------------------------
      1          8           0       -0.973680    0.222196    1.335070
      2          6           0       -1.371940    0.267884    0.183519
      3          7           0       -0.581675    0.296936   -0.900252
      4          6           0        0.871570    0.361319   -0.805492
      5          6           0        1.341528    0.882039   -2.154429
      6          8           0        2.664897    1.060285   -2.213797
      7          8           0        0.612500    1.095905   -3.071975
      8          6           0        1.503173   -1.016156   -0.421540
      9          6           0        2.772383   -0.951574    0.355783
     10          6           0        2.996096   -1.137389    1.696027
     11          7           0        4.326268   -1.006265    1.996871
     12          6           0        4.914066   -0.742960    0.856542
     13          7           0        4.022546   -0.700153   -0.171359
     14          6           0       -2.887662    0.264553   -0.101795
     15          6           0       -3.597815    0.582801    1.201609
     16          7           0       -5.101777    0.377074    1.074174
     17          1           0       -0.956999    0.447377   -1.827321
     18          1           0        1.148293    1.079392   -0.031568
     19          1           0        2.874653    1.397311   -3.098832
     20          1           0        0.773056   -1.512131    0.214494
     21          1           0        1.605093   -1.629354   -1.320724
     22          1           0        2.264292   -1.363998    2.453985
     23          1           0        5.968552   -0.575130    0.712161
     24          1           0        4.224191   -0.479430   -1.130428
     25          1           0       -3.165156   -0.729570   -0.464748
     26          1           0       -3.136208    0.984042   -0.884431
     27          1           0       -3.453949    1.614730    1.510807
     28          1           0       -3.251418   -0.064341    2.001736
     29          1           0       -5.321512   -0.588420    0.820987
     30          1           0       -5.576448    0.581443    1.955841
     31          1           0       -5.506703    0.981640    0.356795
 ---------------------------------------------------------------------
                    Distance matrix (angstroms):
                    1          2          3          4          5
     1  O    0.000000
     2  C    1.219331   0.000000
     3  N    2.270665   1.341612   0.000000
     4  C    2.829542   2.453611   1.457754   0.000000
     5  C    4.239362   3.634019   2.369391   1.520408   0.000000
     6  O    5.151320   4.761416   3.584457   2.384932   1.336638
     7  O    4.764597   3.901520   2.603994   2.396597   1.191265
     8  C    3.279329   3.206420   2.509974   1.563259   2.575301
     9  C    4.045952   4.323443   3.792902   2.585602   3.422081
    10  C    4.211637   4.831378   4.647408   3.607954   4.652063
    11  N    5.480562   6.114023   5.846330   4.653866   5.450473
    12  C    5.985489   6.402237   5.862669   4.508166   4.946675
    13  N    5.299277   5.492132   4.767004   3.384893   3.691037
    14  C    2.393680   1.542345   2.440524   3.825752   4.741376
    15  C    2.652156   2.467833   3.687362   4.904377   5.979101
    16  N    4.139231   3.836258   4.933164   6.262129   7.224614
    17  H    3.170442   2.061037   1.011413   2.096474   2.362024
    18  H    2.665569   2.656386   2.087975   1.091404   2.140754
    19  H    5.987492   5.484796   4.241554   3.216369   1.872932
    20  H    2.704565   2.787548   2.520056   2.135391   3.415700
    21  H    4.139028   3.837315   2.944376   2.183186   2.659252
    22  H    3.775242   4.586964   4.702036   3.942155   5.208997
    23  H    7.015579   7.407629   6.801901   5.399948   5.634716
    24  H    5.795587   5.796690   4.873610   3.471672   3.348420
    25  H    2.991282   2.151926   2.813850   4.195390   5.075678
    26  H    3.191100   2.183126   2.645374   4.056636   4.655472
    27  H    2.849871   2.812552   3.974889   5.064226   6.080081
    28  H    2.390530   2.636043   3.959745   5.006070   6.266139
    29  H    4.452529   4.091300   5.119821   6.473152   7.443887
    30  H    4.658313   4.573547   5.760726   7.017859   8.052519
    31  H    4.699157   4.199493   5.128829   6.512916   7.294823
                    6          7          8          9         10
     6  O    0.000000
     7  O    2.224876   0.000000
     8  C    2.978825   3.504127   0.000000
     9  C    3.265252   4.539470   1.489729   0.000000
    10  C    4.497353   5.779531   2.593763   1.371433   0.000000
    11  N    4.975993   6.626039   3.717348   2.260691   1.370058
    12  C    4.211583   6.108857   3.652714   2.209318   2.130473
    13  N    3.018925   4.823672   2.551409   1.379855   2.175294
    14  C    5.993718   4.665217   4.584963   5.807275   6.310010
    15  C    7.149445   6.021092   5.586713   6.606750   6.832509
    16  N    8.461605   7.096494   6.914016   8.017716   8.261710
    17  H    3.693664   2.105487   3.189137   4.542168   5.527425
    18  H    2.657550   3.087300   2.160865   2.629169   3.363492
    19  H    0.969985   2.282302   3.856640   4.178766   5.424954
    20  H    4.011607   4.198632   1.087935   2.081224   2.697643
    21  H    3.025711   3.388091   1.093130   2.152354   3.358230
    22  H    5.275019   6.270229   2.994818   2.197886   1.077678
    23  H    4.706373   6.767521   4.628109   3.237934   3.181136
    24  H    2.444547   4.392675   2.862609   2.130607   3.151186
    25  H    6.344468   4.939704   4.677317   5.998076   6.541887
    26  H    5.951962   4.341736   5.073354   6.340046   6.983150
    27  H    7.184731   6.148745   5.935367   6.832803   7.015094
    28  H    7.351074   6.482174   5.420733   6.307338   6.346363
    29  H    8.701199   7.294148   6.950047   8.115382   8.381507
    30  H    9.248510   7.990411   7.637100   8.637899   8.747022
    31  H    8.566749   7.015281   7.330441   8.501799   8.864617
                   11         12         13         14         15
    11  N    0.000000
    12  C    1.309651   0.000000
    13  N    2.210695   1.361330   0.000000
    14  C    7.619723   7.924674   6.977569   0.000000
    15  C    8.120879   8.621417   7.848625   1.518046   0.000000
    16  N    9.573559  10.080622   9.271733   2.509556   1.523307
    17  H    6.682098   6.564253   5.371676   2.595829   4.020780
    18  H    4.308603   4.276769   3.383437   4.117989   4.928781
    19  H    5.818123   4.938112   3.779830   6.593152   7.813455
    20  H    4.007254   4.260494   3.371554   4.081360   4.946479
    21  H    4.335836   4.059000   2.833467   5.025686   6.190804
    22  H    2.142119   3.155759   3.228711   5.977192   6.302601
    23  H    2.129191   1.077476   2.140836   8.933092   9.648614
    24  H    3.173007   2.119770   1.004586   7.224268   8.231070
    25  H    7.890346   8.186562   7.193747   1.094082   2.164776
    26  H    8.243287   8.415488   7.388690   1.091768   2.173853
    27  H    8.224211   8.718396   8.005394   2.178105   1.086820
    28  H    7.636005   8.273277   7.618211   2.159938   1.085812
    29  H    9.728153  10.236806   9.397268   2.739108   2.118433
    30  H   10.029272  10.630775   9.915046   3.400566   2.117511
    31  H   10.165085  10.574328   9.690922   2.753887   2.125238
                   16         17         18         19         20
    16  N    0.000000
    17  H    5.059922   0.000000
    18  H    6.385867   2.838385   0.000000
    19  H    9.059708   4.147369   3.534048   0.000000
    20  H    6.230715   3.316892   2.630084   4.884639   0.000000
    21  H    7.398878   3.336730   3.034451   3.732848   1.750121
    22  H    7.693775   5.655738   3.659725   6.231464   2.694633
    23  H   11.117101   7.446996   5.150289   5.290217   5.302719
    24  H    9.621203   5.309365   3.619194   3.036120   3.845207
    25  H    2.709879   2.849170   4.697428   6.923967   4.072258
    26  H    2.840423   2.434339   4.369602   6.419098   4.766640
    27  H    2.106604   4.329038   4.883251   7.832448   5.415280
    28  H    2.116376   4.493094   4.979951   8.104379   4.635377
    29  H    1.022039   5.209163   6.735490   9.299743   6.193935
    30  H    1.021966   5.972403   7.029928   9.881117   6.908802
    31  H    1.021812   5.074999   6.667036   9.075311   6.758293
                   21         22         23         24         25
    21  H    0.000000
    22  H    3.841014   0.000000
    23  H    4.927858   4.168670   0.000000
    24  H    2.866742   4.179913   2.539112   0.000000
    25  H    4.929258   6.196806   9.210515   7.423486   0.000000
    26  H    5.431402   6.769321   9.374262   7.508511   1.764494
    27  H    6.643459   6.516186   9.706536   8.385431   3.079279
    28  H    6.088818   5.684777   9.323720   8.115878   2.556074
    29  H    7.324501   7.798245  11.290596   9.743733   2.514539
    30  H    8.197440   8.093830  11.669252  10.329715   3.659554
    31  H    7.759446   8.383829  11.585824   9.951726   3.014302
                   26         27         28         29         30
    26  H    0.000000
    27  H    2.497176   0.000000
    28  H    3.072839   1.761054   0.000000
    29  H    3.186948   2.969429   2.440106   0.000000
    30  H    3.766165   2.402236   2.413485   1.649686   0.000000
    31  H    2.675798   2.438513   2.980977   1.647683   1.649839
                   31
    31  H    0.000000
 Symmetry turned off by external request.
 Stoichiometry    C9H15N4O3(1+)
 Framework group  C1[X(C9H15N4O3)]
 Deg. of freedom    87
 Full point group                 C1      NOp   1
 Rotational constants (GHZ):      0.8374512      0.2507500      0.1989911
 Standard basis: 6-311G(2df,2pd) (5D, 7F)
   690 basis functions,  1023 primitive gaussians,   785 cartesian basis functions
    60 alpha electrons       60 beta electrons
       nuclear repulsion energy      1112.4129382480 Hartrees.
 NAtoms=   31 NActive=   31 NUniq=   31 SFac= 1.00D+00 NAtFMM=   60 NAOKFM=F Big=F
 Integral buffers will be    131072 words long.
 Raffenetti 2 integral format.
 Two-electron integral symmetry is turned off.
 One-electron integrals computed using PRISM.
 NBasis=   690 RedAO= T EigKep=  2.27D-04  NBF=   690
 NBsUse=   690 1.00D-06 EigRej= -1.00D+00 NBFU=   690
 Initial guess from the checkpoint file:  "conf-719.chk"
 B after Tr=     0.000000    0.000000    0.000000
         Rot=    1.000000    0.000000    0.000000    0.000000 Ang=   0.00 deg.
 Requested convergence on RMS density matrix=1.00D-08 within 128 cycles.
 Requested convergence on MAX density matrix=1.00D-06.
 Requested convergence on             energy=1.00D-06.
 No special actions if energy rises.
 SCF Done:  E(RB3LYP) =  -796.726247522     A.U. after    1 cycles
            NFock=  1  Conv=0.79D-08     -V/T= 2.0037

 **********************************************************************

            Population analysis using the SCF density.

 **********************************************************************

 Alpha  occ. eigenvalues --  -19.28568 -19.23078 -19.22014 -14.63807 -14.46506
 Alpha  occ. eigenvalues --  -14.43319 -14.35061 -10.42048 -10.41312 -10.41095
 Alpha  occ. eigenvalues --  -10.35467 -10.34161 -10.28735 -10.28533 -10.27423
 Alpha  occ. eigenvalues --  -10.24608  -1.23658  -1.20482  -1.17755  -1.14852
 Alpha  occ. eigenvalues --   -1.08433  -1.06064  -0.96576  -0.94014  -0.90598
 Alpha  occ. eigenvalues --   -0.85138  -0.82837  -0.79019  -0.78463  -0.77092
 Alpha  occ. eigenvalues --   -0.74218  -0.71007  -0.69161  -0.68420  -0.66156
 Alpha  occ. eigenvalues --   -0.64961  -0.64506  -0.62584  -0.60982  -0.59734
 Alpha  occ. eigenvalues --   -0.59482  -0.57788  -0.57206  -0.55857  -0.54314
 Alpha  occ. eigenvalues --   -0.53635  -0.53081  -0.51441  -0.50233  -0.49123
 Alpha  occ. eigenvalues --   -0.48182  -0.47891  -0.47362  -0.44810  -0.40780
 Alpha  occ. eigenvalues --   -0.39675  -0.39363  -0.35151  -0.33385  -0.29952
 Alpha virt. eigenvalues --   -0.18911  -0.13151  -0.12338  -0.11448  -0.10695
 Alpha virt. eigenvalues --   -0.10066  -0.07387  -0.06791  -0.05761  -0.05092
 Alpha virt. eigenvalues --   -0.04565  -0.02477  -0.02178  -0.01584  -0.01373
 Alpha virt. eigenvalues --   -0.00652  -0.00037   0.00503   0.02087   0.03241
 Alpha virt. eigenvalues --    0.03613   0.04608   0.06999   0.07655   0.08805
 Alpha virt. eigenvalues --    0.09836   0.11530   0.12027   0.12667   0.12944
 Alpha virt. eigenvalues --    0.13564   0.14721   0.15569   0.16345   0.17168
 Alpha virt. eigenvalues --    0.18820   0.20482   0.21123   0.21980   0.22702
 Alpha virt. eigenvalues --    0.23970   0.24835   0.25442   0.26066   0.26610
 Alpha virt. eigenvalues --    0.28076   0.28771   0.28983   0.29271   0.29877
 Alpha virt. eigenvalues --    0.30067   0.30667   0.30820   0.31104   0.31588
 Alpha virt. eigenvalues --    0.31910   0.32756   0.33048   0.33849   0.35033
 Alpha virt. eigenvalues --    0.35617   0.35907   0.36204   0.36871   0.37174
 Alpha virt. eigenvalues --    0.37822   0.38474   0.39175   0.39289   0.40784
 Alpha virt. eigenvalues --    0.41395   0.43191   0.43582   0.43862   0.45322
 Alpha virt. eigenvalues --    0.45557   0.45745   0.46813   0.47231   0.48366
 Alpha virt. eigenvalues --    0.49127   0.50140   0.50795   0.52385   0.53562
 Alpha virt. eigenvalues --    0.54068   0.55004   0.55359   0.56672   0.57296
 Alpha virt. eigenvalues --    0.57978   0.58089   0.59825   0.61006   0.61397
 Alpha virt. eigenvalues --    0.62300   0.63365   0.64270   0.65085   0.65737
 Alpha virt. eigenvalues --    0.66414   0.67295   0.68291   0.68468   0.68937
 Alpha virt. eigenvalues --    0.70094   0.70295   0.71193   0.72285   0.73288
 Alpha virt. eigenvalues --    0.74802   0.75352   0.76314   0.77933   0.78124
 Alpha virt. eigenvalues --    0.79508   0.80930   0.81788   0.82800   0.84379
 Alpha virt. eigenvalues --    0.84655   0.86202   0.86846   0.87381   0.88096
 Alpha virt. eigenvalues --    0.88579   0.89303   0.90645   0.91090   0.91282
 Alpha virt. eigenvalues --    0.92019   0.92901   0.93454   0.94336   0.94927
 Alpha virt. eigenvalues --    0.95867   0.96033   0.96326   0.97615   0.98751
 Alpha virt. eigenvalues --    0.99819   1.00089   1.00266   1.01562   1.02152
 Alpha virt. eigenvalues --    1.04106   1.04799   1.05727   1.05926   1.07107
 Alpha virt. eigenvalues --    1.08268   1.08777   1.09594   1.10215   1.11032
 Alpha virt. eigenvalues --    1.11322   1.12074   1.13250   1.13385   1.14610
 Alpha virt. eigenvalues --    1.16066   1.16777   1.17473   1.18096   1.18652
 Alpha virt. eigenvalues --    1.19488   1.19837   1.20298   1.21174   1.22085
 Alpha virt. eigenvalues --    1.22738   1.23278   1.23783   1.25300   1.25755
 Alpha virt. eigenvalues --    1.26455   1.27448   1.28006   1.28417   1.29305
 Alpha virt. eigenvalues --    1.29607   1.30315   1.30919   1.32490   1.32754
 Alpha virt. eigenvalues --    1.33355   1.34081   1.34641   1.35986   1.37273
 Alpha virt. eigenvalues --    1.38214   1.38808   1.41409   1.42560   1.43469
 Alpha virt. eigenvalues --    1.45433   1.45614   1.47109   1.47951   1.49045
 Alpha virt. eigenvalues --    1.50143   1.52335   1.53330   1.53921   1.55705
 Alpha virt. eigenvalues --    1.56151   1.58338   1.59355   1.62038   1.62286
 Alpha virt. eigenvalues --    1.63023   1.64315   1.66226   1.66559   1.68450
 Alpha virt. eigenvalues --    1.70343   1.72210   1.74540   1.76830   1.77765
 Alpha virt. eigenvalues --    1.79727   1.83049   1.84581   1.87009   1.90368
 Alpha virt. eigenvalues --    1.92766   1.93450   1.96122   1.98220   1.99417
 Alpha virt. eigenvalues --    2.00731   2.04439   2.05921   2.08160   2.12957
 Alpha virt. eigenvalues --    2.15283   2.16454   2.18961   2.21015   2.22946
 Alpha virt. eigenvalues --    2.25892   2.29570   2.36245   2.37402   2.39541
 Alpha virt. eigenvalues --    2.41614   2.43168   2.46069   2.46887   2.47277
 Alpha virt. eigenvalues --    2.49148   2.50716   2.51431   2.52443   2.52921
 Alpha virt. eigenvalues --    2.54038   2.54609   2.55780   2.56920   2.57335
 Alpha virt. eigenvalues --    2.58949   2.60020   2.60908   2.62283   2.62945
 Alpha virt. eigenvalues --    2.64291   2.65519   2.66361   2.68218   2.69143
 Alpha virt. eigenvalues --    2.71125   2.71606   2.72873   2.74168   2.75172
 Alpha virt. eigenvalues --    2.75750   2.76996   2.77141   2.78054   2.78103
 Alpha virt. eigenvalues --    2.79110   2.80289   2.81380   2.81453   2.81931
 Alpha virt. eigenvalues --    2.82481   2.82879   2.84229   2.85795   2.86330
 Alpha virt. eigenvalues --    2.87071   2.87932   2.88750   2.89260   2.90232
 Alpha virt. eigenvalues --    2.91055   2.92240   2.93052   2.93289   2.94148
 Alpha virt. eigenvalues --    2.95679   2.96192   2.97187   2.98180   2.98283
 Alpha virt. eigenvalues --    2.99094   2.99647   2.99680   3.00237   3.01201
 Alpha virt. eigenvalues --    3.02286   3.03350   3.04278   3.04501   3.04740
 Alpha virt. eigenvalues --    3.06118   3.06725   3.07223   3.07874   3.08063
 Alpha virt. eigenvalues --    3.09905   3.10200   3.10908   3.11293   3.12712
 Alpha virt. eigenvalues --    3.13311   3.14523   3.14841   3.15727   3.16124
 Alpha virt. eigenvalues --    3.16449   3.17186   3.17539   3.18191   3.19290
 Alpha virt. eigenvalues --    3.19888   3.21357   3.23264   3.23317   3.24045
 Alpha virt. eigenvalues --    3.24778   3.25622   3.26462   3.26742   3.27740
 Alpha virt. eigenvalues --    3.28702   3.29175   3.29756   3.30408   3.31258
 Alpha virt. eigenvalues --    3.32365   3.33474   3.34263   3.34330   3.35087
 Alpha virt. eigenvalues --    3.36209   3.36383   3.36939   3.38497   3.38899
 Alpha virt. eigenvalues --    3.39748   3.39884   3.40712   3.41128   3.42367
 Alpha virt. eigenvalues --    3.43436   3.45028   3.45471   3.46159   3.47275
 Alpha virt. eigenvalues --    3.48317   3.49679   3.49904   3.50329   3.50894
 Alpha virt. eigenvalues --    3.52187   3.53942   3.54208   3.54539   3.55487
 Alpha virt. eigenvalues --    3.56656   3.57011   3.58730   3.60163   3.60280
 Alpha virt. eigenvalues --    3.61529   3.61886   3.62508   3.63685   3.64029
 Alpha virt. eigenvalues --    3.65308   3.67097   3.67560   3.68368   3.68783
 Alpha virt. eigenvalues --    3.69672   3.70226   3.71500   3.72047   3.72961
 Alpha virt. eigenvalues --    3.74208   3.74425   3.74833   3.76000   3.77051
 Alpha virt. eigenvalues --    3.79087   3.79652   3.79981   3.80587   3.81943
 Alpha virt. eigenvalues --    3.82841   3.83218   3.83843   3.85011   3.85200
 Alpha virt. eigenvalues --    3.86473   3.87270   3.88239   3.88698   3.89097
 Alpha virt. eigenvalues --    3.89511   3.91676   3.92115   3.92339   3.93225
 Alpha virt. eigenvalues --    3.94765   3.95835   3.96237   3.97801   3.98760
 Alpha virt. eigenvalues --    3.99253   4.00383   4.01589   4.02320   4.03143
 Alpha virt. eigenvalues --    4.04293   4.05212   4.05779   4.07823   4.09066
 Alpha virt. eigenvalues --    4.10087   4.11053   4.11706   4.12644   4.14061
 Alpha virt. eigenvalues --    4.15132   4.15874   4.16495   4.17079   4.20856
 Alpha virt. eigenvalues --    4.22135   4.23751   4.24825   4.26180   4.26570
 Alpha virt. eigenvalues --    4.29742   4.30583   4.30800   4.33870   4.35434
 Alpha virt. eigenvalues --    4.37249   4.37748   4.39872   4.41642   4.42963
 Alpha virt. eigenvalues --    4.44406   4.44905   4.46550   4.47155   4.49587
 Alpha virt. eigenvalues --    4.50510   4.51887   4.52753   4.55624   4.57030
 Alpha virt. eigenvalues --    4.58289   4.59418   4.66047   4.66418   4.66843
 Alpha virt. eigenvalues --    4.68569   4.69304   4.71109   4.72843   4.73850
 Alpha virt. eigenvalues --    4.74753   4.75725   4.77102   4.77738   4.78401
 Alpha virt. eigenvalues --    4.79276   4.80301   4.82385   4.85231   4.85764
 Alpha virt. eigenvalues --    4.87000   4.87820   4.88783   4.89988   4.90464
 Alpha virt. eigenvalues --    4.91079   4.92650   4.92863   4.95037   4.95451
 Alpha virt. eigenvalues --    4.96219   4.96718   4.97197   4.98503   4.99555
 Alpha virt. eigenvalues --    5.00073   5.00504   5.01503   5.01822   5.02850
 Alpha virt. eigenvalues --    5.03558   5.05115   5.06247   5.07220   5.08005
 Alpha virt. eigenvalues --    5.08640   5.09726   5.10510   5.13593   5.15086
 Alpha virt. eigenvalues --    5.15754   5.17047   5.19250   5.20594   5.22084
 Alpha virt. eigenvalues --    5.22862   5.23361   5.23842   5.26315   5.26512
 Alpha virt. eigenvalues --    5.29139   5.29996   5.31435   5.32498   5.32902
 Alpha virt. eigenvalues --    5.35707   5.36436   5.37135   5.38229   5.39037
 Alpha virt. eigenvalues --    5.40770   5.41375   5.43077   5.44383   5.44882
 Alpha virt. eigenvalues --    5.47019   5.49488   5.51857   5.54363   5.55306
 Alpha virt. eigenvalues --    5.58031   5.64496   5.66079   5.67320   5.69631
 Alpha virt. eigenvalues --    5.71251   5.75225   5.79062   5.79602   5.80544
 Alpha virt. eigenvalues --    5.80793   5.81237   5.83269   5.85638   5.88043
 Alpha virt. eigenvalues --    5.89727   5.96839   5.97267   5.98308   6.07197
 Alpha virt. eigenvalues --    6.11923   6.12820   6.13713   6.18507   6.19753
 Alpha virt. eigenvalues --    6.23181   6.25491   6.30198   6.32591   6.33538
 Alpha virt. eigenvalues --    6.37233   6.41242   6.47654   6.58802   6.66241
 Alpha virt. eigenvalues --    6.69896   6.79977   6.80955   6.84449   6.85960
 Alpha virt. eigenvalues --    6.86823   6.91971   6.93373   6.94352   6.97571
 Alpha virt. eigenvalues --    7.04905   7.06637   7.10218   7.11441   7.14996
 Alpha virt. eigenvalues --    7.15622   7.17343   7.35878   7.42033   7.43304
 Alpha virt. eigenvalues --    7.46301   7.52373   7.57298   7.87025  24.37397
 Alpha virt. eigenvalues --   24.53661  24.61043  24.69721  24.78473  24.87070
 Alpha virt. eigenvalues --   24.88360  24.94687  25.02224  35.91944  36.10874
 Alpha virt. eigenvalues --   36.18102  36.33641  50.08785  50.10781  50.17542
          Condensed to atoms (all electrons):
               1          2          3          4          5          6
     1  O    7.868831   0.674032  -0.095197  -0.014296  -0.000019   0.000000
     2  C    0.674032   4.238296   0.471918  -0.063497   0.002375  -0.000143
     3  N   -0.095197   0.471918   6.552691   0.242003  -0.017912   0.000681
     4  C   -0.014296  -0.063497   0.242003   5.128199   0.293088  -0.086178
     5  C   -0.000019   0.002375  -0.017912   0.293088   4.199637   0.393925
     6  O    0.000000  -0.000143   0.000681  -0.086178   0.393925   7.788675
     7  O   -0.000007  -0.001715  -0.034107  -0.078499   0.702443  -0.080806
     8  C    0.002889  -0.002860  -0.030383   0.315156  -0.059056   0.007318
     9  C   -0.002733   0.001270   0.004707  -0.110126   0.008215   0.000238
    10  C    0.000783   0.000039  -0.000239  -0.005217   0.000085  -0.000016
    11  N    0.000002   0.000001   0.000000  -0.000160   0.000004  -0.000009
    12  C    0.000000   0.000000   0.000000   0.000414   0.000004  -0.000466
    13  N    0.000004   0.000006   0.000066   0.005070  -0.001246  -0.007180
    14  C   -0.089976   0.296390  -0.056288   0.002765   0.000125  -0.000001
    15  C    0.003445  -0.063663  -0.000174  -0.000368  -0.000004   0.000000
    16  N    0.000812  -0.001189   0.000029  -0.000001   0.000000   0.000000
    17  H    0.003718  -0.025806   0.334071  -0.031876  -0.018387   0.001795
    18  H    0.015704  -0.003387  -0.041309   0.371025  -0.016769   0.003949
    19  H    0.000001   0.000055  -0.000072   0.016769  -0.043720   0.305827
    20  H    0.005810   0.004856  -0.007668  -0.032344   0.001810   0.000086
    21  H    0.000070   0.000370   0.006211  -0.064672   0.003088   0.000391
    22  H    0.001363   0.000022  -0.000047  -0.000178   0.000005  -0.000002
    23  H    0.000000   0.000000   0.000000   0.000009   0.000002  -0.000021
    24  H    0.000000   0.000004   0.000015  -0.001695   0.000355   0.018567
    25  H   -0.000175  -0.013988   0.001434   0.000086  -0.000015   0.000000
    26  H    0.002172  -0.012247   0.003537   0.000462   0.000039  -0.000001
    27  H    0.003964   0.004754   0.000172   0.000038   0.000000   0.000000
    28  H    0.027316   0.001607   0.001218   0.000092   0.000001   0.000000
    29  H    0.000040   0.000276  -0.000003   0.000001   0.000000   0.000000
    30  H    0.000015  -0.000264   0.000001   0.000000   0.000000   0.000000
    31  H    0.000021   0.000051  -0.000004   0.000000   0.000000   0.000000
               7          8          9         10         11         12
     1  O   -0.000007   0.002889  -0.002733   0.000783   0.000002   0.000000
     2  C   -0.001715  -0.002860   0.001270   0.000039   0.000001   0.000000
     3  N   -0.034107  -0.030383   0.004707  -0.000239   0.000000   0.000000
     4  C   -0.078499   0.315156  -0.110126  -0.005217  -0.000160   0.000414
     5  C    0.702443  -0.059056   0.008215   0.000085   0.000004   0.000004
     6  O   -0.080806   0.007318   0.000238  -0.000016  -0.000009  -0.000466
     7  O    7.791235  -0.002291   0.000484  -0.000002   0.000000   0.000000
     8  C   -0.002291   4.974145   0.181760  -0.034104   0.010295  -0.003051
     9  C    0.000484   0.181760   5.266611   0.491332  -0.053663  -0.124149
    10  C   -0.000002  -0.034104   0.491332   4.696543   0.477706  -0.154377
    11  N    0.000000   0.010295  -0.053663   0.477706   6.489919   0.582112
    12  C    0.000000  -0.003051  -0.124149  -0.154377   0.582112   4.569828
    13  N   -0.000011  -0.043527   0.349595  -0.037297  -0.136469   0.483372
    14  C   -0.000443  -0.000149  -0.000065   0.000010   0.000000   0.000000
    15  C   -0.000003  -0.000008   0.000006   0.000000   0.000000   0.000000
    16  N    0.000000   0.000000   0.000000   0.000000   0.000000   0.000000
    17  H    0.054088   0.002738  -0.000243   0.000008   0.000000   0.000001
    18  H    0.001149  -0.070413   0.025707   0.005254  -0.000279  -0.000101
    19  H    0.010652  -0.000409  -0.000249  -0.000009   0.000002   0.000017
    20  H   -0.000297   0.406921  -0.032997  -0.007816   0.000635  -0.000457
    21  H    0.001416   0.364652  -0.009522   0.002778  -0.000641   0.000796
    22  H    0.000000  -0.000861  -0.056832   0.435028  -0.018762   0.006310
    23  H    0.000000  -0.000277   0.005668   0.003406  -0.015802   0.425615
    24  H    0.000033   0.004914  -0.030957   0.004059   0.006507  -0.027045
    25  H   -0.000019   0.000125   0.000007   0.000000   0.000000   0.000000
    26  H   -0.000070   0.000009  -0.000005   0.000000   0.000000   0.000000
    27  H    0.000000   0.000002   0.000001   0.000000   0.000000   0.000000
    28  H    0.000000  -0.000026   0.000000  -0.000002   0.000000   0.000000
    29  H    0.000000   0.000000   0.000000   0.000000   0.000000   0.000000
    30  H    0.000000   0.000000   0.000000   0.000000   0.000000   0.000000
    31  H    0.000000   0.000000   0.000000   0.000000   0.000000   0.000000
              13         14         15         16         17         18
     1  O    0.000004  -0.089976   0.003445   0.000812   0.003718   0.015704
     2  C    0.000006   0.296390  -0.063663  -0.001189  -0.025806  -0.003387
     3  N    0.000066  -0.056288  -0.000174   0.000029   0.334071  -0.041309
     4  C    0.005070   0.002765  -0.000368  -0.000001  -0.031876   0.371025
     5  C   -0.001246   0.000125  -0.000004   0.000000  -0.018387  -0.016769
     6  O   -0.007180  -0.000001   0.000000   0.000000   0.001795   0.003949
     7  O   -0.000011  -0.000443  -0.000003   0.000000   0.054088   0.001149
     8  C   -0.043527  -0.000149  -0.000008   0.000000   0.002738  -0.070413
     9  C    0.349595  -0.000065   0.000006   0.000000  -0.000243   0.025707
    10  C   -0.037297   0.000010   0.000000   0.000000   0.000008   0.005254
    11  N   -0.136469   0.000000   0.000000   0.000000   0.000000  -0.000279
    12  C    0.483372   0.000000   0.000000   0.000000   0.000001  -0.000101
    13  N    6.267785   0.000000   0.000000   0.000000   0.000008   0.000334
    14  C    0.000000   5.007330   0.286958  -0.015543  -0.003494   0.001821
    15  C    0.000000   0.286958   4.768987   0.179623  -0.000560   0.000152
    16  N    0.000000  -0.015543   0.179623   5.696476  -0.000040   0.000000
    17  H    0.000008  -0.003494  -0.000560  -0.000040   0.569711   0.005437
    18  H    0.000334   0.001821   0.000152   0.000000   0.005437   0.658173
    19  H    0.000466   0.000001   0.000000   0.000000  -0.000513  -0.000607
    20  H    0.003146   0.000121   0.000000   0.000000  -0.000643  -0.003574
    21  H    0.000606   0.000072   0.000004   0.000000   0.000716   0.010335
    22  H    0.004256   0.000018  -0.000001   0.000000  -0.000002   0.000360
    23  H   -0.037305   0.000000   0.000000   0.000000   0.000000   0.000005
    24  H    0.373965   0.000000   0.000000   0.000000  -0.000020   0.000044
    25  H    0.000000   0.385318  -0.035108   0.000265   0.000312   0.000007
    26  H    0.000000   0.387021  -0.032314  -0.000147  -0.000614  -0.000504
    27  H    0.000000  -0.036865   0.411953  -0.023710  -0.000036   0.000010
    28  H    0.000000  -0.042752   0.399428  -0.020500  -0.000159  -0.000105
    29  H    0.000000   0.000741  -0.027293   0.356628   0.000002  -0.000001
    30  H    0.000000   0.002127  -0.016080   0.378360   0.000000   0.000000
    31  H    0.000000  -0.000428  -0.023107   0.355625   0.000010   0.000000
              19         20         21         22         23         24
     1  O    0.000001   0.005810   0.000070   0.001363   0.000000   0.000000
     2  C    0.000055   0.004856   0.000370   0.000022   0.000000   0.000004
     3  N   -0.000072  -0.007668   0.006211  -0.000047   0.000000   0.000015
     4  C    0.016769  -0.032344  -0.064672  -0.000178   0.000009  -0.001695
     5  C   -0.043720   0.001810   0.003088   0.000005   0.000002   0.000355
     6  O    0.305827   0.000086   0.000391  -0.000002  -0.000021   0.018567
     7  O    0.010652  -0.000297   0.001416   0.000000   0.000000   0.000033
     8  C   -0.000409   0.406921   0.364652  -0.000861  -0.000277   0.004914
     9  C   -0.000249  -0.032997  -0.009522  -0.056832   0.005668  -0.030957
    10  C   -0.000009  -0.007816   0.002778   0.435028   0.003406   0.004059
    11  N    0.000002   0.000635  -0.000641  -0.018762  -0.015802   0.006507
    12  C    0.000017  -0.000457   0.000796   0.006310   0.425615  -0.027045
    13  N    0.000466   0.003146   0.000606   0.004256  -0.037305   0.373965
    14  C    0.000001   0.000121   0.000072   0.000018   0.000000   0.000000
    15  C    0.000000   0.000000   0.000004  -0.000001   0.000000   0.000000
    16  N    0.000000   0.000000   0.000000   0.000000   0.000000   0.000000
    17  H   -0.000513  -0.000643   0.000716  -0.000002   0.000000  -0.000020
    18  H   -0.000607  -0.003574   0.010335   0.000360   0.000005   0.000044
    19  H    0.469311   0.000071  -0.000251   0.000000   0.000003  -0.001088
    20  H    0.000071   0.676106  -0.039918   0.002129   0.000021  -0.000086
    21  H   -0.000251  -0.039918   0.696762   0.000085  -0.000015   0.001133
    22  H    0.000000   0.002129   0.000085   0.615656  -0.000408  -0.000469
    23  H    0.000003   0.000021  -0.000015  -0.000408   0.591445  -0.001505
    24  H   -0.001088  -0.000086   0.001133  -0.000469  -0.001505   0.553600
    25  H    0.000000  -0.000153   0.000000  -0.000002   0.000000   0.000000
    26  H    0.000000   0.000067  -0.000024   0.000000   0.000000   0.000000
    27  H    0.000000  -0.000009   0.000000   0.000000   0.000000   0.000000
    28  H    0.000000   0.000080  -0.000003   0.000000   0.000000   0.000000
    29  H    0.000000   0.000000   0.000000   0.000000   0.000000   0.000000
    30  H    0.000000   0.000000   0.000000   0.000000   0.000000   0.000000
    31  H    0.000000   0.000000   0.000000   0.000000   0.000000   0.000000
              25         26         27         28         29         30
     1  O   -0.000175   0.002172   0.003964   0.027316   0.000040   0.000015
     2  C   -0.013988  -0.012247   0.004754   0.001607   0.000276  -0.000264
     3  N    0.001434   0.003537   0.000172   0.001218  -0.000003   0.000001
     4  C    0.000086   0.000462   0.000038   0.000092   0.000001   0.000000
     5  C   -0.000015   0.000039   0.000000   0.000001   0.000000   0.000000
     6  O    0.000000  -0.000001   0.000000   0.000000   0.000000   0.000000
     7  O   -0.000019  -0.000070   0.000000   0.000000   0.000000   0.000000
     8  C    0.000125   0.000009   0.000002  -0.000026   0.000000   0.000000
     9  C    0.000007  -0.000005   0.000001   0.000000   0.000000   0.000000
    10  C    0.000000   0.000000   0.000000  -0.000002   0.000000   0.000000
    11  N    0.000000   0.000000   0.000000   0.000000   0.000000   0.000000
    12  C    0.000000   0.000000   0.000000   0.000000   0.000000   0.000000
    13  N    0.000000   0.000000   0.000000   0.000000   0.000000   0.000000
    14  C    0.385318   0.387021  -0.036865  -0.042752   0.000741   0.002127
    15  C   -0.035108  -0.032314   0.411953   0.399428  -0.027293  -0.016080
    16  N    0.000265  -0.000147  -0.023710  -0.020500   0.356628   0.378360
    17  H    0.000312  -0.000614  -0.000036  -0.000159   0.000002   0.000000
    18  H    0.000007  -0.000504   0.000010  -0.000105  -0.000001   0.000000
    19  H    0.000000   0.000000   0.000000   0.000000   0.000000   0.000000
    20  H   -0.000153   0.000067  -0.000009   0.000080   0.000000   0.000000
    21  H    0.000000  -0.000024   0.000000  -0.000003   0.000000   0.000000
    22  H   -0.000002   0.000000   0.000000   0.000000   0.000000   0.000000
    23  H    0.000000   0.000000   0.000000   0.000000   0.000000   0.000000
    24  H    0.000000   0.000000   0.000000   0.000000   0.000000   0.000000
    25  H    0.644883  -0.039190   0.005872  -0.004371   0.004310   0.000142
    26  H   -0.039190   0.638393  -0.006255   0.007158  -0.000666  -0.000065
    27  H    0.005872  -0.006255   0.590221  -0.030026   0.005455  -0.002610
    28  H   -0.004371   0.007158  -0.030026   0.574580  -0.004057  -0.002581
    29  H    0.004310  -0.000666   0.005455  -0.004057   0.553422  -0.023429
    30  H    0.000142  -0.000065  -0.002610  -0.002581  -0.023429   0.541287
    31  H   -0.001108   0.003066  -0.005151   0.004521  -0.025713  -0.024626
              31
     1  O    0.000021
     2  C    0.000051
     3  N   -0.000004
     4  C    0.000000
     5  C    0.000000
     6  O    0.000000
     7  O    0.000000
     8  C    0.000000
     9  C    0.000000
    10  C    0.000000
    11  N    0.000000
    12  C    0.000000
    13  N    0.000000
    14  C   -0.000428
    15  C   -0.023107
    16  N    0.355625
    17  H    0.000010
    18  H    0.000000
    19  H    0.000000
    20  H    0.000000
    21  H    0.000000
    22  H    0.000000
    23  H    0.000000
    24  H    0.000000
    25  H   -0.001108
    26  H    0.003066
    27  H   -0.005151
    28  H    0.004521
    29  H   -0.025713
    30  H   -0.024626
    31  H    0.558884
 Mulliken charges:
               1
     1  O   -0.408587
     2  C    0.492438
     3  N   -0.335352
     4  C    0.113930
     5  C    0.551929
     6  O   -0.346629
     7  O   -0.363229
     8  C   -0.023507
     9  C    0.085942
    10  C    0.122048
    11  N   -0.341396
    12  C    0.241177
    13  N   -0.225640
    14  C   -0.124813
    15  C    0.148128
    16  N    0.093313
    17  H    0.109777
    18  H    0.037585
    19  H    0.243744
    20  H    0.024103
    21  H    0.025562
    22  H    0.012332
    23  H    0.029159
    24  H    0.099670
    25  H    0.051366
    26  H    0.050179
    27  H    0.082221
    28  H    0.088583
    29  H    0.160287
    30  H    0.147725
    31  H    0.157958
 Sum of Mulliken charges =   1.00000
 Mulliken charges with hydrogens summed into heavy atoms:
               1
     1  O   -0.408587
     2  C    0.492438
     3  N   -0.225574
     4  C    0.151515
     5  C    0.551929
     6  O   -0.102885
     7  O   -0.363229
     8  C    0.026157
     9  C    0.085942
    10  C    0.134379
    11  N   -0.341396
    12  C    0.270336
    13  N   -0.125970
    14  C   -0.023268
    15  C    0.318931
    16  N    0.559283
 Electronic spatial extent (au):  <R**2>=           5328.1090
 Charge=              1.0000 electrons
 Dipole moment (field-independent basis, Debye):
    X=            -19.5206    Y=              2.5229    Z=             -1.8124  Tot=             19.7663
 Quadrupole moment (field-independent basis, Debye-Ang):
   XX=             30.5543   YY=            -88.1840   ZZ=            -89.3194
   XY=             -2.7017   XZ=            -43.2638   YZ=              2.5529
 Traceless Quadrupole moment (field-independent basis, Debye-Ang):
   XX=             79.5373   YY=            -39.2010   ZZ=            -40.3363
   XY=             -2.7017   XZ=            -43.2638   YZ=              2.5529
 Octapole moment (field-independent basis, Debye-Ang**2):
  XXX=           -705.4187  YYY=             16.3044  ZZZ=              2.8582  XYY=            -81.7896
  XXY=             68.8048  XXZ=             29.3460  XZZ=            -95.0202  YZZ=             12.6698
  YYZ=              1.1798  XYZ=             -6.7455
 Hexadecapole moment (field-independent basis, Debye-Ang**3):
 XXXX=          -1511.5301 YYYY=           -440.4291 ZZZZ=          -1251.7872 XXXY=            183.9021
 XXXZ=           -914.7742 YYYX=            351.0219 YYYZ=            186.9737 ZZZX=           -172.5663
 ZZZY=            189.1636 XXYY=           -860.7620 XXZZ=           -877.6292 YYZZ=           -269.4917
 XXYZ=            131.4241 YYXZ=            -23.9073 ZZXY=            162.8285
 N-N= 1.112412938248D+03 E-N=-4.072311802979D+03  KE= 7.937802037786D+02
 Calling FoFJK, ICntrl=      2127 FMM=F ISym2X=0 I1Cent= 0 IOpClX= 0 NMat=1 NMatS=1 NMatT=0.
 -------------------------------------------------------------------
 Center     Atomic                   Forces (Hartrees/Bohr)
 Number     Number              X              Y              Z
 -------------------------------------------------------------------
      1        8          -0.000209383    0.000035532   -0.000468786
      2        6           0.000128380   -0.000117007    0.000335296
      3        7           0.000027476    0.000237177    0.000067358
      4        6           0.000463670   -0.000470829    0.001399758
      5        6           0.009681861   -0.003730482    0.014570836
      6        8           0.004342155    0.000236852    0.000683110
      7        8          -0.014218011    0.004017238   -0.017227059
      8        6          -0.000167280   -0.000011941    0.000092643
      9        6          -0.000054958    0.000342031    0.000083881
     10        6          -0.000008547    0.000016056   -0.000016954
     11        7           0.000010614    0.000029789    0.000038805
     12        6          -0.000016680    0.000114038    0.000004393
     13        7           0.000028316   -0.000619957   -0.000093208
     14        6           0.000010797    0.000018106    0.000045732
     15        6           0.000003757   -0.000007422   -0.000005986
     16        7          -0.000012418    0.000030680   -0.000008171
     17        1          -0.000071192   -0.000155424    0.000211161
     18        1          -0.000045653   -0.000033273    0.000028453
     19        1           0.000057905   -0.000105404    0.000319583
     20        1           0.000011788   -0.000103731   -0.000035035
     21        1           0.000084117    0.000009836   -0.000044787
     22        1          -0.000002199    0.000003485   -0.000000167
     23        1           0.000008617   -0.000061367   -0.000012234
     24        1          -0.000061700    0.000378554   -0.000002465
     25        1           0.000031647   -0.000012206    0.000005495
     26        1          -0.000035623   -0.000002040    0.000005925
     27        1           0.000037396   -0.000012041    0.000021180
     28        1          -0.000025308   -0.000025354   -0.000007326
     29        1           0.000000725    0.000001019    0.000001128
     30        1          -0.000001014   -0.000000046    0.000001469
     31        1           0.000000741   -0.000001870    0.000005975
 -------------------------------------------------------------------
 Cartesian Forces:  Max     0.017227059 RMS     0.003037788

 GradGradGradGradGradGradGradGradGradGradGradGradGradGradGradGradGradGrad
 Berny optimization.
 FormGI is forming the generalized inverse of G from B-inverse, IUseBI=4.
 Internal  Forces:  Max     0.022690806 RMS     0.001860813
 Search for a local minimum.
 Step number   1 out of a maximum of  167
 All quantities printed in internal units (Hartrees-Bohrs-Radians)
 Mixed Optimization -- RFO/linear search
 Second derivative matrix not updated -- first step.
 ITU=  0
     Eigenvalues ---  -47.36393  -0.00023   0.00000   0.00000   0.00000
     Eigenvalues ---    0.00202   0.00258   0.00347   0.00461   0.00588
     Eigenvalues ---    0.00742   0.00883   0.01759   0.02024   0.02168
     Eigenvalues ---    0.02323   0.03019   0.03750   0.03937   0.03995
     Eigenvalues ---    0.04152   0.04336   0.04592   0.04843   0.04865
     Eigenvalues ---    0.04950   0.05259   0.05506   0.05648   0.06135
     Eigenvalues ---    0.06324   0.06418   0.07768   0.08369   0.10261
     Eigenvalues ---    0.10504   0.11090   0.11704   0.11950   0.12524
     Eigenvalues ---    0.12607   0.12811   0.13310   0.15413   0.16135
     Eigenvalues ---    0.16921   0.17840   0.18320   0.19463   0.19799
     Eigenvalues ---    0.21799   0.22329   0.22923   0.23688   0.24365
     Eigenvalues ---    0.24640   0.26181   0.27297   0.28466   0.31844
     Eigenvalues ---    0.32211   0.32760   0.33300   0.33558   0.34313
     Eigenvalues ---    0.34754   0.34847   0.35036   0.36458   0.37234
     Eigenvalues ---    0.37883   0.38912   0.39912   0.40436   0.42159
     Eigenvalues ---    0.42709   0.42740   0.44165   0.44991   0.45868
     Eigenvalues ---    0.47036   0.49998   0.51598   0.52863   0.64364
     Eigenvalues ---    0.83468   0.84044
 RFO step:  Lambda=-4.73639289D+01 EMin=-4.73639289D+01
 I=     1 Eig=   -4.74D+01 Dot1= -1.16D-04
 I=     1 Stepn= -6.00D-01 RXN=   6.00D-01 EDone=F
 I=     2 Eig=   -2.29D-04 Dot1= -1.71D-05
 I=     2 Stepn= -3.00D-01 RXN=   6.71D-01 EDone=F
 Mixed    2 eigenvectors in step.  Raw Step.Grad=  1.33D-04.
 RFO eigenvector is Hessian eigenvector with negative curvature.
 Taking step of  6.00D-01 in eigenvector direction(s).  Step.Grad= -5.57D-04.
 Linear search not attempted -- first point.
 Maximum step size (   0.300) exceeded in Quadratic search.
    -- Step size not scaled.
 Iteration  1 RMS(Cart)=  0.21108584 RMS(Int)=  0.01381070
 Iteration  2 RMS(Cart)=  0.04091804 RMS(Int)=  0.00128701
 Iteration  3 RMS(Cart)=  0.00087821 RMS(Int)=  0.00123781
 Iteration  4 RMS(Cart)=  0.00000303 RMS(Int)=  0.00123781
 Iteration  5 RMS(Cart)=  0.00000002 RMS(Int)=  0.00123781
 Variable       Old X    -DE/DX   Delta X   Delta X   Delta X     New X
                                 (Linear)    (Quad)   (Total)
    R1        2.30420  -0.00051   0.00000  -0.01962  -0.01962   2.28458
    R2        2.53528  -0.00001   0.00000  -0.03949  -0.03949   2.49579
    R3        2.91461  -0.00002   0.00000   0.01172   0.01172   2.92633
    R4        2.75476   0.00010   0.00000  -0.00196  -0.00196   2.75280
    R5        1.91129  -0.00019   0.00000  -0.02332  -0.02332   1.88797
    R6        2.87316   0.00157   0.00000  -0.02751  -0.02751   2.84564
    R7        2.95413  -0.00015   0.00000  -0.01691  -0.01691   2.93722
    R8        2.06245  -0.00001   0.00000  -0.01717  -0.01717   2.04528
    R9        2.52588   0.00433   0.00000  -0.01666  -0.01666   2.50922
   R10        2.25116   0.02269   0.00000   0.00245   0.00245   2.25361
   R11        1.83301  -0.00032   0.00000  -0.00912  -0.00912   1.82388
   R12        2.81518  -0.00007   0.00000  -0.04161  -0.04161   2.77357
   R13        2.05590   0.00002   0.00000  -0.01299  -0.01299   2.04291
   R14        2.06572   0.00004   0.00000  -0.02175  -0.02175   2.04396
   R15        2.59163  -0.00002   0.00000  -0.03633  -0.03637   2.55526
   R16        2.60755  -0.00005   0.00000  -0.01209  -0.01213   2.59542
   R17        2.58903   0.00002   0.00000  -0.00356  -0.00355   2.58548
   R18        2.03652   0.00000   0.00000  -0.01640  -0.01640   2.02011
   R19        2.47488   0.00003   0.00000  -0.03931  -0.03926   2.43562
   R20        2.57254   0.00001   0.00000  -0.01605  -0.01602   2.55652
   R21        2.03614   0.00000   0.00000  -0.01537  -0.01537   2.02076
   R22        1.89839   0.00007   0.00000  -0.04876  -0.04876   1.84963
   R23        2.86869   0.00000   0.00000   0.05237   0.05237   2.92106
   R24        2.06752   0.00000   0.00000  -0.08789  -0.08789   1.97962
   R25        2.06314   0.00000   0.00000  -0.01788  -0.01788   2.04527
   R26        2.87863   0.00001   0.00000  -0.00159  -0.00159   2.87704
   R27        2.05379   0.00000   0.00000  -0.05168  -0.05168   2.00211
   R28        2.05189   0.00000   0.00000   0.18317   0.18317   2.23506
   R29        1.93137   0.00000   0.00000  -0.01579  -0.01579   1.91558
   R30        1.93124   0.00000   0.00000  -0.01800  -0.01800   1.91324
   R31        1.93094  -0.00001   0.00000  -0.03101  -0.03101   1.89994
    A1        2.17892   0.00000   0.00000   0.08183   0.08174   2.26066
    A2        2.08933  -0.00010   0.00000  -0.23500  -0.23501   1.85432
    A3        2.01472   0.00011   0.00000   0.15279   0.15276   2.16748
    A4        2.13609   0.00000   0.00000   0.00560   0.00556   2.14165
    A5        2.12361  -0.00013   0.00000   0.00246   0.00241   2.12602
    A6        2.00750   0.00014   0.00000  -0.01095  -0.01099   1.99651
    A7        1.83962   0.00031   0.00000   0.03129   0.03123   1.87085
    A8        1.96041  -0.00009   0.00000  -0.00062  -0.00038   1.96003
    A9        1.90489  -0.00008   0.00000  -0.01492  -0.01515   1.88975
   A10        1.97666  -0.00020   0.00000  -0.03570  -0.03563   1.94102
   A11        1.90226   0.00002   0.00000   0.01479   0.01476   1.91703
   A12        1.87878   0.00004   0.00000   0.00575   0.00579   1.88457
   A13        1.97263  -0.00201   0.00000  -0.01975  -0.01980   1.95283
   A14        2.15998   0.00054   0.00000   0.00777   0.00772   2.16770
   A15        2.15047   0.00147   0.00000   0.01223   0.01217   2.16265
   A16        1.87650   0.00024   0.00000  -0.08255  -0.08255   1.79395
   A17        2.01992  -0.00024   0.00000  -0.06116  -0.06109   1.95884
   A18        1.84850   0.00016   0.00000   0.03934   0.03985   1.88835
   A19        1.90702   0.00005   0.00000  -0.01694  -0.01683   1.89019
   A20        1.86134   0.00005   0.00000   0.01410   0.01461   1.87595
   A21        1.95422   0.00004   0.00000   0.03658   0.03540   1.98962
   A22        1.86266  -0.00004   0.00000  -0.00677  -0.00699   1.85567
   A23        2.26924   0.00010   0.00000   0.01196   0.01192   2.28116
   A24        2.19009  -0.00014   0.00000  -0.01340  -0.01344   2.17664
   A25        1.82372   0.00004   0.00000   0.00168   0.00166   1.82538
   A26        1.93906  -0.00002   0.00000  -0.00931  -0.00938   1.92968
   A27        2.22062   0.00001   0.00000   0.00159   0.00144   2.22206
   A28        2.12348   0.00001   0.00000   0.00757   0.00742   2.13090
   A29        1.83776  -0.00002   0.00000   0.01360   0.01381   1.85156
   A30        1.94964   0.00000   0.00000  -0.00970  -0.00997   1.93967
   A31        2.19843   0.00000   0.00000   0.00386   0.00335   2.20178
   A32        2.13511   0.00000   0.00000   0.00586   0.00534   2.14046
   A33        1.87460  -0.00001   0.00000   0.00377   0.00385   1.87845
   A34        2.19766  -0.00002   0.00000  -0.02673  -0.02678   2.17089
   A35        2.20970   0.00002   0.00000   0.02274   0.02270   2.23240
   A36        1.87596  -0.00004   0.00000  -0.00254  -0.00275   1.87321
   A37        1.88871   0.00001   0.00000  -0.04379  -0.04363   1.84508
   A38        1.93361   0.00001   0.00000   0.03080   0.03075   1.96437
   A39        1.93550   0.00001   0.00000   0.01528   0.01500   1.95050
   A40        1.95071   0.00001   0.00000   0.00908   0.00877   1.95948
   A41        1.87890   0.00000   0.00000  -0.01010  -0.00991   1.86899
   A42        1.94091   0.00002   0.00000   0.21402   0.21830   2.15922
   A43        1.96211  -0.00001   0.00000  -0.07470  -0.07839   1.88372
   A44        1.93747  -0.00001   0.00000  -0.11903  -0.11279   1.82468
   A45        1.85743   0.00000   0.00000  -0.03207  -0.03130   1.82613
   A46        1.87143   0.00000   0.00000  -0.11265  -0.10418   1.76725
   A47        1.89022   0.00000   0.00000   0.12507   0.12019   2.01041
   A48        1.93968   0.00000   0.00000   0.05752   0.05766   1.99734
   A49        1.93841   0.00000   0.00000   0.01955   0.01913   1.95754
   A50        1.94989   0.00000   0.00000  -0.07765  -0.07694   1.87295
   A51        1.87840   0.00000   0.00000  -0.03410  -0.03490   1.84350
   A52        1.87529   0.00000   0.00000   0.01046   0.01166   1.88694
   A53        1.87895   0.00000   0.00000   0.02429   0.02437   1.90332
    D1       -0.06918   0.00004   0.00000  -0.00475  -0.00549  -0.07467
    D2       -3.01002  -0.00007   0.00000   0.01446   0.01378  -2.99624
    D3        3.09510   0.00003   0.00000   0.01778   0.01846   3.11355
    D4        0.15425  -0.00008   0.00000   0.03699   0.03773   0.19198
    D5        0.26669  -0.00002   0.00000  -0.03867  -0.03921   0.22748
    D6       -1.82463  -0.00002   0.00000  -0.03124  -0.03207  -1.85670
    D7        2.40254  -0.00003   0.00000  -0.01022  -0.01060   2.39193
    D8       -2.89633  -0.00002   0.00000  -0.05586  -0.05523  -2.95157
    D9        1.29553  -0.00001   0.00000  -0.04843  -0.04809   1.24744
   D10       -0.76049  -0.00002   0.00000  -0.02742  -0.02663  -0.78712
   D11       -2.78867  -0.00014   0.00000   0.00332   0.00339  -2.78528
   D12        1.33438  -0.00004   0.00000   0.02673   0.02672   1.36110
   D13       -0.74782   0.00001   0.00000   0.02986   0.02973  -0.71809
   D14        0.16453  -0.00006   0.00000  -0.01341  -0.01330   0.15124
   D15       -1.99560   0.00003   0.00000   0.00999   0.01003  -1.98557
   D16        2.20539   0.00009   0.00000   0.01313   0.01305   2.21843
   D17        3.09059   0.00007   0.00000   0.00865   0.00894   3.09953
   D18       -0.06550   0.00007   0.00000   0.02735   0.02762  -0.03787
   D19       -1.04278   0.00005   0.00000   0.00779   0.00772  -1.03506
   D20        2.08431   0.00005   0.00000   0.02649   0.02640   2.11072
   D21        1.04795  -0.00001   0.00000   0.00235   0.00216   1.05011
   D22       -2.10814  -0.00001   0.00000   0.02105   0.02084  -2.08730
   D23       -2.61461   0.00009   0.00000   0.03492   0.03555  -2.57905
   D24       -0.55669   0.00012   0.00000   0.04462   0.04454  -0.51215
   D25        1.44379   0.00018   0.00000   0.04901   0.04862   1.49241
   D26        1.58690  -0.00011   0.00000   0.02009   0.02067   1.60757
   D27       -2.63836  -0.00007   0.00000   0.02979   0.02965  -2.60871
   D28       -0.63789  -0.00002   0.00000   0.03418   0.03373  -0.60416
   D29       -0.51721  -0.00004   0.00000   0.01984   0.02037  -0.49684
   D30        1.54071  -0.00001   0.00000   0.02954   0.02936   1.57007
   D31       -2.74200   0.00005   0.00000   0.03393   0.03343  -2.70856
   D32       -3.13434   0.00000   0.00000  -0.04937  -0.04935   3.09950
   D33        0.02166   0.00001   0.00000  -0.06791  -0.06792  -0.04627
   D34        1.78423   0.00009   0.00000   0.01968   0.01999   1.80422
   D35       -1.37827   0.00006   0.00000   0.03702   0.03733  -1.34094
   D36       -0.26655   0.00000   0.00000  -0.00364  -0.00345  -0.26999
   D37        2.85414  -0.00003   0.00000   0.01370   0.01389   2.86802
   D38       -2.29791  -0.00001   0.00000  -0.02347  -0.02397  -2.32188
   D39        0.82277  -0.00004   0.00000  -0.00613  -0.00664   0.81614
   D40        3.12573  -0.00002   0.00000   0.00521   0.00538   3.13111
   D41       -0.00945  -0.00002   0.00000   0.03389   0.03397   0.02452
   D42        0.00173   0.00001   0.00000  -0.00920  -0.00917  -0.00744
   D43       -3.13345   0.00001   0.00000   0.01949   0.01942  -3.11404
   D44       -3.12788   0.00001   0.00000  -0.00239  -0.00220  -3.13008
   D45        0.06414   0.00016   0.00000   0.00129   0.00135   0.06549
   D46       -0.00283  -0.00001   0.00000   0.01149   0.01154   0.00871
   D47       -3.09399   0.00014   0.00000   0.01516   0.01509  -3.07891
   D48        0.00010   0.00000   0.00000   0.00314   0.00315   0.00326
   D49        3.13570   0.00000   0.00000  -0.02371  -0.02370   3.11199
   D50       -0.00199  -0.00001   0.00000   0.00455   0.00452   0.00253
   D51        3.13920  -0.00001   0.00000   0.05846   0.05842  -3.08556
   D52        0.00313   0.00002   0.00000  -0.01044  -0.01039  -0.00725
   D53        3.09385  -0.00014   0.00000  -0.01599  -0.01597   3.07788
   D54       -3.13808   0.00002   0.00000  -0.06207  -0.06206   3.08304
   D55       -0.04736  -0.00014   0.00000  -0.06763  -0.06765  -0.11501
   D56       -2.97804  -0.00003   0.00000   0.09780   0.09834  -2.87971
   D57        1.22438  -0.00003   0.00000   0.04153   0.04376   1.26815
   D58       -0.89601  -0.00002   0.00000   0.01827   0.01567  -0.88033
   D59       -0.91676  -0.00003   0.00000   0.05192   0.05233  -0.86442
   D60       -2.99751  -0.00003   0.00000  -0.00435  -0.00224  -2.99975
   D61        1.16528  -0.00003   0.00000  -0.02761  -0.03033   1.13495
   D62        1.17992  -0.00002   0.00000   0.05565   0.05613   1.23605
   D63       -0.90084  -0.00003   0.00000  -0.00063   0.00156  -0.89928
   D64       -3.02123  -0.00002   0.00000  -0.02389  -0.02653  -3.04776
   D65        1.03946   0.00000   0.00000  -0.02542  -0.02818   1.01128
   D66        3.13008   0.00000   0.00000  -0.01717  -0.01920   3.11089
   D67       -1.05492   0.00000   0.00000  -0.02550  -0.02745  -1.08237
   D68       -3.10146   0.00000   0.00000  -0.00969  -0.00930  -3.11076
   D69       -1.01084   0.00000   0.00000  -0.00145  -0.00031  -1.01115
   D70        1.08735   0.00000   0.00000  -0.00977  -0.00857   1.07878
   D71       -1.08158   0.00000   0.00000   0.06490   0.06572  -1.01586
   D72        1.00904   0.00000   0.00000   0.07314   0.07471   1.08374
   D73        3.10722   0.00000   0.00000   0.06482   0.06645  -3.10952
         Item               Value     Threshold  Converged?
 Maximum Force            0.022691     0.000450     NO 
 RMS     Force            0.001861     0.000300     NO 
 Maximum Displacement     0.972131     0.001800     NO 
 RMS     Displacement     0.238758     0.001200     NO 
 Predicted change in Energy=-6.798398D+00
 GradGradGradGradGradGradGradGradGradGradGradGradGradGradGradGradGradGrad

                          Input orientation:                          
 ---------------------------------------------------------------------
 Center     Atomic      Atomic             Coordinates (Angstroms)
 Number     Number       Type             X           Y           Z
 ---------------------------------------------------------------------
      1          8           0       -1.174147    0.250528    1.077796
      2          6           0       -1.387209    0.302384   -0.111101
      3          7           0       -0.533253    0.308982   -1.118575
      4          6           0        0.910393    0.341291   -0.926566
      5          6           0        1.518989    0.841627   -2.209864
      6          8           0        2.838745    0.956829   -2.119937
      7          8           0        0.893125    1.107686   -3.189510
      8          6           0        1.484790   -1.049291   -0.536406
      9          6           0        2.650110   -0.940195    0.349201
     10          6           0        2.766185   -1.136560    1.682007
     11          7           0        4.057207   -0.933692    2.086993
     12          6           0        4.718214   -0.615877    1.027153
     13          7           0        3.915141   -0.597508   -0.061400
     14          6           0       -2.926998    0.304294   -0.275569
     15          6           0       -3.538527    0.573610    1.118300
     16          7           0       -5.002733    0.333538    1.459424
     17          1           0       -0.828404    0.477670   -2.058030
     18          1           0        1.130429    1.031247   -0.122230
     19          1           0        3.089220    1.241985   -3.007337
     20          1           0        0.719122   -1.592437   -0.000276
     21          1           0        1.672995   -1.605942   -1.444491
     22          1           0        1.998872   -1.440260    2.361532
     23          1           0        5.770671   -0.435276    0.970534
     24          1           0        4.148915   -0.342152   -0.976910
     25          1           0       -3.175576   -0.649278   -0.630976
     26          1           0       -3.264407    1.017651   -1.016291
     27          1           0       -3.371923    1.592491    1.356216
     28          1           0       -3.004709   -0.203787    1.832144
     29          1           0       -5.317043   -0.618817    1.311833
     30          1           0       -5.208010    0.541299    2.428824
     31          1           0       -5.549966    0.938015    0.871225
 ---------------------------------------------------------------------
                    Distance matrix (angstroms):
                    1          2          3          4          5
     1  O    0.000000
     2  C    1.208950   0.000000
     3  N    2.288713   1.320715   0.000000
     4  C    2.893270   2.438333   1.456717   0.000000
     5  C    4.290814   3.625131   2.384600   1.505848   0.000000
     6  O    5.179542   4.724659   3.576702   2.349801   1.327823
     7  O    4.818530   3.914720   2.638419   2.389262   1.192560
     8  C    3.371219   3.202543   2.501264   1.554309   2.525313
     9  C    4.071070   4.249214   3.721371   2.509263   3.317098
    10  C    4.220818   4.747260   4.562799   3.525998   4.540417
    11  N    5.457832   6.000097   5.735175   4.539776   5.296914
    12  C    5.955933   6.278137   5.747818   4.385509   4.778874
    13  N    5.283728   5.378400   4.661282   3.264715   3.525415
    14  C    2.215169   1.548549   2.537852   3.892394   4.878219
    15  C    2.386696   2.492622   3.755704   4.901871   6.060279
    16  N    3.848454   3.942022   5.159742   6.376368   7.500312
    17  H    3.162994   2.033106   0.999072   2.078996   2.380288
    18  H    2.713053   2.621043   2.069349   1.082317   2.131936
    19  H    5.987286   5.413820   4.190492   3.144542   1.806066
    20  H    2.853634   2.835359   2.536618   2.152650   3.383302
    21  H    4.232568   3.845060   2.939504   2.154420   2.569067
    22  H    3.817695   4.540514   4.645713   3.894907   5.131759
    23  H    6.979422   7.276628   6.682646   5.274879   5.460972
    24  H    5.736556   5.640365   4.729348   3.310234   3.136561
    25  H    2.781235   2.091456   2.852698   4.214705   5.172487
    26  H    3.056610   2.203372   2.823451   4.230185   4.933201
    27  H    2.590097   2.785047   3.978698   5.011470   6.099324
    28  H    2.031354   2.578511   3.883010   4.820333   6.155856
    29  H    4.239589   4.279831   5.445396   6.686793   7.827297
    30  H    4.264021   4.594216   5.872935   6.980938   8.176805
    31  H    4.434309   4.324065   5.433451   6.732337   7.711843
                    6          7          8          9         10
     6  O    0.000000
     7  O    2.225349   0.000000
[...]
 0.00001542,0.00000056,0.00000629,-0.00001805,0.00002219,0.00000817,0.0
 0001028,0.00000918,-0.00000060,0.00000453,-0.00000643,0.00000275,0.000
 01759,-0.03136005,-0.10700063,-0.11630454,-0.00846871,-0.02515917,-0.0
 1708395,-0.00075871,0.00026663,0.00153286,0.00031422,-0.00004855,0.000
 18494,0.00016701,0.00001416,-0.00006483,0.00000377,-0.00000384,0.00000
 698,-0.00002326,-0.00002145,-0.00002533,-0.00000532,-0.00001802,0.0000
 1250,0.00000037,-0.00000897,-0.00000202,0.00000117,-0.00000157,0.00000
 089,-0.00000723,0.00000056,0.00000337,0.03494180,0.11907516,0.12819924
 ,-0.00556628,-0.00339177,-0.00127205,-0.00256247,0.02832769,-0.0189562
 0,0.00026181,-0.00186740,0.00130083,-0.00021466,-0.00076674,0.00001127
 ,-0.00018674,0.00005135,-0.00038852,0.00001710,-0.00001720,0.00011539,
 0.00012286,-0.00014680,0.00019998,0.00022068,-0.00010566,0.00007775,0.
 00000377,-0.00001029,-0.00002017,0.00001860,0.00000634,0.00001895,-0.0
 0003075,0.,0.00000452,-0.00002349,-0.00000401,-0.00000962,-0.00000110,
 0.00000332,-0.00000359,-0.05930182,0.05133048,-0.02968987,0.00237736,-
 0.01565680,0.01112971,0.00175207,-0.00082380,-0.00039310,-0.00074580,0
 .00064449,0.00043046,-0.00010129,0.00006012,0.00010025,-0.00002055,0.0
 0002542,0.00000452,0.00004201,-0.00004897,0.00000308,-0.00001280,0.000
 01664,0.00000182,0.00000464,-0.00001848,0.00001339,-0.00000176,-0.0000
 0060,0.00000046,0.00000278,0.00000553,-0.00000904,0.00199139,-0.007322
 91,0.00520488,0.06343585,-0.00045284,-0.00027806,-0.00089398,-0.000540
 21,0.00045090,0.00034158,0.00022677,0.00065754,-0.00006970,0.00019678,
 0.00021051,-0.00015221,0.00010360,-0.00003853,0.00020551,-0.00004012,0
 .00001219,-0.00005428,-0.00008522,0.00001336,-0.00013031,-0.00008919,-
 0.00002530,-0.00003407,-0.00001585,0.00002234,0.00000380,-0.00001097,-
 0.00000417,0.00000003,0.00001414,-0.00000076,-0.00000405,0.00000658,0.
 00000110,0.00000171,0.00000754,0.00000550,-0.00000303,0.04745626,-0.21
 777153,0.11167165,-0.00071332,0.00269651,-0.00151035,-0.00063547,0.000
 46929,-0.00033838,0.00044845,-0.00029236,-0.00024025,-0.00001255,-0.00
 000907,-0.00002640,0.00000784,0.00000070,0.00000529,-0.00000819,0.0000
 0779,-0.00001343,0.00000318,-0.00001259,0.00000735,-0.00000244,0.00000
 554,-0.00000789,0.00000104,-0.00000046,-0.00000054,-0.00000158,-0.0000
 0148,0.00000683,0.00626884,-0.02077274,0.01426732,-0.05154316,0.232767
 51,-0.00176149,-0.00049411,0.00050373,-0.00299052,0.00336679,-0.004594
 62,0.00148603,-0.00034673,0.00006797,-0.00041726,-0.00050228,-0.000065
 22,0.00003570,-0.00000489,0.00021058,-0.00001616,0.00000269,-0.0000617
 1,-0.00005328,0.00004204,-0.00012305,0.00014928,0.00007512,-0.00002171
 ,0.00000977,-0.00004178,-0.00000769,0.00000673,0.00000093,-0.00003482,
 0.00003178,0.00000768,0.00000849,0.00001267,0.00000061,0.00002108,-0.0
 0001599,-0.00000749,0.00002152,-0.02694075,0.11085284,-0.12205349,-0.0
 0711562,0.02509832,-0.01773078,-0.00075538,-0.00019502,0.00154460,0.00
 047036,0.00012069,0.00036899,-0.00001066,0.00005987,0.00001036,0.00000
 738,0.00000142,0.00000581,-0.00000615,0.00001978,-0.00002937,0.0000047
 5,-0.00002320,0.00000500,0.00000094,-0.00000323,0.00000045,0.00000035,
 0.00000118,0.00000189,-0.00000586,0.00000025,0.00000366,0.00427046,-0.
 01361168,0.01029514,0.03004699,-0.12326996,0.13452196,-0.00203980,-0.0
 0072470,-0.00124984,0.00155257,0.00051388,0.00266225,-0.00021405,-0.00
 002758,-0.00089759,-0.00004187,0.00003232,0.00002087,0.00000607,-0.000
 01586,0.00007468,-0.00001062,-0.00000150,-0.00001920,-0.00001541,0.000
 00786,-0.00006876,-0.00001422,0.00000509,-0.00000504,-0.00000405,-0.00
 001477,0.00001335,-0.00000778,-0.00001352,0.00000228,0.00000529,-0.000
 00852,-0.00000787,0.00000233,0.00000368,0.00000312,0.00000601,-0.00000
 118,-0.00001249,0.00547459,0.01353141,0.00720876,-0.05982996,-0.046957
 74,-0.02999586,-0.02095314,-0.03059481,-0.01981969,0.00023084,0.000125
 01,-0.00004977,-0.00004626,0.00000141,0.00001591,-0.00000039,0.0000024
 7,0.00000549,0.00000510,0.00002918,0.00001347,0.00001491,-0.00000363,-
 0.00001403,-0.00000286,0.00001786,-0.00000449,0.00000015,0.00000200,-0
 .00000079,-0.00000079,0.00000407,0.00000538,-0.00211240,-0.00042046,0.
 00305162,0.00060403,-0.00043220,-0.00044879,0.07760300,-0.00081310,0.0
 0048416,0.00160339,-0.00089514,0.00038351,-0.00204649,0.00009365,-0.00
 010468,0.00062586,0.00006759,-0.00002746,-0.00002729,0.00002396,0.0000
 2768,-0.00003396,-0.00001467,-0.00001055,0.00001204,-0.00001571,-0.000
 02518,0.00003860,0.00000697,-0.00000115,-0.00000504,0.00000580,0.00000
 548,-0.00000518,0.00001049,0.00000466,-0.00000648,-0.00000791,-0.00000
 128,0.00000487,-0.00000505,-0.00000122,-0.00000213,-0.00000468,-0.0000
 0240,0.00000733,0.00163085,0.00184709,0.00059412,-0.05749659,-0.241179
 83,-0.11946394,0.00335197,0.00540359,0.00415325,-0.00003944,-0.0000030
 7,0.00005002,-0.00001144,0.00001834,-0.00000869,0.00000052,0.00000607,
 -0.00000097,-0.00000129,-0.00002105,-0.00000459,-0.00000559,-0.0000038
 5,0.00000761,0.00000254,-0.00000635,0.00000238,-0.00000095,0.00000029,
 0.00000062,0.00000049,0.00000186,-0.00000230,-0.00029128,0.00140053,0.
 00061186,0.00047133,0.00088185,-0.00010948,0.05973898,0.24887416,-0.00
 039567,0.00068103,0.00118302,-0.00117382,-0.00035262,-0.00121307,0.000
 02065,0.00020434,0.00020130,0.00002744,0.00008407,0.00002969,0.0000189
 0,-0.00000151,-0.00002134,-0.00001210,0.00000004,0.00000696,-0.0000045
 2,0.00002001,0.00001674,0.00001242,-0.00001202,0.00001039,0.00000139,0
 .00000651,0.00000386,-0.00000418,-0.00000237,0.00001328,-0.00000647,-0
 .00000259,-0.00001141,-0.00000349,-0.00000078,0.00000214,0.00000752,0.
 00000445,-0.00001603,-0.00507459,-0.02409563,-0.01602241,-0.03510903,-
 0.11793320,-0.12512668,-0.00125683,-0.00046989,-0.00103539,-0.00012122
 ,-0.00019582,0.00000848,0.00004333,-0.00000711,0.00001292,0.00000309,-
 0.00000550,-0.00000278,0.00000513,-0.00001523,-0.00000944,-0.00001062,
 0.00000227,0.00000280,0.00000158,0.00000272,0.00000544,0.00000026,-0.0
 0000006,-0.00000038,0.00000357,-0.00000301,0.00000160,0.00305092,0.000
 70769,-0.00388963,-0.00091520,0.00028831,0.00113863,0.03617153,0.12695
 487,0.13383496,-0.00200317,0.00086358,-0.00135803,0.00160342,-0.000499
 36,0.00275090,-0.00021021,-0.00007502,-0.00095187,-0.00004685,-0.00001
 708,0.00001340,0.00001696,-0.00004556,0.00010866,-0.00001987,0.0000128
 0,-0.00002329,-0.00003258,0.00003964,-0.00009379,-0.00002719,-0.000025
 83,0.00003331,-0.00001747,0.00000447,0.00000371,-0.00003003,-0.0000095
 9,0.00002537,0.00001901,0.00000352,-0.00001279,0.00001311,0.00000239,-
 0.00000178,0.00002147,0.00000769,-0.00001620,0.00465793,-0.01346348,0.
 00746256,-0.05455649,0.03611447,-0.02430217,-0.01933976,0.03143728,-0.
 02078712,0.00023624,-0.00009171,-0.00007123,-0.00001641,-0.00001052,0.
 00002491,0.00000080,-0.00000570,0.00000382,-0.00002264,0.00002512,0.00
 001119,0.00000639,0.00000593,-0.00001195,-0.00000932,0.00000607,-0.000
 01377,0.00000221,-0.00000028,-0.00000198,0.00000038,-0.00000469,0.0000
 0868,0.00061013,0.00043586,-0.00045281,-0.00208726,0.00066984,0.003000
 82,0.00364102,-0.00632496,0.00495388,0.07145142,0.00096499,0.00033812,
 -0.00151194,0.00081273,0.00039453,0.00184995,-0.00006732,-0.00016578,-
 0.00057732,-0.00008941,-0.00001014,0.00003077,-0.00003674,-0.00002314,
 0.00000829,0.00001711,0.00000159,-0.00000598,0.00002336,0.00001234,-0.
 00002331,0.00001699,0.00002030,-0.00000423,0.00000041,-0.00001592,0.00
 000485,0.00000237,-0.00000790,-0.00000390,0.00000152,-0.00000611,-0.00
 000201,0.00000012,0.00000228,0.00000425,-0.00000261,-0.00000354,-0.000
 00372,-0.00186123,0.00325289,-0.00147708,0.04650480,-0.24035837,0.1238
 7465,-0.00200852,0.00375414,-0.00317288,0.00001585,0.00002062,-0.00003
 806,-0.00000965,-0.00001144,0.00002169,-0.00000179,0.00000112,0.000001
 94,0.00000871,0.00002464,0.00000470,0.00000758,-0.00000118,-0.00000946
 ,-0.00000073,0.00001304,0.00000251,-0.00000017,0.00000152,0.00000015,-
 0.00000122,0.00000383,0.00000038,-0.00048153,0.00088515,0.00013448,0.0
 0055334,0.00130629,-0.00091207,0.00514676,-0.01953371,0.01411034,-0.04
 928825,0.24852655,-0.00048781,-0.00066000,0.00125718,-0.00116423,0.000
 39559,-0.00128431,-0.00002753,-0.00015770,0.00017751,0.00004463,-0.000
 07125,0.00004549,-0.00002276,0.00003375,-0.00006029,0.00000179,-0.0000
 0801,0.00001881,0.00002284,-0.00002916,0.00003864,0.00003433,0.0000183
 1,-0.00000593,0.00001006,-0.00001209,0.00001792,-0.00000922,-0.0000063
 7,0.00001843,-0.00000864,-0.00000162,-0.00001506,-0.00000652,-0.000000
 60,0.00000290,0.00000541,-0.00000049,-0.00002474,-0.00372314,0.0238624
 5,-0.01664459,-0.02976843,0.12263197,-0.13119370,-0.00115038,0.0003813
 4,-0.00095164,-0.00011871,0.00016283,0.00006247,0.00001398,-0.00000416
 ,-0.00001216,-0.00000208,0.00000330,0.00000028,0.00002153,-0.00000867,
 0.00002027,0.00000076,0.00000009,-0.00000769,-0.00000141,0.00000275,0.
 00000795,-0.00000030,0.00000121,-0.00000109,0.00000362,0.00000278,0.00
 000051,-0.00091925,-0.00023333,0.00115252,0.00300399,-0.00098938,-0.00
 385298,0.00404078,-0.01361346,0.01020664,0.03043222,-0.13165998,0.1403
 4181,0.00022935,0.00022952,0.00099541,-0.00174854,0.00053153,-0.001256
 01,0.00071418,-0.00002816,0.00003177,-0.00022862,-0.00002218,-0.000097
 29,-0.00016071,-0.00006857,0.00015363,0.00016484,0.00003941,-0.0000856
 1,0.00011136,0.00003776,-0.00008053,0.00000006,0.00004122,-0.00000441,
 -0.00000893,-0.00002730,-0.00000927,-0.00001535,-0.00000566,-0.0000269
 0,0.00005957,0.00000671,0.00001734,0.00001596,0.00000357,0.00000905,-0
 .00000544,-0.00000758,0.00002667,0.00257486,-0.00095389,-0.00033642,-0
 .01044520,-0.02962723,-0.01760218,-0.09085745,-0.09401918,-0.05609601,
 -0.00005661,-0.00006048,0.00016190,0.00003197,0.00000115,0.00000724,-0
 .00002009,-0.00000972,0.00001875,-0.00001002,0.00002569,-0.00001903,0.
 00000823,-0.00001102,0.00000413,-0.00000555,0.00000652,-0.00001278,0.0
 0000212,0.00000098,0.,-0.00002203,0.00000738,0.00000308,-0.00025978,0.
 00074772,0.00112844,-0.00004999,0.00008796,0.00011525,-0.00626454,0.00
 220221,0.00032081,0.00141373,0.00055643,-0.00041337,0.09463047,0.00050
 175,-0.00019485,-0.00010112,-0.00060437,0.00000977,0.00004057,0.000462
 47,-0.00007179,-0.00022765,-0.00015112,0.00001441,-0.00005967,-0.00008
 588,-0.00002713,0.00007854,0.00009186,0.00001189,-0.00004810,0.0000682
 0,-0.00000119,-0.00004562,-0.00000174,0.00004353,-0.00001026,0.0000022
 5,-0.00003304,0.00000166,-0.00000233,-0.00001116,-0.00001833,0.0000253
 0,-0.00000645,0.00000742,0.00000632,0.00000408,0.00000680,-0.00000746,
 -0.00001054,0.00001094,0.00079286,0.00072241,0.00155880,-0.00345377,0.
 00527712,0.00191950,-0.08500502,-0.28554621,-0.13514874,-0.00000411,0.
 00005347,0.00007859,0.00000461,-0.00000255,0.00000590,-0.00000975,0.00
 000509,0.00001047,-0.00000359,0.00003218,0.00000796,0.00001705,-0.0000
 0683,-0.00001166,-0.00000370,0.00001574,-0.00000365,0.00000019,0.00000
 328,0.00000040,-0.00001148,0.00001323,0.00000072,-0.00027706,-0.000212
 84,-0.00018889,-0.00016333,-0.00034020,-0.00003748,0.00159708,0.000998
 76,0.00016784,0.00069062,0.00066661,0.00041676,0.09463967,0.30065237,-
 0.00019170,0.00001659,-0.00068983,0.00075566,-0.00025203,0.00022043,0.
 00002380,-0.00002325,-0.00010029,0.00004309,0.00000915,-0.00003522,0.0
 0009963,0.00000051,0.00006891,-0.00006750,-0.00000570,-0.00000659,-0.0
 0006715,-0.00000474,-0.00005801,0.00000309,-0.00001064,0.00001799,-0.0
 0000197,0.00000304,0.00000934,-0.00000893,-0.00000304,0.00002003,-0.00
 001211,-0.00000049,-0.00001944,-0.00000058,-0.00000093,0.00000431,0.00
 001128,0.00000439,-0.00002636,0.00022994,0.00177303,0.00186459,-0.0037
 7765,-0.00126244,-0.00129316,-0.05055840,-0.13630799,-0.14543175,0.000
 06255,0.00005272,0.00000033,-0.00001686,-0.00000083,0.00000067,0.00001
 143,0.00000498,0.00000024,-0.00000003,-0.00000132,0.00000922,0.0000026
 6,-0.00000011,-0.00000828,0.00000071,-0.00000047,0.00000180,0.00000026
 ,0.00000029,-0.00000046,0.00000799,-0.00000246,0.00000614,-0.00012041,
 -0.00089536,-0.00001890,0.00012230,0.00012412,-0.00009506,-0.00008921,
 0.00070653,0.00056552,-0.00019037,0.00004783,-0.00045485,0.05812835,0.
 14771832,0.14775813,0.00054181,-0.00003326,-0.00113605,0.00069029,0.00
 005002,0.00371361,-0.00083996,-0.00001870,-0.00060427,0.00004379,0.000
 01131,0.00020062,-0.00010246,0.00000607,-0.00004512,0.00001623,-0.0000
 0605,0.00002117,0.00003045,0.00000053,-0.00000009,-0.00001627,-0.00001
 441,0.00000616,-0.00000700,0.00000377,0.00000793,-0.00001669,-0.000006
 91,0.00001235,0.00001242,-0.00000305,-0.00000759,0.00000206,0.00000156
 ,-0.00000152,0.00001359,0.00000224,-0.00001160,-0.00708151,0.00015858,
 -0.00377998,-0.01402320,0.00075772,0.02988547,-0.12492862,0.00352531,0
 .14407449,0.00001728,0.00000692,-0.00005346,-0.00000976,-0.00000388,0.
 00000605,-0.00001446,-0.00000224,0.00000684,-0.00000204,0.00001206,0.0
 0000122,0.00000091,0.00000209,-0.00000385,-0.00000296,0.00000758,-0.00
 000508,0.00000084,0.00000098,-0.00000135,-0.00000320,0.00000100,0.0000
 0467,0.00034463,0.00018456,-0.00027118,0.00034329,-0.00019983,-0.00027
 582,0.00106889,-0.00107526,-0.00013405,0.00117154,0.00099797,-0.000176
 61,0.00662519,0.00139075,-0.01284910,0.13051595,-0.00002628,-0.0001713
 0,0.00003447,-0.00000281,0.00052918,-0.00011055,0.00001930,-0.00002899
 ,0.00001606,-0.00000394,-0.00003558,0.00000295,0.00000110,0.00000611,-
 0.00001431,-0.00000322,-0.00000830,0.00000411,0.00000144,-0.00001183,0
 .00000768,0.00001025,0.00001019,-0.00000687,0.00000440,-0.00000744,-0.
 00000034,0.00000832,-0.00000320,-0.00000791,-0.00000330,-0.00000762,0.
 00000219,-0.00000198,0.00000099,0.00000150,-0.00000522,-0.00000471,0.0
 0000395,0.00018396,0.00003414,0.00009916,0.00039000,-0.00049731,-0.000
 70301,0.00340290,-0.06295498,-0.00741962,0.00000016,0.00002823,0.00000
 415,-0.00000949,0.00000352,0.00000243,-0.00000005,0.00000720,0.0000007
 4,0.00000092,0.00000501,0.00000180,0.00000271,-0.00000170,-0.00000277,
 0.00000039,0.00000657,0.00000220,-0.00000085,0.00000197,0.00000071,-0.
 00000051,0.00000559,-0.00000110,-0.00011605,0.00020004,0.00022903,0.00
 010438,0.00019617,-0.00021999,-0.00080874,-0.00014477,0.00028592,0.000
 72524,-0.00025217,-0.00025898,0.01650451,0.00161099,-0.02918956,-0.003
 86367,0.05816143,-0.00036175,0.00002198,0.00024897,-0.00019692,0.00000
 341,0.00014664,-0.00046870,0.00002879,0.00009719,0.00014003,0.00000858
 ,0.00004503,0.00015673,0.00003964,-0.00004686,-0.00013923,-0.00002517,
 0.00004644,-0.00010734,-0.00001673,0.00001886,0.00001214,-0.00003918,0
 .00001732,0.00000197,0.00002149,0.00001117,0.00000049,0.00000056,0.000
 03473,-0.00004209,-0.00000433,-0.00002894,-0.00001103,-0.00000328,0.00
 000106,0.00001473,0.00000893,-0.00004060,-0.00113642,0.00001744,-0.000
 71728,0.00066820,0.00011197,0.00997189,0.13409684,-0.00713779,-0.33442
 281,0.00004984,0.00001004,-0.00010888,-0.00001565,-0.00000232,-0.00000
 005,0.00001819,0.00000549,-0.00000912,0.00000940,-0.00001975,0.0000106
 6,-0.00000689,0.00000606,-0.00000578,0.00000460,-0.00000407,0.00001109
 ,-0.00000072,-0.00000032,-0.00000026,0.00001825,-0.00000719,0.00000363
 ,-0.00004899,0.00009105,-0.00001798,-0.00005823,-0.00009282,-0.0000082
 2,-0.00043054,0.00002305,0.00054653,-0.00044908,0.00001875,0.00055468,
 0.00767995,0.00090395,-0.01502775,-0.14741705,0.00781521,0.35440053,0.
 00017733,-0.00024153,0.00101691,-0.00174919,-0.00045265,-0.00124256,0.
 00067959,-0.00005742,0.00003901,-0.00021438,0.00000888,-0.00008292,-0.
 00016667,-0.00004907,0.00013371,0.00016588,0.00003312,-0.00008051,0.00
 011977,0.00001717,-0.00006837,-0.00000246,0.00005351,-0.00001835,-0.00
 000275,-0.00003420,-0.00000346,-0.00000839,-0.00000677,-0.00003234,0.0
 0005300,0.00000243,0.00001779,0.00001177,0.00000377,0.00000975,-0.0000
 1035,-0.00001054,0.00002578,0.00258048,0.00085437,-0.00047790,-0.00856
 387,0.02994886,-0.01842186,-0.08155751,0.08146888,-0.05053671,-0.00005
 539,0.00004456,0.00016602,0.00002818,0.00000589,-0.00000281,-0.0000210
 0,-0.00000638,0.00001956,-0.00000514,0.00002440,-0.00001117,0.00001048
 ,-0.00001222,0.00000212,-0.00000383,0.00001031,-0.00000931,0.00000132,
 0.00000183,0.00000021,-0.00002179,0.00001069,0.00000172,-0.00004843,-0
 .00010211,0.00012291,-0.00029145,-0.00071569,0.00116450,0.00134332,-0.
 00060428,-0.00042065,-0.00644648,-0.00178184,0.00036445,0.00357694,-0.
 01050631,0.00844924,0.00560899,-0.01651390,0.00801928,0.08481202,-0.00
 053423,-0.00014570,0.00002613,0.00072841,0.00000764,0.00005131,-0.0004
 9955,0.00000030,0.00021645,0.00016296,0.00001618,0.00008206,0.00007410
 ,0.00007337,-0.00014078,-0.00009053,-0.00003859,0.00006276,-0.00005210
 ,-0.00006082,0.00008368,-0.00000437,-0.00001538,-0.00000345,0.00001181
 ,0.00001473,0.00000296,0.00001541,0.00000262,0.00000839,-0.00003689,-0
 .00000920,-0.00000631,-0.00001322,-0.00000199,-0.00000616,-0.00000083,
 -0.00000135,-0.00000963,-0.00091108,0.00063030,-0.00150922,0.00412864,
 0.00339779,-0.00105454,0.07260226,-0.28792789,0.14155099,0.00000948,0.
 00006127,-0.00008639,-0.00002002,0.00000868,-0.00001580,0.00000689,0.0
 0001737,-0.00000826,0.00000742,-0.00002403,0.00001119,-0.00000450,0.00
 000356,-0.00000124,0.00000392,-0.00000288,0.00000988,-0.00000223,0.000
 00143,0.00000053,0.00001070,0.00000316,-0.00000354,0.00015288,-0.00034
 546,0.00003929,0.00028749,-0.00015784,0.00012917,-0.00073386,0.0007285
 4,-0.00042309,-0.00118248,0.00116387,-0.00019788,0.00917106,-0.0236701
 3,0.01749985,-0.00189377,0.00332253,-0.00178340,-0.08139377,0.30294793
 ,-0.00017547,-0.00001001,-0.00068654,0.00073816,0.00020489,0.00019916,
 0.00004750,0.00002732,-0.00010150,0.00002945,0.00000379,-0.00003228,0.
 00011185,-0.00001907,0.00009006,-0.00007487,-0.00000190,-0.00001080,-0
 .00007866,0.00002247,-0.00007127,0.00000908,-0.00001817,0.00001347,-0.
 00000593,0.00000541,0.00000692,-0.00000543,-0.00000253,0.00001704,-0.0
 0001151,-0.00000204,-0.00001755,-0.00000034,-0.00000053,0.00000483,0.0
 0000979,0.00000562,-0.00002318,0.00017110,-0.00177067,0.00196100,-0.00
 381177,0.00133766,-0.00128761,-0.04471752,0.14239144,-0.15235321,0.000
 06293,-0.00004107,-0.00000362,-0.00001078,-0.00000105,0.00000577,0.000
 01341,0.00000074,-0.00000020,-0.00000161,0.00000141,0.00000234,-0.0000
 0104,0.00000002,-0.00000405,0.00000124,0.00000112,0.00000165,0.0000003
 0,0.00000004,-0.00000015,0.00000795,-0.00000456,0.00000628,0.00011066,
 -0.00011970,-0.00009439,-0.00007495,0.00090752,-0.00005112,-0.00017553
 ,-0.00006639,-0.00044232,-0.00009519,-0.00071358,0.00058501,0.00723804
 ,-0.01703397,0.01271828,-0.01116682,0.02942077,-0.01573186,0.05185598,
 -0.15452495,0.15529985\\-0.00001155,0.00000113,0.00000058,0.00000238,-
 0.00000249,-0.00000240,0.00000074,0.00000085,-0.00000064,0.00000129,-0
 .00000036,-0.00000059,0.00000158,-0.00000102,0.00000250,0.00000296,0.0
 0000004,0.00000229,-0.00000246,0.00000148,-0.00000344,0.00000065,-0.00
 000086,0.00000058,-0.00000062,0.00000107,0.00000073,-0.00000109,-0.000
 00041,-0.00000052,0.00000047,-0.00000033,-0.00000130,0.00000030,-0.000
 00028,0.00000089,-0.00000054,-0.00000058,-0.00000039,0.00000148,0.0000
 0189,-0.00000019,0.00000863,-0.00000043,0.00000179,-0.00000036,0.00000
 023,-0.00000031,0.00000015,0.00000006,0.00000012,-0.00000015,0.0000000
 3,0.00000080,-0.00000111,0.00000040,0.00000004,-0.00000035,-0.00000034
 ,-0.00000018,-0.00000056,0.00000036,-0.00000066,-0.00000040,-0.0000005
 7,0.00000011,0.00000006,-0.00000045,0.00000005,0.00000069,0.00000066,0
 .00000059,-0.00000041,0.00000165,0.00000057,-0.00000007,-0.00000001,-0
 .00000043,-0.00000191,-0.00000202,-0.00000047,0.00000070,0.00000085,0.
 00000082,-0.00000071,-0.00000009,-0.00000065,-0.00000045,-0.00000030,-
 0.00000013,0.00000063,-0.00000016,-0.00000020\\\@


 "MATHEMATICS IS THE ART OF GIVING THE SAME NAME
 TO DIFFERENT THINGS."
                    - H. POINCARE
 Job cpu time:       0 days 14 hours  5 minutes 59.5 seconds.
 File lengths (MBytes):  RWF=   1140 Int=      0 D2E=      0 Chk=     37 Scr=      1
 Normal termination of Gaussian 09 at Sat Jul 31 05:41:45 2021.
