 Entering Gaussian System, Link 0=g09
 Input=opt_freq-conf-885.com
 Output=opt_freq-conf-885.log
 Initial command:
 /aerosol/software/g09/l1.exe "/scratch/nicole/10749/Gau-86785.inp" -scrdir="/scratch/nicole/10749/"
 Entering Link 1 = /aerosol/software/g09/l1.exe PID=     86793.
  
 Copyright (c) 1988,1990,1992,1993,1995,1998,2003,2009,2013,
            Gaussian, Inc.  All Rights Reserved.
  
 This is part of the Gaussian(R) 09 program.  It is based on
 the Gaussian(R) 03 system (copyright 2003, Gaussian, Inc.),
 the Gaussian(R) 98 system (copyright 1998, Gaussian, Inc.),
 the Gaussian(R) 94 system (copyright 1995, Gaussian, Inc.),
 the Gaussian 92(TM) system (copyright 1992, Gaussian, Inc.),
 the Gaussian 90(TM) system (copyright 1990, Gaussian, Inc.),
 the Gaussian 88(TM) system (copyright 1988, Gaussian, Inc.),
 the Gaussian 86(TM) system (copyright 1986, Carnegie Mellon
 University), and the Gaussian 82(TM) system (copyright 1983,
 Carnegie Mellon University). Gaussian is a federally registered
 trademark of Gaussian, Inc.
  
 This software contains proprietary and confidential information,
 including trade secrets, belonging to Gaussian, Inc.
  
 This software is provided under written license and may be
 used, copied, transmitted, or stored only in accord with that
 written license.
  
 The following legend is applicable only to US Government
 contracts under FAR:
  
                    RESTRICTED RIGHTS LEGEND
  
 Use, reproduction and disclosure by the US Government is
 subject to restrictions as set forth in subparagraphs (a)
 and (c) of the Commercial Computer Software - Restricted
 Rights clause in FAR 52.227-19.
  
 Gaussian, Inc.
 340 Quinnipiac St., Bldg. 40, Wallingford CT 06492
  
  
 ---------------------------------------------------------------
 Warning -- This program may not be used in any manner that
 competes with the business of Gaussian, Inc. or will provide
 assistance to any competitor of Gaussian, Inc.  The licensee
 of this program is prohibited from giving any competitor of
 Gaussian, Inc. access to this program.  By using this program,
 the user acknowledges that Gaussian, Inc. is engaged in the
 business of creating and licensing software in the field of
 computational chemistry and represents and warrants to the
 licensee that it is not a competitor of Gaussian, Inc. and that
 it will not use this program in any manner prohibited above.
 ---------------------------------------------------------------
  

 Cite this work as:
 Gaussian 09, Revision D.01,
 M. J. Frisch, G. W. Trucks, H. B. Schlegel, G. E. Scuseria, 
 M. A. Robb, J. R. Cheeseman, G. Scalmani, V. Barone, B. Mennucci, 
 G. A. Petersson, H. Nakatsuji, M. Caricato, X. Li, H. P. Hratchian, 
 A. F. Izmaylov, J. Bloino, G. Zheng, J. L. Sonnenberg, M. Hada, 
 M. Ehara, K. Toyota, R. Fukuda, J. Hasegawa, M. Ishida, T. Nakajima, 
 Y. Honda, O. Kitao, H. Nakai, T. Vreven, J. A. Montgomery, Jr., 
 J. E. Peralta, F. Ogliaro, M. Bearpark, J. J. Heyd, E. Brothers, 
 K. N. Kudin, V. N. Staroverov, T. Keith, R. Kobayashi, J. Normand, 
 K. Raghavachari, A. Rendell, J. C. Burant, S. S. Iyengar, J. Tomasi, 
 M. Cossi, N. Rega, J. M. Millam, M. Klene, J. E. Knox, J. B. Cross, 
 V. Bakken, C. Adamo, J. Jaramillo, R. Gomperts, R. E. Stratmann, 
 O. Yazyev, A. J. Austin, R. Cammi, C. Pomelli, J. W. Ochterski, 
 R. L. Martin, K. Morokuma, V. G. Zakrzewski, G. A. Voth, 
 P. Salvador, J. J. Dannenberg, S. Dapprich, A. D. Daniels, 
 O. Farkas, J. B. Foresman, J. V. Ortiz, J. Cioslowski, 
 and D. J. Fox, Gaussian, Inc., Wallingford CT, 2013.
 
 ******************************************
 Gaussian 09:  ES64L-G09RevD.01 24-Apr-2013
                29-Jul-2021 
 ******************************************
 %mem=2gb
 %nproc=4
 Will use up to    4 processors via shared memory.
 %chk=conf-885.chk
 ----------------------------------------------------------------------
 # B3LYP/6-311G(2df,2pd) guess=read geom=checkpoint opt=readfc freq=nor
 aman nosymm integral(ultrafinegrid)
 ----------------------------------------------------------------------
 1/10=3,14=-1,18=20,19=15,26=4,29=2,38=1/1,3;
 2/9=110,12=2,15=1,40=1/2;
 3/5=4,6=6,7=404,11=2,14=-4,16=1,25=1,30=1,71=1,74=-5,75=-5,116=-2/1,2,3;
 4/5=1/1;
 5/5=2,38=6/2;
 6/7=2,8=2,9=2,10=2,28=1/1;
 7/30=1/1,2,3,16;
 1/14=-1,18=20,19=15,26=4/3(2);
 2/9=110,15=1/2;
 99//99;
 2/9=110,15=1/2;
 3/5=4,6=6,7=404,11=2,14=-2,16=1,25=1,30=1,71=1,74=-5,75=-5/1,2,3;
 4/5=5,16=3,69=1/1;
 5/5=2,38=5/2;
 7/30=1/1,2,3,16;
 1/14=-1,18=20,19=15,26=4/3(-5);
 2/9=110,15=1/2;
 6/7=2,8=2,9=2,10=2,19=2,28=1/1;
 99/9=1/99;
 ------------------------------------------------------------
 Candidate Structure: Conf:885 OPT and FREQ calc in gas phase
 ------------------------------------------------------------
 Structure from the checkpoint file:  "conf-885.chk"
 Charge =  1 Multiplicity = 1
 Redundant internal coordinates found in file.
 O,0,-1.5431798456,0.2678383327,-0.798020394
 C,0,-1.5116238392,-0.8227382982,-0.1899413889
 N,0,-0.3913179411,-1.3403713653,0.3339788939
 C,0,0.8084336986,-0.5397199603,0.6143193621
 C,0,0.4371083367,0.5001394754,1.6890795504
 O,0,1.5273243166,1.0844223846,2.188699998
 O,0,-0.6973533856,0.7377007468,2.0487047386
 C,0,1.4504987364,0.0601824951,-0.6798633988
 C,0,2.8282552097,0.6060474536,-0.5155247749
 C,0,3.2966659475,1.898959954,-0.4904112608
 N,0,4.6591098821,1.9341551363,-0.3205257022
 C,0,5.0290890315,0.6756048742,-0.2442628636
 N,0,3.9627181214,-0.1753490807,-0.3498582273
 C,0,-2.8154876666,-1.6014756767,-0.0208500038
 C,0,-3.9047932094,-0.6449290352,0.4930184768
 N,0,-4.0464125288,0.5092063953,-0.4753032021
 H,0,-0.492429964,-2.1926601405,0.8677342605
 H,0,1.5338668429,-1.2222708822,1.0665299515
 H,0,1.2468317776,1.742814213,2.8488760725
 H,0,1.4338731744,-0.7469839539,-1.4232289662
 H,0,0.8006032466,0.8471793102,-1.063555901
 H,0,2.7173620203,2.8076148051,-0.5866879217
 H,0,6.0416776943,0.3180924732,-0.1173256328
 H,0,4.0153450471,-1.1825321384,-0.3835133118
 H,0,-3.1034284793,-2.0300260392,-0.988391225
 H,0,-2.7242965167,-2.4291556032,0.686754398
 H,0,-4.8687627199,-1.1421242857,0.6074112881
 H,0,-3.6053578781,-0.210225628,1.4489328452
 H,0,-4.6060859072,0.2618877993,-1.2946813692
 H,0,-4.4635069781,1.3340907518,-0.0394661972
 H,0,-3.014638204,0.694704617,-0.7806300144
 Recover connectivity data from disk.

 GradGradGradGradGradGradGradGradGradGradGradGradGradGradGradGradGradGrad
 Berny optimization.
 Initialization pass.
 Force constant matrix read from checkpoint file:
 "conf-885.chk"
                           ----------------------------
                           !    Initial Parameters    !
                           ! (Angstroms and Degrees)  !
 --------------------------                            --------------------------
 ! Name  Definition              Value          Derivative Info.                !
 --------------------------------------------------------------------------------
 ! R1    R(1,2)                  1.249          D2E/DX2 =    0.6944             !
 ! R2    R(2,3)                  1.3407         D2E/DX2 =    0.5213             !
 ! R3    R(2,14)                 1.5281         D2E/DX2 =    0.2942             !
 ! R4    R(3,4)                  1.4694         D2E/DX2 =    0.3164             !
 ! R5    R(3,17)                 1.0107         D2E/DX2 =    0.4682             !
 ! R6    R(4,5)                  1.5409         D2E/DX2 =    0.2576             !
 ! R7    R(4,8)                  1.5643         D2E/DX2 =    0.2377             !
 ! R8    R(4,18)                 1.0939         D2E/DX2 =    0.3389             !
 ! R9    R(5,6)                  1.334          D2E/DX2 =    0.4525             !
 ! R10   R(5,7)                  1.2136         D2E/DX2 =    0.848              !
 ! R11   R(6,19)                 0.9736         D2E/DX2 =    0.5031             !
 ! R12   R(8,9)                  1.491          D2E/DX2 =    0.3212             !
 ! R13   R(8,20)                 1.0974         D2E/DX2 =    0.3296             !
 ! R14   R(8,21)                 1.0904         D2E/DX2 =    0.35               !
 ! R15   R(9,10)                 1.3754         D2E/DX2 =    0.4087             !
 ! R16   R(9,13)                 1.3875         D2E/DX2 =    0.3551             !
 ! R17   R(10,11)                1.3734         D2E/DX2 =    0.3412             !
 ! R18   R(10,22)                1.0819         D2E/DX2 =    0.3711             !
 ! R19   R(11,12)                1.314          D2E/DX2 =    0.4649             !
 ! R20   R(12,13)                1.3684         D2E/DX2 =    0.3572             !
 ! R21   R(12,23)                1.0813         D2E/DX2 =    0.3746             !
 ! R22   R(13,24)                1.0091         D2E/DX2 =    0.4751             !
 ! R23   R(14,15)                1.5381         D2E/DX2 =    0.3074             !
 ! R24   R(14,25)                1.0967         D2E/DX2 =    0.3354             !
 ! R25   R(14,26)                1.0927         D2E/DX2 =    0.3442             !
 ! R26   R(15,16)                1.5132         D2E/DX2 =    0.279              !
 ! R27   R(15,27)                1.0907         D2E/DX2 =    0.3489             !
 ! R28   R(15,28)                1.092          D2E/DX2 =    0.347              !
 ! R29   R(16,29)                1.0226         D2E/DX2 =    0.4367             !
 ! R30   R(16,30)                1.0219         D2E/DX2 =    0.4394             !
 ! R31   R(16,31)                1.0919         D2E/DX2 =    0.1952             !
 ! A1    A(1,2,3)              123.2613         D2E/DX2 =    0.2361             !
 ! A2    A(1,2,14)             118.5073         D2E/DX2 =    0.295              !
 ! A3    A(3,2,14)             118.2285         D2E/DX2 =    0.1913             !
 ! A4    A(2,3,4)              123.1242         D2E/DX2 =    0.1673             !
 ! A5    A(2,3,17)             116.6378         D2E/DX2 =    0.104              !
 ! A6    A(4,3,17)             116.1307         D2E/DX2 =    0.0969             !
 ! A7    A(3,4,5)              107.7            D2E/DX2 =    0.106              !
 ! A8    A(3,4,8)              112.7217         D2E/DX2 =    0.1024             !
 ! A9    A(3,4,18)             106.2814         D2E/DX2 =    0.0293             !
 ! A10   A(5,4,8)              114.6558         D2E/DX2 =    0.0849             !
 ! A11   A(5,4,18)             107.0106         D2E/DX2 =    0.0269             !
 ! A12   A(8,4,18)             108.0051         D2E/DX2 =    0.033              !
 ! A13   A(4,5,6)              111.092          D2E/DX2 =    0.1655             !
 ! A14   A(4,5,7)              124.3378         D2E/DX2 =    0.1798             !
 ! A15   A(6,5,7)              124.5585         D2E/DX2 =    0.1981             !
 ! A16   A(5,6,19)             108.3417         D2E/DX2 =    0.1686             !
 ! A17   A(4,8,9)              115.3709         D2E/DX2 =    0.1507             !
 ! A18   A(4,8,20)             105.7904         D2E/DX2 =    0.0618             !
 ! A19   A(4,8,21)             108.8613         D2E/DX2 =    0.0622             !
 ! A20   A(9,8,20)             110.9724         D2E/DX2 =    0.0516             !
 ! A21   A(9,8,21)             108.9831         D2E/DX2 =    0.0508             !
 ! A22   A(20,8,21)            106.4672         D2E/DX2 =    0.0201             !
 ! A23   A(8,9,10)             131.3651         D2E/DX2 =    0.0938             !
 ! A24   A(8,9,13)             124.23           D2E/DX2 =    0.1014             !
 ! A25   A(10,9,13)            104.4048         D2E/DX2 =    0.1022             !
 ! A26   A(9,10,11)            111.3576         D2E/DX2 =    0.114              !
 ! A27   A(9,10,22)            127.2668         D2E/DX2 =    0.082              !
 ! A28   A(11,10,22)           121.3755         D2E/DX2 =    0.0901             !
 ! A29   A(10,11,12)           105.1854         D2E/DX2 =    0.13               !
 ! A30   A(11,12,13)           111.8219         D2E/DX2 =    0.1182             !
 ! A31   A(11,12,23)           125.9547         D2E/DX2 =    0.0896             !
 ! A32   A(13,12,23)           122.2231         D2E/DX2 =    0.0905             !
 ! A33   A(9,13,12)            107.2286         D2E/DX2 =    0.1024             !
 ! A34   A(9,13,24)            126.9248         D2E/DX2 =    0.0763             !
 ! A35   A(12,13,24)           125.6348         D2E/DX2 =    0.0787             !
 ! A36   A(2,14,15)            108.9256         D2E/DX2 =    0.4159             !
 ! A37   A(2,14,25)            108.9987         D2E/DX2 =    0.0583             !
 ! A38   A(2,14,26)            112.7337         D2E/DX2 =    0.0937             !
 ! A39   A(15,14,25)           110.5997         D2E/DX2 =    0.0686             !
 ! A40   A(15,14,26)           108.2895         D2E/DX2 =    0.0875             !
 ! A41   A(25,14,26)           107.2912         D2E/DX2 =    0.0263             !
 ! A42   A(14,15,16)           109.0767         D2E/DX2 =    0.3149             !
 ! A43   A(14,15,27)           112.1788         D2E/DX2 =    0.0644             !
 ! A44   A(14,15,28)           110.2334         D2E/DX2 =    0.0544             !
 ! A45   A(16,15,27)           109.3962         D2E/DX2 =    0.0868             !
 ! A46   A(16,15,28)           106.3929         D2E/DX2 =    0.0611             !
 ! A47   A(27,15,28)           109.3917         D2E/DX2 =    0.0232             !
 ! A48   A(15,16,29)           112.3024         D2E/DX2 =    0.11               !
 ! A49   A(15,16,30)           112.3914         D2E/DX2 =    0.1074             !
 ! A50   A(15,16,31)           102.714          D2E/DX2 =    0.1761             !
 ! A51   A(29,16,30)           108.2737         D2E/DX2 =    0.0586             !
 ! A52   A(29,16,31)           109.5234         D2E/DX2 =    0.056              !
 ! A53   A(30,16,31)           111.5802         D2E/DX2 =    0.0567             !
 ! D1    D(1,2,3,4)             19.0441         D2E/DX2 =    0.0115             !
 ! D2    D(1,2,3,17)           175.337          D2E/DX2 =    0.0159             !
 ! D3    D(14,2,3,4)          -160.324          D2E/DX2 =    0.0099             !
 ! D4    D(14,2,3,17)           -4.0311         D2E/DX2 =    0.0102             !
 ! D5    D(1,2,14,15)          -48.2927         D2E/DX2 =    0.0235             !
 ! D6    D(1,2,14,25)           72.466          D2E/DX2 =    0.0198             !
 ! D7    D(1,2,14,26)         -168.5154         D2E/DX2 =    0.0235             !
 ! D8    D(3,2,14,15)          131.106          D2E/DX2 =    0.0157             !
 ! D9    D(3,2,14,25)         -108.1353         D2E/DX2 =    0.0185             !
 ! D10   D(3,2,14,26)           10.8833         D2E/DX2 =    0.0183             !
 ! D11   D(2,3,4,5)             63.5404         D2E/DX2 =    0.0197             !
 ! D12   D(2,3,4,8)            -63.9321         D2E/DX2 =    0.0169             !
 ! D13   D(2,3,4,18)           177.9418         D2E/DX2 =    0.0142             !
 ! D14   D(17,3,4,5)           -92.8626         D2E/DX2 =    0.0143             !
 ! D15   D(17,3,4,8)           139.6648         D2E/DX2 =    0.0134             !
 ! D16   D(17,3,4,18)           21.5388         D2E/DX2 =    0.0097             !
 ! D17   D(3,4,5,6)            167.5677         D2E/DX2 =    0.0232             !
 ! D18   D(3,4,5,7)            -11.2312         D2E/DX2 =    0.0234             !
 ! D19   D(8,4,5,6)            -66.0897         D2E/DX2 =    0.0222             !
 ! D20   D(8,4,5,7)            115.1114         D2E/DX2 =    0.0206             !
 ! D21   D(18,4,5,6)            53.6524         D2E/DX2 =    0.0155             !
 ! D22   D(18,4,5,7)          -125.1465         D2E/DX2 =    0.0148             !
 ! D23   D(3,4,8,9)           -166.2335         D2E/DX2 =    0.0189             !
 ! D24   D(3,4,8,20)           -43.1569         D2E/DX2 =    0.0191             !
 ! D25   D(3,4,8,21)            70.9165         D2E/DX2 =    0.0194             !
 ! D26   D(5,4,8,9)             70.0631         D2E/DX2 =    0.0197             !
 ! D27   D(5,4,8,20)          -166.8603         D2E/DX2 =    0.0199             !
 ! D28   D(5,4,8,21)           -52.7869         D2E/DX2 =    0.0186             !
 ! D29   D(18,4,8,9)           -49.1237         D2E/DX2 =    0.0118             !
 ! D30   D(18,4,8,20)           73.9529         D2E/DX2 =    0.0135             !
 ! D31   D(18,4,8,21)         -171.9737         D2E/DX2 =    0.0141             !
 ! D32   D(4,5,6,19)           178.954          D2E/DX2 =    0.0177             !
 ! D33   D(7,5,6,19)            -2.2503         D2E/DX2 =    0.0163             !
 ! D34   D(4,8,9,10)          -107.3321         D2E/DX2 =    0.0122             !
 ! D35   D(4,8,9,13)            72.8581         D2E/DX2 =    0.012              !
 ! D36   D(20,8,9,10)          132.3828         D2E/DX2 =    0.0133             !
 ! D37   D(20,8,9,13)          -47.4269         D2E/DX2 =    0.0134             !
 ! D38   D(21,8,9,10)           15.4531         D2E/DX2 =    0.013              !
 ! D39   D(21,8,9,13)         -164.3566         D2E/DX2 =    0.0135             !
 ! D40   D(8,9,10,11)         -179.705          D2E/DX2 =    0.0096             !
 ! D41   D(8,9,10,22)            0.2927         D2E/DX2 =    0.0072             !
 ! D42   D(13,9,10,11)           0.1326         D2E/DX2 =    0.0142             !
 ! D43   D(13,9,10,22)        -179.8696         D2E/DX2 =    0.0097             !
 ! D44   D(8,9,13,12)          179.5203         D2E/DX2 =    0.008              !
 ! D45   D(8,9,13,24)            4.6018         D2E/DX2 =    0.0022             !
 ! D46   D(10,9,13,12)          -0.3323         D2E/DX2 =    0.0124             !
 ! D47   D(10,9,13,24)        -175.2508         D2E/DX2 =    0.0045             !
 ! D48   D(9,10,11,12)           0.127          D2E/DX2 =    0.0174             !
 ! D49   D(22,10,11,12)       -179.8709         D2E/DX2 =    0.0099             !
 ! D50   D(10,11,12,13)         -0.3494         D2E/DX2 =    0.0183             !
 ! D51   D(10,11,12,23)        179.452          D2E/DX2 =    0.0103             !
 ! D52   D(11,12,13,9)           0.4426         D2E/DX2 =    0.0171             !
 ! D53   D(11,12,13,24)        175.4446         D2E/DX2 =    0.0079             !
 ! D54   D(23,12,13,9)        -179.3673         D2E/DX2 =    0.0103             !
 ! D55   D(23,12,13,24)         -4.3654         D2E/DX2 =    0.0062             !
 ! D56   D(2,14,15,16)          57.0957         D2E/DX2 =    0.0413             !
 ! D57   D(2,14,15,27)         178.4584         D2E/DX2 =    0.0308             !
 ! D58   D(2,14,15,28)         -59.3743         D2E/DX2 =    0.0201             !
 ! D59   D(25,14,15,16)        -62.6753         D2E/DX2 =    0.0186             !
 ! D60   D(25,14,15,27)         58.6873         D2E/DX2 =    0.0169             !
 ! D61   D(25,14,15,28)       -179.1453         D2E/DX2 =    0.0245             !
 ! D62   D(26,14,15,16)       -179.9756         D2E/DX2 =    0.0265             !
 ! D63   D(26,14,15,27)        -58.613          D2E/DX2 =    0.0202             !
 ! D64   D(26,14,15,28)         63.5544         D2E/DX2 =    0.0171             !
 ! D65   D(14,15,16,29)         79.8207         D2E/DX2 =    0.0142             !
 ! D66   D(14,15,16,30)       -157.799          D2E/DX2 =    0.0157             !
 ! D67   D(14,15,16,31)        -37.7495         D2E/DX2 =    0.0254             !
 ! D68   D(27,15,16,29)        -43.2194         D2E/DX2 =    0.0145             !
 ! D69   D(27,15,16,30)         79.1609         D2E/DX2 =    0.0157             !
 ! D70   D(27,15,16,31)       -160.7896         D2E/DX2 =    0.0208             !
 ! D71   D(28,15,16,29)       -161.2858         D2E/DX2 =    0.0182             !
 ! D72   D(28,15,16,30)        -38.9055         D2E/DX2 =    0.0153             !
 ! D73   D(28,15,16,31)         81.144          D2E/DX2 =    0.0215             !
 --------------------------------------------------------------------------------
 Trust Radius=3.00D-01 FncErr=1.00D-07 GrdErr=1.00D-06
 Number of steps in this run=    167 maximum allowed number of steps=    186.
 GradGradGradGradGradGradGradGradGradGradGradGradGradGradGradGradGradGrad

                          Input orientation:                          
 ---------------------------------------------------------------------
 Center     Atomic      Atomic             Coordinates (Angstroms)
 Number     Number       Type             X           Y           Z
 ---------------------------------------------------------------------
      1          8           0       -1.543180    0.267838   -0.798020
      2          6           0       -1.511624   -0.822738   -0.189941
      3          7           0       -0.391318   -1.340371    0.333979
      4          6           0        0.808434   -0.539720    0.614319
      5          6           0        0.437108    0.500139    1.689080
      6          8           0        1.527324    1.084422    2.188700
      7          8           0       -0.697353    0.737701    2.048705
      8          6           0        1.450499    0.060182   -0.679863
      9          6           0        2.828255    0.606047   -0.515525
     10          6           0        3.296666    1.898960   -0.490411
     11          7           0        4.659110    1.934155   -0.320526
     12          6           0        5.029089    0.675605   -0.244263
     13          7           0        3.962718   -0.175349   -0.349858
     14          6           0       -2.815488   -1.601476   -0.020850
     15          6           0       -3.904793   -0.644929    0.493018
     16          7           0       -4.046413    0.509206   -0.475303
     17          1           0       -0.492430   -2.192660    0.867734
     18          1           0        1.533867   -1.222271    1.066530
     19          1           0        1.246832    1.742814    2.848876
     20          1           0        1.433873   -0.746984   -1.423229
     21          1           0        0.800603    0.847179   -1.063556
     22          1           0        2.717362    2.807615   -0.586688
     23          1           0        6.041678    0.318092   -0.117326
     24          1           0        4.015345   -1.182532   -0.383513
     25          1           0       -3.103428   -2.030026   -0.988391
     26          1           0       -2.724297   -2.429156    0.686754
     27          1           0       -4.868763   -1.142124    0.607411
     28          1           0       -3.605358   -0.210226    1.448933
     29          1           0       -4.606086    0.261888   -1.294681
     30          1           0       -4.463507    1.334091   -0.039466
     31          1           0       -3.014638    0.694705   -0.780630
 ---------------------------------------------------------------------
                    Distance matrix (angstroms):
                    1          2          3          4          5
     1  O    0.000000
     2  C    1.249045   0.000000
     3  N    2.279155   1.340717   0.000000
     4  C    2.859535   2.471761   1.469366   0.000000
     5  C    3.187659   3.013019   2.431063   1.540876   0.000000
     6  O    4.360654   4.304695   3.605663   2.373461   1.334008
     7  O    3.006665   2.847726   2.711517   2.440627   1.213577
     8  C    3.003197   3.129496   2.526206   1.564302   2.613888
     9  C    4.393590   4.580610   3.856923   2.582443   3.254087
    10  C    5.116570   5.533315   4.977360   3.654981   3.857972
    11  N    6.439954   6.759842   6.054562   4.671370   4.890829
    12  C    6.608149   6.710358   5.811999   4.475278   4.985468
    13  N    5.541857   5.514808   4.558787   3.318421   4.128375
    14  C    2.391045   1.528098   2.463875   3.829304   4.233205
    15  C    2.842032   2.495057   3.585170   4.715961   4.646919
    16  N    2.535464   2.877614   4.175595   5.084983   4.978614
    17  H    3.151645   2.008512   1.010700   2.118650   2.964763
    18  H    3.894251   3.318638   2.063229   1.093903   2.134747
    19  H    4.822818   4.839995   4.302822   3.224190   1.882822
    20  H    3.206804   3.194165   2.602155   2.141433   3.497902
    21  H    2.428881   2.982989   2.856424   2.176882   2.798136
    22  H    4.964609   5.587593   5.264723   4.036220   3.962716
    23  H    7.615506   7.639315   6.658649   5.353316   5.891302
    24  H    5.759565   5.542049   4.467481   3.419526   4.464393
    25  H    2.784025   2.151490   3.095130   4.482450   5.109402
    26  H    3.297479   2.195392   2.598594   4.006919   4.424919
    27  H    3.875917   3.465279   4.490165   5.709072   5.658560
    28  H    3.087057   2.728517   3.584746   4.504076   4.111426
    29  H    3.102918   3.460139   4.794167   5.796885   5.864589
    30  H    3.200095   3.658985   4.886198   5.633113   5.263020
    31  H    1.532223   2.215987   3.502242   4.252713   4.248750
                    6          7          8          9         10
     6  O    0.000000
     7  O    2.255882   0.000000
     8  C    3.046904   3.537991   0.000000
     9  C    3.038765   4.361482   1.491036   0.000000
    10  C    3.312352   4.873174   2.612533   1.375377   0.000000
    11  N    4.101992   5.977998   3.733106   2.270225   1.373446
    12  C    4.283549   6.168768   3.657158   2.218579   2.135059
    13  N    3.736636   5.320059   2.544725   1.387455   2.183149
    14  C    5.563827   3.773764   4.625370   6.080271   7.059176
    15  C    5.947596   3.823545   5.527385   6.922141   7.700618
    16  N    6.204380   4.199884   5.519013   6.875467   7.473449
    17  H    4.069844   3.166023   3.353406   4.557754   5.739613
    18  H    2.565179   3.128019   2.168300   2.742460   3.908146
    19  H    0.973647   2.330318   3.914682   3.887458   3.921357
    20  H    4.050779   4.335982   1.097445   2.144510   3.367665
    21  H    3.340895   3.455724   1.090389   2.114203   2.768586
    22  H    3.476832   4.784362   3.026881   2.205507   1.081904
    23  H    5.126832   7.091001   4.632698   3.250779   3.189581
    24  H    4.236226   5.640258   2.865414   2.150727   3.165994
    25  H    6.421648   4.761666   5.020201   6.508253   7.526362
    26  H    5.716411   3.999048   5.049095   6.441177   7.508015
    27  H    6.954704   4.797054   6.560159   7.972526   8.782234
    28  H    5.344885   3.116854   5.492411   6.776192   7.473129
    29  H    7.101354   5.165541   6.091051   7.482978   8.110508
    30  H    6.396649   4.347419   6.083454   7.343465   7.793761
    31  H    5.440425   3.657430   4.511122   5.849576   6.431720
                   11         12         13         14         15
    11  N    0.000000
    12  C    1.314020   0.000000
    13  N    2.221673   1.368364   0.000000
    14  C    8.274062   8.171438   6.934418   0.000000
    15  C    8.980755   9.060996   7.926455   1.538060   0.000000
    16  N    8.822729   9.079967   8.039311   2.485293   1.513186
    17  H    6.706782   6.320653   5.039883   2.556497   3.765648
    18  H    4.653396   4.187683   3.000253   4.499231   5.499206
    19  H    4.661047   5.001191   4.613815   5.993500   6.147408
    20  H    4.336659   4.042190   2.806056   4.555644   5.673075
    21  H    4.076970   4.310542   3.399103   4.489906   5.175912
    22  H    2.145730   3.163353   3.241153   7.097371   7.545778
    23  H    2.136456   1.081325   2.149332   9.063301  10.011604
    24  H    3.183102   2.121259   1.009118   6.853270   7.986608
    25  H    8.741726   8.603023   7.333347   1.096677   2.180654
    26  H    8.635264   8.403649   7.132347   1.092737   2.148155
    27  H   10.055094  10.099354   8.935663   2.195827   1.090654
    28  H    8.719563   8.843375   7.778987   2.172495   1.091971
    29  H    9.465163   9.701089   8.631817   2.881148   2.123676
    30  H    9.146650   9.517611   8.565980   3.366581   2.124199
    31  H    7.786806   8.061613   7.044577   2.426803   2.051627
                   16         17         18         19         20
    16  N    0.000000
    17  H    4.662041   0.000000
    18  H    6.042746   2.255450   0.000000
    19  H    6.371059   4.736867   3.471437   0.000000
    20  H    5.701764   3.324024   2.536690   4.948228   0.000000
    21  H    4.894265   3.826544   3.059014   4.038367   1.752641
    22  H    7.144490   6.117259   4.513731   3.885789   3.870700
    23  H   10.096249   7.068860   4.908624   5.815388   4.906285
    24  H    8.237860   4.786023   2.874359   5.164364   2.816861
    25  H    2.756842   3.207642   5.136115   6.919806   4.735228
    26  H    3.425250   2.251647   4.442157   6.152232   4.957026
    27  H    2.139024   4.508179   6.419570   7.123730   6.633465
    28  H    2.101142   3.736062   5.251866   5.414605   5.825056
    29  H    1.022635   5.255760   6.743669   7.322490   6.124986
    30  H    1.021937   5.387990   6.612617   6.412296   6.405058
    31  H    1.091876   4.173190   5.270265   5.694908   4.720239
                   21         22         23         24         25
    21  H    0.000000
    22  H    2.782926   0.000000
    23  H    5.352023   4.179605   0.000000
    24  H    3.862221   4.200870   2.535499   0.000000
    25  H    4.850301   7.579297   9.481845   7.194516   0.000000
    26  H    5.120828   7.658790   9.221509   6.937025   1.763281
    27  H    6.236279   8.635717  11.031554   8.939292   2.539953
    28  H    5.181042   7.295745   9.787624   7.897997   3.082881
    29  H    5.443186   7.785555  10.712805   8.788950   2.757655
    30  H    5.384858   7.350891  10.554488   8.851141   3.750674
    31  H    3.828755   6.112105   9.088381   7.287138   2.734082
                   26         27         28         29         30
    26  H    0.000000
    27  H    2.502295   0.000000
    28  H    2.506159   1.781231   0.000000
    29  H    3.835223   2.378698   2.958338   0.000000
    30  H    4.208833   2.591201   2.310122   1.656959   0.000000
    31  H    3.463527   2.956075   2.477660   1.727508   1.748531
                   31
    31  H    0.000000
 Symmetry turned off by external request.
 Stoichiometry    C9H15N4O3(1+)
 Framework group  C1[X(C9H15N4O3)]
 Deg. of freedom    87
 Full point group                 C1      NOp   1
 Rotational constants (GHZ):      1.2838120      0.2452500      0.2364842
 Standard basis: 6-311G(2df,2pd) (5D, 7F)
   690 basis functions,  1023 primitive gaussians,   785 cartesian basis functions
    60 alpha electrons       60 beta electrons
       nuclear repulsion energy      1147.3438260408 Hartrees.
 NAtoms=   31 NActive=   31 NUniq=   31 SFac= 1.00D+00 NAtFMM=   60 NAOKFM=F Big=F
 Integral buffers will be    131072 words long.
 Raffenetti 2 integral format.
 Two-electron integral symmetry is turned off.
 One-electron integrals computed using PRISM.
 NBasis=   690 RedAO= T EigKep=  1.88D-04  NBF=   690
 NBsUse=   690 1.00D-06 EigRej= -1.00D+00 NBFU=   690
 Initial guess from the checkpoint file:  "conf-885.chk"
 B after Tr=     0.000000    0.000000    0.000000
         Rot=    1.000000    0.000000    0.000000    0.000000 Ang=   0.00 deg.
 Requested convergence on RMS density matrix=1.00D-08 within 128 cycles.
 Requested convergence on MAX density matrix=1.00D-06.
 Requested convergence on             energy=1.00D-06.
 No special actions if energy rises.
 SCF Done:  E(RB3LYP) =  -796.742097375     A.U. after   11 cycles
            NFock= 11  Conv=0.58D-08     -V/T= 2.0042

 **********************************************************************

            Population analysis using the SCF density.

 **********************************************************************

 Alpha  occ. eigenvalues --  -19.28955 -19.26030 -19.23592 -14.57611 -14.50052
 Alpha  occ. eigenvalues --  -14.45129 -14.36631 -10.44376 -10.43057 -10.40254
 Alpha  occ. eigenvalues --  -10.36771 -10.35908 -10.30423 -10.30181 -10.29068
 Alpha  occ. eigenvalues --  -10.26241  -1.23379  -1.21077  -1.14818  -1.14357
 Alpha  occ. eigenvalues --   -1.09624  -1.08949  -0.95999  -0.95322  -0.91765
 Alpha  occ. eigenvalues --   -0.85351  -0.82546  -0.78537  -0.77267  -0.74603
 Alpha  occ. eigenvalues --   -0.73557  -0.72023  -0.69816  -0.68218  -0.67238
 Alpha  occ. eigenvalues --   -0.65982  -0.63968  -0.62791  -0.62198  -0.60789
 Alpha  occ. eigenvalues --   -0.59671  -0.58513  -0.57675  -0.56832  -0.55865
 Alpha  occ. eigenvalues --   -0.54539  -0.53690  -0.52587  -0.52065  -0.51002
 Alpha  occ. eigenvalues --   -0.49734  -0.48977  -0.48545  -0.44990  -0.43526
 Alpha  occ. eigenvalues --   -0.43034  -0.40714  -0.36631  -0.34843  -0.31268
 Alpha virt. eigenvalues --   -0.15944  -0.14431  -0.12483  -0.10743  -0.09751
 Alpha virt. eigenvalues --   -0.08629  -0.07682  -0.06216  -0.05795  -0.05380
 Alpha virt. eigenvalues --   -0.04035  -0.03567  -0.02956  -0.01777  -0.01606
 Alpha virt. eigenvalues --   -0.00727  -0.00425   0.00206   0.01764   0.02320
 Alpha virt. eigenvalues --    0.03409   0.04037   0.05785   0.06696   0.08964
 Alpha virt. eigenvalues --    0.10806   0.11479   0.11710   0.12337   0.13200
 Alpha virt. eigenvalues --    0.13607   0.13794   0.15005   0.15356   0.16423
 Alpha virt. eigenvalues --    0.18250   0.18806   0.20217   0.21200   0.21465
 Alpha virt. eigenvalues --    0.22594   0.23338   0.23986   0.25737   0.26091
 Alpha virt. eigenvalues --    0.26394   0.27274   0.27745   0.28115   0.28538
 Alpha virt. eigenvalues --    0.29267   0.30139   0.30873   0.30982   0.31590
 Alpha virt. eigenvalues --    0.32124   0.32364   0.33115   0.33672   0.34111
 Alpha virt. eigenvalues --    0.34492   0.35464   0.35884   0.36270   0.37378
 Alpha virt. eigenvalues --    0.37505   0.38086   0.38774   0.39210   0.40072
 Alpha virt. eigenvalues --    0.40636   0.41177   0.41866   0.42415   0.42984
 Alpha virt. eigenvalues --    0.43801   0.44510   0.45436   0.46250   0.47584
 Alpha virt. eigenvalues --    0.48081   0.48923   0.50082   0.50821   0.52289
 Alpha virt. eigenvalues --    0.52772   0.53857   0.54913   0.55317   0.56567
 Alpha virt. eigenvalues --    0.57976   0.58770   0.60101   0.60669   0.61511
 Alpha virt. eigenvalues --    0.61843   0.62270   0.62949   0.63411   0.64851
 Alpha virt. eigenvalues --    0.66055   0.66216   0.67557   0.68642   0.68850
 Alpha virt. eigenvalues --    0.70062   0.71131   0.72016   0.72845   0.73476
 Alpha virt. eigenvalues --    0.74660   0.75305   0.77270   0.77794   0.78395
 Alpha virt. eigenvalues --    0.79760   0.80891   0.81679   0.82499   0.83527
 Alpha virt. eigenvalues --    0.84279   0.85130   0.86620   0.87691   0.88705
 Alpha virt. eigenvalues --    0.89224   0.89418   0.90745   0.91611   0.91932
 Alpha virt. eigenvalues --    0.92400   0.93492   0.94337   0.94585   0.95138
 Alpha virt. eigenvalues --    0.96201   0.97020   0.97215   0.98682   0.99532
 Alpha virt. eigenvalues --    1.00548   1.00845   1.01232   1.02156   1.02771
 Alpha virt. eigenvalues --    1.03628   1.04556   1.05183   1.06084   1.06736
 Alpha virt. eigenvalues --    1.07313   1.08234   1.09253   1.09783   1.11053
 Alpha virt. eigenvalues --    1.11782   1.12604   1.13370   1.13644   1.14807
 Alpha virt. eigenvalues --    1.15359   1.17098   1.17427   1.18008   1.18411
 Alpha virt. eigenvalues --    1.18586   1.19367   1.20375   1.21031   1.21433
 Alpha virt. eigenvalues --    1.21962   1.22481   1.23414   1.24215   1.24858
 Alpha virt. eigenvalues --    1.25535   1.25648   1.26982   1.27222   1.28224
 Alpha virt. eigenvalues --    1.28755   1.29159   1.31767   1.33641   1.34102
 Alpha virt. eigenvalues --    1.35195   1.36807   1.37588   1.38502   1.38909
 Alpha virt. eigenvalues --    1.39345   1.40786   1.41484   1.42719   1.43625
 Alpha virt. eigenvalues --    1.44860   1.45668   1.47221   1.49046   1.50196
 Alpha virt. eigenvalues --    1.52102   1.53226   1.54232   1.54945   1.56177
 Alpha virt. eigenvalues --    1.57262   1.57851   1.58885   1.60364   1.62014
 Alpha virt. eigenvalues --    1.62461   1.62924   1.64347   1.67187   1.67588
 Alpha virt. eigenvalues --    1.69532   1.71458   1.73371   1.76754   1.79158
 Alpha virt. eigenvalues --    1.79809   1.80529   1.83188   1.88681   1.91196
 Alpha virt. eigenvalues --    1.92440   1.95893   1.97456   1.98573   2.01202
 Alpha virt. eigenvalues --    2.03931   2.05699   2.06743   2.09226   2.14193
 Alpha virt. eigenvalues --    2.14942   2.16939   2.18833   2.23647   2.24541
 Alpha virt. eigenvalues --    2.31119   2.33326   2.35866   2.37866   2.39531
 Alpha virt. eigenvalues --    2.40626   2.42604   2.42993   2.44753   2.46445
 Alpha virt. eigenvalues --    2.47727   2.49898   2.50504   2.52077   2.53325
 Alpha virt. eigenvalues --    2.54373   2.54849   2.55176   2.56465   2.58190
 Alpha virt. eigenvalues --    2.58897   2.59743   2.61189   2.62508   2.62818
 Alpha virt. eigenvalues --    2.64588   2.64823   2.67671   2.68732   2.69759
 Alpha virt. eigenvalues --    2.70167   2.70869   2.71675   2.72865   2.74673
 Alpha virt. eigenvalues --    2.74938   2.76046   2.77222   2.77840   2.78482
 Alpha virt. eigenvalues --    2.79043   2.79631   2.80344   2.81970   2.82104
 Alpha virt. eigenvalues --    2.82661   2.83610   2.84643   2.85137   2.86695
 Alpha virt. eigenvalues --    2.87358   2.87927   2.88630   2.89919   2.90407
 Alpha virt. eigenvalues --    2.90551   2.91379   2.92365   2.92977   2.93958
 Alpha virt. eigenvalues --    2.95122   2.95460   2.96378   2.97388   2.98307
 Alpha virt. eigenvalues --    2.99011   2.99228   3.00280   3.01010   3.01645
 Alpha virt. eigenvalues --    3.02461   3.02951   3.03538   3.04796   3.05299
 Alpha virt. eigenvalues --    3.06091   3.06877   3.07366   3.07817   3.08610
 Alpha virt. eigenvalues --    3.09084   3.09509   3.10666   3.11703   3.13031
 Alpha virt. eigenvalues --    3.13958   3.14181   3.14602   3.15099   3.15318
 Alpha virt. eigenvalues --    3.16259   3.17245   3.18068   3.19240   3.19598
 Alpha virt. eigenvalues --    3.20392   3.20979   3.21834   3.22402   3.22581
 Alpha virt. eigenvalues --    3.22854   3.24628   3.25016   3.25403   3.26800
 Alpha virt. eigenvalues --    3.27275   3.28182   3.28916   3.29554   3.30432
 Alpha virt. eigenvalues --    3.31494   3.31899   3.32864   3.33761   3.35457
 Alpha virt. eigenvalues --    3.35915   3.36881   3.37335   3.37921   3.38704
 Alpha virt. eigenvalues --    3.39198   3.39917   3.40096   3.41040   3.42598
 Alpha virt. eigenvalues --    3.43565   3.44512   3.46235   3.47109   3.47664
 Alpha virt. eigenvalues --    3.48738   3.49644   3.49908   3.50890   3.51442
 Alpha virt. eigenvalues --    3.52503   3.53205   3.53795   3.54825   3.56007
 Alpha virt. eigenvalues --    3.56870   3.57554   3.58618   3.59145   3.60219
 Alpha virt. eigenvalues --    3.60744   3.61527   3.62443   3.63394   3.64028
 Alpha virt. eigenvalues --    3.65063   3.66576   3.66810   3.67844   3.68144
 Alpha virt. eigenvalues --    3.68652   3.69817   3.70230   3.71699   3.72943
 Alpha virt. eigenvalues --    3.73890   3.74551   3.75317   3.76405   3.77386
 Alpha virt. eigenvalues --    3.77653   3.78496   3.81033   3.81373   3.82343
 Alpha virt. eigenvalues --    3.82791   3.83173   3.83297   3.84293   3.84778
 Alpha virt. eigenvalues --    3.85029   3.86427   3.87736   3.88349   3.88777
 Alpha virt. eigenvalues --    3.89779   3.90854   3.91613   3.92245   3.92748
 Alpha virt. eigenvalues --    3.93294   3.94468   3.95698   3.96086   3.97112
 Alpha virt. eigenvalues --    3.97831   3.98866   3.99903   4.00167   4.01824
 Alpha virt. eigenvalues --    4.02641   4.03598   4.04124   4.05696   4.06140
 Alpha virt. eigenvalues --    4.07074   4.08926   4.11015   4.11389   4.12158
 Alpha virt. eigenvalues --    4.13672   4.14812   4.16559   4.17676   4.18578
 Alpha virt. eigenvalues --    4.19293   4.21936   4.23021   4.23974   4.25387
 Alpha virt. eigenvalues --    4.27770   4.29016   4.31067   4.32123   4.33006
 Alpha virt. eigenvalues --    4.35151   4.35950   4.37625   4.39567   4.40315
 Alpha virt. eigenvalues --    4.42900   4.43930   4.44336   4.45365   4.46838
 Alpha virt. eigenvalues --    4.48583   4.49313   4.50165   4.53477   4.55898
 Alpha virt. eigenvalues --    4.58229   4.59359   4.61640   4.62139   4.62808
 Alpha virt. eigenvalues --    4.66635   4.68678   4.69811   4.70811   4.72023
 Alpha virt. eigenvalues --    4.72341   4.72939   4.74019   4.75678   4.76956
 Alpha virt. eigenvalues --    4.77421   4.78580   4.82139   4.82900   4.83309
 Alpha virt. eigenvalues --    4.84573   4.85530   4.87252   4.87490   4.88208
 Alpha virt. eigenvalues --    4.89265   4.90890   4.91266   4.91556   4.92957
 Alpha virt. eigenvalues --    4.93817   4.95272   4.96129   4.96450   4.97621
 Alpha virt. eigenvalues --    4.98690   4.99345   5.00624   5.01461   5.02326
 Alpha virt. eigenvalues --    5.03312   5.04209   5.04730   5.06005   5.07382
 Alpha virt. eigenvalues --    5.08900   5.11127   5.11817   5.13045   5.13570
 Alpha virt. eigenvalues --    5.14886   5.16059   5.17054   5.18517   5.19463
 Alpha virt. eigenvalues --    5.20244   5.22390   5.23357   5.24360   5.26559
 Alpha virt. eigenvalues --    5.26793   5.27614   5.29350   5.30872   5.32372
 Alpha virt. eigenvalues --    5.33601   5.34819   5.35896   5.37286   5.38456
 Alpha virt. eigenvalues --    5.38865   5.41170   5.43517   5.45666   5.48608
 Alpha virt. eigenvalues --    5.50414   5.51444   5.53039   5.57583   5.58584
 Alpha virt. eigenvalues --    5.60081   5.60789   5.64039   5.66246   5.68922
 Alpha virt. eigenvalues --    5.70314   5.73090   5.75171   5.78411   5.79124
 Alpha virt. eigenvalues --    5.79856   5.81825   5.85293   5.86568   5.88155
 Alpha virt. eigenvalues --    5.90442   5.93955   5.96696   5.99930   6.06396
 Alpha virt. eigenvalues --    6.09956   6.10781   6.14373   6.15689   6.19075
 Alpha virt. eigenvalues --    6.20146   6.22662   6.25500   6.28497   6.29356
 Alpha virt. eigenvalues --    6.34180   6.37672   6.44071   6.56042   6.60879
 Alpha virt. eigenvalues --    6.66909   6.71054   6.78458   6.82495   6.84776
 Alpha virt. eigenvalues --    6.86667   6.89834   6.93183   7.01123   7.01695
 Alpha virt. eigenvalues --    7.04189   7.05695   7.06759   7.08315   7.14832
 Alpha virt. eigenvalues --    7.17387   7.26903   7.36770   7.39022   7.51685
 Alpha virt. eigenvalues --    7.53948   7.58084   7.66170   7.85770  24.34876
 Alpha virt. eigenvalues --   24.48387  24.55535  24.63473  24.76330  24.83498
 Alpha virt. eigenvalues --   24.85979  24.92727  24.98670  35.89347  36.08516
 Alpha virt. eigenvalues --   36.13588  36.29668  50.05567  50.07908  50.17131
          Condensed to atoms (all electrons):
               1          2          3          4          5          6
     1  O    8.016746   0.479488  -0.071757  -0.016476   0.009086  -0.000030
     2  C    0.479488   4.476574   0.433219  -0.066351  -0.001786  -0.000218
     3  N   -0.071757   0.433219   6.419545   0.267386  -0.060005   0.001666
     4  C   -0.016476  -0.066351   0.267386   5.208964   0.252339  -0.082653
     5  C    0.009086  -0.001786  -0.060005   0.252339   4.259300   0.400626
     6  O   -0.000030  -0.000218   0.001666  -0.082653   0.400626   7.743801
     7  O   -0.004397   0.018786  -0.007397  -0.095849   0.704924  -0.076829
     8  C   -0.003770  -0.004241  -0.032902   0.271761  -0.060225   0.006259
     9  C    0.000925  -0.000263  -0.000273  -0.080789   0.005022  -0.013512
    10  C   -0.000069   0.000006  -0.000021  -0.004926   0.002573   0.010222
    11  N    0.000000   0.000000   0.000000  -0.000393   0.000051  -0.000269
    12  C    0.000000   0.000000   0.000000   0.000411  -0.000031   0.000766
    13  N   -0.000001   0.000005   0.000107   0.002187  -0.001116  -0.000644
    14  C   -0.049375   0.297455  -0.030891   0.003196  -0.000084  -0.000009
    15  C   -0.001508  -0.055691  -0.003679  -0.000271   0.000364   0.000000
    16  N   -0.053972  -0.000209  -0.000237  -0.000009  -0.000019   0.000000
    17  H    0.003958  -0.028860   0.363475  -0.024683   0.004430  -0.000081
    18  H   -0.000266   0.004911  -0.021916   0.392404  -0.025478   0.007612
    19  H    0.000038  -0.000113  -0.000387   0.015648  -0.041062   0.309126
    20  H   -0.000707   0.004069   0.007628  -0.061705   0.005367  -0.000219
    21  H    0.021873  -0.002530   0.000545  -0.040911  -0.000602  -0.000757
    22  H   -0.000031  -0.000001  -0.000002  -0.000243   0.000319   0.000929
    23  H    0.000000   0.000000   0.000000   0.000007   0.000001   0.000017
    24  H    0.000000   0.000003  -0.000093  -0.000172   0.000049  -0.000067
    25  H    0.001947  -0.028372   0.001099  -0.000138  -0.000053   0.000001
    26  H    0.003168  -0.025168  -0.002020   0.000438  -0.000317  -0.000001
    27  H   -0.000090   0.004587  -0.000271  -0.000004   0.000013   0.000000
    28  H   -0.000145  -0.000870   0.001119  -0.000183   0.000157   0.000027
    29  H    0.002202  -0.000157   0.000084   0.000008  -0.000007   0.000000
    30  H    0.001397   0.000366   0.000003   0.000005  -0.000003   0.000000
    31  H    0.131857  -0.023669   0.001404  -0.000200   0.000217   0.000004
               7          8          9         10         11         12
     1  O   -0.004397  -0.003770   0.000925  -0.000069   0.000000   0.000000
     2  C    0.018786  -0.004241  -0.000263   0.000006   0.000000   0.000000
     3  N   -0.007397  -0.032902  -0.000273  -0.000021   0.000000   0.000000
     4  C   -0.095849   0.271761  -0.080789  -0.004926  -0.000393   0.000411
     5  C    0.704924  -0.060225   0.005022   0.002573   0.000051  -0.000031
     6  O   -0.076829   0.006259  -0.013512   0.010222  -0.000269   0.000766
     7  O    7.832655   0.000547  -0.000019  -0.000032   0.000000   0.000000
     8  C    0.000547   4.850313   0.282242  -0.031019   0.010875  -0.001505
     9  C   -0.000019   0.282242   5.247274   0.472344  -0.055107  -0.123487
    10  C   -0.000032  -0.031019   0.472344   4.700931   0.478399  -0.149624
    11  N    0.000000   0.010875  -0.055107   0.478399   6.481371   0.577655
    12  C    0.000000  -0.001505  -0.123487  -0.149624   0.577655   4.571333
    13  N   -0.000003  -0.048156   0.335512  -0.041129  -0.125241   0.469839
    14  C   -0.002800  -0.000126   0.000024   0.000000   0.000000   0.000000
    15  C   -0.000395  -0.000095   0.000000   0.000000   0.000000   0.000000
    16  N   -0.000211   0.000013   0.000000   0.000000   0.000000   0.000000
    17  H    0.001458   0.003710  -0.000221   0.000010   0.000000  -0.000001
    18  H    0.001842  -0.032839  -0.002208  -0.001063   0.000010   0.000101
    19  H    0.008949  -0.000570   0.000978   0.000595   0.000010  -0.000068
    20  H   -0.000254   0.389689  -0.030727   0.001638  -0.000541   0.000620
    21  H    0.001172   0.391265  -0.021400  -0.006099   0.000448  -0.000297
    22  H   -0.000022  -0.000050  -0.058583   0.435775  -0.017947   0.006303
    23  H    0.000000  -0.000212   0.004927   0.003860  -0.016137   0.426044
    24  H    0.000000   0.007050  -0.030525   0.003161   0.007217  -0.026153
    25  H    0.000086   0.000138  -0.000002   0.000000   0.000000   0.000000
    26  H   -0.000062  -0.000053  -0.000004   0.000000   0.000000   0.000000
    27  H    0.000034   0.000000   0.000000   0.000000   0.000000   0.000000
    28  H    0.008486   0.000044   0.000000   0.000000   0.000000   0.000000
    29  H   -0.000009   0.000000   0.000000   0.000000   0.000000   0.000000
    30  H   -0.000030  -0.000003   0.000000   0.000000   0.000000   0.000000
    31  H    0.001651  -0.000013   0.000019  -0.000002   0.000000   0.000000
              13         14         15         16         17         18
     1  O   -0.000001  -0.049375  -0.001508  -0.053972   0.003958  -0.000266
     2  C    0.000005   0.297455  -0.055691  -0.000209  -0.028860   0.004911
     3  N    0.000107  -0.030891  -0.003679  -0.000237   0.363475  -0.021916
     4  C    0.002187   0.003196  -0.000271  -0.000009  -0.024683   0.392404
     5  C   -0.001116  -0.000084   0.000364  -0.000019   0.004430  -0.025478
     6  O   -0.000644  -0.000009   0.000000   0.000000  -0.000081   0.007612
     7  O   -0.000003  -0.002800  -0.000395  -0.000211   0.001458   0.001842
     8  C   -0.048156  -0.000126  -0.000095   0.000013   0.003710  -0.032839
     9  C    0.335512   0.000024   0.000000   0.000000  -0.000221  -0.002208
    10  C   -0.041129   0.000000   0.000000   0.000000   0.000010  -0.001063
    11  N   -0.125241   0.000000   0.000000   0.000000   0.000000   0.000010
    12  C    0.469839   0.000000   0.000000   0.000000  -0.000001   0.000101
    13  N    6.304677   0.000000   0.000000   0.000000  -0.000018   0.006425
    14  C    0.000000   4.830948   0.322178  -0.034169  -0.003770  -0.000196
    15  C    0.000000   0.322178   4.709920   0.232917   0.000275   0.000020
    16  N    0.000000  -0.034169   0.232917   5.796947   0.000081  -0.000001
    17  H   -0.000018  -0.003770   0.000275   0.000081   0.569696  -0.010975
    18  H    0.006425  -0.000196   0.000020  -0.000001  -0.010975   0.639292
    19  H    0.000022   0.000002   0.000003   0.000000   0.000014  -0.001007
    20  H    0.000096   0.000093   0.000038  -0.000004   0.000265  -0.005740
    21  H    0.002350   0.000604   0.000041  -0.000039  -0.000355   0.006835
    22  H    0.004229   0.000000   0.000000   0.000000   0.000000   0.000007
    23  H   -0.036883   0.000000   0.000000   0.000000   0.000000   0.000024
    24  H    0.378353   0.000000   0.000000   0.000000   0.000011   0.000212
    25  H    0.000000   0.392290  -0.040255  -0.000408   0.000633   0.000014
    26  H    0.000000   0.400691  -0.030437   0.003507   0.001128   0.000001
    27  H    0.000000  -0.035262   0.430236  -0.025794  -0.000023   0.000000
    28  H    0.000000  -0.032469   0.398541  -0.021935   0.000218  -0.000014
    29  H    0.000000   0.002389  -0.028499   0.358609  -0.000007   0.000000
    30  H    0.000000   0.003214  -0.018048   0.375486  -0.000009   0.000000
    31  H    0.000000  -0.006296  -0.025343   0.311511  -0.000394   0.000022
              19         20         21         22         23         24
     1  O    0.000038  -0.000707   0.021873  -0.000031   0.000000   0.000000
     2  C   -0.000113   0.004069  -0.002530  -0.000001   0.000000   0.000003
     3  N   -0.000387   0.007628   0.000545  -0.000002   0.000000  -0.000093
     4  C    0.015648  -0.061705  -0.040911  -0.000243   0.000007  -0.000172
     5  C   -0.041062   0.005367  -0.000602   0.000319   0.000001   0.000049
     6  O    0.309126  -0.000219  -0.000757   0.000929   0.000017  -0.000067
     7  O    0.008949  -0.000254   0.001172  -0.000022   0.000000   0.000000
     8  C   -0.000570   0.389689   0.391265  -0.000050  -0.000212   0.007050
     9  C    0.000978  -0.030727  -0.021400  -0.058583   0.004927  -0.030525
    10  C    0.000595   0.001638  -0.006099   0.435775   0.003860   0.003161
    11  N    0.000010  -0.000541   0.000448  -0.017947  -0.016137   0.007217
    12  C   -0.000068   0.000620  -0.000297   0.006303   0.426044  -0.026153
    13  N    0.000022   0.000096   0.002350   0.004229  -0.036883   0.378353
    14  C    0.000002   0.000093   0.000604   0.000000   0.000000   0.000000
    15  C    0.000003   0.000038   0.000041   0.000000   0.000000   0.000000
    16  N    0.000000  -0.000004  -0.000039   0.000000   0.000000   0.000000
    17  H    0.000014   0.000265  -0.000355   0.000000   0.000000   0.000011
    18  H   -0.001007  -0.005740   0.006835   0.000007   0.000024   0.000212
    19  H    0.474182   0.000131  -0.000150   0.000108  -0.000001   0.000000
    20  H    0.000131   0.692022  -0.035545   0.000056  -0.000023   0.001183
    21  H   -0.000150  -0.035545   0.634406   0.001722   0.000015  -0.000214
    22  H    0.000108   0.000056   0.001722   0.614679  -0.000385  -0.000422
    23  H   -0.000001  -0.000023   0.000015  -0.000385   0.583749  -0.001122
    24  H    0.000000   0.001183  -0.000214  -0.000422  -0.001122   0.551282
    25  H   -0.000001  -0.000082  -0.000040   0.000000   0.000000   0.000000
    26  H   -0.000001  -0.000016  -0.000072   0.000000   0.000000   0.000000
    27  H    0.000000   0.000000   0.000002   0.000000   0.000000   0.000000
    28  H   -0.000008  -0.000002  -0.000013   0.000000   0.000000   0.000000
    29  H    0.000000  -0.000001  -0.000009   0.000000   0.000000   0.000000
    30  H    0.000001   0.000000  -0.000002   0.000000   0.000000   0.000000
    31  H   -0.000003   0.000006   0.000379  -0.000001   0.000000   0.000000
              25         26         27         28         29         30
     1  O    0.001947   0.003168  -0.000090  -0.000145   0.002202   0.001397
     2  C   -0.028372  -0.025168   0.004587  -0.000870  -0.000157   0.000366
     3  N    0.001099  -0.002020  -0.000271   0.001119   0.000084   0.000003
     4  C   -0.000138   0.000438  -0.000004  -0.000183   0.000008   0.000005
     5  C   -0.000053  -0.000317   0.000013   0.000157  -0.000007  -0.000003
     6  O    0.000001  -0.000001   0.000000   0.000027   0.000000   0.000000
     7  O    0.000086  -0.000062   0.000034   0.008486  -0.000009  -0.000030
     8  C    0.000138  -0.000053   0.000000   0.000044   0.000000  -0.000003
     9  C   -0.000002  -0.000004   0.000000   0.000000   0.000000   0.000000
    10  C    0.000000   0.000000   0.000000   0.000000   0.000000   0.000000
    11  N    0.000000   0.000000   0.000000   0.000000   0.000000   0.000000
    12  C    0.000000   0.000000   0.000000   0.000000   0.000000   0.000000
    13  N    0.000000   0.000000   0.000000   0.000000   0.000000   0.000000
    14  C    0.392290   0.400691  -0.035262  -0.032469   0.002389   0.003214
    15  C   -0.040255  -0.030437   0.430236   0.398541  -0.028499  -0.018048
    16  N   -0.000408   0.003507  -0.025794  -0.021935   0.358609   0.375486
    17  H    0.000633   0.001128  -0.000023   0.000218  -0.000007  -0.000009
    18  H    0.000014   0.000001   0.000000  -0.000014   0.000000   0.000000
    19  H   -0.000001  -0.000001   0.000000  -0.000008   0.000000   0.000001
    20  H   -0.000082  -0.000016   0.000000  -0.000002  -0.000001   0.000000
    21  H   -0.000040  -0.000072   0.000002  -0.000013  -0.000009  -0.000002
    22  H    0.000000   0.000000   0.000000   0.000000   0.000000   0.000000
    23  H    0.000000   0.000000   0.000000   0.000000   0.000000   0.000000
    24  H    0.000000   0.000000   0.000000   0.000000   0.000000   0.000000
    25  H    0.638427  -0.033443  -0.003991   0.006153   0.001997  -0.000033
    26  H   -0.033443   0.645246  -0.002949  -0.002238  -0.000054  -0.000244
    27  H   -0.003991  -0.002949   0.602659  -0.035371  -0.007513  -0.000350
    28  H    0.006153  -0.002238  -0.035371   0.601446   0.005213  -0.005710
    29  H    0.001997  -0.000054  -0.007513   0.005213   0.576657  -0.030952
    30  H   -0.000033  -0.000244  -0.000350  -0.005710  -0.030952   0.556064
    31  H    0.001072  -0.000023   0.004676  -0.000277  -0.017726  -0.013594
              31
     1  O    0.131857
     2  C   -0.023669
     3  N    0.001404
     4  C   -0.000200
     5  C    0.000217
     6  O    0.000004
     7  O    0.001651
     8  C   -0.000013
     9  C    0.000019
    10  C   -0.000002
    11  N    0.000000
    12  C    0.000000
    13  N    0.000000
    14  C   -0.006296
    15  C   -0.025343
    16  N    0.311511
    17  H   -0.000394
    18  H    0.000022
    19  H   -0.000003
    20  H    0.000006
    21  H    0.000379
    22  H   -0.000001
    23  H    0.000000
    24  H    0.000000
    25  H    0.001072
    26  H   -0.000023
    27  H    0.004676
    28  H   -0.000277
    29  H   -0.017726
    30  H   -0.013594
    31  H    0.447487
 Mulliken charges:
               1
     1  O   -0.470091
     2  C    0.519030
     3  N   -0.265427
     4  C    0.061205
     5  C    0.545950
     6  O   -0.305766
     7  O   -0.392283
     8  C    0.001874
     9  C    0.067855
    10  C    0.124468
    11  N   -0.340400
    12  C    0.248093
    13  N   -0.250612
    14  C   -0.057635
    15  C    0.109691
    16  N    0.057937
    17  H    0.120033
    18  H    0.041971
    19  H    0.233564
    20  H    0.032662
    21  H    0.047379
    22  H    0.013559
    23  H    0.036119
    24  H    0.110247
    25  H    0.062959
    26  H    0.042922
    27  H    0.069412
    28  H    0.077831
    29  H    0.137774
    30  H    0.132442
    31  H    0.187235
 Sum of Mulliken charges =   1.00000
 Mulliken charges with hydrogens summed into heavy atoms:
               1
     1  O   -0.470091
     2  C    0.519030
     3  N   -0.145393
     4  C    0.103176
     5  C    0.545950
     6  O   -0.072202
     7  O   -0.392283
     8  C    0.081914
     9  C    0.067855
    10  C    0.138027
    11  N   -0.340400
    12  C    0.284212
    13  N   -0.140364
    14  C    0.048246
    15  C    0.256934
    16  N    0.515389
 Electronic spatial extent (au):  <R**2>=           4762.9981
 Charge=              1.0000 electrons
 Dipole moment (field-independent basis, Debye):
    X=            -12.8553    Y=             -5.1350    Z=              0.9809  Tot=             13.8776
 Quadrupole moment (field-independent basis, Debye-Ang):
   XX=            -24.9462   YY=            -79.9354   ZZ=            -85.8880
   XY=            -14.7100   XZ=              8.1786   YZ=              1.0923
 Traceless Quadrupole moment (field-independent basis, Debye-Ang):
   XX=             38.6436   YY=            -16.3455   ZZ=            -22.2982
   XY=            -14.7100   XZ=              8.1786   YZ=              1.0923
 Octapole moment (field-independent basis, Debye-Ang**2):
  XXX=           -409.0063  YYY=            -63.8150  ZZZ=            -34.1756  XYY=            -86.7055
  XXY=            -86.2712  XXZ=            -38.5396  XZZ=            -52.5221  YZZ=             -8.1087
  YYZ=             -0.8720  XYZ=             15.3735
 Hexadecapole moment (field-independent basis, Debye-Ang**3):
 XXXX=          -3337.7783 YYYY=           -672.6425 ZZZZ=           -551.3434 XXXY=           -945.0094
 XXXZ=            185.4227 YYYX=           -519.8160 YYYZ=            -11.5655 ZZZX=            123.3913
 ZZZY=             31.4369 XXYY=           -962.1001 XXZZ=           -870.7664 YYZZ=           -180.9484
 XXYZ=              7.7917 YYXZ=             36.2905 ZZXY=           -134.2071
 N-N= 1.147343826041D+03 E-N=-4.140952209847D+03  KE= 7.934470775203D+02
 Calling FoFJK, ICntrl=      2127 FMM=F ISym2X=0 I1Cent= 0 IOpClX= 0 NMat=1 NMatS=1 NMatT=0.
 -------------------------------------------------------------------
 Center     Atomic                   Forces (Hartrees/Bohr)
 Number     Number              X              Y              Z
 -------------------------------------------------------------------
      1        8           0.000473437   -0.009802800    0.005248041
      2        6           0.001650983    0.005136992   -0.003259635
      3        7          -0.003253869    0.001167102   -0.000028921
      4        6          -0.000148937   -0.001082823    0.000460218
      5        6          -0.008064440    0.003037657    0.003435862
      6        8          -0.005761153    0.000807000    0.001485019
      7        8           0.013816401   -0.002729687   -0.003906557
      8        6          -0.000053440    0.000818526   -0.000388041
      9        6           0.002942621    0.002325449    0.000152964
     10        6          -0.000923324   -0.002455646   -0.000294284
     11        7          -0.002292747   -0.007488308   -0.000114031
     12        6          -0.001510898    0.002049602   -0.000103555
     13        7           0.000190510    0.002675790   -0.000169886
     14        6          -0.000312896   -0.000026085    0.000296359
     15        6          -0.000422874    0.000047828    0.000279231
     16        7          -0.000574754    0.001094353   -0.000572928
     17        1           0.000174029    0.002650611   -0.001797031
     18        1          -0.001773527    0.001900780   -0.000952553
     19        1           0.001512658   -0.002290382   -0.002246466
     20        1           0.000305393    0.001932966    0.001776376
     21        1           0.001950510   -0.002027145    0.000970066
     22        1           0.001453533   -0.002504892    0.000209519
     23        1          -0.002582470    0.000911770   -0.000358666
     24        1           0.000001644    0.003144592    0.000006826
     25        1           0.000875686    0.001255082    0.002253228
     26        1           0.000179517    0.002195447   -0.001838581
     27        1           0.002621230    0.001116967   -0.000328330
     28        1          -0.001010095   -0.001188199   -0.002328720
     29        1           0.001928193    0.000799025    0.002781265
     30        1           0.001518742   -0.002873760   -0.001385741
     31        1          -0.002909663   -0.000597809    0.000718948
 -------------------------------------------------------------------
 Cartesian Forces:  Max     0.013816401 RMS     0.002839615

 GradGradGradGradGradGradGradGradGradGradGradGradGradGradGradGradGradGrad
 Berny optimization.
 FormGI is forming the generalized inverse of G from B-inverse, IUseBI=4.
 Internal  Forces:  Max     0.014607640 RMS     0.002121173
 Search for a local minimum.
 Step number   1 out of a maximum of  167
 All quantities printed in internal units (Hartrees-Bohrs-Radians)
 Mixed Optimization -- RFO/linear search
 Second derivative matrix not updated -- first step.
 ITU=  0
     Eigenvalues ---    0.00071   0.00163   0.00228   0.00284   0.00298
     Eigenvalues ---    0.00443   0.00490   0.00913   0.01019   0.01361
     Eigenvalues ---    0.02021   0.02120   0.02409   0.02562   0.03540
     Eigenvalues ---    0.03944   0.04050   0.04168   0.04393   0.04416
     Eigenvalues ---    0.04452   0.04802   0.04919   0.05150   0.05507
     Eigenvalues ---    0.05566   0.06053   0.06128   0.06487   0.07282
     Eigenvalues ---    0.07702   0.08064   0.10082   0.10181   0.11094
     Eigenvalues ---    0.11115   0.11799   0.11871   0.12483   0.13340
     Eigenvalues ---    0.14026   0.14528   0.14938   0.16413   0.17061
     Eigenvalues ---    0.18287   0.20343   0.20790   0.21297   0.21960
     Eigenvalues ---    0.22989   0.23200   0.23942   0.24224   0.25162
     Eigenvalues ---    0.25812   0.27523   0.28995   0.31239   0.32379
     Eigenvalues ---    0.33143   0.33663   0.33914   0.34314   0.34584
     Eigenvalues ---    0.34597   0.34911   0.35127   0.35694   0.37293
     Eigenvalues ---    0.37378   0.37708   0.40329   0.43705   0.43937
     Eigenvalues ---    0.44161   0.44809   0.45500   0.46911   0.47268
     Eigenvalues ---    0.47892   0.50948   0.51989   0.57804   0.73635
     Eigenvalues ---    0.87247   1.10380
 RFO step:  Lambda=-1.39645298D-03 EMin= 7.13725421D-04
 Linear search not attempted -- first point.
 Iteration  1 RMS(Cart)=  0.03730019 RMS(Int)=  0.00040903
 Iteration  2 RMS(Cart)=  0.00072422 RMS(Int)=  0.00004411
 Iteration  3 RMS(Cart)=  0.00000021 RMS(Int)=  0.00004411
 Variable       Old X    -DE/DX   Delta X   Delta X   Delta X     New X
                                 (Linear)    (Quad)   (Total)
    R1        2.36035  -0.01113   0.00000  -0.01650  -0.01650   2.34385
    R2        2.53359  -0.00518   0.00000  -0.00824  -0.00824   2.52535
    R3        2.88769  -0.00256   0.00000  -0.00598  -0.00598   2.88171
    R4        2.77670  -0.00130   0.00000  -0.00615  -0.00615   2.77055
    R5        1.90995  -0.00320   0.00000  -0.00725  -0.00725   1.90269
    R6        2.91183  -0.00202   0.00000  -0.00641  -0.00641   2.90543
    R7        2.95610  -0.00185   0.00000  -0.00788  -0.00788   2.94822
    R8        2.06718  -0.00276   0.00000  -0.00763  -0.00763   2.05955
    R9        2.52091  -0.00441   0.00000  -0.00598  -0.00598   2.51493
   R10        2.29333  -0.01461   0.00000  -0.01727  -0.01727   2.27606
   R11        1.83993  -0.00351   0.00000  -0.00761  -0.00761   1.83232
   R12        2.81765  -0.00308   0.00000  -0.00788  -0.00788   2.80977
   R13        2.07387  -0.00263   0.00000  -0.00710  -0.00710   2.06677
   R14        2.06054  -0.00297   0.00000  -0.00799  -0.00799   2.05255
   R15        2.59909  -0.00654   0.00000  -0.01152  -0.01152   2.58757
   R16        2.62191  -0.00381   0.00000  -0.00858  -0.00859   2.61333
   R17        2.59544  -0.00322   0.00000  -0.00577  -0.00577   2.58967
   R18        2.04450  -0.00290   0.00000  -0.00764  -0.00764   2.03686
   R19        2.48314  -0.00646   0.00000  -0.01121  -0.01121   2.47193
   R20        2.58583  -0.00470   0.00000  -0.00758  -0.00758   2.57826
   R21        2.04341  -0.00276   0.00000  -0.00710  -0.00710   2.03631
   R22        1.90696  -0.00314   0.00000  -0.00655  -0.00655   1.90041
   R23        2.90651  -0.00209   0.00000  -0.00939  -0.00939   2.89712
   R24        2.07242  -0.00271   0.00000  -0.00753  -0.00753   2.06489
   R25        2.06497  -0.00284   0.00000  -0.00790  -0.00790   2.05708
   R26        2.85951  -0.00218   0.00000  -0.00529  -0.00529   2.85421
   R27        2.06104  -0.00286   0.00000  -0.00786  -0.00786   2.05317
   R28        2.06353  -0.00279   0.00000  -0.00770  -0.00770   2.05582
   R29        1.93250  -0.00348   0.00000  -0.00757  -0.00757   1.92493
   R30        1.93118  -0.00353   0.00000  -0.00769  -0.00769   1.92349
   R31        2.06335  -0.00305   0.00000  -0.02241  -0.02241   2.04094
    A1        2.15131   0.00004   0.00000   0.00459   0.00459   2.15591
    A2        2.06834   0.00041   0.00000   0.00042   0.00041   2.06876
    A3        2.06348  -0.00045   0.00000  -0.00497  -0.00497   2.05851
    A4        2.14892   0.00179   0.00000   0.01275   0.01245   2.16137
    A5        2.03571  -0.00101   0.00000   0.00178   0.00146   2.03718
    A6        2.02686  -0.00059   0.00000   0.00134   0.00102   2.02788
    A7        1.87972   0.00066   0.00000   0.00577   0.00577   1.88549
    A8        1.96736  -0.00027   0.00000  -0.00079  -0.00080   1.96656
    A9        1.85496  -0.00010   0.00000  -0.00045  -0.00044   1.85452
   A10        2.00112  -0.00005   0.00000   0.00054   0.00053   2.00165
   A11        1.86769  -0.00033   0.00000  -0.00482  -0.00482   1.86287
   A12        1.88504   0.00007   0.00000  -0.00066  -0.00066   1.88438
   A13        1.93892   0.00098   0.00000   0.00003   0.00003   1.93895
   A14        2.17010  -0.00002   0.00000  -0.00062  -0.00063   2.16947
   A15        2.17396  -0.00097   0.00000   0.00048   0.00047   2.17443
   A16        1.89092   0.00096   0.00000   0.00781   0.00781   1.89873
   A17        2.01360   0.00049   0.00000   0.00391   0.00391   2.01751
   A18        1.84639  -0.00013   0.00000   0.00013   0.00014   1.84653
   A19        1.89999   0.00012   0.00000   0.00165   0.00165   1.90164
   A20        1.93683  -0.00032   0.00000  -0.00246  -0.00246   1.93437
   A21        1.90211  -0.00028   0.00000  -0.00365  -0.00365   1.89846
   A22        1.85820   0.00011   0.00000   0.00036   0.00036   1.85856
   A23        2.29275  -0.00022   0.00000  -0.00409  -0.00409   2.28866
   A24        2.16822   0.00017   0.00000   0.00227   0.00227   2.17049
   A25        1.82221   0.00005   0.00000   0.00181   0.00181   1.82401
   A26        1.94356  -0.00076   0.00000  -0.00346  -0.00346   1.94010
   A27        2.22123   0.00025   0.00000   0.00104   0.00103   2.22226
   A28        2.11840   0.00051   0.00000   0.00242   0.00242   2.12082
   A29        1.83583   0.00118   0.00000   0.00389   0.00390   1.83973
   A30        1.95166  -0.00084   0.00000  -0.00296  -0.00296   1.94870
   A31        2.19832   0.00042   0.00000   0.00183   0.00183   2.20015
   A32        2.13319   0.00042   0.00000   0.00113   0.00113   2.13432
   A33        1.87149   0.00037   0.00000   0.00072   0.00072   1.87221
   A34        2.21526  -0.00004   0.00000   0.00051   0.00051   2.21577
   A35        2.19274  -0.00033   0.00000  -0.00120  -0.00120   2.19154
   A36        1.90111   0.00185   0.00000   0.01001   0.01000   1.91111
   A37        1.90239  -0.00069   0.00000  -0.00666  -0.00666   1.89573
   A38        1.96757  -0.00080   0.00000  -0.00146  -0.00149   1.96609
   A39        1.93033  -0.00036   0.00000  -0.00166  -0.00165   1.92868
   A40        1.89001  -0.00039   0.00000   0.00009   0.00008   1.89009
   A41        1.87258   0.00034   0.00000  -0.00052  -0.00053   1.87205
   A42        1.90375   0.00073   0.00000   0.00491   0.00491   1.90865
   A43        1.95789  -0.00037   0.00000  -0.00291  -0.00290   1.95499
   A44        1.92394  -0.00009   0.00000   0.00357   0.00356   1.92750
   A45        1.90932  -0.00014   0.00000  -0.00191  -0.00190   1.90742
   A46        1.85691  -0.00018   0.00000   0.00044   0.00042   1.85732
   A47        1.90925   0.00006   0.00000  -0.00393  -0.00393   1.90531
   A48        1.96005  -0.00003   0.00000  -0.00014  -0.00014   1.95990
   A49        1.96160  -0.00013   0.00000  -0.00045  -0.00045   1.96115
   A50        1.79270   0.00006   0.00000   0.00734   0.00734   1.80004
   A51        1.88973   0.00011   0.00000   0.00102   0.00102   1.89075
   A52        1.91154  -0.00006   0.00000  -0.00468  -0.00469   1.90686
   A53        1.94744   0.00005   0.00000  -0.00319  -0.00319   1.94425
    D1        0.33238  -0.00024   0.00000  -0.03760  -0.03762   0.29476
    D2        3.06021   0.00009   0.00000   0.00619   0.00622   3.06643
    D3       -2.79818  -0.00041   0.00000  -0.04207  -0.04210  -2.84028
    D4       -0.07036  -0.00008   0.00000   0.00172   0.00174  -0.06862
    D5       -0.84287  -0.00020   0.00000   0.00101   0.00102  -0.84185
    D6        1.26477   0.00006   0.00000   0.00101   0.00100   1.26577
    D7       -2.94115  -0.00047   0.00000  -0.00502  -0.00501  -2.94616
    D8        2.28823  -0.00004   0.00000   0.00529   0.00530   2.29353
    D9       -1.88732   0.00023   0.00000   0.00530   0.00528  -1.88203
   D10        0.18995  -0.00031   0.00000  -0.00073  -0.00073   0.18922
   D11        1.10899   0.00022   0.00000   0.02272   0.02274   1.13173
   D12       -1.11583  -0.00002   0.00000   0.01814   0.01815  -1.09767
   D13        3.10567   0.00010   0.00000   0.01967   0.01968   3.12535
   D14       -1.62076  -0.00001   0.00000  -0.02095  -0.02096  -1.64172
   D15        2.43761  -0.00025   0.00000  -0.02553  -0.02555   2.41206
   D16        0.37592  -0.00013   0.00000  -0.02400  -0.02402   0.35190
   D17        2.92461  -0.00021   0.00000  -0.01624  -0.01624   2.90837
   D18       -0.19602   0.00007   0.00000  -0.01050  -0.01051  -0.20653
   D19       -1.15348  -0.00008   0.00000  -0.01225  -0.01224  -1.16573
   D20        2.00907   0.00021   0.00000  -0.00651  -0.00651   2.00256
   D21        0.93641  -0.00026   0.00000  -0.01614  -0.01613   0.92028
   D22       -2.18422   0.00003   0.00000  -0.01040  -0.01040  -2.19462
   D23       -2.90132   0.00039   0.00000  -0.01298  -0.01298  -2.91430
   D24       -0.75323   0.00019   0.00000  -0.01350  -0.01350  -0.76673
   D25        1.23773   0.00030   0.00000  -0.01225  -0.01226   1.22547
   D26        1.22283  -0.00025   0.00000  -0.02064  -0.02064   1.20219
   D27       -2.91226  -0.00044   0.00000  -0.02116  -0.02116  -2.93342
   D28       -0.92130  -0.00033   0.00000  -0.01992  -0.01992  -0.94122
   D29       -0.85737   0.00015   0.00000  -0.01441  -0.01440  -0.87178
   D30        1.29072  -0.00004   0.00000  -0.01493  -0.01493   1.27579
   D31       -3.00151   0.00007   0.00000  -0.01368  -0.01368  -3.01519
   D32        3.12334   0.00019   0.00000   0.00076   0.00076   3.12409
   D33       -0.03928  -0.00008   0.00000  -0.00501  -0.00501  -0.04428
   D34       -1.87330  -0.00023   0.00000  -0.02679  -0.02678  -1.90008
   D35        1.27161  -0.00018   0.00000  -0.02366  -0.02366   1.24796
   D36        2.31052  -0.00016   0.00000  -0.02788  -0.02787   2.28264
   D37       -0.82776  -0.00011   0.00000  -0.02475  -0.02474  -0.85250
   D38        0.26971   0.00006   0.00000  -0.02469  -0.02469   0.24502
   D39       -2.86856   0.00012   0.00000  -0.02156  -0.02156  -2.89013
   D40       -3.13644  -0.00001   0.00000   0.00150   0.00150  -3.13494
   D41        0.00511   0.00000   0.00000   0.00139   0.00139   0.00650
   D42        0.00231  -0.00006   0.00000  -0.00116  -0.00116   0.00115
   D43       -3.13932  -0.00005   0.00000  -0.00128  -0.00128  -3.14060
   D44        3.13322   0.00002   0.00000  -0.00096  -0.00096   3.13226
   D45        0.08032   0.00004   0.00000  -0.00137  -0.00137   0.07895
   D46       -0.00580   0.00006   0.00000   0.00148   0.00148  -0.00432
   D47       -3.05870   0.00008   0.00000   0.00107   0.00107  -3.05763
   D48        0.00222   0.00002   0.00000   0.00037   0.00037   0.00258
   D49       -3.13934   0.00001   0.00000   0.00047   0.00047  -3.13887
   D50       -0.00610   0.00002   0.00000   0.00064   0.00064  -0.00546
   D51        3.13203  -0.00004   0.00000  -0.00064  -0.00064   3.13139
   D52        0.00772  -0.00006   0.00000  -0.00139  -0.00139   0.00633
   D53        3.06209  -0.00006   0.00000  -0.00088  -0.00088   3.06121
   D54       -3.13055   0.00000   0.00000  -0.00017  -0.00017  -3.13072
   D55       -0.07619   0.00001   0.00000   0.00034   0.00034  -0.07585
   D56        0.99651   0.00008   0.00000  -0.01004  -0.01004   0.98647
   D57        3.11469   0.00015   0.00000  -0.01097  -0.01098   3.10371
   D58       -1.03628  -0.00008   0.00000  -0.01548  -0.01549  -1.05177
   D59       -1.09389  -0.00002   0.00000  -0.00714  -0.00713  -1.10102
   D60        1.02429   0.00006   0.00000  -0.00806  -0.00806   1.01622
   D61       -3.12667  -0.00018   0.00000  -0.01257  -0.01258  -3.13925
   D62       -3.14117   0.00000   0.00000  -0.00561  -0.00560   3.13642
   D63       -1.02299   0.00008   0.00000  -0.00654  -0.00653  -1.02952
   D64        1.10923  -0.00016   0.00000  -0.01105  -0.01105   1.09818
   D65        1.39313  -0.00006   0.00000   0.00775   0.00775   1.40089
   D66       -2.75411  -0.00004   0.00000   0.00865   0.00865  -2.74547
   D67       -0.65885  -0.00001   0.00000   0.00908   0.00907  -0.64978
   D68       -0.75432   0.00001   0.00000   0.00941   0.00941  -0.74491
   D69        1.38162   0.00003   0.00000   0.01030   0.01030   1.39192
   D70       -2.80631   0.00006   0.00000   0.01073   0.01073  -2.79557
   D71       -2.81497   0.00012   0.00000   0.01481   0.01481  -2.80016
   D72       -0.67903   0.00014   0.00000   0.01570   0.01570  -0.66333
   D73        1.41623   0.00017   0.00000   0.01613   0.01613   1.43236
         Item               Value     Threshold  Converged?
 Maximum Force            0.014608     0.000450     NO 
 RMS     Force            0.002121     0.000300     NO 
 Maximum Displacement     0.154125     0.001800     NO 
 RMS     Displacement     0.037079     0.001200     NO 
 Predicted change in Energy=-7.114872D-04
 GradGradGradGradGradGradGradGradGradGradGradGradGradGradGradGradGradGrad

                          Input orientation:                          
 ---------------------------------------------------------------------
 Center     Atomic      Atomic             Coordinates (Angstroms)
 Number     Number       Type             X           Y           Z
 ---------------------------------------------------------------------
      1          8           0       -1.550778    0.296308   -0.766500
      2          6           0       -1.514055   -0.793458   -0.175370
      3          7           0       -0.400991   -1.307621    0.356203
      4          6           0        0.810092   -0.527162    0.627572
      5          6           0        0.473364    0.513708    1.707881
      6          8           0        1.579107    1.060639    2.207224
      7          8           0       -0.644060    0.775900    2.072975
      8          6           0        1.448944    0.061866   -0.668162
      9          6           0        2.825748    0.602536   -0.516960
     10          6           0        3.294903    1.888854   -0.531553
     11          7           0        4.654224    1.921584   -0.360798
     12          6           0        5.020239    0.671052   -0.245486
     13          7           0        3.953301   -0.175355   -0.327340
     14          6           0       -2.806495   -1.590852   -0.036850
     15          6           0       -3.924024   -0.670518    0.467614
     16          7           0       -4.070790    0.501325   -0.473931
     17          1           0       -0.500353   -2.167190    0.871024
     18          1           0        1.526029   -1.219113    1.070795
     19          1           0        1.328391    1.720932    2.871545
     20          1           0        1.427164   -0.746263   -1.404782
     21          1           0        0.805241    0.847423   -1.053254
     22          1           0        2.720866    2.792517   -0.656702
     23          1           0        6.027905    0.315283   -0.106956
     24          1           0        4.002413   -1.179803   -0.330782
     25          1           0       -3.065466   -2.007807   -1.013098
     26          1           0       -2.712088   -2.425155    0.655958
     27          1           0       -4.875237   -1.189771    0.545312
     28          1           0       -3.664028   -0.254181    1.438478
     29          1           0       -4.610460    0.264297   -1.304704
     30          1           0       -4.507385    1.304904   -0.027054
     31          1           0       -3.051631    0.715202   -0.760301
 ---------------------------------------------------------------------
                    Distance matrix (angstroms):
                    1          2          3          4          5
     1  O    0.000000
     2  C    1.240312   0.000000
     3  N    2.270476   1.336355   0.000000
     4  C    2.862734   2.473315   1.466110   0.000000
     5  C    3.204213   3.034000   2.430796   1.537486   0.000000
     6  O    4.384452   4.322277   3.599406   2.368079   1.330843
     7  O    3.019068   2.876601   2.710618   2.429346   1.204440
     8  C    3.010477   3.123105   2.519341   1.560132   2.607968
     9  C    4.394317   4.571583   3.850059   2.578573   3.239061
    10  C    5.106078   5.517947   4.966407   3.654448   3.855797
    11  N    6.427143   6.741921   6.041279   4.663752   4.872488
    12  C    6.602284   6.696768   5.802319   4.463551   4.951209
    13  N    5.541680   5.504282   4.550727   3.303845   4.089852
    14  C    2.381299   1.524935   2.453805   3.827870   4.269747
    15  C    2.844308   2.497297   3.581910   4.738986   4.719924
    16  N    2.545209   2.881406   4.174786   5.108239   5.040813
    17  H    3.139060   2.002416   1.006862   2.113344   2.972485
    18  H    3.890873   3.313037   2.057153   1.089866   2.125241
    19  H    4.853302   4.866760   4.299982   3.218381   1.882173
    20  H    3.219083   3.188173   2.599681   2.135239   3.490835
    21  H    2.436551   2.973602   2.843551   2.171333   2.800960
    22  H    4.948744   5.570050   5.251962   4.039888   3.979384
    23  H    7.607352   7.623329   6.646731   5.336180   5.846874
    24  H    5.762524   5.532163   4.458503   3.396365   4.413424
    25  H    2.768400   2.140866   3.076471   4.461396   5.126898
    26  H    3.283045   2.188338   2.584551   4.001116   4.459883
    27  H    3.870569   3.460346   4.479791   5.724402   5.732447
    28  H    3.103352   2.741845   3.595618   4.555199   4.216663
    29  H    3.106821   3.461497   4.790529   5.808827   5.914654
    30  H    3.210229   3.658572   4.882074   5.662204   5.333278
    31  H    1.558227   2.232116   3.516289   4.287489   4.307913
                    6          7          8          9         10
     6  O    0.000000
     7  O    2.245344   0.000000
     8  C    3.046692   3.521980   0.000000
     9  C    3.030701   4.333288   1.486867   0.000000
    10  C    3.336284   4.851563   2.600790   1.369282   0.000000
    11  N    4.097842   5.942025   3.718446   2.260000   1.370395
    12  C    4.243696   6.121318   3.647452   2.212280   2.131117
    13  N    3.686257   5.272772   2.538550   1.382912   2.176270
    14  C    5.594620   3.837838   4.608557   6.063300   7.041317
    15  C    6.025579   3.927782   5.540322   6.938982   7.724094
    16  N    6.278755   4.278388   5.540607   6.897415   7.495465
[...]
 ,-0.00000592,0.00000208,-0.00000391,-0.00000233,-0.00001011,-0.0000001
 5,0.00001104,0.00000324,0.00000467,-0.05692451,-0.08410395,-0.25459764
 ,-0.00149002,-0.00352620,-0.01009284,0.00001039,0.00039315,0.00149382,
 0.00024706,-0.00029239,-0.00007914,0.00000986,-0.00000525,0.00000299,0
 .00000919,0.00000531,-0.00000158,0.00000400,0.00000194,0.00000961,-0.0
 0002809,-0.00002050,0.00000957,-0.00000031,-0.00000121,-0.00000082,0.0
 0000045,0.00000027,-0.00000066,-0.00000103,-0.00000215,-0.00000205,0.0
 6173046,0.09474754,0.27540434,-0.00547941,-0.00740837,0.00081159,0.009
 67932,-0.01916941,0.01929425,0.00016130,0.00101819,-0.00030042,0.00019
 219,-0.00014167,-0.00009303,0.00004283,-0.00006048,-0.00000412,0.00000
 430,0.00001259,0.00002759,-0.00002555,0.00010727,-0.00010364,0.0000682
 1,-0.00003870,0.00010124,0.00002909,0.00003444,-0.00004718,0.00000766,
 -0.00000108,0.00000514,-0.00000360,0.00000575,-0.00000073,-0.00001435,
 0.00000070,-0.00000094,-0.00001803,0.00000106,-0.00002167,-0.05284907,
 0.01897567,-0.01511143,-0.00128258,0.01633745,-0.01669666,-0.00291077,
 0.00560407,0.00209671,-0.00185714,-0.00054883,-0.00017196,0.00002266,0
 .00004896,0.00000204,-0.00000069,-0.00000793,0.00000549,-0.00000097,0.
 00001068,-0.00000430,0.00008244,0.00007569,-0.00004880,0.00000188,0.00
 000575,-0.00000087,-0.00000217,-0.00000079,0.00000288,-0.00000567,-0.0
 0000512,0.00000891,-0.00097910,0.00631231,-0.00481360,0.05695736,-0.00
 378902,-0.00129240,0.00074569,0.00542091,-0.01267048,0.00943467,0.0013
 7874,0.00111220,-0.00042902,-0.00017452,-0.00014838,-0.00057295,-0.000
 19976,-0.00007471,0.00003174,0.00010176,0.00003581,0.00005784,0.000127
 79,0.00016099,-0.00015193,0.00008062,-0.00000871,0.00015945,0.00001045
 ,0.00007687,-0.00007686,0.00000450,-0.00003265,-0.00000896,0.00002653,
 0.00000010,0.00000945,0.00000670,0.00002232,0.00000119,-0.00003468,0.0
 0000549,-0.00001712,0.01680560,-0.20358775,0.13066622,0.00161772,-0.01
 481583,0.01222589,0.00264938,-0.00171762,-0.00201919,-0.00089687,0.001
 14064,-0.00007714,0.00000040,0.00000394,0.00001374,-0.00001300,-0.0000
 2379,-0.00000076,-0.00000088,0.00000129,0.00000170,0.00005622,0.000055
 85,-0.00004409,0.00000078,0.00000239,0.00000254,-0.00000119,-0.0000003
 9,0.00000201,-0.00000801,0.00000383,0.00000931,-0.00117631,0.01078927,
 -0.00758446,-0.02105836,0.21994502,0.00058647,0.00036452,0.00221995,-0
 .00226883,-0.00009891,-0.00344174,-0.00009001,-0.00077231,0.00002339,0
 .00018580,-0.00004620,0.00025944,-0.00022579,0.00001969,0.00004690,0.0
 0008468,0.00001637,0.00000772,0.00014794,-0.00002384,-0.00001457,-0.00
 004703,-0.00000467,-0.00003368,-0.00000349,-0.00002998,0.00002040,-0.0
 0000800,0.00000086,-0.00000098,0.00000763,-0.00000612,-0.00000262,0.00
 000944,0.00000009,0.00000193,0.00001285,0.00000433,0.00000005,-0.01409
 491,0.13349677,-0.15765197,-0.00000509,-0.00813566,0.00679149,0.002103
 11,-0.00337109,0.00056581,0.00020561,-0.00004966,0.00093391,0.00002078
 ,0.00001772,0.00001497,-0.00001432,-0.00001143,-0.00000935,0.00000037,
 0.00000695,-0.00001831,-0.00002516,-0.00003098,0.00002436,-0.00000124,
 -0.00000484,0.00000207,0.00000106,0.00000089,0.00000073,-0.00000113,0.
 00000913,0.00000348,-0.00253771,0.02201918,-0.01732182,0.01576155,-0.1
 4284332,0.16656380,0.00112404,-0.00112066,0.00019408,-0.00041820,0.005
 23584,0.00081028,-0.00113240,-0.00096205,0.00005410,0.00022689,0.00016
 629,-0.00023569,-0.00005089,0.00012261,0.00015854,-0.00006916,-0.00011
 359,-0.00011905,-0.00002813,-0.00006331,-0.00008009,0.00004860,0.00002
 772,-0.00005884,0.00000541,-0.00000654,0.00001912,0.00000421,0.0000289
 5,0.00000468,-0.00004060,-0.00000742,-0.00000702,-0.00001086,-0.000007
 97,-0.00000167,0.00000831,-0.00002502,0.00000938,-0.01912365,-0.009249
 40,0.00115322,-0.26607256,-0.11672372,0.01291949,0.00960350,0.00564619
 ,-0.00231309,-0.00000029,-0.00006733,0.00011833,-0.00007034,-0.0000561
 8,-0.00003357,-0.00000212,0.00001052,0.00001445,0.00000537,-0.00000415
 ,-0.00000230,0.00001534,0.00000492,0.00000359,0.00000193,0.00000392,-0
 .00000217,-0.00000089,-0.00000079,-0.00000056,0.00001492,-0.00000706,-
 0.00000574,0.00120670,-0.00036263,0.00016342,0.00036874,0.00007656,-0.
 00035208,0.27993939,-0.00133003,0.00240908,-0.00066110,0.00145259,-0.0
 0593681,-0.00111346,0.00128128,0.00131448,0.00012022,-0.00016478,-0.00
 021527,0.00030379,0.00024115,-0.00018225,-0.00020756,-0.00003163,0.000
 09968,0.00010091,-0.00016518,0.00011504,0.00009858,-0.00003578,-0.0000
 1743,0.00006070,-0.00000345,0.00000552,-0.00002090,0.00000030,-0.00002
 845,-0.00000283,0.00003500,0.00000895,0.00000664,0.00000854,0.00000822
 ,0.00000069,-0.00001077,0.00002477,-0.00000981,0.02059590,0.01211793,-
 0.00221299,-0.10911568,-0.10873381,0.00629877,-0.02363366,-0.01795213,
 0.00694247,-0.00000509,0.00005103,-0.00014145,0.00009162,0.00007299,0.
 00004150,0.00001243,-0.00000086,0.00000309,-0.00000920,0.00000371,0.00
 000796,-0.00000752,-0.00000553,-0.00000701,-0.00000088,-0.00000126,0.0
 0000105,0.00000068,0.00000106,0.00000069,-0.00001328,0.00000515,0.0000
 0620,-0.00084080,0.00087935,0.00019767,-0.00066743,0.00065348,0.000433
 22,0.11917694,0.12200637,-0.00006442,-0.00060817,0.00012381,0.00141576
 ,-0.00212126,0.00006300,0.00083295,0.00039598,0.00034997,-0.00008802,-
 0.00014347,0.00009021,0.00046274,-0.00014662,-0.00016696,-0.00023330,-
 0.00001258,-0.00002078,-0.00046364,0.00005664,0.00013158,0.00001408,0.
 00004191,-0.00000718,-0.00000177,-0.00000584,-0.00000315,0.00000115,0.
 00000599,0.00000322,-0.00000134,-0.00000091,0.00000199,0.00000130,0.00
 000063,-0.00000141,0.00000165,-0.00000192,0.00000173,0.01111829,0.0044
 6458,-0.00103755,0.00614582,0.00188978,-0.05224216,0.02127103,0.017440
 96,-0.00693938,0.00001498,-0.00002237,-0.00002639,0.00003637,0.0000418
 1,0.00002241,0.00002629,0.00002653,0.00002452,-0.00000749,-0.00000250,
 0.00001227,0.00000085,-0.00000413,-0.00000786,0.00000014,0.00000141,-0
 .00000300,0.00000036,0.00000028,-0.00000007,0.00000131,-0.00000080,-0.
 00000011,-0.00026466,0.00089544,0.00030922,-0.00053037,0.00008098,0.00
 045739,-0.01304274,-0.01176093,0.05458259,-0.00032534,-0.00054499,-0.0
 0036257,0.00207640,0.00083880,0.00156135,-0.00017477,0.00007484,-0.000
 43342,0.00011048,0.00010473,0.00002215,-0.00121405,0.00045086,0.000437
 63,0.00073760,0.00009695,0.00016492,0.00103611,-0.00027882,-0.00057549
 ,-0.00007192,-0.00009116,0.00007022,0.00000045,0.00001113,-0.00001840,
 -0.00001171,-0.00003570,-0.00001573,0.00003989,0.00000240,-0.00000038,
 0.00000964,0.00000726,0.00000615,-0.00000893,0.00002233,-0.00001628,0.
 00478236,0.01009149,0.02358424,-0.06929349,-0.02801885,-0.06125898,-0.
 00148280,0.00025792,-0.00340657,-0.00002997,0.00014327,0.00010226,0.00
 000711,-0.00002987,-0.00002210,-0.00007677,-0.00009353,-0.00009004,0.0
 0002584,0.00000293,-0.00004007,0.00000530,0.00000906,0.00001116,-0.000
 00321,-0.00000838,0.00001151,-0.00000007,0.00000001,0.00000233,-0.0000
 1558,0.00001224,0.00001364,-0.00362045,0.00315470,0.00166520,0.0009133
 0,-0.00067388,-0.00065104,-0.00509944,-0.00999034,-0.02511838,0.070237
 10,-0.00045256,0.00091890,-0.00038901,-0.00151274,-0.00061517,0.000864
 93,0.00038807,0.00018166,0.00008911,0.00003459,-0.00008554,-0.00004297
 ,-0.00005751,0.00000859,0.00002955,0.00007896,0.00004675,0.00000072,0.
 00002479,-0.00023776,0.00002742,0.00001325,-0.00000881,0.00000492,-0.0
 0000153,0.00000590,-0.00000279,-0.00000159,-0.00000776,-0.00000231,0.0
 0001236,0.00000216,0.00000064,0.00000222,0.00000197,0.00000101,-0.0000
 0175,0.00000609,-0.00000102,-0.00321910,-0.00800575,-0.01853612,-0.030
 90063,-0.09208258,-0.10022125,0.01023069,0.00471622,0.03431608,0.00000
 955,-0.00002248,-0.00012556,0.00002444,0.00000354,-0.00000640,-0.00001
 582,0.00000081,-0.00001549,-0.00000329,0.00000483,0.00000330,-0.000006
 10,-0.00000397,0.00000519,-0.00000082,-0.00000157,0.00000259,0.0000002
 9,-0.00000001,-0.00000004,-0.00000476,0.00000116,-0.00000170,0.0036694
 9,-0.00147734,-0.00061437,-0.00030618,0.00037700,0.00020218,-0.0025767
 3,-0.00425211,-0.01355504,0.02345721,0.10243653,0.00040886,0.00048416,
 0.00013164,-0.00025620,-0.00059919,0.00012630,0.00015541,0.00001381,-0
 .00003132,0.00005013,-0.00003429,-0.00006988,0.00029178,-0.00007691,-0
 .00010000,-0.00019985,-0.00006649,-0.00003888,-0.00041297,0.00006723,-
 0.00010867,0.00003321,0.00002134,-0.00001199,0.00000511,-0.00000137,0.
 00000138,0.00000435,0.00001018,0.00000398,-0.00001643,-0.00000159,-0.0
 0000143,-0.00000493,-0.00000160,-0.00000176,0.00000107,-0.00000841,0.0
 0000260,-0.00005423,-0.00495936,-0.00701915,-0.05898198,-0.08833470,-0
 .26293542,-0.00668976,-0.00259919,-0.02170413,-0.00000768,-0.00001601,
 0.00001579,-0.00000810,0.00000706,0.00000423,0.00001230,0.00001874,0.0
 0003321,-0.00000322,-0.00000107,0.00000551,0.00000877,0.00000165,-0.00
 000716,0.00000162,0.00000336,-0.00000302,-0.00000046,-0.00000008,-0.00
 000004,0.00000607,-0.00000373,-0.00000177,0.00090667,-0.00079949,0.001
 00819,0.00010004,-0.00009732,0.00048581,0.00035877,0.00049891,0.004746
 48,0.06467821,0.09401884,0.28591181,-0.00202070,0.00165404,0.00232449,
 -0.00071886,-0.00032046,0.00010898,0.00024665,-0.00001224,-0.00017917,
 -0.00009621,-0.00003289,-0.00002387,-0.00016430,-0.00006218,-0.0000968
 8,0.00010790,0.00007401,0.00008258,0.00011211,0.00002991,0.00005602,-0
 .00000771,-0.00001557,0.00003789,-0.00000975,0.00000549,-0.00000834,-0
 .00001298,-0.00002007,-0.00000263,0.00004765,0.00000604,0.00000798,0.0
 0001006,0.00000228,0.00000152,0.00000165,0.00002262,-0.00000533,-0.000
 59217,-0.00022285,-0.00038395,0.00044217,0.00114872,0.00222851,-0.1622
 0779,-0.04395521,-0.16274626,-0.00001562,0.00000387,-0.00008965,0.0000
 1408,0.00000634,0.00000910,-0.00001506,-0.00001585,-0.00002447,-0.0000
 0713,0.00001207,0.00000322,-0.00002927,-0.00001215,-0.00000583,-0.0000
 0400,-0.00000933,-0.00000048,0.00000081,-0.00000029,0.00000044,-0.0000
 1609,0.00000734,0.00000066,0.00004731,0.00048972,0.00009987,0.00012536
 ,0.00007340,0.00020675,0.00080309,-0.00027168,0.00098888,0.00062718,-0
 .00083411,0.00094227,0.16202477,-0.00014895,0.00001366,0.00041462,0.00
 031172,0.00029128,0.00005999,-0.00022178,-0.00012310,-0.00005193,0.000
 05465,0.00007144,0.00004402,-0.00002762,0.00006787,0.00007597,0.000000
 08,-0.00003888,-0.00002524,0.00004337,-0.00000810,-0.00007060,-0.00001
 370,0.00000179,-0.00001559,-0.00000333,0.00000402,0.00000397,-0.000005
 75,0.00002101,0.00000040,-0.00001505,-0.00001400,-0.00000080,-0.000000
 14,0.00000197,-0.00000076,0.00000622,-0.00002328,0.00000496,-0.0002366
 5,0.00071535,0.00082582,0.01613337,0.01018833,0.02413106,-0.03920491,-
 0.07957496,-0.06917808,0.00002160,-0.00002321,0.00001268,-0.00001580,-
 0.00001260,-0.00000351,-0.00000208,0.00000625,0.00000105,0.00000776,-0
 .00000635,-0.00000850,0.00000460,0.00001398,-0.00000643,0.00000062,-0.
 00000035,-0.00000238,0.00000024,-0.00000055,-0.00000006,0.00000628,0.0
 0000236,-0.00000045,0.00028667,-0.00052150,-0.00076190,-0.00019397,-0.
 00023212,-0.00042158,-0.00044506,0.00125722,-0.00020342,0.00064472,-0.
 00463901,0.00304995,0.04579846,0.08043386,0.00260698,-0.00184577,-0.00
 069397,-0.00051636,0.00089409,-0.00085099,0.00060975,-0.00031378,0.000
 37176,-0.00021761,-0.00007705,-0.00002917,-0.00021956,-0.00003853,-0.0
 0008082,0.00014690,0.00010479,0.00009195,0.00017949,-0.00002608,0.0000
 5697,-0.00002476,0.00000531,0.00006347,-0.00000040,-0.00000255,-0.0000
 2219,-0.00000462,-0.00003409,-0.00001360,0.00004615,0.00000857,0.00000
 063,0.00001334,0.00000659,0.00000424,-0.00000387,0.00003118,-0.0000144
 8,0.00001003,0.00025055,0.00114207,-0.00986098,-0.00332044,-0.01779861
 ,-0.15230670,-0.07145880,-0.28529318,0.00002674,0.00009078,0.00006540,
 0.00002176,0.00001198,0.00001028,-0.00001792,-0.00002003,-0.00001547,0
 .00000567,-0.00000811,0.00000496,-0.00002205,-0.00001730,0.00002650,-0
 .00000428,-0.00000419,0.00001122,0.00000074,0.00000110,0.00000290,-0.0
 0001662,0.00000690,0.00001502,-0.00032155,0.00008231,0.00004880,0.0001
 5221,-0.00017437,-0.00004722,0.00094293,-0.00092474,0.00133791,0.00001
 052,0.00394450,-0.00061390,0.16905656,0.07235631,0.30246347,-0.0044007
 3,-0.00021359,-0.00101224,0.00004567,-0.00085467,0.00057965,0.00000307
 ,0.00000154,-0.00010812,0.00009659,0.00001300,-0.00002132,-0.00060900,
 0.00016656,0.00015385,0.00028681,0.00005203,0.00005513,0.00048756,-0.0
 0028150,-0.00004617,-0.00006876,-0.00005365,0.00002268,-0.00000848,0.0
 0002961,-0.00000639,-0.00002232,0.00000215,-0.00001330,0.00003110,-0.0
 0000937,0.00000048,0.00000692,0.00000222,0.00000364,0.00000249,-0.0000
 0536,-0.00000360,0.00030954,0.00043359,-0.00036952,-0.00159217,-0.0001
 0464,-0.00075927,-0.11780159,0.12245613,0.06869506,0.00004405,0.000136
 86,-0.00002068,0.00000137,-0.00001713,-0.00000781,-0.00005100,-0.00001
 814,-0.00005287,0.00001581,-0.00000161,-0.00001534,-0.00000621,0.00003
 172,-0.00000111,-0.00000680,-0.00001167,0.00000943,0.00000015,-0.00000
 202,0.00000126,-0.00000960,0.00000908,0.00000470,0.00012944,0.00005971
 ,-0.00006588,-0.00013827,-0.00003225,0.00017586,0.00007432,-0.00099230
 ,0.00003748,0.00056267,0.00038235,-0.00040487,0.01085946,-0.02007783,-
 0.01004193,0.11448325,-0.00357442,0.00131404,-0.00092471,0.00049685,-0
 .00150518,0.00109984,-0.00058741,0.00045533,-0.00033383,0.00027795,0.0
 0008859,0.00001700,0.00008800,0.00017464,0.00019537,-0.00011778,-0.000
 14344,-0.00011740,-0.00009675,-0.00018614,-0.00009963,-0.00000060,-0.0
 0001229,-0.00004539,0.00000105,0.00002482,0.00000589,-0.00000838,0.000
 05730,-0.00000191,-0.00004901,-0.00003073,-0.00000954,-0.00001046,0.00
 000132,-0.00000137,0.00000820,-0.00006228,0.00001140,-0.00097360,-0.00
 272156,0.00411489,0.01046496,-0.01824085,-0.01081752,0.11458025,-0.276
 63709,-0.13204228,-0.00009023,-0.00003586,-0.00006261,-0.00002095,-0.0
 0001577,-0.00001321,-0.00000788,0.00004954,0.00000646,0.00001402,-0.00
 001556,-0.00001303,0.00003244,0.00005225,-0.00000798,0.00000083,0.0000
 0374,0.00000298,-0.00000065,-0.00000220,0.00000043,0.00001884,-0.00000
 182,-0.00000394,-0.00035215,0.00021954,0.00007331,0.00109805,-0.000282
 22,-0.00053921,-0.00025832,-0.00038832,-0.00030212,0.00014662,0.002431
 69,-0.00037192,0.00332870,-0.00525010,-0.00280180,-0.12768596,0.291516
 81,0.00047006,-0.00012261,0.00049657,0.00084652,0.00068928,-0.00009012
 ,-0.00026964,-0.00012262,-0.00011548,0.00016155,0.00006601,-0.00000210
 ,-0.00038097,0.00018604,0.00022714,0.00014951,-0.00002633,-0.00004139,
 0.00032988,-0.00021383,-0.00017171,-0.00001807,-0.00003600,-0.00000578
 ,0.00000656,-0.00000069,0.00000146,0.00000267,0.00000015,-0.00000704,-
 0.00001425,-0.00000470,-0.00001178,-0.00000326,0.00000075,0.00000271,-
 0.00000138,-0.00000687,-0.00000501,0.00005478,0.00379950,-0.00391462,-
 0.01155367,0.01766971,0.01377528,0.06328851,-0.13115028,-0.13390800,0.
 00007254,-0.00002108,0.00006186,-0.00001501,-0.00002078,-0.00001476,-0
 .00003989,-0.00000556,0.00000221,0.00001376,-0.00000355,-0.00002059,0.
 00001210,0.00000331,0.00001422,0.00000083,0.00000167,0.00001058,-0.000
 00090,0.00000021,0.00000242,0.00000385,0.00000118,0.00000664,0.0001674
 3,-0.00010036,0.00011220,-0.00111455,0.00092312,0.00057290,0.00019280,
 0.00038680,-0.00019677,-0.00067485,0.00022311,0.00054076,0.01581520,-0
 .02380041,-0.01236961,-0.06908864,0.13849062,0.13976463,0.01289629,-0.
 03889127,0.01189445,0.00303426,0.04464466,-0.02488509,0.00787938,-0.01
 320781,0.00838132,-0.00387520,-0.00055802,-0.00075777,-0.00057129,-0.0
 0165984,-0.00272180,0.00084191,0.00135359,0.00128985,0.00009737,0.0008
 4019,0.00213521,-0.00004828,0.00059128,0.00036652,-0.00013141,-0.00028
 876,-0.00006662,-0.00009057,-0.00043632,-0.00005599,0.00068725,0.00014
 028,0.00011465,0.00023096,0.00005757,0.00002844,0.00005740,0.00049058,
 -0.00005970,-0.00188202,-0.00175215,-0.00073224,0.00927671,-0.01564663
 ,0.01014008,-0.19114710,-0.03638142,0.03932594,0.00200496,0.00065979,0
 .00139143,0.00017048,0.00007973,0.00016734,-0.00000499,-0.00017834,-0.
 00022790,-0.00011091,0.00005876,0.00016490,-0.00056899,-0.00066198,0.0
 0028893,-0.00004690,-0.00009287,0.00001821,0.00002401,0.00001868,-0.00
 000012,-0.00022122,0.00010341,0.00004619,-0.00016788,-0.00079409,0.000
 28838,-0.00308925,-0.00037933,0.00081592,-0.00133123,0.00439305,-0.002
 55531,0.00025711,0.00156696,-0.00092397,-0.00955259,-0.00270774,-0.000
 25057,-0.00272531,0.00327777,0.00158654,0.17810705,-0.01318237,-0.0070
 0197,-0.00155163,0.01026429,-0.01161941,0.00558572,-0.00192661,0.00097
 038,-0.00047130,0.00088328,0.00014665,0.00012269,-0.00015908,0.0005295
 1,0.00070791,-0.00009225,-0.00030520,-0.00027071,0.00014265,-0.0005040
 7,-0.00041570,-0.00017728,-0.00014971,-0.00009656,0.00000159,0.0001385
 3,0.00000817,-0.00002193,0.00014483,-0.00000383,-0.00013503,-0.0000684
 7,-0.00001975,-0.00003818,-0.00000477,-0.00000458,-0.00000586,-0.00016
 321,0.00002518,0.00009456,-0.00078639,0.00025652,-0.02485524,-0.011556
 97,0.01118394,-0.04767441,-0.06927342,0.00689832,-0.00009304,0.0001347
 0,0.00018902,-0.00006205,-0.00003976,-0.00004377,-0.00002526,0.0000614
 6,-0.00000229,0.00004561,-0.00003379,-0.00003984,0.00010108,0.00027390
 ,-0.00010976,-0.00000157,0.00000068,0.00000003,-0.00000451,-0.00000873
 ,-0.00000034,0.00005019,-0.00001049,-0.00001063,0.00005092,-0.00045196
 ,-0.00028412,-0.00004029,0.00050057,-0.00020209,0.00155749,-0.00331980
 ,0.00354919,0.00023604,0.00029605,-0.00022250,-0.00687815,-0.00262227,
 0.00327268,0.02658514,0.00914178,-0.00680578,0.05536027,0.09558138,0.0
 0032843,0.00293177,-0.01454809,-0.00645977,-0.00080792,0.00075656,-0.0
 0005142,0.00245376,-0.00017619,0.00044069,-0.00006196,0.00006707,-0.00
 084598,0.00035675,0.00059677,0.00039034,0.00002969,-0.00003722,0.00078
 912,-0.00042204,-0.00037776,-0.00009862,-0.00010620,0.00003626,0.00002
 696,0.00005224,-0.00000880,0.00001104,-0.00000567,-0.00002261,-0.00003
 549,-0.00000696,-0.00001794,-0.00001523,0.00000628,0.00000395,-0.00002
 678,-0.00002287,-0.00001267,0.00037016,0.00001648,0.00096012,0.0180860
 8,0.01170937,-0.00840623,0.04898074,0.00582430,-0.07795699,-0.00060579
 ,0.00040986,0.00031386,0.00000266,-0.00001704,-0.00003064,-0.00005249,
 -0.00004076,-0.00001911,0.00002781,-0.00000993,-0.00003352,0.00009589,
 0.00007954,0.00000585,0.00000263,0.00001040,0.00002195,-0.00000303,-0.
 00000100,0.00000314,0.00000822,-0.00000427,0.00001679,-0.00022965,-0.0
 0025651,-0.00004919,0.00069464,-0.00026805,-0.00045422,-0.00086256,0.0
 0155292,-0.00160551,0.00034282,-0.00022001,-0.00036915,-0.02840404,-0.
 00642916,0.01212566,0.01229985,0.00449121,-0.00471682,-0.04520725,-0.0
 2124420,0.09393469\\0.00000044,-0.00000054,0.00000012,-0.00000171,0.00
 000123,-0.00000187,0.00000017,0.00000012,0.00000069,0.00000149,-0.0000
 0064,-0.00000088,0.00000215,-0.00000051,-0.00000037,-0.00000135,-0.000
 00051,0.00000080,-0.00000107,0.00000048,0.00000051,-0.00000053,0.00000
 106,0.00000133,0.00000055,-0.00000047,-0.00000027,0.00000033,-0.000000
 15,0.00000035,0.00000040,-0.00000094,0.00000046,0.00000010,0.00000027,
 0.00000061,-0.00000042,0.,0.00000058,-0.00000022,0.00000044,-0.0000002
 0,-0.00000024,0.00000005,0.00000019,0.00000346,0.00000147,-0.00000106,
 0.00000010,-0.00000074,-0.00000045,-0.00000011,-0.00000015,-0.00000036
 ,0.00000011,-0.00000051,0.00000072,0.00000022,-0.00000008,0.00000023,-
 0.00000021,-0.00000022,0.00000008,0.00000033,-0.00000024,0.00000076,-0
 .00000007,-0.00000042,0.00000038,0.00000002,-0.00000023,0.00000003,0.0
 0000012,0.00000032,-0.00000048,-0.00000021,0.00000022,-0.00000067,-0.0
 0000010,0.00000047,-0.00000102,0.00000005,-0.00000020,-0.00000052,0.00
 000043,0.00000087,-0.00000021,0.00000037,0.00000049,-0.00000007,-0.000
 00460,-0.00000092,0.00000059\\\@


 GOOD SENSE ABOUT TRIVIALITIES IS BETTER THAN NONSENSE
 ABOUT THINGS THAT MATTER

                                       -- MAX BEERBOHM
 Job cpu time:       0 days 15 hours  8 minutes 33.1 seconds.
 File lengths (MBytes):  RWF=   1140 Int=      0 D2E=      0 Chk=     37 Scr=      1
 Normal termination of Gaussian 09 at Thu Jul 29 06:40:17 2021.
