 Entering Gaussian System, Link 0=g09
 Input=opt_freq-conf-55.com
 Output=opt_freq-conf-55.log
 Initial command:
 /aerosol/software/g09/l1.exe "/scratch/nicole/10510/Gau-72593.inp" -scrdir="/scratch/nicole/10510/"
 Entering Link 1 = /aerosol/software/g09/l1.exe PID=     72597.
  
 Copyright (c) 1988,1990,1992,1993,1995,1998,2003,2009,2013,
            Gaussian, Inc.  All Rights Reserved.
  
 This is part of the Gaussian(R) 09 program.  It is based on
 the Gaussian(R) 03 system (copyright 2003, Gaussian, Inc.),
 the Gaussian(R) 98 system (copyright 1998, Gaussian, Inc.),
 the Gaussian(R) 94 system (copyright 1995, Gaussian, Inc.),
 the Gaussian 92(TM) system (copyright 1992, Gaussian, Inc.),
 the Gaussian 90(TM) system (copyright 1990, Gaussian, Inc.),
 the Gaussian 88(TM) system (copyright 1988, Gaussian, Inc.),
 the Gaussian 86(TM) system (copyright 1986, Carnegie Mellon
 University), and the Gaussian 82(TM) system (copyright 1983,
 Carnegie Mellon University). Gaussian is a federally registered
 trademark of Gaussian, Inc.
  
 This software contains proprietary and confidential information,
 including trade secrets, belonging to Gaussian, Inc.
  
 This software is provided under written license and may be
 used, copied, transmitted, or stored only in accord with that
 written license.
  
 The following legend is applicable only to US Government
 contracts under FAR:
  
                    RESTRICTED RIGHTS LEGEND
  
 Use, reproduction and disclosure by the US Government is
 subject to restrictions as set forth in subparagraphs (a)
 and (c) of the Commercial Computer Software - Restricted
 Rights clause in FAR 52.227-19.
  
 Gaussian, Inc.
 340 Quinnipiac St., Bldg. 40, Wallingford CT 06492
  
  
 ---------------------------------------------------------------
 Warning -- This program may not be used in any manner that
 competes with the business of Gaussian, Inc. or will provide
 assistance to any competitor of Gaussian, Inc.  The licensee
 of this program is prohibited from giving any competitor of
 Gaussian, Inc. access to this program.  By using this program,
 the user acknowledges that Gaussian, Inc. is engaged in the
 business of creating and licensing software in the field of
 computational chemistry and represents and warrants to the
 licensee that it is not a competitor of Gaussian, Inc. and that
 it will not use this program in any manner prohibited above.
 ---------------------------------------------------------------
  

 Cite this work as:
 Gaussian 09, Revision D.01,
 M. J. Frisch, G. W. Trucks, H. B. Schlegel, G. E. Scuseria, 
 M. A. Robb, J. R. Cheeseman, G. Scalmani, V. Barone, B. Mennucci, 
 G. A. Petersson, H. Nakatsuji, M. Caricato, X. Li, H. P. Hratchian, 
 A. F. Izmaylov, J. Bloino, G. Zheng, J. L. Sonnenberg, M. Hada, 
 M. Ehara, K. Toyota, R. Fukuda, J. Hasegawa, M. Ishida, T. Nakajima, 
 Y. Honda, O. Kitao, H. Nakai, T. Vreven, J. A. Montgomery, Jr., 
 J. E. Peralta, F. Ogliaro, M. Bearpark, J. J. Heyd, E. Brothers, 
 K. N. Kudin, V. N. Staroverov, T. Keith, R. Kobayashi, J. Normand, 
 K. Raghavachari, A. Rendell, J. C. Burant, S. S. Iyengar, J. Tomasi, 
 M. Cossi, N. Rega, J. M. Millam, M. Klene, J. E. Knox, J. B. Cross, 
 V. Bakken, C. Adamo, J. Jaramillo, R. Gomperts, R. E. Stratmann, 
 O. Yazyev, A. J. Austin, R. Cammi, C. Pomelli, J. W. Ochterski, 
 R. L. Martin, K. Morokuma, V. G. Zakrzewski, G. A. Voth, 
 P. Salvador, J. J. Dannenberg, S. Dapprich, A. D. Daniels, 
 O. Farkas, J. B. Foresman, J. V. Ortiz, J. Cioslowski, 
 and D. J. Fox, Gaussian, Inc., Wallingford CT, 2013.
 
 ******************************************
 Gaussian 09:  ES64L-G09RevD.01 24-Apr-2013
                24-Jul-2021 
 ******************************************
 %mem=2gb
 %nproc=4
 Will use up to    4 processors via shared memory.
 %chk=conf-55.chk
 ----------------------------------------------------------------------
 # B3LYP/6-311++G(d,p) EmpiricalDispersion=GD3BJ opt=calcfc freq=norama
 n nosymm integral(ultrafinegrid)
 ----------------------------------------------------------------------
 1/10=4,14=-1,18=20,19=15,26=4,38=1/1,3;
 2/9=110,12=2,15=1,17=6,18=5,40=1/2;
 3/5=4,6=6,7=1111,11=2,16=1,25=1,30=1,71=2,74=-5,75=-5,124=41,140=1/1,2,3;
 4//1;
 5/5=2,38=5/2;
 8/6=4,10=90,11=11/1;
 11/6=1,8=1,9=11,15=111,16=1,31=1/1,2,10;
 10/6=1,13=1,31=1/2;
 6/7=2,8=2,9=2,10=2,28=1/1;
 7/10=1,18=20,25=1,30=1/1,2,3,16;
 1/10=4,14=-1,18=20,19=15,26=4/3(2);
 2/9=110,15=1/2;
 99//99;
 2/9=110,15=1/2;
 3/5=4,6=6,7=1111,11=2,16=1,25=1,30=1,71=1,74=-5,75=-5,124=41/1,2,3;
 4/5=5,16=3,69=1/1;
 5/5=2,38=5/2;
 7/30=1/1,2,3,16;
 1/14=-1,18=20,19=15,26=4/3(-5);
 2/9=110,15=1/2;
 6/7=2,8=2,9=2,10=2,19=2,28=1/1;
 99/9=1/99;
 -----------------------------------------------------------
 Candidate Structure: Conf:55 OPT and FREQ calc in gas phase
 -----------------------------------------------------------
 Symbolic Z-matrix:
 Charge =  1 Multiplicity = 1
 O                     1.34883   0.14089   1.2878 
 C                     1.51892  -0.08871   0.09629 
 N                     0.47732  -0.4305   -0.70713 
 C                    -0.86336  -0.59504  -0.18131 
 C                    -1.60769  -1.48139  -1.17111 
 O                    -2.6439   -2.18964  -0.69134 
 O                    -1.29808  -1.54938  -2.33026 
 C                    -1.55233   0.7813   -0.0093 
 C                    -2.88789   0.69359   0.65003 
 C                    -3.27821   0.84176   1.95373 
 N                    -4.63104   0.5952    2.09508 
 C                    -5.04876   0.29866   0.88632 
 N                    -4.04188   0.35416  -0.02385 
 C                     2.87163  -0.00607  -0.59405 
 C                     4.00044   0.29806   0.38032 
 N                     5.31649   0.39378  -0.30534 
 H                     0.60261  -0.68025  -1.67756 
 H                    -0.80703  -1.07      0.80339 
 H                    -2.78989  -2.02074   0.24855 
 H                    -1.62985   1.26662  -0.98345 
 H                    -0.89187   1.38447   0.61031 
 H                    -2.66318   1.10701   2.80062 
 H                    -6.05214   0.0325    0.60476 
 H                    -4.10614   0.0967   -0.99868 
 H                     3.07051  -0.95099  -1.11088 
 H                     2.8283    0.77305  -1.36318 
 H                     3.78247   1.23243   0.89541 
 H                     4.03633  -0.48146   1.14049 
 H                     5.55304  -0.47927  -0.7766 
 H                     5.31458   1.13434  -1.00664 
 H                     6.07163   0.59893   0.35034 
 

 GradGradGradGradGradGradGradGradGradGradGradGradGradGradGradGradGradGrad
 Berny optimization.
 Initialization pass.
                           ----------------------------
                           !    Initial Parameters    !
                           ! (Angstroms and Degrees)  !
 --------------------------                            --------------------------
 ! Name  Definition              Value          Derivative Info.                !
 --------------------------------------------------------------------------------
 ! R1    R(1,2)                  1.2253         calculate D2E/DX2 analytically  !
 ! R2    R(2,3)                  1.3591         calculate D2E/DX2 analytically  !
 ! R3    R(2,14)                 1.5209         calculate D2E/DX2 analytically  !
 ! R4    R(3,4)                  1.4495         calculate D2E/DX2 analytically  !
 ! R5    R(3,17)                 1.0099         calculate D2E/DX2 analytically  !
 ! R6    R(4,5)                  1.5229         calculate D2E/DX2 analytically  !
 ! R7    R(4,8)                  1.5487         calculate D2E/DX2 analytically  !
 ! R8    R(4,18)                 1.0947         calculate D2E/DX2 analytically  !
 ! R9    R(5,6)                  1.3437         calculate D2E/DX2 analytically  !
 ! R10   R(5,7)                  1.2017         calculate D2E/DX2 analytically  !
 ! R11   R(6,19)                 0.966          calculate D2E/DX2 analytically  !
 ! R12   R(8,9)                  1.492          calculate D2E/DX2 analytically  !
 ! R13   R(8,20)                 1.0911         calculate D2E/DX2 analytically  !
 ! R14   R(8,21)                 1.0881         calculate D2E/DX2 analytically  !
 ! R15   R(9,10)                 1.3689         calculate D2E/DX2 analytically  !
 ! R16   R(9,13)                 1.3788         calculate D2E/DX2 analytically  !
 ! R17   R(10,11)                1.3824         calculate D2E/DX2 analytically  !
 ! R18   R(10,22)                1.0797         calculate D2E/DX2 analytically  !
 ! R19   R(11,12)                1.3128         calculate D2E/DX2 analytically  !
 ! R20   R(12,13)                1.3584         calculate D2E/DX2 analytically  !
 ! R21   R(12,23)                1.0756         calculate D2E/DX2 analytically  !
 ! R22   R(13,24)                1.0103         calculate D2E/DX2 analytically  !
 ! R23   R(14,15)                1.5219         calculate D2E/DX2 analytically  !
 ! R24   R(14,25)                1.0952         calculate D2E/DX2 analytically  !
 ! R25   R(14,26)                1.0957         calculate D2E/DX2 analytically  !
 ! R26   R(15,16)                1.487          calculate D2E/DX2 analytically  !
 ! R27   R(15,27)                1.089          calculate D2E/DX2 analytically  !
 ! R28   R(15,28)                1.0894         calculate D2E/DX2 analytically  !
 ! R29   R(16,29)                1.0199         calculate D2E/DX2 analytically  !
 ! R30   R(16,30)                1.0199         calculate D2E/DX2 analytically  !
 ! R31   R(16,31)                1.0209         calculate D2E/DX2 analytically  !
 ! A1    A(1,2,3)              121.0352         calculate D2E/DX2 analytically  !
 ! A2    A(1,2,14)             123.6874         calculate D2E/DX2 analytically  !
 ! A3    A(3,2,14)             115.2752         calculate D2E/DX2 analytically  !
 ! A4    A(2,3,4)              121.5307         calculate D2E/DX2 analytically  !
 ! A5    A(2,3,17)             122.3545         calculate D2E/DX2 analytically  !
 ! A6    A(4,3,17)             115.8038         calculate D2E/DX2 analytically  !
 ! A7    A(3,4,5)              106.4005         calculate D2E/DX2 analytically  !
 ! A8    A(3,4,8)              110.5412         calculate D2E/DX2 analytically  !
 ! A9    A(3,4,18)             109.1456         calculate D2E/DX2 analytically  !
 ! A10   A(5,4,8)              111.8376         calculate D2E/DX2 analytically  !
 ! A11   A(5,4,18)             110.9312         calculate D2E/DX2 analytically  !
 ! A12   A(8,4,18)             107.9728         calculate D2E/DX2 analytically  !
 ! A13   A(4,5,6)              116.8469         calculate D2E/DX2 analytically  !
 ! A14   A(4,5,7)              122.2706         calculate D2E/DX2 analytically  !
 ! A15   A(6,5,7)              120.8817         calculate D2E/DX2 analytically  !
 ! A16   A(5,6,19)             111.8247         calculate D2E/DX2 analytically  !
 ! A17   A(4,8,9)              113.2688         calculate D2E/DX2 analytically  !
 ! A18   A(4,8,20)             109.1311         calculate D2E/DX2 analytically  !
 ! A19   A(4,8,21)             106.6099         calculate D2E/DX2 analytically  !
 ! A20   A(9,8,20)             110.9214         calculate D2E/DX2 analytically  !
 ! A21   A(9,8,21)             108.9222         calculate D2E/DX2 analytically  !
 ! A22   A(20,8,21)            107.7562         calculate D2E/DX2 analytically  !
 ! A23   A(8,9,10)             132.0454         calculate D2E/DX2 analytically  !
 ! A24   A(8,9,13)             123.2088         calculate D2E/DX2 analytically  !
 ! A25   A(10,9,13)            104.6826         calculate D2E/DX2 analytically  !
 ! A26   A(9,10,11)            110.9235         calculate D2E/DX2 analytically  !
 ! A27   A(9,10,22)            127.6733         calculate D2E/DX2 analytically  !
 ! A28   A(11,10,22)           121.4024         calculate D2E/DX2 analytically  !
 ! A29   A(10,11,12)           104.9231         calculate D2E/DX2 analytically  !
 ! A30   A(11,12,13)           111.8291         calculate D2E/DX2 analytically  !
 ! A31   A(11,12,23)           126.4229         calculate D2E/DX2 analytically  !
 ! A32   A(13,12,23)           121.7469         calculate D2E/DX2 analytically  !
 ! A33   A(9,13,12)            107.6353         calculate D2E/DX2 analytically  !
 ! A34   A(9,13,24)            125.984          calculate D2E/DX2 analytically  !
 ! A35   A(12,13,24)           126.0823         calculate D2E/DX2 analytically  !
 ! A36   A(2,14,15)            112.3301         calculate D2E/DX2 analytically  !
 ! A37   A(2,14,25)            109.1966         calculate D2E/DX2 analytically  !
 ! A38   A(2,14,26)            108.7897         calculate D2E/DX2 analytically  !
 ! A39   A(15,14,25)           109.8672         calculate D2E/DX2 analytically  !
 ! A40   A(15,14,26)           109.6739         calculate D2E/DX2 analytically  !
 ! A41   A(25,14,26)           106.8239         calculate D2E/DX2 analytically  !
 ! A42   A(14,15,16)           111.9679         calculate D2E/DX2 analytically  !
 ! A43   A(14,15,27)           109.0164         calculate D2E/DX2 analytically  !
 ! A44   A(14,15,28)           109.1593         calculate D2E/DX2 analytically  !
 ! A45   A(16,15,27)           109.8774         calculate D2E/DX2 analytically  !
 ! A46   A(16,15,28)           109.7945         calculate D2E/DX2 analytically  !
 ! A47   A(27,15,28)           106.8878         calculate D2E/DX2 analytically  !
 ! A48   A(15,16,29)           111.2977         calculate D2E/DX2 analytically  !
 ! A49   A(15,16,30)           111.2306         calculate D2E/DX2 analytically  !
 ! A50   A(15,16,31)           111.8033         calculate D2E/DX2 analytically  !
 ! A51   A(29,16,30)           107.7131         calculate D2E/DX2 analytically  !
 ! A52   A(29,16,31)           107.2907         calculate D2E/DX2 analytically  !
 ! A53   A(30,16,31)           107.2827         calculate D2E/DX2 analytically  !
 ! D1    D(1,2,3,4)             -2.742          calculate D2E/DX2 analytically  !
 ! D2    D(1,2,3,17)          -176.0669         calculate D2E/DX2 analytically  !
 ! D3    D(14,2,3,4)           177.7761         calculate D2E/DX2 analytically  !
 ! D4    D(14,2,3,17)            4.4512         calculate D2E/DX2 analytically  !
 ! D5    D(1,2,14,15)            3.9912         calculate D2E/DX2 analytically  !
 ! D6    D(1,2,14,25)          126.134          calculate D2E/DX2 analytically  !
 ! D7    D(1,2,14,26)         -117.6228         calculate D2E/DX2 analytically  !
 ! D8    D(3,2,14,15)         -176.5423         calculate D2E/DX2 analytically  !
 ! D9    D(3,2,14,25)          -54.3995         calculate D2E/DX2 analytically  !
 ! D10   D(3,2,14,26)           61.8437         calculate D2E/DX2 analytically  !
 ! D11   D(2,3,4,5)           -157.8717         calculate D2E/DX2 analytically  !
 ! D12   D(2,3,4,8)             80.5026         calculate D2E/DX2 analytically  !
 ! D13   D(2,3,4,18)           -38.1106         calculate D2E/DX2 analytically  !
 ! D14   D(17,3,4,5)            15.8667         calculate D2E/DX2 analytically  !
 ! D15   D(17,3,4,8)          -105.759          calculate D2E/DX2 analytically  !
 ! D16   D(17,3,4,18)          135.6278         calculate D2E/DX2 analytically  !
 ! D17   D(3,4,5,6)            154.9059         calculate D2E/DX2 analytically  !
 ! D18   D(3,4,5,7)            -25.4287         calculate D2E/DX2 analytically  !
 ! D19   D(8,4,5,6)            -84.298          calculate D2E/DX2 analytically  !
 ! D20   D(8,4,5,7)             95.3674         calculate D2E/DX2 analytically  !
 ! D21   D(18,4,5,6)            36.3112         calculate D2E/DX2 analytically  !
 ! D22   D(18,4,5,7)          -144.0234         calculate D2E/DX2 analytically  !
 ! D23   D(3,4,8,9)           -174.5142         calculate D2E/DX2 analytically  !
 ! D24   D(3,4,8,20)            61.3888         calculate D2E/DX2 analytically  !
 ! D25   D(3,4,8,21)           -54.736          calculate D2E/DX2 analytically  !
 ! D26   D(5,4,8,9)             67.1273         calculate D2E/DX2 analytically  !
 ! D27   D(5,4,8,20)           -56.9697         calculate D2E/DX2 analytically  !
 ! D28   D(5,4,8,21)          -173.0945         calculate D2E/DX2 analytically  !
 ! D29   D(18,4,8,9)           -55.1897         calculate D2E/DX2 analytically  !
 ! D30   D(18,4,8,20)         -179.2866         calculate D2E/DX2 analytically  !
 ! D31   D(18,4,8,21)           64.5886         calculate D2E/DX2 analytically  !
 ! D32   D(4,5,6,19)             1.0577         calculate D2E/DX2 analytically  !
 ! D33   D(7,5,6,19)          -178.6126         calculate D2E/DX2 analytically  !
 ! D34   D(4,8,9,10)            95.4027         calculate D2E/DX2 analytically  !
 ! D35   D(4,8,9,13)           -81.2379         calculate D2E/DX2 analytically  !
 ! D36   D(20,8,9,10)         -141.4823         calculate D2E/DX2 analytically  !
 ! D37   D(20,8,9,13)           41.8771         calculate D2E/DX2 analytically  !
 ! D38   D(21,8,9,10)          -23.045          calculate D2E/DX2 analytically  !
 ! D39   D(21,8,9,13)          160.3144         calculate D2E/DX2 analytically  !
 ! D40   D(8,9,10,11)         -176.7273         calculate D2E/DX2 analytically  !
 ! D41   D(8,9,10,22)            2.9451         calculate D2E/DX2 analytically  !
 ! D42   D(13,9,10,11)           0.3675         calculate D2E/DX2 analytically  !
 ! D43   D(13,9,10,22)        -179.9601         calculate D2E/DX2 analytically  !
 ! D44   D(8,9,13,12)          176.7117         calculate D2E/DX2 analytically  !
 ! D45   D(8,9,13,24)            2.6962         calculate D2E/DX2 analytically  !
 ! D46   D(10,9,13,12)          -0.7099         calculate D2E/DX2 analytically  !
 ! D47   D(10,9,13,24)        -174.7255         calculate D2E/DX2 analytically  !
 ! D48   D(9,10,11,12)           0.1277         calculate D2E/DX2 analytically  !
 ! D49   D(22,10,11,12)       -179.5685         calculate D2E/DX2 analytically  !
 ! D50   D(10,11,12,13)         -0.5995         calculate D2E/DX2 analytically  !
 ! D51   D(10,11,12,23)        179.0217         calculate D2E/DX2 analytically  !
 ! D52   D(11,12,13,9)           0.8509         calculate D2E/DX2 analytically  !
 ! D53   D(11,12,13,24)        174.859          calculate D2E/DX2 analytically  !
 ! D54   D(23,12,13,9)        -178.7906         calculate D2E/DX2 analytically  !
 ! D55   D(23,12,13,24)         -4.7826         calculate D2E/DX2 analytically  !
 ! D56   D(2,14,15,16)        -179.2902         calculate D2E/DX2 analytically  !
 ! D57   D(2,14,15,27)         -57.4998         calculate D2E/DX2 analytically  !
 ! D58   D(2,14,15,28)          58.9255         calculate D2E/DX2 analytically  !
 ! D59   D(25,14,15,16)         58.9484         calculate D2E/DX2 analytically  !
 ! D60   D(25,14,15,27)       -179.2611         calculate D2E/DX2 analytically  !
 ! D61   D(25,14,15,28)        -62.8358         calculate D2E/DX2 analytically  !
 ! D62   D(26,14,15,16)        -58.1823         calculate D2E/DX2 analytically  !
 ! D63   D(26,14,15,27)         63.6081         calculate D2E/DX2 analytically  !
 ! D64   D(26,14,15,28)       -179.9666         calculate D2E/DX2 analytically  !
 ! D65   D(14,15,16,29)        -60.0994         calculate D2E/DX2 analytically  !
 ! D66   D(14,15,16,30)         60.0182         calculate D2E/DX2 analytically  !
 ! D67   D(14,15,16,31)        179.9313         calculate D2E/DX2 analytically  !
 ! D68   D(27,15,16,29)        178.6053         calculate D2E/DX2 analytically  !
 ! D69   D(27,15,16,30)        -61.277          calculate D2E/DX2 analytically  !
 ! D70   D(27,15,16,31)         58.6361         calculate D2E/DX2 analytically  !
 ! D71   D(28,15,16,29)         61.3197         calculate D2E/DX2 analytically  !
 ! D72   D(28,15,16,30)       -178.5626         calculate D2E/DX2 analytically  !
 ! D73   D(28,15,16,31)        -58.6495         calculate D2E/DX2 analytically  !
 --------------------------------------------------------------------------------
 Trust Radius=3.00D-01 FncErr=1.00D-07 GrdErr=1.00D-06
 Number of steps in this run=    167 maximum allowed number of steps=    186.
 GradGradGradGradGradGradGradGradGradGradGradGradGradGradGradGradGradGrad

                          Input orientation:                          
 ---------------------------------------------------------------------
 Center     Atomic      Atomic             Coordinates (Angstroms)
 Number     Number       Type             X           Y           Z
 ---------------------------------------------------------------------
      1          8           0        1.348829    0.140889    1.287804
      2          6           0        1.518922   -0.088714    0.096288
      3          7           0        0.477320   -0.430501   -0.707130
      4          6           0       -0.863362   -0.595037   -0.181306
      5          6           0       -1.607689   -1.481393   -1.171108
      6          8           0       -2.643900   -2.189644   -0.691336
      7          8           0       -1.298081   -1.549384   -2.330261
      8          6           0       -1.552330    0.781299   -0.009301
      9          6           0       -2.887886    0.693590    0.650027
     10          6           0       -3.278210    0.841758    1.953726
     11          7           0       -4.631041    0.595201    2.095081
     12          6           0       -5.048763    0.298663    0.886319
     13          7           0       -4.041884    0.354163   -0.023854
     14          6           0        2.871626   -0.006067   -0.594050
     15          6           0        4.000439    0.298056    0.380324
     16          7           0        5.316490    0.393775   -0.305338
     17          1           0        0.602613   -0.680247   -1.677561
     18          1           0       -0.807035   -1.070001    0.803392
     19          1           0       -2.789892   -2.020736    0.248550
     20          1           0       -1.629851    1.266616   -0.983454
     21          1           0       -0.891871    1.384473    0.610309
     22          1           0       -2.663185    1.107015    2.800623
     23          1           0       -6.052143    0.032499    0.604758
     24          1           0       -4.106140    0.096700   -0.998681
     25          1           0        3.070510   -0.950991   -1.110878
     26          1           0        2.828300    0.773055   -1.363180
     27          1           0        3.782473    1.232426    0.895414
     28          1           0        4.036326   -0.481461    1.140488
     29          1           0        5.553043   -0.479268   -0.776603
     30          1           0        5.314578    1.134339   -1.006637
     31          1           0        6.071631    0.598931    0.350344
 ---------------------------------------------------------------------
                    Distance matrix (angstroms):
                    1          2          3          4          5
     1  O    0.000000
     2  C    1.225300   0.000000
     3  N    2.250728   1.359130   0.000000
     4  C    2.755660   2.451265   1.449479   0.000000
     5  C    4.173614   3.649870   2.380528   1.522944   0.000000
     6  O    5.028943   4.728990   3.582854   2.444016   1.343701
     7  O    4.790986   3.994647   2.653017   2.391185   1.201713
     8  C    3.241810   3.193848   2.464732   1.548730   2.544138
     9  C    4.319953   4.509832   3.798692   2.539758   3.112232
    10  C    4.726961   5.227650   4.775227   3.529055   4.237010
    11  N    6.051193   6.502688   5.916062   4.560044   4.911302
    12  C    6.412118   6.626364   5.797270   4.410907   4.386638
    13  N    5.552092   5.579708   4.637431   3.320960   3.257417
    14  C    2.425259   1.520922   2.434262   3.803601   4.751194
    15  C    2.807001   2.527487   3.758420   4.976907   6.084775
    16  N    4.283035   3.849107   4.925286   6.259689   7.225654
    17  H    3.166149   2.082324   1.009856   2.096455   2.404947
    18  H    2.519654   2.621640   2.083315   1.094711   2.170010
    19  H    4.783481   4.724592   3.757239   2.434935   1.924558
    20  H    3.911318   3.594097   2.719693   2.167187   2.754498
    21  H    2.650705   2.871658   2.627633   2.132118   3.449497
    22  H    4.395256   5.121837   4.952883   3.876628   4.856808
    23  H    7.433216   7.589089   6.676025   5.285371   5.019835
    24  H    5.914952   5.733643   4.622883   3.414998   2.960130
    25  H    3.148026   2.146671   2.675548   4.057851   4.708556
    26  H    3.100997   2.141766   2.721407   4.110580   4.979702
    27  H    2.695931   2.740014   4.032061   5.107126   6.378807
    28  H    2.762547   2.753530   4.010339   5.076119   6.180474
    29  H    4.724593   4.145913   5.076433   6.445001   7.241269
    30  H    4.688130   4.137548   5.092887   6.468296   7.401817
    31  H    4.836682   4.611351   5.785698   7.057077   8.100279
                    6          7          8          9         10
     6  O    0.000000
     7  O    2.215228   0.000000
     8  C    3.237777   3.299028   0.000000
     9  C    3.189329   4.054692   1.492017   0.000000
    10  C    4.072849   5.290653   2.614534   1.368918   0.000000
    11  N    4.412280   5.940666   3.733834   2.266374   1.382361
    12  C    3.803161   5.275346   3.641444   2.209341   2.137561
    13  N    2.978396   4.058505   2.525973   1.378781   2.175263
    14  C    5.932832   4.773123   4.531364   5.933736   6.710473
    15  C    7.175259   6.231742   5.587358   6.904941   7.466588
    16  N    8.377999   7.185314   6.886110   8.265253   8.897917
    17  H    3.713592   2.189533   3.092408   4.414598   5.528429
    18  H    2.619521   3.207914   2.154819   2.731980   3.329383
    19  H    0.966038   3.016279   3.073996   2.745606   3.367484
    20  H    3.613773   3.139079   1.091108   2.139923   3.394793
    21  H    4.187863   4.173664   1.088090   2.112575   2.791760
    22  H    4.802303   5.936829   3.039040   2.201472   1.079747
    23  H    4.270117   5.806703   4.602835   3.232896   3.188937
    24  H    2.731296   3.516802   2.823030   2.135101   3.155517
    25  H    5.862146   4.574883   5.058157   6.427123   7.274063
    26  H    6.258908   4.832803   4.585081   6.060866   6.949535
    27  H    7.451618   6.629893   5.429747   6.696585   7.150237
    28  H    7.134346   6.453097   5.843771   7.040314   7.477613
    29  H    8.373919   7.106117   7.257004   8.640610   9.337603
    30  H    8.630506   7.258209   6.947931   8.379690   9.093148
    31  H    9.209871   8.131024   7.634617   8.965027   9.489432
                   11         12         13         14         15
    11  N    0.000000
    12  C    1.312834   0.000000
    13  N    2.212485   1.358418   0.000000
    14  C    7.992681   8.063306   6.946331   0.000000
    15  C    8.805176   9.063337   8.052668   1.521879   0.000000
    16  N   10.235036  10.433962   9.362691   2.494111   1.487039
    17  H    6.576529   6.282499   5.037470   2.603254   4.091111
    18  H    4.366277   4.457844   3.629990   4.076437   5.016210
    19  H    3.693593   3.299827   2.698487   6.068085   7.176542
    20  H    4.351473   4.015214   2.751601   4.694108   5.873514
    21  H    4.099865   4.305219   3.374357   4.189032   5.016760
    22  H    2.152255   3.163696   3.231915   6.587632   7.135555
    23  H    2.134767   1.075590   2.130672   9.004015  10.058593
    24  H    3.177324   2.117204   1.010298   6.990244   8.225498
    25  H    8.484266   8.454172   7.312400   1.095239   2.156054
    26  H    8.223926   8.205693   7.012039   1.095659   2.153913
    27  H    8.522468   8.880468   7.926977   2.140564   1.088979
    28  H    8.785995   9.122063   8.204355   2.142697   1.089396
    29  H   10.635629  10.759589   9.660428   2.728963   2.086454
    30  H   10.432001  10.567898   9.440229   2.727411   2.085663
    31  H   10.843952  11.137350  10.123395   3.390861   2.093146
                   16         17         18         19         20
    16  N    0.000000
    17  H    5.025650   0.000000
    18  H    6.392924   2.879956   0.000000
    19  H    8.476443   4.125034   2.267922   0.000000
    20  H    7.033729   3.042360   3.054443   3.697325   0.000000
    21  H    6.353238   3.425040   2.463518   3.915201   1.760280
    22  H    8.592492   5.823562   3.489072   4.038807   3.925875
    23  H   11.410724   7.071264   5.363406   3.871039   4.858203
    24  H    9.452774   4.820465   3.936084   2.787764   2.738785
    25  H    2.738927   2.546556   4.325962   6.110377   5.198789
    26  H    2.730197   2.676677   4.615901   6.478196   4.501433
    27  H    2.120932   4.515532   5.135486   7.361894   5.729273
    28  H    2.120205   4.446494   4.890619   7.054231   6.298609
    29  H    1.019928   5.035759   6.579965   8.545854   7.394921
    30  H    1.019930   5.093670   6.753477   8.787060   6.945727
    31  H    1.020904   5.971503   7.092716   9.241191   7.844593
                   21         22         23         24         25
    21  H    0.000000
    22  H    2.830550   0.000000
    23  H    5.334443   4.178690   0.000000
    24  H    3.818211   4.187788   2.522314   0.000000
    25  H    4.910940   7.239509   9.334531   7.253589   0.000000
    26  H    4.255368   6.899651   9.125978   6.976874   1.759164
    27  H    4.685498   6.722504   9.911810   8.191928   3.049494
    28  H    5.296218   7.082567  10.115749   8.438606   2.494376
    29  H    6.850836   9.100507  11.698308   9.678888   2.548967
    30  H    6.418495   8.839721  11.533126   9.477694   3.065177
    31  H    7.012489   9.086199  12.139665  10.279063   3.680239
                   26         27         28         29         30
    26  H    0.000000
    27  H    2.494537   0.000000
    28  H    3.049835   1.749832   0.000000
    29  H    3.055587   2.976652   2.444518   0.000000
    30  H    2.537564   2.444333   2.975715   1.647273   0.000000
    31  H    3.672286   2.436937   2.435988   1.643611   1.643529
                   31
    31  H    0.000000
 Symmetry turned off by external request.
 Stoichiometry    C9H15N4O3(1+)
 Framework group  C1[X(C9H15N4O3)]
 Deg. of freedom    87
 Full point group                 C1      NOp   1
 Rotational constants (GHZ):      1.0838826      0.2275936      0.1975641
 Standard basis: 6-311++G(d,p) (5D, 7F)
   457 basis functions,   711 primitive gaussians,   473 cartesian basis functions
    60 alpha electrons       60 beta electrons
       nuclear repulsion energy      1117.3441594988 Hartrees.
 NAtoms=   31 NActive=   31 NUniq=   31 SFac= 1.00D+00 NAtFMM=   60 NAOKFM=F Big=F
 Integral buffers will be    131072 words long.
 Raffenetti 2 integral format.
 Two-electron integral symmetry is turned off.
 Nuclear repulsion after empirical dispersion term =     1117.2888142680 Hartrees.
 One-electron integrals computed using PRISM.
 NBasis=   457 RedAO= T EigKep=  1.49D-06  NBF=   457
 NBsUse=   457 1.00D-06 EigRej= -1.00D+00 NBFU=   457
 ExpMin= 3.60D-02 ExpMax= 8.59D+03 ExpMxC= 1.30D+03 IAcc=3 IRadAn=         5 AccDes= 0.00D+00
 Harris functional with IExCor=  402 and IRadAn=       5 diagonalized for initial guess.
 HarFok:  IExCor=  402 AccDes= 0.00D+00 IRadAn=         5 IDoV= 1 UseB2=F ITyADJ=14
 ICtDFT=  3500011 ScaDFX=  1.000000  1.000000  1.000000  1.000000
 FoFCou: FMM=F IPFlag=           0 FMFlag=      100000 FMFlg1=           0
         NFxFlg=           0 DoJE=T BraDBF=F KetDBF=T FulRan=T
         wScrn=  0.000000 ICntrl=     500 IOpCl=  0 I1Cent=   200000004 NGrid=           0
         NMat0=    1 NMatS0=      1 NMatT0=    0 NMatD0=    1 NMtDS0=    0 NMtDT0=    0
 Symmetry not used in FoFCou.
 Requested convergence on RMS density matrix=1.00D-08 within 128 cycles.
 Requested convergence on MAX density matrix=1.00D-06.
 Requested convergence on             energy=1.00D-06.
 No special actions if energy rises.
 EnCoef did     2 forward-backward iterations
 EnCoef did     1 forward-backward iterations
 SCF Done:  E(RB3LYP) =  -796.733712940     A.U. after   18 cycles
            NFock= 18  Conv=0.18D-08     -V/T= 2.0037
 DoSCS=F DFT=T ScalE2(SS,OS)=  1.000000  1.000000
 Range of M.O.s used for correlation:     1   457
 NBasis=   457 NAE=    60 NBE=    60 NFC=     0 NFV=     0
 NROrb=    457 NOA=    60 NOB=    60 NVA=   397 NVB=   397

 **** Warning!!: The largest alpha MO coefficient is  0.18447620D+03

 Symmetrizing basis deriv contribution to polar:
 IMax=3 JMax=2 DiffMx= 0.00D+00
 G2DrvN: will do    32 centers at a time, making    1 passes.
 Calling FoFCou, ICntrl=  3107 FMM=F I1Cent=   0 AccDes= 0.00D+00.
 End of G2Drv F.D. properties file   721 does not exist.
 End of G2Drv F.D. properties file   722 does not exist.
 End of G2Drv F.D. properties file   788 does not exist.
          IDoAtm=1111111111111111111111111111111
          Differentiating once with respect to nuclear coordinates.
          There are    96 degrees of freedom in the 1st order CPHF.  IDoFFX=6 NUNeed=     0.
     90 vectors produced by pass  0 Test12= 2.48D-14 1.04D-09 XBig12= 2.36D-01 1.01D-01.
 AX will form    90 AO Fock derivatives at one time.
     90 vectors produced by pass  1 Test12= 2.48D-14 1.04D-09 XBig12= 1.42D-02 1.98D-02.
     90 vectors produced by pass  2 Test12= 2.48D-14 1.04D-09 XBig12= 1.87D-04 1.82D-03.
     90 vectors produced by pass  3 Test12= 2.48D-14 1.04D-09 XBig12= 7.49D-07 1.09D-04.
     90 vectors produced by pass  4 Test12= 2.48D-14 1.04D-09 XBig12= 2.09D-09 4.10D-06.
     83 vectors produced by pass  5 Test12= 2.48D-14 1.04D-09 XBig12= 2.83D-12 1.64D-07.
     30 vectors produced by pass  6 Test12= 2.48D-14 1.04D-09 XBig12= 4.87D-15 6.80D-09.
     12 vectors produced by pass  7 Test12= 2.48D-14 1.04D-09 XBig12= 1.05D-15 3.06D-09.
      1 vectors produced by pass  8 Test12= 2.48D-14 1.04D-09 XBig12= 2.93D-16 1.83D-09.
 InvSVY:  IOpt=1 It=  1 EMax= 6.11D-16
 Solved reduced A of dimension   576 with    96 vectors.
 End of Minotr F.D. properties file   721 does not exist.
 End of Minotr F.D. properties file   722 does not exist.
 End of Minotr F.D. properties file   788 does not exist.

 **********************************************************************

            Population analysis using the SCF density.

 **********************************************************************

 Alpha  occ. eigenvalues --  -19.28466 -19.23400 -19.23006 -14.65358 -14.47481
 Alpha  occ. eigenvalues --  -14.45588 -14.37475 -10.42569 -10.42417 -10.42301
 Alpha  occ. eigenvalues --  -10.36724 -10.35136 -10.30635 -10.29842 -10.29562
 Alpha  occ. eigenvalues --  -10.26835  -1.22745  -1.22565  -1.18811  -1.14807
 Alpha  occ. eigenvalues --   -1.10777  -1.06708  -0.98007  -0.96044  -0.91743
 Alpha  occ. eigenvalues --   -0.86783  -0.83660  -0.80771  -0.80078  -0.77944
 Alpha  occ. eigenvalues --   -0.74529  -0.72163  -0.70915  -0.70382  -0.69054
 Alpha  occ. eigenvalues --   -0.67723  -0.65722  -0.63694  -0.61709  -0.61246
 Alpha  occ. eigenvalues --   -0.58880  -0.58136  -0.57358  -0.56426  -0.55034
 Alpha  occ. eigenvalues --   -0.54364  -0.53556  -0.52089  -0.51505  -0.50629
 Alpha  occ. eigenvalues --   -0.49390  -0.49295  -0.48682  -0.44175  -0.41289
 Alpha  occ. eigenvalues --   -0.40372  -0.39600  -0.37027  -0.35323  -0.32021
 Alpha virt. eigenvalues --   -0.20828  -0.15411  -0.15048  -0.13729  -0.13123
 Alpha virt. eigenvalues --   -0.12038  -0.11238  -0.09701  -0.09476  -0.09124
 Alpha virt. eigenvalues --   -0.08277  -0.07324  -0.07037  -0.06670  -0.06123
 Alpha virt. eigenvalues --   -0.05653  -0.05027  -0.04660  -0.04406  -0.04191
 Alpha virt. eigenvalues --   -0.03780  -0.02819  -0.02635  -0.02145  -0.01341
 Alpha virt. eigenvalues --   -0.01212  -0.01052  -0.00592  -0.00137  -0.00021
 Alpha virt. eigenvalues --    0.00627   0.01009   0.01386   0.01499   0.01969
 Alpha virt. eigenvalues --    0.02266   0.02766   0.02866   0.02996   0.03281
 Alpha virt. eigenvalues --    0.03699   0.04093   0.04397   0.04604   0.05187
 Alpha virt. eigenvalues --    0.05396   0.05865   0.05998   0.06561   0.06644
 Alpha virt. eigenvalues --    0.07104   0.07501   0.07933   0.08098   0.08350
 Alpha virt. eigenvalues --    0.08444   0.09065   0.09712   0.10087   0.10743
 Alpha virt. eigenvalues --    0.11318   0.11900   0.12281   0.12441   0.12760
 Alpha virt. eigenvalues --    0.12909   0.13235   0.14121   0.14165   0.14677
 Alpha virt. eigenvalues --    0.15421   0.15581   0.16259   0.16942   0.17458
 Alpha virt. eigenvalues --    0.17803   0.17903   0.18154   0.18660   0.19052
 Alpha virt. eigenvalues --    0.19220   0.19704   0.20233   0.20544   0.21098
 Alpha virt. eigenvalues --    0.21713   0.21942   0.22381   0.23296   0.23589
 Alpha virt. eigenvalues --    0.23631   0.24526   0.24653   0.24892   0.25225
 Alpha virt. eigenvalues --    0.25568   0.26707   0.27004   0.28047   0.28178
 Alpha virt. eigenvalues --    0.28428   0.28648   0.29141   0.29873   0.29885
 Alpha virt. eigenvalues --    0.30566   0.30825   0.31774   0.32290   0.32559
 Alpha virt. eigenvalues --    0.33747   0.34657   0.36897   0.37936   0.38492
 Alpha virt. eigenvalues --    0.39350   0.40310   0.40446   0.42716   0.43702
 Alpha virt. eigenvalues --    0.44223   0.44764   0.45819   0.47153   0.47612
 Alpha virt. eigenvalues --    0.47690   0.48167   0.49052   0.50878   0.51433
 Alpha virt. eigenvalues --    0.51942   0.53060   0.53115   0.54391   0.55304
 Alpha virt. eigenvalues --    0.55820   0.56034   0.56374   0.57888   0.58825
 Alpha virt. eigenvalues --    0.58919   0.59410   0.60165   0.61076   0.62127
 Alpha virt. eigenvalues --    0.62491   0.63788   0.64243   0.64805   0.65389
 Alpha virt. eigenvalues --    0.65942   0.67314   0.68001   0.68908   0.70590
 Alpha virt. eigenvalues --    0.72000   0.72668   0.73629   0.75052   0.77198
 Alpha virt. eigenvalues --    0.79484   0.80344   0.81494   0.81974   0.82476
 Alpha virt. eigenvalues --    0.83313   0.83799   0.84523   0.86304   0.88000
 Alpha virt. eigenvalues --    0.89977   0.90471   0.93355   0.93856   0.95002
 Alpha virt. eigenvalues --    0.95713   0.96668   0.98129   1.00496   1.01031
 Alpha virt. eigenvalues --    1.02249   1.02894   1.03767   1.05489   1.05853
 Alpha virt. eigenvalues --    1.07493   1.08657   1.09368   1.09986   1.11013
 Alpha virt. eigenvalues --    1.11501   1.12417   1.14686   1.15246   1.15947
 Alpha virt. eigenvalues --    1.17022   1.18129   1.19738   1.22591   1.22895
 Alpha virt. eigenvalues --    1.23214   1.23820   1.25686   1.30018   1.30560
 Alpha virt. eigenvalues --    1.32450   1.33526   1.35250   1.36289   1.37144
 Alpha virt. eigenvalues --    1.38493   1.39487   1.41207   1.41944   1.43035
 Alpha virt. eigenvalues --    1.44595   1.46906   1.48284   1.49918   1.50504
 Alpha virt. eigenvalues --    1.52095   1.52199   1.53255   1.54435   1.55016
 Alpha virt. eigenvalues --    1.56348   1.56467   1.57353   1.58619   1.59235
 Alpha virt. eigenvalues --    1.59477   1.60433   1.61640   1.63770   1.64734
 Alpha virt. eigenvalues --    1.65597   1.66390   1.68504   1.69324   1.70524
 Alpha virt. eigenvalues --    1.72027   1.72520   1.72786   1.73780   1.76137
 Alpha virt. eigenvalues --    1.77985   1.78469   1.80520   1.82603   1.83354
 Alpha virt. eigenvalues --    1.85250   1.86207   1.88868   1.92425   1.92813
 Alpha virt. eigenvalues --    1.94617   1.96781   1.97224   1.99450   2.02042
 Alpha virt. eigenvalues --    2.03214   2.04632   2.05991   2.08074   2.10339
 Alpha virt. eigenvalues --    2.10555   2.13674   2.14449   2.15351   2.16757
 Alpha virt. eigenvalues --    2.19223   2.20915   2.23512   2.24456   2.25303
 Alpha virt. eigenvalues --    2.29383   2.29749   2.31717   2.33844   2.35165
 Alpha virt. eigenvalues --    2.36782   2.38218   2.38830   2.42832   2.44795
 Alpha virt. eigenvalues --    2.45601   2.47152   2.48780   2.49579   2.50742
 Alpha virt. eigenvalues --    2.51563   2.52001   2.52719   2.53168   2.55112
 Alpha virt. eigenvalues --    2.55721   2.57302   2.59826   2.61063   2.61975
 Alpha virt. eigenvalues --    2.63224   2.65419   2.68471   2.69885   2.71180
 Alpha virt. eigenvalues --    2.73336   2.73682   2.74337   2.75697   2.76962
 Alpha virt. eigenvalues --    2.77636   2.78974   2.80382   2.81254   2.81401
 Alpha virt. eigenvalues --    2.81614   2.82929   2.83605   2.83883   2.85798
 Alpha virt. eigenvalues --    2.86264   2.88001   2.90988   2.92514   2.94340
 Alpha virt. eigenvalues --    2.95973   2.98053   2.99672   3.03763   3.05712
 Alpha virt. eigenvalues --    3.10298   3.11651   3.16642   3.19587   3.22923
 Alpha virt. eigenvalues --    3.24325   3.27027   3.29292   3.35291   3.36254
 Alpha virt. eigenvalues --    3.43674   3.44695   3.48054   3.53994   3.55924
 Alpha virt. eigenvalues --    3.58808   3.61064   3.61866   3.63527   3.64540
 Alpha virt. eigenvalues --    3.75434   3.77558   3.79041   3.80485   3.81104
 Alpha virt. eigenvalues --    3.82977   3.86112   3.92172   3.96055   4.00690
 Alpha virt. eigenvalues --    4.09473   4.13024   4.22126   4.42938   4.43014
 Alpha virt. eigenvalues --    4.43171   4.58007   4.69646   4.73295   4.84214
 Alpha virt. eigenvalues --    4.85388   4.93457   4.97509   4.97977   5.10804
 Alpha virt. eigenvalues --    5.17274   5.19756   5.29329   5.50158   5.66125
 Alpha virt. eigenvalues --    5.78881  23.65707  23.67203  23.70357  23.71148
 Alpha virt. eigenvalues --   23.72998  23.77272  23.83985  23.88332  24.06497
 Alpha virt. eigenvalues --   35.31183  35.47196  35.49297  35.62376  49.77660
 Alpha virt. eigenvalues --   49.88996  49.91462
          Condensed to atoms (all electrons):
               1          2          3          4          5          6
     1  O    8.043725   0.200219  -0.105728   0.042053   0.041029  -0.001298
     2  C    0.200219  10.177161  -0.771832  -0.706040  -0.109212   0.048628
     3  N   -0.105728  -0.771832   8.012676  -0.885257  -0.250758  -0.006660
     4  C    0.042053  -0.706040  -0.885257  11.890250  -1.266435  -0.111831
     5  C    0.041029  -0.109212  -0.250758  -1.266435   7.562398   0.276998
     6  O   -0.001298   0.048628  -0.006660  -0.111831   0.276998   7.842504
     7  O    0.000522   0.102080   0.044888  -0.179295   0.341052  -0.124526
     8  C   -0.042270   0.573243   0.160545  -1.163199  -0.434838   0.262304
     9  C    0.015637  -1.087974   0.631597  -2.164497   0.493329  -0.239044
    10  C   -0.009202  -0.199801  -0.009298   0.523428  -0.010647  -0.075035
    11  N    0.000160   0.004261  -0.000805   0.009223  -0.008925  -0.008901
    12  C    0.000895   0.014286   0.021114  -0.019044  -0.042476  -0.035991
    13  N    0.000080   0.039734   0.014610  -0.048438   0.045002   0.006586
    14  C    0.137926  -2.846050  -0.073949  -0.513035   0.024082  -0.011604
    15  C   -0.017262   0.716111   0.051176  -0.169277   0.008757  -0.000944
    16  N    0.005153  -0.022433   0.001939   0.007618  -0.000288  -0.000002
    17  H   -0.003640   0.149702   0.205272   0.079997  -0.086836   0.021083
    18  H   -0.024649   0.077060  -0.100417   0.750380  -0.189418   0.040227
    19  H    0.002613   0.003662   0.008801   0.001749  -0.045939   0.180315
    20  H    0.000254   0.011157  -0.012356   0.049683  -0.047436  -0.003633
    21  H   -0.001840   0.059719  -0.041460  -0.111149   0.029196  -0.002214
    22  H   -0.000220  -0.003357  -0.000867   0.005911   0.003058  -0.000846
    23  H    0.000014   0.000132   0.000362   0.002007  -0.002254  -0.001898
    24  H    0.000050   0.014169   0.003372  -0.016698  -0.035188   0.008583
    25  H    0.003649  -0.026031   0.031760   0.051871  -0.022902  -0.000848
    26  H    0.006051  -0.203645   0.034056   0.010770   0.007352  -0.000035
    27  H   -0.007671   0.041031  -0.009370   0.005944  -0.002314   0.000035
    28  H   -0.009935  -0.037867  -0.010822   0.003830   0.005325   0.000090
    29  H    0.000367  -0.002244  -0.001149  -0.002125   0.000255   0.000003
    30  H    0.000941  -0.000638  -0.000029  -0.000024  -0.000261   0.000003
    31  H    0.000780   0.008495   0.001860  -0.000681  -0.000102  -0.000003
               7          8          9         10         11         12
     1  O    0.000522  -0.042270   0.015637  -0.009202   0.000160   0.000895
     2  C    0.102080   0.573243  -1.087974  -0.199801   0.004261   0.014286
     3  N    0.044888   0.160545   0.631597  -0.009298  -0.000805   0.021114
     4  C   -0.179295  -1.163199  -2.164497   0.523428   0.009223  -0.019044
     5  C    0.341052  -0.434838   0.493329  -0.010647  -0.008925  -0.042476
     6  O   -0.124526   0.262304  -0.239044  -0.075035  -0.008901  -0.035991
     7  O    7.971927  -0.009716   0.027462  -0.001829   0.000593   0.003740
     8  C   -0.009716  19.812097  -8.841710  -3.203445  -0.270022  -0.632619
     9  C    0.027462  -8.841710  16.362631   0.462136  -0.209489   0.298020
    10  C   -0.001829  -3.203445   0.462136   7.819849   0.741488  -0.212315
    11  N    0.000593  -0.270022  -0.209489   0.741488   6.575017   0.361195
    12  C    0.003740  -0.632619   0.298020  -0.212315   0.361195   5.556435
    13  N   -0.000461  -0.436949  -0.114742   0.185706   0.038581   0.193580
    14  C   -0.009632  -0.161185   0.423559   0.033309   0.000597   0.006311
    15  C   -0.001411  -0.007382   0.040475  -0.000064   0.000044   0.000798
    16  N   -0.000037   0.001423  -0.000042   0.000108   0.000000  -0.000002
    17  H    0.057031   0.055640  -0.121180  -0.015770  -0.000202  -0.001946
    18  H   -0.015546   0.198273  -0.352632  -0.035495  -0.005997  -0.015475
    19  H    0.024804  -0.162290   0.177017   0.041318   0.007917   0.023428
    20  H    0.001128   0.426256  -0.141999   0.021205   0.003420  -0.010780
    21  H   -0.002939   0.426666   0.036202  -0.045208  -0.000126  -0.001865
    22  H    0.000073  -0.057910  -0.105482   0.494027  -0.066523   0.026192
    23  H    0.000200  -0.015229   0.067164  -0.012292  -0.065007   0.459564
    24  H   -0.002362   0.113524  -0.072422  -0.066021   0.006521  -0.029212
    25  H   -0.003729  -0.002157  -0.003014   0.001392  -0.000011   0.000006
    26  H   -0.000007   0.001260   0.016148   0.001787  -0.000004   0.000079
    27  H    0.000007   0.006231  -0.012526  -0.000984  -0.000016  -0.000104
    28  H    0.000064  -0.001953  -0.000856  -0.000273   0.000006  -0.000043
    29  H    0.000052  -0.000064   0.000042  -0.000012   0.000000   0.000001
    30  H    0.000019  -0.000101  -0.000069  -0.000026   0.000000   0.000000
    31  H   -0.000007   0.000398   0.000301   0.000037   0.000000   0.000003
              13         14         15         16         17         18
     1  O    0.000080   0.137926  -0.017262   0.005153  -0.003640  -0.024649
     2  C    0.039734  -2.846050   0.716111  -0.022433   0.149702   0.077060
     3  N    0.014610  -0.073949   0.051176   0.001939   0.205272  -0.100417
     4  C   -0.048438  -0.513035  -0.169277   0.007618   0.079997   0.750380
     5  C    0.045002   0.024082   0.008757  -0.000288  -0.086836  -0.189418
     6  O    0.006586  -0.011604  -0.000944  -0.000002   0.021083   0.040227
     7  O   -0.000461  -0.009632  -0.001411  -0.000037   0.057031  -0.015546
     8  C   -0.436949  -0.161185  -0.007382   0.001423   0.055640   0.198273
     9  C   -0.114742   0.423559   0.040475  -0.000042  -0.121180  -0.352632
    10  C    0.185706   0.033309  -0.000064   0.000108  -0.015770  -0.035495
    11  N    0.038581   0.000597   0.000044   0.000000  -0.000202  -0.005997
    12  C    0.193580   0.006311   0.000798  -0.000002  -0.001946  -0.015475
    13  N    6.986024  -0.004184   0.000509  -0.000001   0.001720  -0.016558
    14  C   -0.004184   9.589133  -1.257142  -0.073745  -0.009956  -0.093426
    15  C    0.000509  -1.257142   6.876381   0.048348  -0.049697  -0.004323
    16  N   -0.000001  -0.073745   0.048348   6.215525  -0.000796  -0.000033
    17  H    0.001720  -0.009956  -0.049697  -0.000796   0.422928   0.015663
    18  H   -0.016558  -0.093426  -0.004323  -0.000033   0.015663   0.504432
    19  H   -0.003692   0.008835   0.000317   0.000006  -0.004683  -0.041666
    20  H    0.008029  -0.013131   0.002056  -0.000058  -0.006223   0.007535
    21  H   -0.003505  -0.009110   0.000511  -0.000405   0.000704  -0.012411
    22  H    0.016461  -0.000055   0.000252   0.000005  -0.000350  -0.004195
    23  H   -0.116446   0.000209   0.000009   0.000000  -0.000048   0.000398
    24  H    0.364396  -0.001844  -0.000134  -0.000005   0.003082  -0.000421
    25  H    0.000000   0.352191  -0.053123   0.005315  -0.005686   0.005388
    26  H   -0.000183   0.544708  -0.064663   0.002637  -0.001586  -0.002748
    27  H    0.000091  -0.059155   0.371939  -0.012939   0.001662   0.001900
    28  H   -0.000007   0.040868   0.359690  -0.018282   0.001986  -0.002067
    29  H    0.000000   0.003479  -0.010330   0.351150   0.000096  -0.000134
    30  H   -0.000001   0.020578  -0.029072   0.348099   0.000721   0.000151
    31  H    0.000001  -0.009286  -0.012906   0.341794  -0.000450  -0.000038
              19         20         21         22         23         24
     1  O    0.002613   0.000254  -0.001840  -0.000220   0.000014   0.000050
     2  C    0.003662   0.011157   0.059719  -0.003357   0.000132   0.014169
     3  N    0.008801  -0.012356  -0.041460  -0.000867   0.000362   0.003372
     4  C    0.001749   0.049683  -0.111149   0.005911   0.002007  -0.016698
     5  C   -0.045939  -0.047436   0.029196   0.003058  -0.002254  -0.035188
     6  O    0.180315  -0.003633  -0.002214  -0.000846  -0.001898   0.008583
     7  O    0.024804   0.001128  -0.002939   0.000073   0.000200  -0.002362
     8  C   -0.162290   0.426256   0.426666  -0.057910  -0.015229   0.113524
     9  C    0.177017  -0.141999   0.036202  -0.105482   0.067164  -0.072422
    10  C    0.041318   0.021205  -0.045208   0.494027  -0.012292  -0.066021
    11  N    0.007917   0.003420  -0.000126  -0.066523  -0.065007   0.006521
    12  C    0.023428  -0.010780  -0.001865   0.026192   0.459564  -0.029212
    13  N   -0.003692   0.008029  -0.003505   0.016461  -0.116446   0.364396
    14  C    0.008835  -0.013131  -0.009110  -0.000055   0.000209  -0.001844
    15  C    0.000317   0.002056   0.000511   0.000252   0.000009  -0.000134
    16  N    0.000006  -0.000058  -0.000405   0.000005   0.000000  -0.000005
    17  H   -0.004683  -0.006223   0.000704  -0.000350  -0.000048   0.003082
    18  H   -0.041666   0.007535  -0.012411  -0.004195   0.000398  -0.000421
    19  H    0.492799   0.003405  -0.000140   0.000913  -0.000683  -0.002235
    20  H    0.003405   0.531413  -0.028443   0.001136  -0.001399  -0.004843
    21  H   -0.000140  -0.028443   0.466103   0.000008   0.000439   0.001744
    22  H    0.000913   0.001136   0.000008   0.537067  -0.001963   0.000895
    23  H   -0.000683  -0.001399   0.000439  -0.001963   0.512906  -0.004661
    24  H   -0.002235  -0.004843   0.001744   0.000895  -0.004661   0.378333
    25  H   -0.000292   0.001815  -0.002222  -0.000002   0.000006  -0.000174
    26  H    0.000197  -0.003011   0.001095   0.000084  -0.000002  -0.000049
    27  H   -0.000074   0.000738  -0.001589  -0.000090  -0.000001   0.000020
    28  H    0.000095  -0.000372   0.000912   0.000044  -0.000002   0.000012
    29  H    0.000006   0.000015  -0.000042  -0.000001   0.000000   0.000002
    30  H   -0.000006  -0.000059   0.000093  -0.000003   0.000000   0.000002
    31  H    0.000000  -0.000013  -0.000048   0.000002   0.000000  -0.000001
              25         26         27         28         29         30
     1  O    0.003649   0.006051  -0.007671  -0.009935   0.000367   0.000941
     2  C   -0.026031  -0.203645   0.041031  -0.037867  -0.002244  -0.000638
     3  N    0.031760   0.034056  -0.009370  -0.010822  -0.001149  -0.000029
     4  C    0.051871   0.010770   0.005944   0.003830  -0.002125  -0.000024
     5  C   -0.022902   0.007352  -0.002314   0.005325   0.000255  -0.000261
     6  O   -0.000848  -0.000035   0.000035   0.000090   0.000003   0.000003
     7  O   -0.003729  -0.000007   0.000007   0.000064   0.000052   0.000019
     8  C   -0.002157   0.001260   0.006231  -0.001953  -0.000064  -0.000101
     9  C   -0.003014   0.016148  -0.012526  -0.000856   0.000042  -0.000069
    10  C    0.001392   0.001787  -0.000984  -0.000273  -0.000012  -0.000026
    11  N   -0.000011  -0.000004  -0.000016   0.000006   0.000000   0.000000
    12  C    0.000006   0.000079  -0.000104  -0.000043   0.000001   0.000000
    13  N    0.000000  -0.000183   0.000091  -0.000007   0.000000  -0.000001
    14  C    0.352191   0.544708  -0.059155   0.040868   0.003479   0.020578
    15  C   -0.053123  -0.064663   0.371939   0.359690  -0.010330  -0.029072
    16  N    0.005315   0.002637  -0.012939  -0.018282   0.351150   0.348099
    17  H   -0.005686  -0.001586   0.001662   0.001986   0.000096   0.000721
    18  H    0.005388  -0.002748   0.001900  -0.002067  -0.000134   0.000151
    19  H   -0.000292   0.000197  -0.000074   0.000095   0.000006  -0.000006
    20  H    0.001815  -0.003011   0.000738  -0.000372   0.000015  -0.000059
    21  H   -0.002222   0.001095  -0.001589   0.000912  -0.000042   0.000093
    22  H   -0.000002   0.000084  -0.000090   0.000044  -0.000001  -0.000003
    23  H    0.000006  -0.000002  -0.000001  -0.000002   0.000000   0.000000
    24  H   -0.000174  -0.000049   0.000020   0.000012   0.000002   0.000002
    25  H    0.564949  -0.074578   0.013674  -0.021021   0.000148   0.000953
    26  H   -0.074578   0.541433  -0.019318   0.011054   0.002038   0.001205
    27  H    0.013674  -0.019318   0.436444  -0.024961   0.002643  -0.008947
    28  H   -0.021021   0.011054  -0.024961   0.438512  -0.007971   0.003099
    29  H    0.000148   0.002038   0.002643  -0.007971   0.365214  -0.031960
    30  H    0.000953   0.001205  -0.008947   0.003099  -0.031960   0.368177
    31  H    0.002217   0.000683  -0.002097  -0.004597  -0.011148  -0.012575
              31
     1  O    0.000780
     2  C    0.008495
     3  N    0.001860
     4  C   -0.000681
     5  C   -0.000102
     6  O   -0.000003
     7  O   -0.000007
     8  C    0.000398
     9  C    0.000301
    10  C    0.000037
    11  N    0.000000
    12  C    0.000003
    13  N    0.000001
    14  C   -0.009286
    15  C   -0.012906
    16  N    0.341794
    17  H   -0.000450
    18  H   -0.000038
    19  H    0.000000
    20  H   -0.000013
    21  H   -0.000048
    22  H    0.000002
    23  H    0.000000
    24  H   -0.000001
    25  H    0.002217
    26  H    0.000683
    27  H   -0.002097
    28  H   -0.004597
    29  H   -0.011148
    30  H   -0.012575
    31  H    0.345261
 Mulliken charges:
               1
     1  O   -0.278404
     2  C   -0.223725
     3  N    0.056730
     4  C   -0.077689
     5  C   -0.281602
     6  O   -0.062043
     7  O   -0.224146
     8  C   -0.594824
     9  C    0.415957
    10  C   -0.428075
    11  N   -0.112994
    12  C    0.036224
    13  N   -0.155944
    14  C   -0.039295
    15  C   -0.799644
    16  N   -0.200050
    17  H    0.291761
    18  H    0.316242
    19  H    0.283505
    20  H    0.204510
    21  H    0.241322
    22  H    0.155734
    23  H    0.178476
    24  H    0.341565
    25  H    0.180457
    26  H    0.187194
    27  H    0.279798
    28  H    0.275442
    29  H    0.341668
    30  H    0.339730
    31  H    0.352119
 Sum of Mulliken charges =   1.00000
 Mulliken charges with hydrogens summed into heavy atoms:
               1
     1  O   -0.278404
     2  C   -0.223725
     3  N    0.348491
     4  C    0.238554
     5  C   -0.281602
     6  O    0.221462
     7  O   -0.224146
     8  C   -0.148992
     9  C    0.415957
    10  C   -0.272341
    11  N   -0.112994
    12  C    0.214700
    13  N    0.185621
    14  C    0.328356
    15  C   -0.244404
    16  N    0.833468
 APT charges:
               1
     1  O   -0.397526
     2  C   -0.223492
     3  N   -0.366609
     4  C   -0.032788
     5  C   -0.910864
     6  O    0.022613
     7  O    0.020803
     8  C   -0.799004
     9  C    0.408578
    10  C   -0.891961
    11  N   -0.077075
    12  C   -0.464425
    13  N   -0.616379
    14  C   -0.607692
    15  C   -0.145257
    16  N   -1.901762
    17  H    0.570022
    18  H    0.392817
    19  H    0.468065
    20  H    0.398284
    21  H    0.266279
    22  H    0.318722
    23  H    1.173481
    24  H    0.517534
    25  H    0.418417
    26  H    0.356738
    27  H    0.227490
    28  H    0.319628
    29  H    0.705307
    30  H    0.601096
    31  H    1.248956
 Sum of APT charges =   1.00000
 APT charges with hydrogens summed into heavy atoms:
               1
     1  O   -0.397526
     2  C   -0.223492
     3  N    0.203414
     4  C    0.360029
     5  C   -0.910864
     6  O    0.490678
     7  O    0.020803
     8  C   -0.134441
     9  C    0.408578
    10  C   -0.573239
    11  N   -0.077075
    12  C    0.709056
    13  N   -0.098845
    14  C    0.167463
    15  C    0.401861
    16  N    0.653597
 Electronic spatial extent (au):  <R**2>=           5440.6076
 Charge=              1.0000 electrons
 Dipole moment (field-independent basis, Debye):
    X=             21.9499    Y=              1.4444    Z=             -3.8173  Tot=             22.3261
 Quadrupole moment (field-independent basis, Debye-Ang):
   XX=             36.1464   YY=            -92.3308   ZZ=           -103.8304
   XY=             10.4697   XZ=             -0.2309   YZ=             -8.4196
 Traceless Quadrupole moment (field-independent basis, Debye-Ang):
   XX=             89.4847   YY=            -38.9925   ZZ=            -50.4922
   XY=             10.4697   XZ=             -0.2309   YZ=             -8.4196
 Octapole moment (field-independent basis, Debye-Ang**2):
  XXX=            855.0278  YYY=             35.8299  ZZZ=            -28.8577  XYY=             97.7064
  XXY=             37.7839  XXZ=           -117.3049  XZZ=            120.7281  YZZ=             22.4600
  YYZ=              3.2641  XYZ=             19.4468
 Hexadecapole moment (field-independent basis, Debye-Ang**3):
 XXXX=          -1546.1103 YYYY=           -577.0046 ZZZZ=           -908.0838 XXXY=            336.8510
 XXXZ=            481.0341 YYYX=            -32.1719 YYYZ=           -218.2223 ZZZX=            341.1439
 ZZZY=           -221.8087 XXYY=           -988.4813 XXZZ=          -1193.3384 YYZZ=           -247.8994
 XXYZ=           -148.6266 YYXZ=             62.2192 ZZXY=            -14.5939
 N-N= 1.117288814268D+03 E-N=-4.080722490782D+03  KE= 7.937810861647D+02
  Exact polarizability:   0.000   0.000   0.000   0.000   0.000   0.000
 Approx polarizability: 216.297  13.378 154.161 -11.577  13.755 234.464
 Calling FoFJK, ICntrl=    100147 FMM=F ISym2X=0 I1Cent= 0 IOpClX= 0 NMat=1 NMatS=1 NMatT=0.
 -------------------------------------------------------------------
 Center     Atomic                   Forces (Hartrees/Bohr)
 Number     Number              X              Y              Z
 -------------------------------------------------------------------
      1        8           0.014412338    0.001561690   -0.003043035
      2        6          -0.024144692   -0.002210818    0.006597749
      3        7           0.015113120    0.000324381    0.001327061
      4        6           0.001457392    0.000891987    0.002220933
      5        6          -0.002739855   -0.005925763    0.002591139
      6        8           0.001190354    0.001434419   -0.002700462
      7        8           0.001322541    0.000658255   -0.002389506
      8        6          -0.006329884    0.000968482    0.002906135
      9        6           0.007961683    0.000987562   -0.001846870
     10        6          -0.003276941   -0.000477849    0.007949538
     11        7           0.005479925    0.000229461   -0.002084541
     12        6          -0.006879934   -0.000094790    0.003494688
     13        7           0.000031076   -0.002787229   -0.008832833
     14        6           0.010616425   -0.000173221   -0.011678173
     15        6          -0.028704787   -0.002123627    0.015667729
     16        7           0.005495406    0.000627871   -0.001398021
     17        1          -0.000291599   -0.000096619   -0.003552059
     18        1           0.000826727    0.000244901   -0.001325881
     19        1          -0.000448182    0.000812344    0.001973993
     20        1           0.000990749    0.000314463   -0.002401164
     21        1           0.000507910    0.000797630    0.001032418
     22        1          -0.000288515    0.000575415   -0.000370867
     23        1          -0.003084744    0.000221627    0.000377151
     24        1          -0.001820429    0.001981097    0.000655532
     25        1          -0.001487679   -0.000846110   -0.000806411
     26        1          -0.001877667    0.000107399   -0.000937110
     27        1           0.005748875    0.002015099    0.000048818
     28        1           0.006249892   -0.000084587    0.000133172
     29        1           0.001283855   -0.003470375   -0.002867922
     30        1           0.000375053    0.002772241   -0.003774777
     31        1           0.002311586    0.000764663    0.003033575
 -------------------------------------------------------------------
 Cartesian Forces:  Max     0.028704787 RMS     0.005748974
 FormGI is forming the generalized inverse of G from B-inverse, IUseBI=4.

 GradGradGradGradGradGradGradGradGradGradGradGradGradGradGradGradGradGrad
 Berny optimization.
 Internal  Forces:  Max     0.017387808 RMS     0.003307974
 Search for a local minimum.
 Step number   1 out of a maximum of  167
 All quantities printed in internal units (Hartrees-Bohrs-Radians)
 Mixed Optimization -- RFO/linear search
 Second derivative matrix not updated -- analytic derivatives used.
 ITU=  0
     Eigenvalues ---   -0.00107  -0.00039   0.00146   0.00156   0.00196
     Eigenvalues ---    0.00315   0.00361   0.00502   0.00763   0.01010
     Eigenvalues ---    0.01494   0.01855   0.02040   0.02555   0.03246
     Eigenvalues ---    0.03805   0.03849   0.04086   0.04133   0.04253
     Eigenvalues ---    0.04300   0.04416   0.04900   0.04996   0.05121
     Eigenvalues ---    0.05164   0.05486   0.05838   0.06103   0.07485
     Eigenvalues ---    0.07782   0.08208   0.10365   0.10596   0.10708
     Eigenvalues ---    0.10908   0.11646   0.11805   0.13010   0.13229
     Eigenvalues ---    0.13662   0.15327   0.15864   0.15977   0.16367
     Eigenvalues ---    0.16706   0.18214   0.18887   0.19531   0.21832
     Eigenvalues ---    0.22530   0.22948   0.23171   0.24053   0.24605
     Eigenvalues ---    0.25070   0.29545   0.30224   0.31216   0.32590
     Eigenvalues ---    0.32769   0.33013   0.33560   0.33752   0.34157
     Eigenvalues ---    0.34253   0.34583   0.34769   0.35096   0.36550
     Eigenvalues ---    0.36913   0.37638   0.39893   0.41123   0.43388
     Eigenvalues ---    0.43454   0.43559   0.44461   0.45578   0.45725
     Eigenvalues ---    0.46528   0.46909   0.47702   0.51903   0.58591
     Eigenvalues ---    0.79361   0.89101
 RFO step:  Lambda=-9.22555943D-03 EMin=-1.06925983D-03
 Linear search not attempted -- first point.
 Iteration  1 RMS(Cart)=  0.18125106 RMS(Int)=  0.01850467
 Iteration  2 RMS(Cart)=  0.03881007 RMS(Int)=  0.00075243
 Iteration  3 RMS(Cart)=  0.00112429 RMS(Int)=  0.00037989
 Iteration  4 RMS(Cart)=  0.00000142 RMS(Int)=  0.00037989
 Iteration  5 RMS(Cart)=  0.00000000 RMS(Int)=  0.00037989
 Variable       Old X    -DE/DX   Delta X   Delta X   Delta X     New X
                                 (Linear)    (Quad)   (Total)
    R1        2.31548  -0.00467   0.00000  -0.00456  -0.00456   2.31092
    R2        2.56838  -0.00714   0.00000  -0.03067  -0.03067   2.53771
    R3        2.87413   0.00116   0.00000   0.02767   0.02767   2.90180
    R4        2.73912   0.00508   0.00000   0.01083   0.01083   2.74995
    R5        1.90835   0.00340   0.00000   0.00800   0.00800   1.91636
    R6        2.87795   0.00243   0.00000   0.00971   0.00971   2.88766
    R7        2.92668   0.00549   0.00000   0.01374   0.01374   2.94042
    R8        2.06870  -0.00126   0.00000  -0.00380  -0.00380   2.06491
    R9        2.53923  -0.00202   0.00000  -0.01408  -0.01408   2.52515
   R10        2.27091   0.00261   0.00000   0.00562   0.00562   2.27652
   R11        1.82555   0.00213   0.00000   0.00596   0.00596   1.83150
   R12        2.81950   0.00135   0.00000  -0.00171  -0.00171   2.81779
   R13        2.06190   0.00221   0.00000   0.00516   0.00516   2.06706
   R14        2.05619   0.00134   0.00000   0.00569   0.00569   2.06188
   R15        2.58688   0.00560   0.00000   0.01349   0.01347   2.60036
   R16        2.60552   0.00956   0.00000   0.01630   0.01633   2.62185
   R17        2.61228  -0.00263   0.00000  -0.01322  -0.01326   2.59902
   R18        2.04043  -0.00031   0.00000  -0.00035  -0.00035   2.04007
   R19        2.48090   0.00097   0.00000   0.00089   0.00087   2.48177
   R20        2.56704   0.00771   0.00000   0.01510   0.01513   2.58217
   R21        2.03257   0.00272   0.00000   0.00621   0.00621   2.03878
   R22        1.90919  -0.00102   0.00000  -0.00183  -0.00183   1.90735
   R23        2.87593   0.00167   0.00000  -0.00189  -0.00189   2.87405
   R24        2.06970   0.00084   0.00000  -0.00302  -0.00302   2.06669
   R25        2.07050   0.00081   0.00000   0.00240   0.00240   2.07290
   R26        2.81010   0.01073   0.00000   0.05849   0.05849   2.86859
   R27        2.05787   0.00060   0.00000  -0.00098  -0.00098   2.05689
   R28        2.05866   0.00036   0.00000  -0.00146  -0.00146   2.05720
   R29        1.92738   0.00459   0.00000   0.00827   0.00827   1.93566
   R30        1.92739   0.00461   0.00000   0.00870   0.00870   1.93609
   R31        1.92923   0.00381   0.00000   0.00685   0.00685   1.93608
    A1        2.11246   0.01739   0.00000   0.06129   0.06126   2.17373
    A2        2.15875  -0.01516   0.00000  -0.06833  -0.06834   2.09041
    A3        2.01193  -0.00223   0.00000   0.00695   0.00694   2.01887
    A4        2.12111   0.00188   0.00000   0.01480   0.01475   2.13586
    A5        2.13549  -0.00040   0.00000  -0.00041  -0.00045   2.13504
    A6        2.02116  -0.00144   0.00000  -0.01266  -0.01271   2.00844
    A7        1.85704  -0.00129   0.00000   0.00147   0.00141   1.85845
    A8        1.92931   0.00171   0.00000   0.01659   0.01657   1.94587
    A9        1.90495  -0.00027   0.00000  -0.00351  -0.00352   1.90143
   A10        1.95194   0.00056   0.00000  -0.00059  -0.00066   1.95127
   A11        1.93611  -0.00015   0.00000  -0.01120  -0.01121   1.92490
   A12        1.88448  -0.00054   0.00000  -0.00261  -0.00264   1.88184
   A13        2.03936   0.00001   0.00000  -0.00171  -0.00173   2.03764
   A14        2.13402  -0.00117   0.00000  -0.00898  -0.00900   2.12502
   A15        2.10978   0.00116   0.00000   0.01063   0.01061   2.12039
   A16        1.95171  -0.00033   0.00000  -0.00190  -0.00190   1.94981
   A17        1.97691   0.00546   0.00000   0.00307   0.00307   1.97999
   A18        1.90470  -0.00142   0.00000  -0.00268  -0.00269   1.90200
   A19        1.86069  -0.00250   0.00000  -0.00914  -0.00916   1.85154
   A20        1.93594  -0.00098   0.00000   0.00133   0.00133   1.93727
   A21        1.90105  -0.00158   0.00000   0.00873   0.00874   1.90979
   A22        1.88070   0.00078   0.00000  -0.00187  -0.00192   1.87878
   A23        2.30463  -0.00285   0.00000  -0.00218  -0.00224   2.30239
   A24        2.15040   0.00433   0.00000   0.00597   0.00590   2.15630
   A25        1.82706  -0.00144   0.00000  -0.00317  -0.00313   1.82393
   A26        1.93598   0.00013   0.00000  -0.00083  -0.00088   1.93510
   A27        2.22832  -0.00009   0.00000  -0.00111  -0.00117   2.22715
   A28        2.11887  -0.00004   0.00000   0.00204   0.00199   2.12086
   A29        1.83125   0.00495   0.00000   0.01338   0.01339   1.84464
   A30        1.95179  -0.00227   0.00000  -0.00701  -0.00696   1.94483
   A31        2.20650  -0.00017   0.00000  -0.00519  -0.00524   2.20125
   A32        2.12488   0.00244   0.00000   0.01226   0.01221   2.13710
   A33        1.87859  -0.00137   0.00000  -0.00222  -0.00232   1.87627
   A34        2.19883   0.00219   0.00000   0.00768   0.00742   2.20625
   A35        2.20055  -0.00067   0.00000  -0.00179  -0.00207   2.19848
   A36        1.96053  -0.01514   0.00000  -0.08845  -0.08868   1.87185
   A37        1.90584   0.00380   0.00000   0.03816   0.03900   1.94484
   A38        1.89874   0.00341   0.00000  -0.01166  -0.01246   1.88628
   A39        1.91754   0.00535   0.00000   0.03304   0.03342   1.95096
   A40        1.91417   0.00552   0.00000   0.02023   0.01815   1.93232
   A41        1.86443  -0.00234   0.00000   0.01342   0.01272   1.87715
   A42        1.95421  -0.00375   0.00000  -0.01444  -0.01398   1.94023
   A43        1.90270   0.00451   0.00000   0.03165   0.03071   1.93340
   A44        1.90519   0.00461   0.00000   0.05121   0.05035   1.95554
   A45        1.91772  -0.00254   0.00000  -0.03698  -0.03691   1.88081
   A46        1.91628  -0.00264   0.00000  -0.04940  -0.04916   1.86712
   A47        1.86554   0.00008   0.00000   0.02065   0.01790   1.88345
   A48        1.94251   0.00080   0.00000   0.00637   0.00638   1.94890
   A49        1.94134   0.00082   0.00000  -0.00036  -0.00036   1.94098
   A50        1.95134  -0.00121   0.00000  -0.01017  -0.01016   1.94117
   A51        1.87995  -0.00098   0.00000  -0.00494  -0.00493   1.87501
   A52        1.87258   0.00027   0.00000   0.00504   0.00506   1.87763
   A53        1.87244   0.00027   0.00000   0.00429   0.00428   1.87672
    D1       -0.04786   0.00021   0.00000   0.02494   0.02472  -0.02313
    D2       -3.07295  -0.00016   0.00000   0.00724   0.00696  -3.06599
    D3        3.10278   0.00020   0.00000   0.03569   0.03598   3.13876
    D4        0.07769  -0.00017   0.00000   0.01800   0.01822   0.09590
    D5        0.06966  -0.00006   0.00000   0.25111   0.25182   0.32148
    D6        2.20145  -0.00071   0.00000   0.26077   0.26042   2.46187
    D7       -2.05291   0.00049   0.00000   0.29134   0.29045  -1.76246
    D8       -3.08124   0.00015   0.00000   0.24080   0.24187  -2.83937
    D9       -0.94945  -0.00051   0.00000   0.25047   0.25047  -0.69899
   D10        1.07938   0.00069   0.00000   0.28103   0.28050   1.35987
   D11       -2.75538   0.00068   0.00000   0.01284   0.01289  -2.74249
   D12        1.40504  -0.00018   0.00000   0.00308   0.00308   1.40811
   D13       -0.66516  -0.00038   0.00000  -0.00151  -0.00148  -0.66664
   D14        0.27693   0.00107   0.00000   0.03008   0.03008   0.30700
   D15       -1.84584   0.00021   0.00000   0.02031   0.02027  -1.82558
   D16        2.36715   0.00001   0.00000   0.01573   0.01571   2.38286
   D17        2.70362   0.00008   0.00000   0.06442   0.06442   2.76804
   D18       -0.44382  -0.00078   0.00000   0.05296   0.05299  -0.39082
   D19       -1.47128   0.00167   0.00000   0.08533   0.08529  -1.38599
   D20        1.66447   0.00081   0.00000   0.07387   0.07386   1.73834
   D21        0.63375   0.00125   0.00000   0.07385   0.07384   0.70759
   D22       -2.51368   0.00040   0.00000   0.06239   0.06241  -2.45127
   D23       -3.04585   0.00017   0.00000  -0.09750  -0.09749   3.13985
   D24        1.07144  -0.00137   0.00000  -0.09938  -0.09936   0.97207
   D25       -0.95532  -0.00024   0.00000  -0.09097  -0.09098  -1.04630
   D26        1.17159   0.00030   0.00000  -0.10987  -0.10988   1.06171
   D27       -0.99431  -0.00123   0.00000  -0.11175  -0.11175  -1.10606
   D28       -3.02107  -0.00010   0.00000  -0.10334  -0.10337  -3.12444
   D29       -0.96324   0.00050   0.00000  -0.09371  -0.09370  -1.05694
   D30       -3.12914  -0.00103   0.00000  -0.09559  -0.09558   3.05847
   D31        1.12728   0.00010   0.00000  -0.08718  -0.08719   1.04009
   D32        0.01846  -0.00006   0.00000   0.05230   0.05225   0.07071
   D33       -3.11738   0.00079   0.00000   0.06366   0.06371  -3.05367
   D34        1.66509  -0.00167   0.00000  -0.16100  -0.16098   1.50411
   D35       -1.41787  -0.00268   0.00000  -0.17734  -0.17735  -1.59522
   D36       -2.46933  -0.00026   0.00000  -0.16125  -0.16124  -2.63057
   D37        0.73089  -0.00127   0.00000  -0.17759  -0.17761   0.55329
   D38       -0.40221  -0.00087   0.00000  -0.15734  -0.15733  -0.55954
   D39        2.79801  -0.00189   0.00000  -0.17368  -0.17369   2.62432
   D40       -3.08447  -0.00097   0.00000  -0.01614  -0.01614  -3.10061
   D41        0.05140  -0.00039   0.00000   0.00322   0.00323   0.05463
   D42        0.00641   0.00007   0.00000  -0.00177  -0.00182   0.00460
   D43       -3.14090   0.00064   0.00000   0.01759   0.01755  -3.12335
   D44        3.08420   0.00095   0.00000   0.01951   0.01956   3.10376
   D45        0.04706  -0.00041   0.00000  -0.01699  -0.01707   0.02999
   D46       -0.01239   0.00028   0.00000   0.00703   0.00704  -0.00535
   D47       -3.04953  -0.00109   0.00000  -0.02947  -0.02959  -3.07912
   D48        0.00223  -0.00037   0.00000  -0.00424  -0.00424  -0.00201
   D49       -3.13406  -0.00090   0.00000  -0.02218  -0.02222   3.12690
   D50       -0.01046   0.00054   0.00000   0.00890   0.00891  -0.00156
   D51        3.12452   0.00098   0.00000   0.01958   0.01949  -3.13918
   D52        0.01485  -0.00056   0.00000  -0.01042  -0.01038   0.00447
   D53        3.05186   0.00103   0.00000   0.02685   0.02677   3.07863
   D54       -3.12049  -0.00096   0.00000  -0.02045  -0.02044  -3.14092
   D55       -0.08347   0.00063   0.00000   0.01681   0.01671  -0.06676
   D56       -3.12921   0.00010   0.00000   0.15463   0.15441  -2.97480
   D57       -1.00356  -0.00246   0.00000   0.12028   0.11946  -0.88410
   D58        1.02844   0.00273   0.00000   0.19124   0.19175   1.22019
   D59        1.02884   0.00175   0.00000   0.14265   0.14295   1.17180
   D60       -3.12870  -0.00081   0.00000   0.10829   0.10801  -3.02069
   D61       -1.09669   0.00438   0.00000   0.17925   0.18029  -0.91640
   D62       -1.01547  -0.00180   0.00000   0.09504   0.09482  -0.92066
   D63        1.11017  -0.00437   0.00000   0.06069   0.05987   1.17005
   D64       -3.14101   0.00082   0.00000   0.13165   0.13216  -3.00885
   D65       -1.04893   0.00005   0.00000   0.00357   0.00355  -1.04538
   D66        1.04752  -0.00009   0.00000   0.00137   0.00136   1.04887
   D67        3.14039  -0.00001   0.00000  -0.00031  -0.00031   3.14008
   D68        3.11725  -0.00140   0.00000  -0.00134  -0.00115   3.11610
   D69       -1.06949  -0.00155   0.00000  -0.00354  -0.00334  -1.07283
   D70        1.02339  -0.00147   0.00000  -0.00521  -0.00501   1.01838
   D71        1.07023   0.00156   0.00000   0.02467   0.02448   1.09471
   D72       -3.11651   0.00142   0.00000   0.02247   0.02229  -3.09422
   D73       -1.02363   0.00150   0.00000   0.02080   0.02062  -1.00301
         Item               Value     Threshold  Converged?
 Maximum Force            0.017388     0.000450     NO 
 RMS     Force            0.003308     0.000300     NO 
 Maximum Displacement     0.622634     0.001800     NO 
 RMS     Displacement     0.195866     0.001200     NO 
 Predicted change in Energy=-6.316322D-03
 GradGradGradGradGradGradGradGradGradGradGradGradGradGradGradGradGradGrad

                          Input orientation:                          
 ---------------------------------------------------------------------
 Center     Atomic      Atomic             Coordinates (Angstroms)
 Number     Number       Type             X           Y           Z
 ---------------------------------------------------------------------
      1          8           0        1.516946    0.301172    1.239792
      2          6           0        1.559626   -0.028259    0.062888
      3          7           0        0.503111   -0.456699   -0.646753
      4          6           0       -0.821802   -0.600098   -0.062221
      5          6           0       -1.573337   -1.605934   -0.933159
      6          8           0       -2.616726   -2.224974   -0.373073
      7          8           0       -1.254158   -1.818804   -2.075120
      8          6           0       -1.562600    0.766177    0.012962
      9          6           0       -2.928116    0.668912    0.603998
     10          6           0       -3.370561    0.702585    1.906542
     11          7           0       -4.732621    0.521493    1.966247
     12          6           0       -5.127082    0.380644    0.721534
     13          7           0       -4.076197    0.464699   -0.147770
     14          6           0        2.885474    0.061809   -0.706514
     15          6           0        4.001330    0.132080    0.324507
     16          7           0        5.332050    0.457618   -0.329334
     17          1           0        0.588397   -0.782445   -1.603309
     18          1           0       -0.720627   -0.982163    0.956498
     19          1           0       -2.794000   -1.892387    0.519838
     20          1           0       -1.599056    1.206565   -0.987646
     21          1           0       -0.942604    1.412330    0.636335
     22          1           0       -2.782403    0.858731    2.798247
     23          1           0       -6.141325    0.221581    0.389901
     24          1           0       -4.122534    0.336740   -1.147881
     25          1           0        3.012386   -0.786746   -1.384674
     26          1           0        2.863447    0.972838   -1.317084
     27          1           0        3.796420    0.904852    1.063140
     28          1           0        4.129156   -0.810945    0.853155
     29          1           0        5.595906   -0.249219   -1.022127
     30          1           0        5.297224    1.361285   -0.810834
     31          1           0        6.084113    0.506565    0.364686
 ---------------------------------------------------------------------
                    Distance matrix (angstroms):
                    1          2          3          4          5
     1  O    0.000000
     2  C    1.222885   0.000000
     3  N    2.271845   1.342898   0.000000
     4  C    2.824405   2.452316   1.455210   0.000000
     5  C    4.231857   3.646454   2.390482   1.528085   0.000000
     6  O    5.105878   4.738938   3.596538   2.441025   1.336251
     7  O    4.812687   3.961630   2.642642   2.392476   1.204685
     8  C    3.347379   3.222099   2.489541   1.556002   2.553853
     9  C    4.505334   4.573694   3.821610   2.547703   3.061568
    10  C    4.949081   5.314125   4.782111   3.474072   4.077152
    11  N    6.295504   6.596770   5.932750   4.546114   4.786812
    12  C    6.664683   6.731499   5.854266   4.484591   4.394724
    13  N    5.765007   5.661261   4.697661   3.425229   3.341954
    14  C    2.391290   1.535567   2.438867   3.820619   4.765893
    15  C    2.653018   2.460909   3.677981   4.893695   5.973218
    16  N    4.128154   3.823755   4.924975   6.249801   7.232373
    17  H    3.181140   2.070820   1.014092   2.096870   2.408387
    18  H    2.594983   2.628312   2.084242   1.092703   2.164950
    19  H    4.890224   4.757923   3.780619   2.428656   1.919185
    20  H    3.935820   3.550448   2.702177   2.173607   2.813144
    21  H    2.765540   2.943687   2.688806   2.133644   3.459920
    22  H    4.606957   5.207893   4.938926   3.762235   4.632472
    23  H    7.705697   7.711939   6.758939   5.401564   5.094783
    24  H    6.124212   5.821179   4.719880   3.598771   3.212241
    25  H    3.210565   2.186607   2.636270   4.060138   4.680149
    26  H    2.966785   2.146269   2.839737   4.198794   5.146117
    27  H    2.364664   2.621917   3.952650   4.985909   6.254882
    28  H    2.865298   2.799929   3.939976   5.039281   6.028379
    29  H    4.696501   4.185408   5.110823   6.498578   7.297029
    30  H    4.429380   4.082139   5.129864   6.469152   7.484915
    31  H    4.654784   4.565972   5.753127   7.007040   8.048826
                    6          7          8          9         10
     6  O    0.000000
     7  O    2.217777   0.000000
[...]
 .00002057,0.01221505,-0.12249080,-0.13743685,0.00317719,-0.01729612,-0
 .01439076,0.00002195,0.00036344,0.00076715,0.00030975,-0.00006062,0.00
 111812,0.00001828,-0.00004240,0.00004143,0.00001684,-0.00001718,-0.000
 01273,0.00000625,0.00000581,0.00000302,-0.00002113,0.00002192,-0.00002
 379,-0.00000409,-0.00000916,-0.00000034,-0.00000050,-0.00000446,0.0000
 0077,0.00000383,-0.00000292,0.00000425,-0.01196637,0.13566749,0.150033
 12,-0.00147156,0.00312554,-0.00146821,-0.00087441,-0.02659487,0.017888
 56,-0.00177716,0.00144352,-0.00068036,-0.00036721,0.00128509,-0.000658
 31,0.00021587,0.00026324,0.00002293,-0.00011393,-0.00007786,0.00004324
 ,-0.00010911,-0.00009501,-0.00010347,-0.00037291,-0.00034867,0.0001598
 6,-0.00002887,0.00015991,-0.00005939,0.00002492,0.00000034,-0.00000946
 ,-0.00004921,0.00001020,-0.00001249,-0.00004575,-0.00000871,0.00001873
 ,-0.00002075,0.00001941,0.00003874,-0.04383723,-0.01145966,0.00650079,
 -0.00245289,0.02251228,-0.01630009,0.00231708,0.00130461,0.00039882,0.
 00003916,-0.00056341,0.00069270,0.00006884,0.00000489,-0.00001529,0.00
 003576,-0.00000703,-0.00001378,-0.00005688,-0.00002306,-0.00005773,0.0
 0002958,-0.00006885,0.00008072,0.00000042,0.00000367,-0.00001445,-0.00
 000252,-0.00000908,0.00000160,0.00000132,-0.00001427,0.00001524,-0.000
 22775,0.00272176,-0.00168031,0.05219498,0.00044659,-0.00020621,-0.0002
 7997,-0.00135490,-0.00060469,-0.00053473,-0.00066919,0.00080107,0.0001
 9589,-0.00011465,0.00024031,-0.00022867,0.00008977,0.00007267,0.000057
 59,-0.00008273,-0.00004110,0.00000700,-0.00006867,-0.00000595,-0.00005
 690,-0.00010966,-0.00009701,0.00010486,-0.00000165,0.00005016,-0.00003
 086,0.00000827,0.00000120,-0.00001316,-0.00002869,0.00000591,-0.000000
 68,-0.00001894,-0.00000536,0.00000919,-0.00000678,0.00000339,0.0000222
 6,-0.00649962,-0.22221393,0.11696413,0.00046085,0.00180369,-0.00094039
 ,0.00002331,0.00101047,-0.00085029,0.00021606,-0.00040219,0.00050963,0
 .00004018,-0.00002328,-0.00000898,0.00002234,-0.00000900,-0.00001002,-
 0.00000003,-0.00000099,-0.00001036,-0.00000229,-0.00001886,-0.00001316
 ,0.00000025,-0.00000071,-0.00000532,-0.00000062,-0.00000250,0.00000112
 ,0.00000661,-0.00000461,0.00000870,-0.00146726,-0.01999725,0.01466600,
 0.00816868,0.23781580,0.00148725,-0.00221933,0.00117951,0.00236537,0.0
 1253283,-0.01028161,-0.00052705,-0.00065066,0.00017676,0.00036035,-0.0
 0029258,0.00007208,0.00003154,0.00001644,0.00007060,-0.00005310,-0.000
 01935,-0.00001268,-0.00003379,-0.00000371,-0.00002840,0.00006642,0.000
 03409,-0.00000048,0.00000677,0.00000302,0.00001597,0.00000217,-0.00000
 267,-0.00001147,-0.00001346,0.00000325,0.00000014,-0.00000527,-0.00000
 345,0.00000735,0.00000777,-0.00000707,0.00000059,0.00127946,0.11773087
 ,-0.12715485,0.00072761,0.02022557,-0.01458191,0.00122575,-0.00045120,
 0.00173063,0.00006126,-0.00009878,0.00015248,-0.00009804,-0.00004062,-
 0.00000129,0.00001114,-0.00000514,-0.00000618,0.00000655,0.00000814,0.
 00001344,-0.00000514,0.00003875,-0.00002561,-0.00000059,0.00000030,-0.
 00000145,0.00000025,0.00000030,0.00000051,0.00000318,0.00000322,0.0000
 0599,-0.00108285,-0.01569441,0.01224633,-0.00189101,-0.13000784,0.1375
 8595,-0.00108184,0.00215156,0.00299003,0.00001685,-0.00330744,-0.00537
 569,0.00096027,0.00136308,0.00206661,-0.00030972,0.00002841,0.00016035
 ,-0.00007967,-0.00023534,-0.00012743,0.00007045,0.00007332,0.00002726,
 0.00003743,0.00019263,0.00013457,0.00000382,0.00000024,-0.00002068,-0.
 00002959,-0.00001378,0.00000377,-0.00002727,0.00001362,0.00001015,0.00
 005863,-0.00000211,0.00000645,0.00002926,-0.00000138,-0.00001771,0.000
 00360,0.00000492,-0.00000883,0.00541908,-0.01837784,-0.01533954,-0.053
 08415,0.03136763,0.02877904,-0.01542805,0.02145979,0.02529098,0.000570
 08,0.00006397,-0.00016907,-0.00005778,-0.00004687,-0.00002031,-0.00002
 779,-0.00001849,0.00000107,0.00001556,0.00001021,0.00001180,-0.0000338
 1,0.00005390,-0.00002075,-0.00000752,-0.00001389,0.00001604,-0.0000003
 9,0.00000065,-0.00000049,-0.00001427,0.00000326,-0.00001313,-0.0043659
 1,0.00062405,-0.00306629,0.00077054,0.00044432,0.00017678,0.06876068,0
 .00170118,-0.00064671,0.00130738,0.00048448,-0.00034882,-0.00207051,-0
 .00018236,0.00016064,0.00001742,0.00004925,-0.00001126,-0.00007464,0.0
 0002659,0.00001189,0.00000337,-0.00002753,-0.00001854,0.00000733,-0.00
 001793,-0.00000379,0.00000748,-0.00000162,0.00000780,0.00000699,0.0000
 0385,0.00000154,-0.00000075,-0.00000222,-0.00000305,-0.00000927,-0.000
 00860,-0.00000191,0.00000573,-0.00000084,0.00000022,-0.00000095,0.0000
 0351,-0.00000572,0.00000987,-0.00231248,0.00053689,0.00014545,0.040177
 68,-0.19767148,-0.13522783,-0.00629459,0.00988607,0.01224030,-0.000056
 05,0.00008374,0.00004210,-0.00000017,-0.00000011,0.00001529,0.00000343
 ,0.00000419,-0.00000422,0.00000539,0.00000215,0.00000316,0.00000111,0.
 00000784,-0.00000438,-0.00000013,0.00000400,-0.00000178,0.00000043,0.0
 0000074,0.00000048,0.00000360,0.00000304,0.00000092,0.00050481,0.00132
 930,0.00001300,-0.00049592,0.00063136,0.00012860,-0.03715392,0.2024451
 9,0.00252994,0.00116968,0.00014420,0.00089029,-0.00104304,-0.00084759,
 0.00005178,-0.00025308,-0.00026634,0.00002013,0.00003807,0.00007631,0.
 00000975,-0.00003634,-0.00002358,0.00000729,0.00001151,-0.00000049,-0.
 00001435,0.00000915,0.00001445,0.00000082,0.00000240,0.00000219,-0.000
 00388,-0.00000448,0.00000897,0.00000710,-0.00000288,0.00001280,0.00000
 686,-0.00000049,-0.00001078,0.00000219,0.00000073,0.00000189,-0.000006
 43,0.00000930,-0.00001722,-0.00006438,-0.01727583,-0.01593379,0.033912
 08,-0.12902772,-0.17293800,0.00562969,-0.00673879,-0.00907668,0.000024
 53,0.00001825,0.00008119,-0.00002474,-0.00000109,0.00001178,-0.0000023
 7,0.00000037,0.00000597,-0.00000286,-0.00000419,-0.00000308,-0.0000146
 8,0.00001107,0.00000797,0.00000287,0.00000319,0.00000208,-0.00000013,0
 .00000031,-0.00000091,-0.00000297,-0.00000223,0.00000186,-0.00258242,0
 .00081928,-0.00198840,0.00068056,0.00019787,0.00045775,-0.03827437,0.1
 4082953,0.18782369,-0.00031606,-0.00022931,0.00108383,0.00190271,0.000
 34893,-0.00174706,-0.00055944,-0.00044515,0.00021091,0.00007612,0.0000
 1816,-0.00013025,0.00000013,0.00006389,0.00001008,-0.00003714,-0.00004
 047,0.00000942,-0.00000709,-0.00005553,0.00001595,-0.00002646,0.000000
 82,0.00001690,0.00000427,0.00000616,-0.00001135,-0.00000557,-0.0000035
 7,-0.00001589,-0.00001553,-0.00000322,0.00001144,-0.00000263,0.0000008
 9,0.00000058,0.00000390,-0.00000669,0.00002052,-0.00177097,0.02163519,
 -0.01109600,-0.05430282,0.03957745,-0.01843852,-0.00557287,-0.03486726
 ,0.01986096,0.00003744,0.00015172,-0.00002992,-0.00005106,0.00002110,0
 .00002889,-0.00000002,0.00001483,-0.00000709,0.00001597,0.00000279,0.0
 0000788,0.00000359,-0.00000676,-0.00001795,-0.00000153,0.00000463,-0.0
 0000040,0.00000018,-0.00000005,0.00000116,0.00000689,0.00000248,-0.000
 00145,0.00089111,-0.00057174,0.00065496,-0.00347156,-0.00079616,-0.003
 00912,0.00082611,0.00510278,-0.00408255,0.06574292,0.00016801,0.000425
 93,-0.00074862,0.00031199,0.00048600,0.00082405,0.00016367,-0.00029079
 ,-0.00010547,-0.00001526,-0.00001252,0.00003530,-0.00004171,0.00001353
 ,0.00003068,0.00003313,0.00000144,-0.00001669,0.00002734,-0.00002285,-
 0.00001875,0.00000795,0.00001782,-0.00001347,0.00000177,-0.00000827,0.
 00000515,0.00000150,-0.00000586,0.00000621,0.00000387,-0.00000154,-0.0
 0000471,0.00000226,0.00000066,0.00000113,-0.00000111,-0.00000039,-0.00
 000949,0.00060798,0.00441854,-0.00212059,0.02807477,-0.26616786,0.1093
 1260,-0.00099854,-0.00381081,0.00164908,-0.00004099,-0.00000571,-0.000
 01568,0.00000030,0.00000447,-0.00000694,-0.00000677,0.00001011,0.00000
 795,0.00000003,0.00000101,0.00000062,-0.00000173,-0.00000185,-0.000000
 60,0.00000143,0.00000225,0.00000252,-0.00000013,0.00000105,-0.00000010
 ,-0.00000202,0.00000223,0.00000027,0.00035972,0.00094670,-0.00002191,-
 0.00104249,0.00127525,-0.00098068,0.00217114,-0.01734227,0.01081483,-0
 .02867801,0.27878480,0.00014448,0.00050263,-0.00002614,0.00039415,-0.0
 0009591,-0.00007952,0.00000218,-0.00019975,0.00008766,-0.00003456,-0.0
 0002649,0.00001359,-0.00007792,0.00002659,0.00007510,0.00004801,0.0000
 0361,-0.00003510,0.00005482,-0.00004138,-0.00003757,-0.00000469,0.0000
 0546,-0.00001645,-0.00000192,-0.00001126,0.00000474,0.00000242,-0.0000
 0509,0.00000894,0.00000345,-0.00000034,-0.00000574,0.00000263,0.000000
 28,0.00000165,-0.00000370,0.00000146,-0.00001080,-0.00408540,0.0191631
 6,-0.01028155,-0.01388779,0.10443030,-0.10435440,0.00274460,0.01320094
 ,-0.00809740,-0.00006615,0.00008822,-0.00005286,-0.00000064,-0.0000014
 1,0.00000739,-0.00000558,0.00001073,0.00001143,0.00000411,0.00000378,0
 .00000144,-0.00000071,-0.00000139,-0.00000423,0.00000086,0.,0.00000317
 ,-0.00000009,0.00000114,-0.00000025,-0.00000121,0.00000200,0.00000026,
 0.00114145,0.00004845,0.00064436,-0.00346722,-0.00040680,-0.00179927,0
 .00095983,-0.01867038,0.01241361,0.01460099,-0.11858351,0.11184395,-0.
 00019362,-0.00052470,-0.00148819,-0.00169538,0.00030366,0.00207040,0.0
 0063855,-0.00000789,-0.00029353,-0.00018717,0.00004121,0.00014349,-0.0
 0019511,-0.00013467,0.00002191,0.00019068,0.00007927,-0.00005246,0.000
 13022,0.00005695,-0.00002386,0.00002935,0.00004091,-0.00001830,-0.0000
 2101,-0.00003656,0.00000799,-0.00001586,-0.00000597,0.00002095,0.00005
 276,-0.00000748,-0.00001067,0.00002156,0.00000405,-0.00000332,0.000001
 88,-0.00000095,-0.00002870,0.00252945,0.00122461,-0.00004903,-0.007044
 10,0.02244226,0.02138858,-0.08155671,0.06654892,0.06181401,-0.00014574
 ,-0.00010364,-0.00009695,0.00002967,-0.00000021,-0.00001884,-0.0000417
 0,0.00001533,0.00002951,-0.00000394,-0.00000211,-0.00000010,-0.0000043
 3,0.00001896,0.00000220,-0.00000282,-0.00000051,0.00001459,-0.00000059
 ,0.00000297,-0.00000012,-0.00001695,0.00000793,-0.00000680,-0.00053491
 ,-0.00081839,-0.00066678,-0.00023978,0.00017975,-0.00017612,-0.0047400
 7,-0.00333581,0.00122750,0.00145908,-0.00026154,-0.00041702,0.08255105
 ,-0.00061307,-0.00011630,-0.00025998,0.00045545,0.00006024,0.00024958,
 -0.00041985,-0.00024404,-0.00012625,0.00010018,-0.00001488,-0.00009818
 ,0.00001346,0.00015166,0.00011261,-0.00003325,-0.00005611,-0.00002337,
 0.00000202,-0.00012144,-0.00007206,-0.00001971,-0.00000756,0.00000956,
 0.00001072,0.00000723,-0.00000933,0.00000821,-0.00000916,-0.00000882,-
 0.00002700,-0.00000267,0.00000205,-0.00001000,0.00000116,0.00000423,-0
 .00000215,-0.00000568,0.00001175,0.00022904,0.00089576,0.00124789,0.00
 095586,0.01070116,0.00685000,0.05950581,-0.21996336,-0.15658426,-0.000
 03461,0.00009749,0.00005110,-0.00000967,0.00001061,0.00001057,0.000009
 87,0.00002172,0.00000082,0.00000119,0.00000165,-0.00000074,0.00001045,
 -0.00002144,0.00000007,0.00000306,0.00000743,-0.00000488,0.00000007,0.
 00000091,0.00000081,0.00000838,0.00000383,0.00000463,-0.00006015,-0.00
 032965,-0.00040558,0.00020946,-0.00033004,-0.00001392,-0.00247918,-0.0
 0031871,0.00086952,-0.00029067,0.00036303,0.00076116,-0.06496297,0.229
 82682,-0.00000857,-0.00004239,-0.00004024,0.00010774,-0.00002259,-0.00
 060014,-0.00036920,-0.00004792,-0.00001097,0.00005612,-0.00006136,-0.0
 0004829,-0.00001805,0.00008491,0.00011581,-0.00000697,-0.00002533,-0.0
 0003481,0.00000649,-0.00005367,-0.00008794,-0.00000039,-0.00000619,0.0
 0001203,0.00000763,0.00000168,0.00000040,0.00000911,-0.00000252,0.0000
 0120,-0.00001390,0.00000291,-0.00000996,-0.00000927,-0.00000150,0.0000
 1009,-0.00000450,0.00000150,-0.00000800,-0.00074046,0.00108643,0.00196
 955,0.00585425,-0.00712054,-0.00875049,0.05615002,-0.16122589,-0.22130
 374,-0.00003616,0.00001943,0.00009364,-0.00000078,-0.00000307,0.000000
 41,0.00001191,0.00000429,0.00000577,-0.00000583,0.00000224,-0.00000471
 ,0.00000638,-0.00000893,0.00000199,0.00000168,0.00000163,-0.00000297,-
 0.00000031,0.00000028,0.00000047,0.00000269,-0.00000005,0.00000806,0.0
 0028689,-0.00059765,0.00022367,-0.00002290,0.00025057,0.00007592,0.001
 61847,0.00170382,0.00022080,-0.00057475,0.00019117,-0.00037127,-0.0654
 4084,0.17158638,0.22972084,0.00035203,0.00000938,-0.00062519,-0.001086
 88,0.00059104,0.00074949,0.00066726,0.00011233,-0.00006740,-0.00016981
 ,-0.00003562,0.00019211,-0.00016790,-0.00017667,-0.00002408,0.00016410
 ,0.00008757,-0.00003432,0.00010119,0.00009972,0.00001585,0.00004371,0.
 00003873,-0.00002576,-0.00002242,-0.00003157,0.00001383,-0.00001477,0.
 00000047,0.00002375,0.00006028,-0.00000432,-0.00001225,0.00002227,0.00
 000071,-0.00000669,-0.00000046,0.00000563,-0.00003291,0.00213355,-0.00
 124663,0.00062125,0.00377438,-0.03009034,0.01406833,-0.05775406,0.0081
 8538,-0.00589109,-0.00006449,-0.00012332,-0.00009804,0.00002251,-0.000
 00806,-0.00002265,-0.00003579,0.00000031,0.00002247,-0.00000703,-0.000
 00148,-0.00000177,-0.00001332,0.00002723,0.00000867,-0.00000351,-0.000
 00457,0.00001462,-0.00000061,0.00000228,-0.00000062,-0.00001978,0.0000
 0453,-0.00000773,0.00001822,0.00028732,-0.00018833,-0.00071043,0.00103
 114,-0.00127198,0.00109365,0.00056925,0.00000179,-0.00621192,-0.000268
 71,0.00216805,-0.00103555,0.00862789,-0.00565388,0.05855606,0.00042269
 ,-0.00030933,-0.00026576,-0.00068359,0.00026417,0.00075194,0.00057644,
 0.00004235,-0.00012726,-0.00015846,0.00005121,0.00011633,-0.00012966,-
 0.00008400,0.00002082,0.00014270,0.00004487,-0.00003896,0.00009771,0.0
 0002493,-0.00001702,0.00002084,0.00004335,-0.00001227,-0.00001703,-0.0
 0003288,-0.00000009,-0.00001394,-0.00001172,0.00000886,0.00003237,-0.0
 0001321,0.00000004,0.00002121,0.00000608,-0.00000828,0.00000462,-0.000
 01236,-0.00001219,0.00080965,0.00068162,-0.00189051,-0.00431540,-0.004
 01036,0.00407820,0.01663381,-0.33482946,0.13303675,-0.00008316,-0.0000
 4237,-0.00008011,0.00001573,-0.00000171,-0.00000806,-0.00003606,0.0000
 2942,0.00002494,0.00000671,0.00000513,0.00000810,-0.00000911,0.0000222
 2,-0.00001155,-0.00000213,0.00000545,0.00001170,0.00000082,0.00000500,
 0.00000040,-0.00000806,0.00001656,-0.00000545,-0.00005675,-0.00024643,
 0.00012728,-0.00044685,-0.00000574,-0.00006931,0.00064660,0.00111558,-
 0.00047001,-0.00042106,0.00146586,-0.00004760,0.00066192,-0.02138599,0
 .01267824,-0.01438322,0.35254979,-0.00007481,-0.00035784,-0.00049696,-
 0.00047278,0.00037087,0.00023927,-0.00017934,-0.00005481,-0.00009548,0
 .00002637,-0.00004830,-0.00002498,-0.00002395,0.00003644,0.00006101,0.
 00000513,-0.00001021,-0.00002012,0.00000387,-0.00001861,-0.00004924,0.
 00000969,0.00000421,0.00001477,0.00000361,-0.00000437,0.00000413,0.000
 00682,-0.00000214,0.00000364,-0.00000317,0.00000123,-0.00001279,-0.000
 00555,-0.00000149,0.00000997,-0.00000356,0.00000397,-0.00001433,-0.000
 11541,-0.00163435,0.00154565,0.00140886,0.01276090,-0.00684463,-0.0106
 0019,0.13548755,-0.12853990,-0.00000779,-0.00002499,0.00004616,0.00000
 163,0.00000214,-0.00000198,0.00000418,0.00000253,0.00000621,-0.0000082
 9,-0.00000293,-0.00000613,0.00000512,-0.00000103,0.00000797,0.00000114
 ,0.00000311,-0.00000022,-0.00000025,0.00000050,0.00000024,-0.00000131,
 -0.00000078,0.00000722,-0.00014253,-0.00008141,-0.00010363,0.00007416,
 0.00059164,0.00025231,-0.00021860,-0.00015348,-0.00059233,0.00249267,-
 0.00058391,-0.00034061,0.00046721,-0.02549188,0.01583210,0.00646596,-0
 .14591822,0.12999886,0.00070776,0.00033466,0.00087725,-0.00018345,-0.0
 0109625,-0.00309230,-0.00048203,0.00019942,0.00063482,-0.00003187,-0.0
 0009172,-0.00012276,-0.00012956,-0.00000450,0.00008929,0.00004874,-0.0
 0000080,-0.00003205,0.00006000,0.00000649,-0.00002422,-0.00000486,-0.0
 0000394,0.00000495,-0.00001099,-0.00000009,-0.00000008,-0.00001130,0.0
 0000130,0.00000207,0.00002358,-0.00000111,-0.00000226,0.00000529,-0.00
 000066,-0.00000040,0.00000377,0.00000187,-0.00000580,-0.00481831,-0.00
 091735,0.00467299,-0.01941550,-0.00056554,-0.01935516,-0.22970714,-0.0
 0526952,-0.17752115,-0.00001148,0.00002425,0.00000015,-0.00000883,-0.0
 0000164,-0.00000039,-0.00000856,0.00000291,0.00000256,-0.00000025,0.00
 000057,-0.00000032,-0.00000577,0.00001336,-0.00000255,-0.00000318,-0.0
 0000297,0.00000607,-0.00000070,-0.00000027,0.00000025,-0.00000911,0.00
 000208,-0.00000311,0.00016273,-0.00019206,0.00003927,0.00053142,0.0000
 8372,0.00034791,0.00065181,0.00125284,0.00007098,0.00138224,-0.0005778
 7,-0.00021745,0.01004110,-0.00118885,0.00878739,0.00030952,0.00067068,
 0.00088113,0.24091493,0.00006148,-0.00008164,0.00015705,0.00002618,0.0
 0032250,-0.00071600,-0.00018778,-0.00005947,0.00007476,0.00002268,-0.0
 0006509,-0.00003385,-0.00001892,0.00004772,0.00005674,-0.00000384,-0.0
 0002475,-0.00001348,0.00001151,-0.00003868,-0.00002391,0.00000853,0.00
 000748,0.00000393,0.00000143,-0.00000350,-0.00000483,-0.00000027,-0.00
 000554,-0.00000369,-0.00000286,-0.00000534,0.00000102,0.00000028,0.000
 00092,-0.00000072,0.00000091,-0.00000430,0.00000314,-0.00139689,-0.000
 17963,0.00158274,-0.00509180,-0.00034325,-0.00597449,-0.00675600,-0.06
 294908,-0.00918409,-0.00001255,0.00003971,-0.00000237,-0.00001499,0.00
 000366,0.00000389,-0.00000140,0.00001507,0.00000154,0.00000115,0.00000
 063,0.00000092,-0.00000003,0.00000075,-0.00000064,0.00000025,0.0000060
 5,0.00000076,0.00000039,0.00000190,0.00000053,0.00000119,0.00000526,0.
 00000108,0.00029814,0.00012927,0.00007262,0.00002316,0.00025815,-0.000
 16464,0.00097694,0.00014019,0.00005507,-0.00053616,-0.00054995,-0.0001
 5858,-0.02142530,0.00077633,-0.01839588,0.02669364,0.00461196,0.025125
 64,0.00732097,0.05794267,0.00014540,-0.00001836,-0.00029582,0.00020608
 ,0.00012825,0.00136832,0.00061995,0.00002765,-0.00028700,-0.00011855,0
 .00008614,0.00011018,-0.00011752,-0.00009259,0.00000755,0.00013330,0.0
 0005910,-0.00003689,0.00008055,0.00004060,-0.00002010,0.00000638,0.000
 02751,-0.00000448,-0.00001287,-0.00002747,0.00001005,-0.00000428,-0.00
 000695,0.00002050,0.00003140,-0.00000429,-0.00001639,0.00001352,0.0000
 0106,0.00000214,-0.00000454,0.00000357,-0.00003057,0.00258226,0.000779
 05,-0.00255354,0.00907739,-0.00077773,0.01636156,-0.16813633,-0.007149
 29,-0.22975527,-0.00007398,-0.00009992,-0.00005714,0.00003154,0.000002
 83,-0.00001068,-0.00002811,0.00001271,0.00002510,-0.00000415,-0.000001
 61,-0.00000277,-0.00000516,0.00001175,0.00000574,-0.00000099,0.0000019
 1,0.00001074,-0.00000035,0.00000271,0.00000003,-0.00001045,0.00000511,
 -0.00000057,0.00005213,0.00011573,0.00000395,-0.00016217,-0.00018834,-
 0.00013911,0.00041969,-0.00027000,0.00041169,0.00013515,0.00034954,0.0
 0039586,-0.01841667,0.00132652,-0.01701922,-0.01040149,-0.00188093,-0.
 01088618,0.18396290,0.00753575,0.24238230\\0.00000431,-0.00000202,-0.0
 0000140,0.00000334,-0.00000073,-0.00000389,-0.00000036,0.00000460,-0.0
 0000098,0.00000320,-0.00000853,-0.00000002,-0.00000129,0.00000418,-0.0
 0000092,0.00000999,-0.00000047,0.00000329,0.00000168,-0.00000087,-0.00
 000290,0.00000357,-0.00000269,0.00000263,-0.00001095,0.00000869,-0.000
 00841,0.00000128,-0.00000377,0.00000077,-0.00000094,-0.00000281,0.0000
 0084,0.00000042,0.00000003,-0.00000117,0.00000288,0.00000838,0.0000080
 9,-0.00000907,-0.00000094,0.00000675,0.00001174,0.00000169,-0.00000586
 ,-0.00000915,-0.00000096,0.00000297,-0.00000368,-0.00000121,-0.0000019
 6,-0.00000318,0.00000134,0.00000167,-0.00000321,-0.00000089,-0.0000017
 8,-0.00000193,0.00000223,0.00000195,0.00000431,-0.00000223,-0.00000052
 ,0.00000079,0.00000116,0.00000133,0.00000053,0.00000038,0.00000058,0.0
 0000058,-0.00000486,0.00000021,0.00000035,0.00000119,-0.00000060,0.000
 00105,-0.00000010,-0.00000203,-0.00000229,-0.00000182,0.00000190,-0.00
 000315,0.00000152,0.00000043,-0.00000069,-0.00000004,-0.00000042,0.,0.
 00000004,-0.00000011,-0.00000012,-0.00000048,-0.00000044\\\@


 KNOWING HOW CONTENTED, FREE, AND JOYFUL IS LIFE IN
 THE REALMS OF SCIENCE, ONE FERVENTLY WISHES THAT
 MANY WOULD ENTER HER PORTALS.
   --  DMITRI IVANOVICH MENDELEEV
 "FIRST PRINCIPLES OF CHEMISTRY", LONGMANS, GREEN,
 AND CO.  LONDON, 1891
 Job cpu time:       0 days  5 hours  2 minutes 43.8 seconds.
 File lengths (MBytes):  RWF=    608 Int=      0 D2E=      0 Chk=     18 Scr=      1
 Normal termination of Gaussian 09 at Sat Jul 24 05:07:16 2021.
