 Entering Gaussian System, Link 0=g09
 Input=opt_freq-conf-301.com
 Output=opt_freq-conf-301.log
 Initial command:
 /aerosol/software/g09/l1.exe "/scratch/nicole/10502/Gau-72677.inp" -scrdir="/scratch/nicole/10502/"
 Entering Link 1 = /aerosol/software/g09/l1.exe PID=     72684.
  
 Copyright (c) 1988,1990,1992,1993,1995,1998,2003,2009,2013,
            Gaussian, Inc.  All Rights Reserved.
  
 This is part of the Gaussian(R) 09 program.  It is based on
 the Gaussian(R) 03 system (copyright 2003, Gaussian, Inc.),
 the Gaussian(R) 98 system (copyright 1998, Gaussian, Inc.),
 the Gaussian(R) 94 system (copyright 1995, Gaussian, Inc.),
 the Gaussian 92(TM) system (copyright 1992, Gaussian, Inc.),
 the Gaussian 90(TM) system (copyright 1990, Gaussian, Inc.),
 the Gaussian 88(TM) system (copyright 1988, Gaussian, Inc.),
 the Gaussian 86(TM) system (copyright 1986, Carnegie Mellon
 University), and the Gaussian 82(TM) system (copyright 1983,
 Carnegie Mellon University). Gaussian is a federally registered
 trademark of Gaussian, Inc.
  
 This software contains proprietary and confidential information,
 including trade secrets, belonging to Gaussian, Inc.
  
 This software is provided under written license and may be
 used, copied, transmitted, or stored only in accord with that
 written license.
  
 The following legend is applicable only to US Government
 contracts under FAR:
  
                    RESTRICTED RIGHTS LEGEND
  
 Use, reproduction and disclosure by the US Government is
 subject to restrictions as set forth in subparagraphs (a)
 and (c) of the Commercial Computer Software - Restricted
 Rights clause in FAR 52.227-19.
  
 Gaussian, Inc.
 340 Quinnipiac St., Bldg. 40, Wallingford CT 06492
  
  
 ---------------------------------------------------------------
 Warning -- This program may not be used in any manner that
 competes with the business of Gaussian, Inc. or will provide
 assistance to any competitor of Gaussian, Inc.  The licensee
 of this program is prohibited from giving any competitor of
 Gaussian, Inc. access to this program.  By using this program,
 the user acknowledges that Gaussian, Inc. is engaged in the
 business of creating and licensing software in the field of
 computational chemistry and represents and warrants to the
 licensee that it is not a competitor of Gaussian, Inc. and that
 it will not use this program in any manner prohibited above.
 ---------------------------------------------------------------
  

 Cite this work as:
 Gaussian 09, Revision D.01,
 M. J. Frisch, G. W. Trucks, H. B. Schlegel, G. E. Scuseria, 
 M. A. Robb, J. R. Cheeseman, G. Scalmani, V. Barone, B. Mennucci, 
 G. A. Petersson, H. Nakatsuji, M. Caricato, X. Li, H. P. Hratchian, 
 A. F. Izmaylov, J. Bloino, G. Zheng, J. L. Sonnenberg, M. Hada, 
 M. Ehara, K. Toyota, R. Fukuda, J. Hasegawa, M. Ishida, T. Nakajima, 
 Y. Honda, O. Kitao, H. Nakai, T. Vreven, J. A. Montgomery, Jr., 
 J. E. Peralta, F. Ogliaro, M. Bearpark, J. J. Heyd, E. Brothers, 
 K. N. Kudin, V. N. Staroverov, T. Keith, R. Kobayashi, J. Normand, 
 K. Raghavachari, A. Rendell, J. C. Burant, S. S. Iyengar, J. Tomasi, 
 M. Cossi, N. Rega, J. M. Millam, M. Klene, J. E. Knox, J. B. Cross, 
 V. Bakken, C. Adamo, J. Jaramillo, R. Gomperts, R. E. Stratmann, 
 O. Yazyev, A. J. Austin, R. Cammi, C. Pomelli, J. W. Ochterski, 
 R. L. Martin, K. Morokuma, V. G. Zakrzewski, G. A. Voth, 
 P. Salvador, J. J. Dannenberg, S. Dapprich, A. D. Daniels, 
 O. Farkas, J. B. Foresman, J. V. Ortiz, J. Cioslowski, 
 and D. J. Fox, Gaussian, Inc., Wallingford CT, 2013.
 
 ******************************************
 Gaussian 09:  ES64L-G09RevD.01 24-Apr-2013
                24-Jul-2021 
 ******************************************
 %mem=2gb
 %nproc=4
 Will use up to    4 processors via shared memory.
 %chk=conf-301.chk
 ----------------------------------------------------------------------
 # B3LYP/6-311++G(d,p) EmpiricalDispersion=GD3BJ opt=calcfc freq=norama
 n nosymm integral(ultrafinegrid)
 ----------------------------------------------------------------------
 1/10=4,14=-1,18=20,19=15,26=4,38=1/1,3;
 2/9=110,12=2,15=1,17=6,18=5,40=1/2;
 3/5=4,6=6,7=1111,11=2,16=1,25=1,30=1,71=2,74=-5,75=-5,124=41,140=1/1,2,3;
 4//1;
 5/5=2,38=5/2;
 8/6=4,10=90,11=11/1;
 11/6=1,8=1,9=11,15=111,16=1,31=1/1,2,10;
 10/6=1,13=1,31=1/2;
 6/7=2,8=2,9=2,10=2,28=1/1;
 7/10=1,18=20,25=1,30=1/1,2,3,16;
 1/10=4,14=-1,18=20,19=15,26=4/3(2);
 2/9=110,15=1/2;
 99//99;
 2/9=110,15=1/2;
 3/5=4,6=6,7=1111,11=2,16=1,25=1,30=1,71=1,74=-5,75=-5,124=41/1,2,3;
 4/5=5,16=3,69=1/1;
 5/5=2,38=5/2;
 7/30=1/1,2,3,16;
 1/14=-1,18=20,19=15,26=4/3(-5);
 2/9=110,15=1/2;
 6/7=2,8=2,9=2,10=2,19=2,28=1/1;
 99/9=1/99;
 ------------------------------------------------------------
 Candidate Structure: Conf:301 OPT and FREQ calc in gas phase
 ------------------------------------------------------------
 Symbolic Z-matrix:
 Charge =  1 Multiplicity = 1
 O                    -0.13881  -0.14864  -1.76768 
 C                     0.37704   0.73199  -1.08592 
 N                    -0.36807   1.54339  -0.28954 
 C                    -1.69978   1.15699   0.11336 
 C                    -2.48703   2.41612   0.39823 
 O                    -3.81375   2.17874   0.4095 
 O                    -2.00478   3.49354   0.62806 
 C                    -1.71407   0.28347   1.39749 
 C                    -0.86229  -0.9459    1.29263 
 C                     0.37799  -1.24597   1.78407 
 N                     0.81292  -2.47088   1.32067 
 C                    -0.17136  -2.92931   0.59162 
 N                    -1.20497  -2.04884   0.5375 
 C                     1.87632   0.99424  -1.03538 
 C                     2.70492   0.02335  -1.85939 
 N                     2.44095  -1.38529  -1.47797 
 H                     0.06396   2.28836   0.23028 
 H                    -2.15378   0.60536  -0.70847 
 H                    -4.23228   3.02183   0.6253 
 H                    -1.3464    0.87479   2.23745 
 H                    -2.74758   0.01572   1.61236 
 H                     0.99944  -0.61957   2.41458 
 H                    -0.1819   -3.87674   0.07388 
 H                    -2.04603  -2.15826  -0.00986 
 H                     2.19196   0.9501    0.01525 
 H                     2.05996   2.0183   -1.37188 
 H                     2.46431   0.1559   -2.91485 
 H                     3.76406   0.2522   -1.73145 
 H                     3.06624  -2.03948  -1.94956 
 H                     1.47923  -1.59914  -1.75807 
 H                     2.49377  -1.5368   -0.46652 
 

 GradGradGradGradGradGradGradGradGradGradGradGradGradGradGradGradGradGrad
 Berny optimization.
 Initialization pass.
                           ----------------------------
                           !    Initial Parameters    !
                           ! (Angstroms and Degrees)  !
 --------------------------                            --------------------------
 ! Name  Definition              Value          Derivative Info.                !
 --------------------------------------------------------------------------------
 ! R1    R(1,2)                  1.2274         calculate D2E/DX2 analytically  !
 ! R2    R(2,3)                  1.3593         calculate D2E/DX2 analytically  !
 ! R3    R(2,14)                 1.5229         calculate D2E/DX2 analytically  !
 ! R4    R(3,4)                  1.444          calculate D2E/DX2 analytically  !
 ! R5    R(3,17)                 1.0059         calculate D2E/DX2 analytically  !
 ! R6    R(4,5)                  1.5121         calculate D2E/DX2 analytically  !
 ! R7    R(4,8)                  1.5531         calculate D2E/DX2 analytically  !
 ! R8    R(4,18)                 1.089          calculate D2E/DX2 analytically  !
 ! R9    R(5,6)                  1.3478         calculate D2E/DX2 analytically  !
 ! R10   R(5,7)                  1.2026         calculate D2E/DX2 analytically  !
 ! R11   R(6,19)                 0.9657         calculate D2E/DX2 analytically  !
 ! R12   R(8,9)                  1.4993         calculate D2E/DX2 analytically  !
 ! R13   R(8,20)                 1.091          calculate D2E/DX2 analytically  !
 ! R14   R(8,21)                 1.089          calculate D2E/DX2 analytically  !
 ! R15   R(9,10)                 1.3674         calculate D2E/DX2 analytically  !
 ! R16   R(9,13)                 1.3799         calculate D2E/DX2 analytically  !
 ! R17   R(10,11)                1.38           calculate D2E/DX2 analytically  !
 ! R18   R(10,22)                1.0845         calculate D2E/DX2 analytically  !
 ! R19   R(11,12)                1.3079         calculate D2E/DX2 analytically  !
 ! R20   R(12,13)                1.3589         calculate D2E/DX2 analytically  !
 ! R21   R(12,23)                1.0797         calculate D2E/DX2 analytically  !
 ! R22   R(13,24)                1.0094         calculate D2E/DX2 analytically  !
 ! R23   R(14,15)                1.5193         calculate D2E/DX2 analytically  !
 ! R24   R(14,25)                1.0979         calculate D2E/DX2 analytically  !
 ! R25   R(14,26)                1.0935         calculate D2E/DX2 analytically  !
 ! R26   R(15,16)                1.483          calculate D2E/DX2 analytically  !
 ! R27   R(15,27)                1.0906         calculate D2E/DX2 analytically  !
 ! R28   R(15,28)                1.0911         calculate D2E/DX2 analytically  !
 ! R29   R(16,29)                1.0205         calculate D2E/DX2 analytically  !
 ! R30   R(16,30)                1.0243         calculate D2E/DX2 analytically  !
 ! R31   R(16,31)                1.0241         calculate D2E/DX2 analytically  !
 ! A1    A(1,2,3)              121.5556         calculate D2E/DX2 analytically  !
 ! A2    A(1,2,14)             123.764          calculate D2E/DX2 analytically  !
 ! A3    A(3,2,14)             114.6718         calculate D2E/DX2 analytically  !
 ! A4    A(2,3,4)              120.6148         calculate D2E/DX2 analytically  !
 ! A5    A(2,3,17)             120.6239         calculate D2E/DX2 analytically  !
 ! A6    A(4,3,17)             116.7494         calculate D2E/DX2 analytically  !
 ! A7    A(3,4,5)              108.0534         calculate D2E/DX2 analytically  !
 ! A8    A(3,4,8)              112.9349         calculate D2E/DX2 analytically  !
 ! A9    A(3,4,18)             108.0278         calculate D2E/DX2 analytically  !
 ! A10   A(5,4,8)              107.9259         calculate D2E/DX2 analytically  !
 ! A11   A(5,4,18)             110.3004         calculate D2E/DX2 analytically  !
 ! A12   A(8,4,18)             109.5873         calculate D2E/DX2 analytically  !
 ! A13   A(4,5,6)              111.5559         calculate D2E/DX2 analytically  !
 ! A14   A(4,5,7)              124.9785         calculate D2E/DX2 analytically  !
 ! A15   A(6,5,7)              123.4302         calculate D2E/DX2 analytically  !
 ! A16   A(5,6,19)             105.9456         calculate D2E/DX2 analytically  !
 ! A17   A(4,8,9)              113.4602         calculate D2E/DX2 analytically  !
 ! A18   A(4,8,20)             109.1842         calculate D2E/DX2 analytically  !
 ! A19   A(4,8,21)             108.0677         calculate D2E/DX2 analytically  !
 ! A20   A(9,8,20)             107.8662         calculate D2E/DX2 analytically  !
 ! A21   A(9,8,21)             110.5699         calculate D2E/DX2 analytically  !
 ! A22   A(20,8,21)            107.5279         calculate D2E/DX2 analytically  !
 ! A23   A(8,9,10)             132.0744         calculate D2E/DX2 analytically  !
 ! A24   A(8,9,13)             123.5444         calculate D2E/DX2 analytically  !
 ! A25   A(10,9,13)            104.2715         calculate D2E/DX2 analytically  !
 ! A26   A(9,10,11)            111.0983         calculate D2E/DX2 analytically  !
 ! A27   A(9,10,22)            127.0102         calculate D2E/DX2 analytically  !
 ! A28   A(11,10,22)           121.8242         calculate D2E/DX2 analytically  !
 ! A29   A(10,11,12)           105.1373         calculate D2E/DX2 analytically  !
 ! A30   A(11,12,13)           111.5634         calculate D2E/DX2 analytically  !
 ! A31   A(11,12,23)           125.6073         calculate D2E/DX2 analytically  !
 ! A32   A(13,12,23)           122.8225         calculate D2E/DX2 analytically  !
 ! A33   A(9,13,12)            107.8912         calculate D2E/DX2 analytically  !
 ! A34   A(9,13,24)            126.1768         calculate D2E/DX2 analytically  !
 ! A35   A(12,13,24)           125.8125         calculate D2E/DX2 analytically  !
 ! A36   A(2,14,15)            114.1355         calculate D2E/DX2 analytically  !
 ! A37   A(2,14,25)            107.9306         calculate D2E/DX2 analytically  !
 ! A38   A(2,14,26)            108.4455         calculate D2E/DX2 analytically  !
 ! A39   A(15,14,25)           109.6656         calculate D2E/DX2 analytically  !
 ! A40   A(15,14,26)           109.8762         calculate D2E/DX2 analytically  !
 ! A41   A(25,14,26)           106.4904         calculate D2E/DX2 analytically  !
 ! A42   A(14,15,16)           111.7413         calculate D2E/DX2 analytically  !
 ! A43   A(14,15,27)           109.08           calculate D2E/DX2 analytically  !
 ! A44   A(14,15,28)           109.3767         calculate D2E/DX2 analytically  !
 ! A45   A(16,15,27)           108.97           calculate D2E/DX2 analytically  !
 ! A46   A(16,15,28)           109.9886         calculate D2E/DX2 analytically  !
 ! A47   A(27,15,28)           107.5867         calculate D2E/DX2 analytically  !
 ! A48   A(15,16,29)           112.3948         calculate D2E/DX2 analytically  !
 ! A49   A(15,16,30)           107.1637         calculate D2E/DX2 analytically  !
 ! A50   A(15,16,31)           112.6662         calculate D2E/DX2 analytically  !
 ! A51   A(29,16,30)           108.3673         calculate D2E/DX2 analytically  !
 ! A52   A(29,16,31)           109.2679         calculate D2E/DX2 analytically  !
 ! A53   A(30,16,31)           106.7156         calculate D2E/DX2 analytically  !
 ! D1    D(1,2,3,4)             19.5353         calculate D2E/DX2 analytically  !
 ! D2    D(1,2,3,17)          -177.1208         calculate D2E/DX2 analytically  !
 ! D3    D(14,2,3,4)          -159.4324         calculate D2E/DX2 analytically  !
 ! D4    D(14,2,3,17)            3.9116         calculate D2E/DX2 analytically  !
 ! D5    D(1,2,14,15)           -2.7105         calculate D2E/DX2 analytically  !
 ! D6    D(1,2,14,25)         -124.8903         calculate D2E/DX2 analytically  !
 ! D7    D(1,2,14,26)          120.1217         calculate D2E/DX2 analytically  !
 ! D8    D(3,2,14,15)          176.2313         calculate D2E/DX2 analytically  !
 ! D9    D(3,2,14,25)           54.0516         calculate D2E/DX2 analytically  !
 ! D10   D(3,2,14,26)          -60.9365         calculate D2E/DX2 analytically  !
 ! D11   D(2,3,4,5)           -153.9324         calculate D2E/DX2 analytically  !
 ! D12   D(2,3,4,8)             86.7643         calculate D2E/DX2 analytically  !
 ! D13   D(2,3,4,18)           -34.6031         calculate D2E/DX2 analytically  !
 ! D14   D(17,3,4,5)            42.1016         calculate D2E/DX2 analytically  !
 ! D15   D(17,3,4,8)           -77.2016         calculate D2E/DX2 analytically  !
 ! D16   D(17,3,4,18)          161.431          calculate D2E/DX2 analytically  !
 ! D17   D(3,4,5,6)            162.512          calculate D2E/DX2 analytically  !
 ! D18   D(3,4,5,7)            -19.5962         calculate D2E/DX2 analytically  !
 ! D19   D(8,4,5,6)            -75.0616         calculate D2E/DX2 analytically  !
 ! D20   D(8,4,5,7)            102.8302         calculate D2E/DX2 analytically  !
 ! D21   D(18,4,5,6)            44.631          calculate D2E/DX2 analytically  !
 ! D22   D(18,4,5,7)          -137.4772         calculate D2E/DX2 analytically  !
 ! D23   D(3,4,8,9)            -55.4448         calculate D2E/DX2 analytically  !
 ! D24   D(3,4,8,20)            64.8933         calculate D2E/DX2 analytically  !
 ! D25   D(3,4,8,21)          -178.4322         calculate D2E/DX2 analytically  !
 ! D26   D(5,4,8,9)           -174.8217         calculate D2E/DX2 analytically  !
 ! D27   D(5,4,8,20)           -54.4836         calculate D2E/DX2 analytically  !
 ! D28   D(5,4,8,21)            62.1909         calculate D2E/DX2 analytically  !
 ! D29   D(18,4,8,9)            65.036          calculate D2E/DX2 analytically  !
 ! D30   D(18,4,8,20)         -174.6259         calculate D2E/DX2 analytically  !
 ! D31   D(18,4,8,21)          -57.9514         calculate D2E/DX2 analytically  !
 ! D32   D(4,5,6,19)           178.1955         calculate D2E/DX2 analytically  !
 ! D33   D(7,5,6,19)             0.2653         calculate D2E/DX2 analytically  !
 ! D34   D(4,8,9,10)           102.3333         calculate D2E/DX2 analytically  !
 ! D35   D(4,8,9,13)           -73.2285         calculate D2E/DX2 analytically  !
 ! D36   D(20,8,9,10)          -18.7483         calculate D2E/DX2 analytically  !
 ! D37   D(20,8,9,13)          165.6898         calculate D2E/DX2 analytically  !
 ! D38   D(21,8,9,10)         -136.0673         calculate D2E/DX2 analytically  !
 ! D39   D(21,8,9,13)           48.3708         calculate D2E/DX2 analytically  !
 ! D40   D(8,9,10,11)         -174.3606         calculate D2E/DX2 analytically  !
 ! D41   D(8,9,10,22)            2.6761         calculate D2E/DX2 analytically  !
 ! D42   D(13,9,10,11)           1.8236         calculate D2E/DX2 analytically  !
 ! D43   D(13,9,10,22)         178.8603         calculate D2E/DX2 analytically  !
 ! D44   D(8,9,13,12)          175.669          calculate D2E/DX2 analytically  !
 ! D45   D(8,9,13,24)           -0.5304         calculate D2E/DX2 analytically  !
 ! D46   D(10,9,13,12)          -0.9332         calculate D2E/DX2 analytically  !
 ! D47   D(10,9,13,24)        -177.1326         calculate D2E/DX2 analytically  !
 ! D48   D(9,10,11,12)          -2.0211         calculate D2E/DX2 analytically  !
 ! D49   D(22,10,11,12)       -179.2363         calculate D2E/DX2 analytically  !
 ! D50   D(10,11,12,13)          1.3885         calculate D2E/DX2 analytically  !
 ! D51   D(10,11,12,23)       -179.5397         calculate D2E/DX2 analytically  !
 ! D52   D(11,12,13,9)          -0.3003         calculate D2E/DX2 analytically  !
 ! D53   D(11,12,13,24)        175.9167         calculate D2E/DX2 analytically  !
 ! D54   D(23,12,13,9)        -179.4022         calculate D2E/DX2 analytically  !
 ! D55   D(23,12,13,24)         -3.1853         calculate D2E/DX2 analytically  !
 ! D56   D(2,14,15,16)         -55.3687         calculate D2E/DX2 analytically  !
 ! D57   D(2,14,15,27)          65.1784         calculate D2E/DX2 analytically  !
 ! D58   D(2,14,15,28)        -177.3984         calculate D2E/DX2 analytically  !
 ! D59   D(25,14,15,16)         65.8549         calculate D2E/DX2 analytically  !
 ! D60   D(25,14,15,27)       -173.598          calculate D2E/DX2 analytically  !
 ! D61   D(25,14,15,28)        -56.1748         calculate D2E/DX2 analytically  !
 ! D62   D(26,14,15,16)       -177.4187         calculate D2E/DX2 analytically  !
 ! D63   D(26,14,15,27)        -56.8716         calculate D2E/DX2 analytically  !
 ! D64   D(26,14,15,28)         60.5516         calculate D2E/DX2 analytically  !
 ! D65   D(14,15,16,29)       -173.5573         calculate D2E/DX2 analytically  !
 ! D66   D(14,15,16,30)         67.498          calculate D2E/DX2 analytically  !
 ! D67   D(14,15,16,31)        -49.5803         calculate D2E/DX2 analytically  !
 ! D68   D(27,15,16,29)         65.8315         calculate D2E/DX2 analytically  !
 ! D69   D(27,15,16,30)        -53.1132         calculate D2E/DX2 analytically  !
 ! D70   D(27,15,16,31)       -170.1915         calculate D2E/DX2 analytically  !
 ! D71   D(28,15,16,29)        -51.8798         calculate D2E/DX2 analytically  !
 ! D72   D(28,15,16,30)       -170.8245         calculate D2E/DX2 analytically  !
 ! D73   D(28,15,16,31)         72.0972         calculate D2E/DX2 analytically  !
 --------------------------------------------------------------------------------
 Trust Radius=3.00D-01 FncErr=1.00D-07 GrdErr=1.00D-06
 Number of steps in this run=    167 maximum allowed number of steps=    186.
 GradGradGradGradGradGradGradGradGradGradGradGradGradGradGradGradGradGrad

                          Input orientation:                          
 ---------------------------------------------------------------------
 Center     Atomic      Atomic             Coordinates (Angstroms)
 Number     Number       Type             X           Y           Z
 ---------------------------------------------------------------------
      1          8           0       -0.138812   -0.148640   -1.767677
      2          6           0        0.377043    0.731988   -1.085918
      3          7           0       -0.368072    1.543392   -0.289539
      4          6           0       -1.699776    1.156991    0.113364
      5          6           0       -2.487034    2.416121    0.398227
      6          8           0       -3.813746    2.178739    0.409500
      7          8           0       -2.004782    3.493543    0.628056
      8          6           0       -1.714069    0.283474    1.397493
      9          6           0       -0.862288   -0.945898    1.292630
     10          6           0        0.377987   -1.245966    1.784068
     11          7           0        0.812918   -2.470876    1.320671
     12          6           0       -0.171359   -2.929311    0.591616
     13          7           0       -1.204965   -2.048844    0.537500
     14          6           0        1.876321    0.994236   -1.035383
     15          6           0        2.704922    0.023349   -1.859393
     16          7           0        2.440955   -1.385286   -1.477965
     17          1           0        0.063956    2.288359    0.230280
     18          1           0       -2.153784    0.605359   -0.708473
     19          1           0       -4.232284    3.021834    0.625295
     20          1           0       -1.346396    0.874791    2.237450
     21          1           0       -2.747575    0.015717    1.612359
     22          1           0        0.999445   -0.619573    2.414576
     23          1           0       -0.181899   -3.876737    0.073880
     24          1           0       -2.046031   -2.158257   -0.009859
     25          1           0        2.191957    0.950096    0.015249
     26          1           0        2.059958    2.018302   -1.371880
     27          1           0        2.464305    0.155904   -2.914855
     28          1           0        3.764060    0.252198   -1.731446
     29          1           0        3.066242   -2.039480   -1.949563
     30          1           0        1.479227   -1.599140   -1.758067
     31          1           0        2.493767   -1.536799   -0.466521
 ---------------------------------------------------------------------
                    Distance matrix (angstroms):
                    1          2          3          4          5
     1  O    0.000000
     2  C    1.227358   0.000000
     3  N    2.258412   1.359335   0.000000
     4  C    2.771208   2.435586   1.443978   0.000000
     5  C    4.096741   3.638946   2.392630   1.512062   0.000000
     6  O    4.864353   4.678897   3.572813   2.366545   1.347828
     7  O    4.742033   4.029514   2.706268   2.411931   1.202591
     8  C    3.561805   3.277384   2.499035   1.553133   2.478748
     9  C    3.244152   3.163659   2.990665   2.552292   3.839652
    10  C    3.753145   3.485559   3.554851   3.589227   4.851781
    11  N    3.979506   4.029888   4.483510   4.575220   5.968528
    12  C    3.646841   4.064477   4.562916   4.388923   5.828670
    13  N    3.171955   3.587654   3.780019   3.271407   4.647474
    14  C    2.429646   1.522879   2.427994   3.759598   4.807896
    15  C    2.850406   2.553322   3.770711   4.957648   6.146431
    16  N    2.875487   2.982664   4.228492   5.112841   6.500451
    17  H    3.157833   2.062205   1.005900   2.098669   2.559703
    18  H    2.398028   2.561949   2.060141   1.088961   2.148186
    19  H    5.703922   5.423794   4.237316   3.186426   1.861275
    20  H    4.306589   3.746386   2.791024   2.171694   2.656971
    21  H    4.272856   4.190105   3.407791   2.155777   2.702580
    22  H    4.359891   3.803625   3.723004   3.967058   5.043475
    23  H    4.158353   4.785175   5.435489   5.257749   6.709614
    24  H    3.281153   3.922079   4.073815   3.335557   4.613670
    25  H    3.133454   2.134023   2.645495   3.898464   4.918217
    26  H    3.112376   2.137424   2.700432   4.133208   4.895577
    27  H    2.860941   2.834351   4.103628   5.245174   6.371880
    28  H    3.923569   3.481205   4.562980   5.837420   6.949406
    29  H    3.725685   3.957109   5.233274   6.098197   7.496891
    30  H    2.173038   2.664723   3.929961   4.604841   6.041784
    31  H    3.248148   3.164106   4.208209   5.017825   6.417301
                    6          7          8          9         10
     6  O    0.000000
     7  O    2.246959   0.000000
     8  C    2.996131   3.313772   0.000000
     9  C    4.387981   4.632017   1.499294   0.000000
    10  C    5.584681   5.429263   2.620177   1.367419   0.000000
    11  N    6.622324   6.632755   3.738718   2.265538   1.379967
    12  C    6.276330   6.679507   3.653954   2.214212   2.134801
    13  N    4.969364   5.600532   2.537417   1.379906   2.168936
    14  C    5.988956   4.906783   4.394880   4.084574   3.900361
    15  C    7.230948   6.356962   5.495676   4.857950   4.505618
    16  N    7.442182   6.928410   5.321395   4.333668   3.862138
    17  H    3.883389   2.427009   2.922896   3.528021   3.873542
    18  H    2.545754   3.185925   2.175328   2.842318   4.006248
    19  H    0.965687   2.276902   3.799514   5.248343   6.388385
    20  H    3.336090   3.143482   1.091039   2.107594   2.770678
    21  H    2.694857   3.689968   1.089034   2.140382   3.374976
    22  H    5.917574   5.397662   3.035311   2.198022   1.084490
    23  H    7.069069   7.612558   4.626755   3.246244   3.187346
    24  H    4.702149   5.687836   2.837761   2.137180   3.150605
    25  H    6.142757   4.945430   4.196668   3.815090   3.352894
    26  H    6.139988   4.764262   4.992228   4.942229   4.841951
    27  H    7.386279   6.607934   6.005949   5.475685   5.328962
    28  H    8.106685   7.025176   6.308814   5.655402   5.105764
    29  H    8.407900   7.935600   6.280945   5.209711   4.668659
    30  H    6.854653   6.615687   4.868155   3.900791   3.726149
    31  H    7.372744   6.836620   4.949124   3.834956   3.102622
                   11         12         13         14         15
    11  N    0.000000
    12  C    1.307856   0.000000
    13  N    2.205294   1.358857   0.000000
    14  C    4.323056   4.715330   4.607453   0.000000
    15  C    4.462470   4.795689   5.032524   1.519274   0.000000
    16  N    3.414876   3.673059   4.218429   2.485320   1.483043
    17  H    4.939657   5.235457   4.529445   2.561507   4.058534
    18  H    4.730958   4.256070   3.081801   4.061999   5.026965
    19  H    7.490492   7.204746   5.906280   6.647109   7.955464
    20  H    4.086148   4.308210   3.384889   4.594737   5.824281
    21  H    4.352624   4.043760   2.792379   5.417421   6.463965
    22  H    2.158412   3.166837   3.228878   3.908390   4.646377
    23  H    2.126169   1.079712   2.145414   5.403065   5.223213
    24  H    3.168854   2.114401   1.009438   5.135635   5.545424
    25  H    3.912662   4.579002   4.561301   1.097909   2.153202
    26  H    5.381232   5.771739   5.554020   1.093464   2.152553
    27  H    5.250403   5.362892   5.499383   2.140313   1.090626
    28  H    5.043787   5.568316   5.927404   2.144454   1.091108
    29  H    3.994746   4.210872   4.942548   3.384534   2.096174
    30  H    3.268412   3.164617   3.560442   2.721314   2.035943
    31  H    2.625226   3.187733   3.866636   2.666642   2.102080
                   16         17         18         19         20
    16  N    0.000000
    17  H    4.697221   0.000000
    18  H    5.066202   2.938046   0.000000
    19  H    8.269131   4.376266   3.455206   0.000000
    20  H    5.766826   2.831254   3.066419   3.941723   0.000000
    21  H    6.199496   3.870368   2.467088   3.495052   1.758422
    22  H    4.220918   3.755311   4.603992   6.620601   2.787017
    23  H    3.936359   6.171978   4.958789   8.018725   5.349215
    24  H    4.783917   4.927687   2.852585   5.658309   3.839175
    25  H    2.783109   2.523009   4.419059   6.777546   4.178970
    26  H    3.426488   2.573688   4.493566   6.677432   5.092949
    27  H    2.107240   4.494542   5.137789   8.098798   6.448603
    28  H    2.120427   4.656725   6.015985   8.784454   6.500501
    29  H    1.020469   5.700493   5.981985   9.247447   6.745029
    30  H    1.024261   4.590115   4.377240   7.723676   5.483487
    31  H    1.024093   4.584903   5.123193   8.198351   5.279590
                   21         22         23         24         25
    21  H    0.000000
    22  H    3.884238   0.000000
    23  H    4.909258   4.181334   0.000000
    24  H    2.801770   4.185732   2.536765   0.000000
    25  H    5.274732   3.105273   5.379308   5.255762   0.000000
    26  H    6.002367   4.735011   6.470521   6.013143   1.755738
    27  H    6.904999   5.581220   5.674251   5.842728   3.048020
    28  H    7.323820   5.058911   5.989817   6.521603   2.451431
    29  H    7.121207   5.033239   4.245027   5.469177   3.682720
    30  H    5.642108   4.312852   3.361967   3.974454   3.186101
    31  H    5.848394   3.372688   3.595350   4.604837   2.551046
                   26         27         28         29         30
    26  H    0.000000
    27  H    2.452100   0.000000
    28  H    2.480398   1.760423   0.000000
    29  H    4.220417   2.472615   2.405476   0.000000
    30  H    3.684057   2.321360   2.940854   1.658067   0.000000
    31  H    3.694131   2.976650   2.532625   1.667282   1.643554
                   31
    31  H    0.000000
 Symmetry turned off by external request.
 Stoichiometry    C9H15N4O3(1+)
 Framework group  C1[X(C9H15N4O3)]
 Deg. of freedom    87
 Full point group                 C1      NOp   1
 Rotational constants (GHZ):      0.7464841      0.3985491      0.2973763
 Standard basis: 6-311++G(d,p) (5D, 7F)
   457 basis functions,   711 primitive gaussians,   473 cartesian basis functions
    60 alpha electrons       60 beta electrons
       nuclear repulsion energy      1185.4331447700 Hartrees.
 NAtoms=   31 NActive=   31 NUniq=   31 SFac= 1.00D+00 NAtFMM=   60 NAOKFM=F Big=F
 Integral buffers will be    131072 words long.
 Raffenetti 2 integral format.
 Two-electron integral symmetry is turned off.
 Nuclear repulsion after empirical dispersion term =     1185.3729858217 Hartrees.
 One-electron integrals computed using PRISM.
 NBasis=   457 RedAO= T EigKep=  1.61D-06  NBF=   457
 NBsUse=   457 1.00D-06 EigRej= -1.00D+00 NBFU=   457
 ExpMin= 3.60D-02 ExpMax= 8.59D+03 ExpMxC= 1.30D+03 IAcc=3 IRadAn=         5 AccDes= 0.00D+00
 Harris functional with IExCor=  402 and IRadAn=       5 diagonalized for initial guess.
 HarFok:  IExCor=  402 AccDes= 0.00D+00 IRadAn=         5 IDoV= 1 UseB2=F ITyADJ=14
 ICtDFT=  3500011 ScaDFX=  1.000000  1.000000  1.000000  1.000000
 FoFCou: FMM=F IPFlag=           0 FMFlag=      100000 FMFlg1=           0
         NFxFlg=           0 DoJE=T BraDBF=F KetDBF=T FulRan=T
         wScrn=  0.000000 ICntrl=     500 IOpCl=  0 I1Cent=   200000004 NGrid=           0
         NMat0=    1 NMatS0=      1 NMatT0=    0 NMatD0=    1 NMtDS0=    0 NMtDT0=    0
 Symmetry not used in FoFCou.
 Requested convergence on RMS density matrix=1.00D-08 within 128 cycles.
 Requested convergence on MAX density matrix=1.00D-06.
 Requested convergence on             energy=1.00D-06.
 No special actions if energy rises.
 SCF Done:  E(RB3LYP) =  -796.776282521     A.U. after   15 cycles
            NFock= 15  Conv=0.55D-08     -V/T= 2.0038
 DoSCS=F DFT=T ScalE2(SS,OS)=  1.000000  1.000000
 Range of M.O.s used for correlation:     1   457
 NBasis=   457 NAE=    60 NBE=    60 NFC=     0 NFV=     0
 NROrb=    457 NOA=    60 NOB=    60 NVA=   397 NVB=   397

 **** Warning!!: The largest alpha MO coefficient is  0.18103100D+03

 Symmetrizing basis deriv contribution to polar:
 IMax=3 JMax=2 DiffMx= 0.00D+00
 G2DrvN: will do    32 centers at a time, making    1 passes.
 Calling FoFCou, ICntrl=  3107 FMM=F I1Cent=   0 AccDes= 0.00D+00.
 End of G2Drv F.D. properties file   721 does not exist.
 End of G2Drv F.D. properties file   722 does not exist.
 End of G2Drv F.D. properties file   788 does not exist.
          IDoAtm=1111111111111111111111111111111
          Differentiating once with respect to nuclear coordinates.
          There are    96 degrees of freedom in the 1st order CPHF.  IDoFFX=6 NUNeed=     0.
     90 vectors produced by pass  0 Test12= 2.48D-14 1.04D-09 XBig12= 2.63D-01 9.60D-02.
 AX will form    90 AO Fock derivatives at one time.
     90 vectors produced by pass  1 Test12= 2.48D-14 1.04D-09 XBig12= 2.24D-02 4.10D-02.
     90 vectors produced by pass  2 Test12= 2.48D-14 1.04D-09 XBig12= 3.01D-04 1.51D-03.
     90 vectors produced by pass  3 Test12= 2.48D-14 1.04D-09 XBig12= 9.80D-07 8.70D-05.
     90 vectors produced by pass  4 Test12= 2.48D-14 1.04D-09 XBig12= 1.93D-09 3.54D-06.
     85 vectors produced by pass  5 Test12= 2.48D-14 1.04D-09 XBig12= 2.82D-12 1.24D-07.
     29 vectors produced by pass  6 Test12= 2.48D-14 1.04D-09 XBig12= 4.91D-15 5.67D-09.
     12 vectors produced by pass  7 Test12= 2.48D-14 1.04D-09 XBig12= 5.61D-16 2.06D-09.
      1 vectors produced by pass  8 Test12= 2.48D-14 1.04D-09 XBig12= 2.91D-16 1.50D-09.
 InvSVY:  IOpt=1 It=  1 EMax= 8.33D-16
 Solved reduced A of dimension   577 with    96 vectors.
 End of Minotr F.D. properties file   721 does not exist.
 End of Minotr F.D. properties file   722 does not exist.
 End of Minotr F.D. properties file   788 does not exist.

 **********************************************************************

            Population analysis using the SCF density.

 **********************************************************************

 Alpha  occ. eigenvalues --  -19.29215 -19.24894 -19.24141 -14.60697 -14.49545
 Alpha  occ. eigenvalues --  -14.48272 -14.42552 -10.43264 -10.43196 -10.40537
 Alpha  occ. eigenvalues --  -10.36240 -10.35491 -10.35312 -10.33598 -10.32146
 Alpha  occ. eigenvalues --  -10.31067  -1.23954  -1.20364  -1.18144  -1.15154
 Alpha  occ. eigenvalues --   -1.15063  -1.07986  -1.00528  -0.96515  -0.93314
 Alpha  occ. eigenvalues --   -0.88426  -0.84228  -0.80713  -0.76861  -0.76356
 Alpha  occ. eigenvalues --   -0.74782  -0.74388  -0.73298  -0.72194  -0.68956
 Alpha  occ. eigenvalues --   -0.67179  -0.65797  -0.63296  -0.62340  -0.61673
 Alpha  occ. eigenvalues --   -0.60610  -0.59613  -0.58442  -0.57555  -0.56926
 Alpha  occ. eigenvalues --   -0.56329  -0.55112  -0.54234  -0.53924  -0.53842
 Alpha  occ. eigenvalues --   -0.52939  -0.51371  -0.50391  -0.45075  -0.42813
 Alpha  occ. eigenvalues --   -0.42329  -0.41227  -0.40511  -0.40470  -0.36256
 Alpha virt. eigenvalues --   -0.16642  -0.14909  -0.13434  -0.12587  -0.11897
 Alpha virt. eigenvalues --   -0.11184  -0.10616  -0.10099  -0.09824  -0.09121
 Alpha virt. eigenvalues --   -0.08113  -0.08073  -0.07409  -0.06884  -0.06238
 Alpha virt. eigenvalues --   -0.05430  -0.05238  -0.04616  -0.04520  -0.04127
 Alpha virt. eigenvalues --   -0.04000  -0.03065  -0.02902  -0.02304  -0.01690
 Alpha virt. eigenvalues --   -0.01384  -0.00909  -0.00648  -0.00340   0.00199
 Alpha virt. eigenvalues --    0.00678   0.00953   0.01105   0.01359   0.01870
 Alpha virt. eigenvalues --    0.02083   0.02461   0.02509   0.03052   0.03288
 Alpha virt. eigenvalues --    0.03561   0.03690   0.03998   0.04406   0.05046
 Alpha virt. eigenvalues --    0.05267   0.05340   0.05747   0.05832   0.06256
 Alpha virt. eigenvalues --    0.06368   0.06640   0.07359   0.07544   0.07962
 Alpha virt. eigenvalues --    0.08292   0.08788   0.09212   0.09930   0.10109
 Alpha virt. eigenvalues --    0.10453   0.10837   0.11640   0.11774   0.12308
 Alpha virt. eigenvalues --    0.12761   0.13043   0.13094   0.13458   0.13665
 Alpha virt. eigenvalues --    0.14445   0.14656   0.14898   0.15329   0.15765
 Alpha virt. eigenvalues --    0.16138   0.17059   0.17607   0.17939   0.18102
 Alpha virt. eigenvalues --    0.18889   0.19197   0.19401   0.20000   0.20161
 Alpha virt. eigenvalues --    0.20655   0.21121   0.21621   0.21753   0.21932
 Alpha virt. eigenvalues --    0.22150   0.22957   0.23378   0.23814   0.23919
 Alpha virt. eigenvalues --    0.24400   0.25145   0.25305   0.25627   0.26356
 Alpha virt. eigenvalues --    0.26825   0.27603   0.28182   0.29604   0.30375
 Alpha virt. eigenvalues --    0.30602   0.31608   0.32376   0.33939   0.34811
 Alpha virt. eigenvalues --    0.35530   0.35916   0.36425   0.37770   0.38267
 Alpha virt. eigenvalues --    0.39454   0.40370   0.41634   0.42733   0.43827
 Alpha virt. eigenvalues --    0.44276   0.45373   0.45634   0.46079   0.46623
 Alpha virt. eigenvalues --    0.47441   0.48703   0.50400   0.50995   0.51550
 Alpha virt. eigenvalues --    0.52468   0.53223   0.54089   0.54537   0.55196
 Alpha virt. eigenvalues --    0.55991   0.56308   0.56584   0.58647   0.58950
 Alpha virt. eigenvalues --    0.59869   0.60416   0.60542   0.61440   0.62094
 Alpha virt. eigenvalues --    0.62748   0.62892   0.64059   0.64593   0.65460
 Alpha virt. eigenvalues --    0.65702   0.66995   0.67206   0.68143   0.69326
 Alpha virt. eigenvalues --    0.70183   0.71713   0.74136   0.76502   0.77057
 Alpha virt. eigenvalues --    0.77733   0.77822   0.80088   0.80357   0.81393
 Alpha virt. eigenvalues --    0.83409   0.85023   0.85849   0.87365   0.88685
 Alpha virt. eigenvalues --    0.89866   0.90173   0.91393   0.92396   0.93278
 Alpha virt. eigenvalues --    0.95980   0.96290   0.97390   0.98451   0.99972
 Alpha virt. eigenvalues --    1.02397   1.03254   1.04422   1.05275   1.06263
 Alpha virt. eigenvalues --    1.06831   1.07564   1.08384   1.09117   1.11137
 Alpha virt. eigenvalues --    1.11975   1.13353   1.13873   1.15271   1.16135
 Alpha virt. eigenvalues --    1.17023   1.18095   1.18922   1.20506   1.22418
 Alpha virt. eigenvalues --    1.24178   1.27096   1.27437   1.30534   1.32037
 Alpha virt. eigenvalues --    1.32704   1.34052   1.36346   1.37464   1.38218
 Alpha virt. eigenvalues --    1.40804   1.41067   1.42755   1.43870   1.44250
 Alpha virt. eigenvalues --    1.45148   1.46344   1.47582   1.48608   1.49998
 Alpha virt. eigenvalues --    1.50921   1.52245   1.53594   1.54580   1.55238
 Alpha virt. eigenvalues --    1.56684   1.57113   1.57611   1.57897   1.59588
 Alpha virt. eigenvalues --    1.60640   1.60898   1.62429   1.62714   1.64074
 Alpha virt. eigenvalues --    1.65411   1.66549   1.67331   1.68448   1.70179
 Alpha virt. eigenvalues --    1.70602   1.71306   1.73268   1.74201   1.76545
 Alpha virt. eigenvalues --    1.77710   1.79882   1.80974   1.83575   1.85293
 Alpha virt. eigenvalues --    1.86109   1.86526   1.88894   1.89791   1.91362
 Alpha virt. eigenvalues --    1.94664   1.96594   1.97196   1.98960   2.00312
 Alpha virt. eigenvalues --    2.02973   2.05073   2.05991   2.07813   2.09020
 Alpha virt. eigenvalues --    2.10557   2.12489   2.13526   2.15076   2.16600
 Alpha virt. eigenvalues --    2.17380   2.18491   2.21790   2.22973   2.26567
 Alpha virt. eigenvalues --    2.30215   2.31223   2.33488   2.34141   2.36666
 Alpha virt. eigenvalues --    2.39038   2.40443   2.41722   2.42265   2.44866
 Alpha virt. eigenvalues --    2.45151   2.47010   2.48567   2.49106   2.49863
 Alpha virt. eigenvalues --    2.51819   2.52284   2.54179   2.55886   2.56497
 Alpha virt. eigenvalues --    2.57048   2.58695   2.60338   2.61725   2.62487
 Alpha virt. eigenvalues --    2.65519   2.66199   2.68496   2.70320   2.70921
 Alpha virt. eigenvalues --    2.73237   2.74491   2.74993   2.75970   2.76760
 Alpha virt. eigenvalues --    2.78127   2.79476   2.80207   2.81310   2.82541
 Alpha virt. eigenvalues --    2.83153   2.83927   2.84139   2.85931   2.88264
 Alpha virt. eigenvalues --    2.88619   2.90726   2.91262   2.92542   2.93836
 Alpha virt. eigenvalues --    2.95751   2.96266   2.97504   3.01216   3.06310
 Alpha virt. eigenvalues --    3.07884   3.11660   3.14349   3.20207   3.21508
 Alpha virt. eigenvalues --    3.23270   3.26251   3.30175   3.34365   3.36019
 Alpha virt. eigenvalues --    3.40214   3.45100   3.49164   3.50480   3.54684
 Alpha virt. eigenvalues --    3.56318   3.60160   3.61379   3.62798   3.66895
 Alpha virt. eigenvalues --    3.69052   3.73298   3.75537   3.78917   3.83120
 Alpha virt. eigenvalues --    3.84729   3.86468   3.91722   3.96620   4.00215
 Alpha virt. eigenvalues --    4.09466   4.12759   4.17845   4.40107   4.48214
 Alpha virt. eigenvalues --    4.49968   4.61149   4.65191   4.73827   4.81313
 Alpha virt. eigenvalues --    4.83325   4.88054   4.96054   5.03312   5.08891
 Alpha virt. eigenvalues --    5.14857   5.15902   5.32925   5.51199   5.68270
 Alpha virt. eigenvalues --    5.74724  23.65703  23.68404  23.69469  23.71692
 Alpha virt. eigenvalues --   23.73724  23.77777  23.80348  23.84667  24.02658
 Alpha virt. eigenvalues --   35.35566  35.43727  35.49704  35.58771  49.77392
 Alpha virt. eigenvalues --   49.89337  49.90115
          Condensed to atoms (all electrons):
               1          2          3          4          5          6
     1  O    8.031072   0.471663  -0.159062  -0.066398   0.008113  -0.000062
     2  C    0.471663   8.304863  -0.262015  -1.969863   0.786402   0.021500
     3  N   -0.159062  -0.262015   7.821696  -1.267259   0.175443   0.026100
     4  C   -0.066398  -1.969863  -1.267259  21.768072  -7.653967   0.042290
     5  C    0.008113   0.786402   0.175443  -7.653967  10.495091   0.023545
     6  O   -0.000062   0.021500   0.026100   0.042290   0.023545   7.947843
     7  O   -0.000160   0.038485   0.052556   0.031788   0.393739  -0.125430
     8  C   -0.019543   0.367271   0.363154  -7.122990   3.610180  -0.151552
     9  C    0.129194  -0.487013  -0.255443   2.528910  -2.090264   0.071680
    10  C   -0.020884  -0.385195   0.318558  -0.310957   0.213894   0.011524
    11  N   -0.004827   0.207207  -0.009602  -0.064054   0.010163   0.000008
    12  C   -0.037906   0.344239  -0.007790  -0.096612   0.064396   0.002427
    13  N   -0.064449   0.136384   0.085622  -0.372293   0.202675   0.000969
    14  C   -0.036643  -0.863222  -0.227780   0.112288  -0.262903  -0.004612
    15  C    0.052908  -0.395227   0.071256  -0.004885  -0.010381  -0.000639
    16  N   -0.034236  -0.054715   0.000362   0.053713  -0.014087  -0.000029
    17  H   -0.003304   0.017873   0.296805  -0.047152   0.048436   0.004191
    18  H    0.005406  -0.089231  -0.108821   0.866536  -0.152580  -0.002137
    19  H   -0.000062   0.000210   0.004028  -0.260536   0.237056   0.230698
    20  H    0.001388  -0.032321  -0.054246   0.278934  -0.077347  -0.004058
    21  H    0.000999   0.011653   0.053626  -0.264772   0.029547   0.015580
    22  H   -0.000068  -0.051806   0.020680  -0.016132   0.006277   0.000226
    23  H   -0.000133   0.007625  -0.001880   0.003075  -0.000117   0.000079
    24  H   -0.001263  -0.004554  -0.006188   0.014432  -0.003615  -0.000281
    25  H   -0.003523   0.074419  -0.061458  -0.003429   0.002397   0.000263
    26  H    0.006297  -0.049558   0.024731   0.044510  -0.021159  -0.000150
    27  H   -0.018895   0.037018  -0.022209  -0.018405   0.009031   0.000055
    28  H    0.007970  -0.011255   0.008761  -0.003146  -0.001787  -0.000025
    29  H    0.001299   0.001710   0.001192   0.002452  -0.001198  -0.000002
    30  H    0.064950  -0.036814   0.019012   0.026296  -0.004957  -0.000030
    31  H   -0.001287   0.030308  -0.003209   0.004387   0.001265   0.000023
               7          8          9         10         11         12
     1  O   -0.000160  -0.019543   0.129194  -0.020884  -0.004827  -0.037906
     2  C    0.038485   0.367271  -0.487013  -0.385195   0.207207   0.344239
     3  N    0.052556   0.363154  -0.255443   0.318558  -0.009602  -0.007790
     4  C    0.031788  -7.122990   2.528910  -0.310957  -0.064054  -0.096612
     5  C    0.393739   3.610180  -2.090264   0.213894   0.010163   0.064396
     6  O   -0.125430  -0.151552   0.071680   0.011524   0.000008   0.002427
     7  O    7.927660  -0.095378  -0.002678   0.000397  -0.000172   0.000591
     8  C   -0.095378  20.410530  -8.882812  -1.535401  -0.374479  -0.255561
     9  C   -0.002678  -8.882812  18.513919  -3.528151   0.010566  -0.262384
    10  C    0.000397  -1.535401  -3.528151  12.078195   0.090825  -0.841937
    11  N   -0.000172  -0.374479   0.010566   0.090825   6.935804   0.476961
    12  C    0.000591  -0.255561  -0.262384  -0.841937   0.476961   6.004096
    13  N    0.000325   0.383653  -1.039019   0.302165   0.039612   0.317274
    14  C   -0.010354  -0.175490   0.475817  -0.301867  -0.023232  -0.077194
    15  C   -0.000930   0.058585  -0.164384   0.167209  -0.035071  -0.005254
    16  N   -0.000101  -0.027240   0.118662  -0.042402  -0.036724  -0.003660
    17  H    0.014851  -0.010464  -0.013105   0.026259   0.000406   0.003412
    18  H   -0.007114  -0.214238  -0.011408  -0.035951  -0.001512   0.001128
    19  H   -0.010620   0.041343  -0.008198   0.002771   0.000084   0.000377
    20  H   -0.000485   0.358341  -0.035576  -0.152454   0.000962   0.004653
    21  H    0.003017   0.447895  -0.033631   0.054714   0.000321  -0.018201
    22  H   -0.000144   0.019733  -0.304811   0.788372  -0.124321  -0.049773
    23  H    0.000026  -0.010255   0.083033  -0.087447  -0.070300   0.515241
    24  H   -0.000138   0.011309   0.075437  -0.056570   0.004234  -0.035422
    25  H    0.001098   0.003510   0.039139  -0.064738   0.004258   0.005236
    26  H   -0.001210  -0.004959   0.023728  -0.020041   0.000029  -0.001088
    27  H    0.000150   0.008752  -0.022498   0.000326   0.002391   0.005822
    28  H   -0.000030   0.001333  -0.000068   0.011348  -0.003599  -0.005197
    29  H   -0.000007   0.002153   0.016446  -0.012255  -0.001717  -0.001797
    30  H   -0.000043   0.005729   0.008108   0.032434  -0.022796  -0.028337
    31  H    0.000017  -0.043599  -0.032140   0.017112   0.072239   0.012081
              13         14         15         16         17         18
     1  O   -0.064449  -0.036643   0.052908  -0.034236  -0.003304   0.005406
     2  C    0.136384  -0.863222  -0.395227  -0.054715   0.017873  -0.089231
     3  N    0.085622  -0.227780   0.071256   0.000362   0.296805  -0.108821
     4  C   -0.372293   0.112288  -0.004885   0.053713  -0.047152   0.866536
     5  C    0.202675  -0.262903  -0.010381  -0.014087   0.048436  -0.152580
     6  O    0.000969  -0.004612  -0.000639  -0.000029   0.004191  -0.002137
     7  O    0.000325  -0.010354  -0.000930  -0.000101   0.014851  -0.007114
     8  C    0.383653  -0.175490   0.058585  -0.027240  -0.010464  -0.214238
     9  C   -1.039019   0.475817  -0.164384   0.118662  -0.013105  -0.011408
    10  C    0.302165  -0.301867   0.167209  -0.042402   0.026259  -0.035951
    11  N    0.039612  -0.023232  -0.035071  -0.036724   0.000406  -0.001512
    12  C    0.317274  -0.077194  -0.005254  -0.003660   0.003412   0.001128
    13  N    6.932799  -0.042297  -0.008289  -0.026738   0.006361  -0.003768
    14  C   -0.042297   7.225013  -0.338289  -0.010490  -0.011911  -0.023039
    15  C   -0.008289  -0.338289   6.864563  -0.103505  -0.010571  -0.005811
    16  N   -0.026738  -0.010490  -0.103505   6.504395  -0.002733   0.004598
    17  H    0.006361  -0.011911  -0.010571  -0.002733   0.379884  -0.000185
    18  H   -0.003768  -0.023039  -0.005811   0.004598  -0.000185   0.478252
    19  H    0.000139  -0.002681  -0.000296   0.000002   0.001482   0.002618
    20  H   -0.001967   0.005626  -0.001398   0.002245  -0.004898   0.018892
    21  H    0.024075   0.008699   0.001140  -0.001250   0.000362  -0.025554
    22  H    0.016114   0.000996   0.012101   0.002071   0.000479  -0.002685
    23  H   -0.119521  -0.001403   0.004620  -0.001600  -0.000053   0.000742
    24  H    0.317670   0.002947  -0.000153   0.000494   0.000068  -0.002140
    25  H   -0.000599   0.431094  -0.094071  -0.010288   0.000217   0.001239
    26  H   -0.002140   0.370131  -0.036613   0.019571  -0.007274   0.002322
    27  H    0.003243  -0.021850   0.406897  -0.027516   0.001559  -0.001119
    28  H   -0.000202  -0.076399   0.431089  -0.025822   0.000205  -0.000547
    29  H   -0.002261  -0.002629  -0.015754   0.317478  -0.000562   0.000564
    30  H    0.006741  -0.018701  -0.059158   0.319400  -0.000561   0.002996
    31  H    0.010880   0.038205  -0.061177   0.318732   0.001298   0.000265
              19         20         21         22         23         24
     1  O   -0.000062   0.001388   0.000999  -0.000068  -0.000133  -0.001263
     2  C    0.000210  -0.032321   0.011653  -0.051806   0.007625  -0.004554
     3  N    0.004028  -0.054246   0.053626   0.020680  -0.001880  -0.006188
     4  C   -0.260536   0.278934  -0.264772  -0.016132   0.003075   0.014432
     5  C    0.237056  -0.077347   0.029547   0.006277  -0.000117  -0.003615
     6  O    0.230698  -0.004058   0.015580   0.000226   0.000079  -0.000281
     7  O   -0.010620  -0.000485   0.003017  -0.000144   0.000026  -0.000138
     8  C    0.041343   0.358341   0.447895   0.019733  -0.010255   0.011309
     9  C   -0.008198  -0.035576  -0.033631  -0.304811   0.083033   0.075437
    10  C    0.002771  -0.152454   0.054714   0.788372  -0.087447  -0.056570
    11  N    0.000084   0.000962   0.000321  -0.124321  -0.070300   0.004234
    12  C    0.000377   0.004653  -0.018201  -0.049773   0.515241  -0.035422
    13  N    0.000139  -0.001967   0.024075   0.016114  -0.119521   0.317670
    14  C   -0.002681   0.005626   0.008699   0.000996  -0.001403   0.002947
    15  C   -0.000296  -0.001398   0.001140   0.012101   0.004620  -0.000153
    16  N    0.000002   0.002245  -0.001250   0.002071  -0.001600   0.000494
    17  H    0.001482  -0.004898   0.000362   0.000479  -0.000053   0.000068
    18  H    0.002618   0.018892  -0.025554  -0.002685   0.000742  -0.002140
    19  H    0.453802  -0.001250  -0.003062   0.000058   0.000002  -0.000059
    20  H   -0.001250   0.491988  -0.021853  -0.006052   0.001049   0.000917
    21  H   -0.003062  -0.021853   0.492714   0.003647  -0.001676  -0.004506
    22  H    0.000058  -0.006052   0.003647   0.549162  -0.006112   0.000161
    23  H    0.000002   0.001049  -0.001676  -0.006112   0.519897  -0.000805
    24  H   -0.000059   0.000917  -0.004506   0.000161  -0.000805   0.364538
    25  H    0.000023   0.002211  -0.000255  -0.008216   0.000370   0.000118
    26  H   -0.000058   0.001365  -0.000479  -0.000175  -0.000083   0.000016
    27  H    0.000018  -0.000360   0.000141  -0.000795   0.000373   0.000051
    28  H   -0.000007  -0.000231   0.000078   0.002228  -0.000414   0.000067
    29  H   -0.000004   0.000171  -0.000057  -0.000377   0.000566  -0.000035
    30  H   -0.000006  -0.000033   0.000007   0.001759  -0.004667  -0.000091
    31  H    0.000025  -0.000030  -0.000236  -0.005755  -0.000704  -0.000071
              25         26         27         28         29         30
     1  O   -0.003523   0.006297  -0.018895   0.007970   0.001299   0.064950
     2  C    0.074419  -0.049558   0.037018  -0.011255   0.001710  -0.036814
     3  N   -0.061458   0.024731  -0.022209   0.008761   0.001192   0.019012
     4  C   -0.003429   0.044510  -0.018405  -0.003146   0.002452   0.026296
     5  C    0.002397  -0.021159   0.009031  -0.001787  -0.001198  -0.004957
     6  O    0.000263  -0.000150   0.000055  -0.000025  -0.000002  -0.000030
     7  O    0.001098  -0.001210   0.000150  -0.000030  -0.000007  -0.000043
     8  C    0.003510  -0.004959   0.008752   0.001333   0.002153   0.005729
     9  C    0.039139   0.023728  -0.022498  -0.000068   0.016446   0.008108
    10  C   -0.064738  -0.020041   0.000326   0.011348  -0.012255   0.032434
    11  N    0.004258   0.000029   0.002391  -0.003599  -0.001717  -0.022796
    12  C    0.005236  -0.001088   0.005822  -0.005197  -0.001797  -0.028337
    13  N   -0.000599  -0.002140   0.003243  -0.000202  -0.002261   0.006741
    14  C    0.431094   0.370131  -0.021850  -0.076399  -0.002629  -0.018701
    15  C   -0.094071  -0.036613   0.406897   0.431089  -0.015754  -0.059158
    16  N   -0.010288   0.019571  -0.027516  -0.025822   0.317478   0.319400
    17  H    0.000217  -0.007274   0.001559   0.000205  -0.000562  -0.000561
    18  H    0.001239   0.002322  -0.001119  -0.000547   0.000564   0.002996
    19  H    0.000023  -0.000058   0.000018  -0.000007  -0.000004  -0.000006
    20  H    0.002211   0.001365  -0.000360  -0.000231   0.000171  -0.000033
    21  H   -0.000255  -0.000479   0.000141   0.000078  -0.000057   0.000007
    22  H   -0.008216  -0.000175  -0.000795   0.002228  -0.000377   0.001759
    23  H    0.000370  -0.000083   0.000373  -0.000414   0.000566  -0.004667
    24  H    0.000118   0.000016   0.000051   0.000067  -0.000035  -0.000091
    25  H    0.441319  -0.002490   0.008151  -0.011205  -0.000003  -0.003853
    26  H   -0.002490   0.419698  -0.008934  -0.007393   0.001953   0.001567
    27  H    0.008151  -0.008934   0.422763  -0.016792  -0.002288  -0.019056
    28  H   -0.011205  -0.007393  -0.016792   0.454576  -0.002556   0.009313
    29  H   -0.000003   0.001953  -0.002288  -0.002556   0.358431  -0.008349
    30  H   -0.003853   0.001567  -0.019056   0.009313  -0.008349   0.383053
    31  H   -0.000357  -0.000226   0.001039  -0.006260  -0.014516  -0.017752
              31
     1  O   -0.001287
     2  C    0.030308
     3  N   -0.003209
     4  C    0.004387
     5  C    0.001265
     6  O    0.000023
     7  O    0.000017
     8  C   -0.043599
     9  C   -0.032140
    10  C    0.017112
    11  N    0.072239
    12  C    0.012081
    13  N    0.010880
    14  C    0.038205
    15  C   -0.061177
    16  N    0.318732
    17  H    0.001298
    18  H    0.000265
    19  H    0.000025
    20  H   -0.000030
    21  H   -0.000236
    22  H   -0.005755
    23  H   -0.000704
    24  H   -0.000071
    25  H   -0.000357
    26  H   -0.000226
    27  H    0.001039
    28  H   -0.006260
    29  H   -0.014516
    30  H   -0.017752
    31  H    0.353865
 Mulliken charges:
               1
     1  O   -0.308554
     2  C   -0.166040
     3  N    0.103382
     4  C   -0.234832
     5  C   -0.023284
     6  O   -0.109992
     7  O   -0.209707
     8  C   -1.169511
     9  C    1.078945
    10  C   -0.719854
    11  N   -0.083662
    12  C   -0.029819
    13  N   -0.103159
    14  C   -0.137830
    15  C   -0.718512
    16  N   -0.238589
    17  H    0.308624
    18  H    0.302283
    19  H    0.312103
    20  H    0.225817
    21  H    0.227315
    22  H    0.153158
    23  H    0.170474
    24  H    0.323433
    25  H    0.249424
    26  H    0.248114
    27  H    0.272937
    28  H    0.245967
    29  H    0.361953
    30  H    0.343837
    31  H    0.325577
 Sum of Mulliken charges =   1.00000
 Mulliken charges with hydrogens summed into heavy atoms:
               1
     1  O   -0.308554
     2  C   -0.166040
     3  N    0.412006
     4  C    0.067451
     5  C   -0.023284
     6  O    0.202112
     7  O   -0.209707
     8  C   -0.716379
     9  C    1.078945
    10  C   -0.566696
    11  N   -0.083662
    12  C    0.140655
    13  N    0.220274
    14  C    0.359708
    15  C   -0.199607
    16  N    0.792778
 APT charges:
               1
     1  O   -0.447347
     2  C   -0.274765
     3  N   -0.105778
     4  C   -0.766962
     5  C   -0.609014
     6  O   -0.662203
     7  O    0.098512
     8  C   -1.521642
     9  C    1.294291
    10  C   -1.123531
    11  N   -0.130206
    12  C   -0.482843
    13  N   -0.458557
    14  C   -0.433313
    15  C   -1.406231
    16  N   -0.668863
    17  H    0.583138
    18  H    0.413980
    19  H    1.189133
    20  H    0.406623
    21  H    0.607884
    22  H    0.406611
    23  H    0.754511
    24  H    0.642444
    25  H    0.253020
    26  H    0.615149
    27  H    0.540369
    28  H    0.752064
    29  H    1.062035
    30  H    0.242010
    31  H    0.229481
 Sum of APT charges =   1.00000
 APT charges with hydrogens summed into heavy atoms:
               1
     1  O   -0.447347
     2  C   -0.274765
     3  N    0.477360
     4  C   -0.352982
     5  C   -0.609014
     6  O    0.526930
     7  O    0.098512
     8  C   -0.507135
     9  C    1.294291
    10  C   -0.716919
    11  N   -0.130206
    12  C    0.271668
    13  N    0.183887
    14  C    0.434856
    15  C   -0.113799
    16  N    0.864663
 Electronic spatial extent (au):  <R**2>=           3775.7433
 Charge=              1.0000 electrons
 Dipole moment (field-independent basis, Debye):
    X=              5.2502    Y=             -2.1720    Z=             -4.6457  Tot=              7.3392
 Quadrupole moment (field-independent basis, Debye-Ang):
   XX=            -47.8005   YY=            -80.2572   ZZ=            -84.4281
   XY=             -6.9957   XZ=            -21.9182   YZ=             11.5375
 Traceless Quadrupole moment (field-independent basis, Debye-Ang):
   XX=             23.0281   YY=             -9.4286   ZZ=            -13.5995
   XY=             -6.9957   XZ=            -21.9182   YZ=             11.5375
 Octapole moment (field-independent basis, Debye-Ang**2):
  XXX=            105.8583  YYY=            -69.4729  ZZZ=            -28.5965  XYY=             15.5649
  XXY=              4.8960  XXZ=            -43.6670  XZZ=             59.5848  YZZ=             -5.5635
  YYZ=            -42.6368  XYZ=             16.4976
 Hexadecapole moment (field-independent basis, Debye-Ang**3):
 XXXX=          -1459.0855 YYYY=          -1899.3692 ZZZZ=           -837.2092 XXXY=            134.8787
 XXXZ=            119.9744 YYYX=            392.9381 YYYZ=            134.3955 ZZZX=            240.0212
 ZZZY=            112.9706 XXYY=           -412.5303 XXZZ=           -372.0865 YYZZ=           -462.3730
 XXYZ=            121.0136 YYXZ=             28.9738 ZZXY=            106.6325
 N-N= 1.185372985822D+03 E-N=-4.215350104146D+03  KE= 7.937821219028D+02
  Exact polarizability:   0.000   0.000   0.000   0.000   0.000   0.000
 Approx polarizability: 212.609  -5.609 218.314   8.912  27.213 175.097
 Calling FoFJK, ICntrl=    100147 FMM=F ISym2X=0 I1Cent= 0 IOpClX= 0 NMat=1 NMatS=1 NMatT=0.
 -------------------------------------------------------------------
 Center     Atomic                   Forces (Hartrees/Bohr)
 Number     Number              X              Y              Z
 -------------------------------------------------------------------
      1        8           0.012235353   -0.010555182   -0.002552021
      2        6          -0.011809330    0.008831406    0.007748420
      3        7           0.008362154   -0.011573162   -0.003357142
      4        6          -0.003273741    0.002745132   -0.001401475
      5        6          -0.010745456    0.002369427   -0.002329449
      6        8           0.007819057   -0.002276742   -0.000855159
      7        8           0.004834510   -0.000538465    0.000246805
      8        6           0.006465806   -0.008890664    0.002238915
      9        6          -0.008325815    0.004683601   -0.002182328
     10        6           0.011738760    0.010032299    0.001735120
     11        7           0.009415795    0.004890408    0.003303099
     12        6          -0.003445962   -0.007656786   -0.010469102
     13        7          -0.005202328    0.000425832   -0.001639247
     14        6          -0.001108131   -0.000748661    0.007786171
     15        6           0.004150575    0.024217440   -0.008604115
     16        7          -0.003111807   -0.005824725   -0.001962027
     17        1           0.001934957    0.004151818    0.002642007
     18        1          -0.001067597    0.001416678   -0.000406439
     19        1          -0.006167319    0.003142306    0.001477684
     20        1          -0.000342883    0.001043481    0.000753353
     21        1          -0.002508853    0.000397682    0.000976590
     22        1          -0.002243077   -0.003358141   -0.000019609
     23        1          -0.001385533   -0.000502416    0.000696058
     24        1          -0.000459689   -0.000566540    0.001026988
     25        1          -0.000713233    0.001302852   -0.001338481
     26        1           0.003031786   -0.001119391   -0.001511837
     27        1          -0.000141288   -0.006534998   -0.000482937
     28        1          -0.000202146   -0.004432537    0.001250608
     29        1           0.002037189   -0.001123861    0.000909984
     30        1          -0.008827116   -0.000077609    0.001150524
     31        1          -0.000944640   -0.003870485    0.005169044
 -------------------------------------------------------------------
 Cartesian Forces:  Max     0.024217440 RMS     0.005586414
 FormGI is forming the generalized inverse of G from B-inverse, IUseBI=4.
 GSVD:  received Info=                   1 from GESDD.

 GradGradGradGradGradGradGradGradGradGradGradGradGradGradGradGradGradGrad
 Berny optimization.
 Internal  Forces:  Max     0.036944400 RMS     0.007161547
 Search for a local minimum.
 Step number   1 out of a maximum of  167
 All quantities printed in internal units (Hartrees-Bohrs-Radians)
 Mixed Optimization -- RFO/linear search
 Second derivative matrix not updated -- analytic derivatives used.
 ITU=  0
     Eigenvalues ---   -0.00749   0.00193   0.00248   0.00303   0.00338
     Eigenvalues ---    0.00543   0.00696   0.00739   0.00897   0.01294
     Eigenvalues ---    0.01734   0.02045   0.02095   0.02514   0.02951
     Eigenvalues ---    0.03758   0.03782   0.03962   0.03998   0.04072
     Eigenvalues ---    0.04272   0.04627   0.04723   0.05113   0.05204
     Eigenvalues ---    0.05510   0.05792   0.05960   0.06332   0.07834
     Eigenvalues ---    0.08255   0.08426   0.10400   0.10929   0.11000
     Eigenvalues ---    0.11596   0.11688   0.12071   0.12329   0.13381
     Eigenvalues ---    0.14358   0.14701   0.15313   0.15939   0.17293
     Eigenvalues ---    0.18463   0.20020   0.20117   0.21757   0.22937
     Eigenvalues ---    0.23183   0.23950   0.24446   0.24894   0.25674
     Eigenvalues ---    0.27553   0.28757   0.32082   0.32327   0.32771
     Eigenvalues ---    0.33379   0.33715   0.33773   0.33812   0.34103
     Eigenvalues ---    0.34430   0.34709   0.35049   0.35609   0.36109
     Eigenvalues ---    0.36796   0.37364   0.40984   0.41454   0.41668
     Eigenvalues ---    0.42329   0.43834   0.44012   0.45599   0.47077
     Eigenvalues ---    0.47526   0.47905   0.48664   0.52679   0.60042
     Eigenvalues ---    0.78783   0.88603
 RFO step:  Lambda=-3.94407195D-02 EMin=-7.48973314D-03
 Linear search not attempted -- first point.
 Maximum step size (   0.300) exceeded in Quadratic search.
    -- Step size scaled by   0.730
 Iteration  1 RMS(Cart)=  0.38094614 RMS(Int)=  0.03036442
 Iteration  2 RMS(Cart)=  0.21524898 RMS(Int)=  0.00723165
 Iteration  3 RMS(Cart)=  0.01167265 RMS(Int)=  0.00138407
 Iteration  4 RMS(Cart)=  0.00005170 RMS(Int)=  0.00138369
 Iteration  5 RMS(Cart)=  0.00000011 RMS(Int)=  0.00138369
 Variable       Old X    -DE/DX   Delta X   Delta X   Delta X     New X
                                 (Linear)    (Quad)   (Total)
    R1        2.31937   0.00385   0.00000  -0.00161  -0.00161   2.31776
    R2        2.56877  -0.00743   0.00000   0.00978   0.00978   2.57855
    R3        2.87782  -0.00535   0.00000   0.00229   0.00229   2.88012
    R4        2.72872   0.00063   0.00000   0.01372   0.01372   2.74245
    R5        1.90088   0.00527   0.00000   0.00634   0.00634   1.90721
    R6        2.85738   0.00419   0.00000   0.00103   0.00103   2.85842
    R7        2.93500  -0.00327   0.00000   0.03195   0.03195   2.96695
    R8        2.05784   0.00003   0.00000  -0.00161  -0.00161   2.05622
    R9        2.54703  -0.00177   0.00000  -0.00626  -0.00626   2.54077
   R10        2.27257   0.00150   0.00000  -0.00235  -0.00235   2.27022
   R11        1.82488   0.00575   0.00000   0.00698   0.00698   1.83187
   R12        2.83326  -0.00593   0.00000  -0.00654  -0.00654   2.82672
   R13        2.06176   0.00103   0.00000   0.00055   0.00055   2.06231
   R14        2.05798   0.00248   0.00000   0.00146   0.00146   2.05943
   R15        2.58405   0.00724   0.00000   0.00725   0.00755   2.59159
   R16        2.60764   0.00367   0.00000  -0.00591  -0.00562   2.60203
   R17        2.60776   0.00285   0.00000   0.01418   0.01398   2.62174
   R18        2.04939  -0.00324   0.00000  -0.00743  -0.00743   2.04196
   R19        2.47149   0.01290   0.00000   0.03580   0.03547   2.50696
   R20        2.56787   0.00407   0.00000  -0.01124  -0.01130   2.55656
   R21        2.04036   0.00012   0.00000  -0.00027  -0.00027   2.04009
   R22        1.90756  -0.00011   0.00000   0.00221   0.00221   1.90977
   R23        2.87101  -0.00395   0.00000   0.00659   0.00659   2.87760
   R24        2.07475  -0.00154   0.00000  -0.00820  -0.00820   2.06654
   R25        2.06635  -0.00007   0.00000   0.00023   0.00023   2.06658
   R26        2.80254   0.01363   0.00000   0.02935   0.02935   2.83190
   R27        2.06099  -0.00029   0.00000  -0.00074  -0.00074   2.06025
   R28        2.06189  -0.00098   0.00000  -0.00240  -0.00240   2.05949
   R29        1.92841   0.00155   0.00000  -0.00156  -0.00156   1.92685
   R30        1.93557   0.00799   0.00000   0.00070   0.00070   1.93627
   R31        1.93525   0.00563   0.00000   0.05375   0.05375   1.98901
    A1        2.12155   0.01271   0.00000   0.01618   0.01440   2.13595
    A2        2.16009  -0.02142   0.00000  -0.02005  -0.02160   2.13849
    A3        2.00140   0.00858   0.00000   0.00214   0.00048   2.00188
    A4        2.10513  -0.01110   0.00000  -0.03901  -0.04557   2.05955
    A5        2.10528   0.00400   0.00000  -0.01021  -0.01717   2.08811
    A6        2.03766   0.00504   0.00000  -0.00286  -0.00990   2.02776
    A7        1.88589   0.00990   0.00000   0.04344   0.04465   1.93053
    A8        1.97109  -0.02760   0.00000  -0.12136  -0.12158   1.84951
    A9        1.88544   0.00636   0.00000   0.02174   0.02006   1.90550
   A10        1.88366   0.01566   0.00000   0.04615   0.04712   1.93078
   A11        1.92510  -0.00635   0.00000  -0.00067  -0.00195   1.92315
   A12        1.91266   0.00196   0.00000   0.01162   0.01038   1.92303
   A13        1.94702  -0.00037   0.00000  -0.01120  -0.01121   1.93581
   A14        2.18129  -0.00507   0.00000  -0.01028  -0.01029   2.17099
   A15        2.15426   0.00542   0.00000   0.02116   0.02114   2.17540
   A16        1.84910   0.00750   0.00000   0.02820   0.02820   1.87730
   A17        1.98025  -0.03694   0.00000  -0.12425  -0.12508   1.85517
   A18        1.90562   0.00726   0.00000  -0.02573  -0.02879   1.87683
   A19        1.88614   0.01275   0.00000   0.08210   0.08409   1.97023
   A20        1.88262   0.01056   0.00000   0.01549   0.00973   1.89235
   A21        1.92981   0.01268   0.00000   0.04930   0.05184   1.98165
   A22        1.87672  -0.00507   0.00000   0.00752   0.00712   1.88384
   A23        2.30513  -0.00347   0.00000  -0.04396  -0.04540   2.25973
   A24        2.15626  -0.00006   0.00000   0.03097   0.02821   2.18447
   A25        1.81988   0.00334   0.00000   0.00669   0.00562   1.82550
   A26        1.93903  -0.00256   0.00000  -0.01037  -0.01036   1.92867
   A27        2.21675   0.00208   0.00000   0.00952   0.00882   2.22556
   A28        2.12623   0.00043   0.00000  -0.00165  -0.00219   2.12404
   A29        1.83499   0.00131   0.00000   0.00061   0.00015   1.83515
   A30        1.94715  -0.00185   0.00000  -0.01118  -0.01136   1.93579
   A31        2.19226   0.00187   0.00000   0.00693   0.00700   2.19926
   A32        2.14366  -0.00001   0.00000   0.00416   0.00424   2.14790
   A33        1.88306  -0.00028   0.00000   0.01232   0.01258   1.89563
   A34        2.20220   0.00026   0.00000  -0.00434  -0.00459   2.19762
   A35        2.19584  -0.00004   0.00000  -0.00975  -0.01020   2.18565
   A36        1.99204  -0.02823   0.00000  -0.01243  -0.01306   1.97898
   A37        1.88374   0.00655   0.00000  -0.02766  -0.02829   1.85546
   A38        1.89273   0.01325   0.00000   0.04588   0.04587   1.93860
   A39        1.91403   0.00700   0.00000  -0.02036  -0.02108   1.89295
   A40        1.91770   0.00653   0.00000   0.01190   0.01169   1.92939
   A41        1.85861  -0.00359   0.00000   0.00364   0.00406   1.86267
   A42        1.95025  -0.01785   0.00000  -0.00380  -0.00374   1.94651
   A43        1.90380   0.00873   0.00000   0.03225   0.03219   1.93599
   A44        1.90898   0.00741   0.00000  -0.00245  -0.00253   1.90646
   A45        1.90189  -0.00088   0.00000  -0.03105  -0.03098   1.87090
   A46        1.91966   0.00487   0.00000  -0.00053  -0.00056   1.91911
   A47        1.87774  -0.00169   0.00000   0.00620   0.00593   1.88367
   A48        1.96166   0.00019   0.00000  -0.01737  -0.01854   1.94312
   A49        1.87036  -0.00120   0.00000  -0.01682  -0.01634   1.85402
   A50        1.96640   0.00387   0.00000   0.11331   0.11280   2.07920
   A51        1.89137   0.00168   0.00000   0.00439   0.00416   1.89552
   A52        1.90708  -0.00228   0.00000  -0.01408  -0.01563   1.89145
   A53        1.86254  -0.00241   0.00000  -0.07648  -0.07546   1.78708
    D1        0.34095   0.00082   0.00000   0.18906   0.18754   0.52849
    D2       -3.09134  -0.00667   0.00000  -0.02196  -0.02181  -3.11315
    D3       -2.78262   0.00903   0.00000   0.29247   0.29232  -2.49030
    D4        0.06827   0.00154   0.00000   0.08145   0.08297   0.15124
    D5       -0.04731   0.00062   0.00000  -0.04641  -0.04682  -0.09413
    D6       -2.17975   0.00560   0.00000   0.00822   0.00737  -2.17238
    D7        2.09652  -0.00038   0.00000  -0.00521  -0.00549   2.09102
    D8        3.07582  -0.00738   0.00000  -0.15197  -0.15135   2.92447
    D9        0.94338  -0.00240   0.00000  -0.09734  -0.09716   0.84622
   D10       -1.06354  -0.00839   0.00000  -0.11077  -0.11002  -1.17356
   D11       -2.68663  -0.00623   0.00000  -0.15506  -0.15529  -2.84192
   D12        1.51432  -0.01549   0.00000  -0.16741  -0.16639   1.34793
   D13       -0.60394  -0.00473   0.00000  -0.11959  -0.11896  -0.72290
   D14        0.73481   0.00102   0.00000   0.04896   0.04779   0.78260
   D15       -1.34742  -0.00824   0.00000   0.03661   0.03669  -1.31073
   D16        2.81750   0.00251   0.00000   0.08444   0.08412   2.90163
   D17        2.83637   0.00972   0.00000   0.04719   0.04686   2.88323
   D18       -0.34202   0.00908   0.00000   0.03821   0.03794  -0.30408
   D19       -1.31007  -0.00846   0.00000  -0.04623  -0.04602  -1.35609
   D20        1.79473  -0.00910   0.00000  -0.05521  -0.05494   1.73978
   D21        0.77896  -0.00022   0.00000  -0.00433  -0.00429   0.77467
   D22       -2.39943  -0.00086   0.00000  -0.01330  -0.01321  -2.41264
   D23       -0.96769   0.00786   0.00000   0.07029   0.06744  -0.90025
   D24        1.13260   0.00216   0.00000  -0.00981  -0.00906   1.12354
   D25       -3.11423   0.00711   0.00000   0.03066   0.03052  -3.08371
   D26       -3.05121   0.00190   0.00000   0.05935   0.05779  -2.99343
   D27       -0.95092  -0.00380   0.00000  -0.02075  -0.01871  -0.96963
   D28        1.08544   0.00115   0.00000   0.01971   0.02087   1.10631
   D29        1.13509  -0.00095   0.00000   0.02575   0.02384   1.15893
   D30       -3.04780  -0.00665   0.00000  -0.05435  -0.05266  -3.10046
   D31       -1.01144  -0.00170   0.00000  -0.01389  -0.01308  -1.02452
   D32        3.11010  -0.00082   0.00000  -0.00450  -0.00458   3.10552
   D33        0.00463   0.00006   0.00000   0.00508   0.00516   0.00979
   D34        1.78605  -0.00632   0.00000  -0.25179  -0.25080   1.53525
   D35       -1.27808  -0.00269   0.00000  -0.12512  -0.12470  -1.40278
   D36       -0.32722   0.00067   0.00000  -0.15088  -0.15084  -0.47806
   D37        2.89183   0.00431   0.00000  -0.02421  -0.02474   2.86710
   D38       -2.37482  -0.00651   0.00000  -0.19650  -0.19668  -2.57150
   D39        0.84423  -0.00287   0.00000  -0.06983  -0.07058   0.77365
   D40       -3.04317   0.00434   0.00000   0.15695   0.15419  -2.88898
   D41        0.04671   0.00343   0.00000   0.10175   0.09992   0.14663
   D42        0.03183   0.00115   0.00000   0.04935   0.04917   0.08099
   D43        3.12170   0.00024   0.00000  -0.00584  -0.00510   3.11660
   D44        3.06600  -0.00398   0.00000  -0.12967  -0.13283   2.93317
   D45       -0.00926  -0.00315   0.00000  -0.10123  -0.10365  -0.11290
   D46       -0.01629  -0.00097   0.00000  -0.03032  -0.03017  -0.04646
   D47       -3.09155  -0.00013   0.00000  -0.00188  -0.00099  -3.09254
   D48       -0.03527  -0.00083   0.00000  -0.04950  -0.04945  -0.08473
   D49       -3.12826  -0.00004   0.00000   0.00196   0.00073  -3.12754
   D50        0.02423   0.00026   0.00000   0.02929   0.02972   0.05395
   D51       -3.13356   0.00098   0.00000   0.02329   0.02305  -3.11051
   D52       -0.00524   0.00049   0.00000   0.00054   0.00009  -0.00515
   D53        3.07033  -0.00032   0.00000  -0.02751  -0.02858   3.04175
   D54       -3.13116  -0.00023   0.00000   0.00631   0.00650  -3.12466
   D55       -0.05559  -0.00104   0.00000  -0.02174  -0.02218  -0.07777
   D56       -0.96637   0.00620   0.00000   0.08741   0.08731  -0.87906
   D57        1.13758  -0.00044   0.00000   0.06767   0.06745   1.20503
   D58       -3.09619   0.00678   0.00000   0.09230   0.09220  -3.00398
   D59        1.14939   0.00040   0.00000   0.02795   0.02815   1.17753
   D60       -3.02986  -0.00624   0.00000   0.00821   0.00829  -3.02157
   D61       -0.98044   0.00098   0.00000   0.03283   0.03304  -0.94739
   D62       -3.09654   0.00395   0.00000   0.02738   0.02739  -3.06915
   D63       -0.99260  -0.00269   0.00000   0.00764   0.00753  -0.98506
   D64        1.05682   0.00453   0.00000   0.03227   0.03229   1.08911
   D65       -3.02915  -0.00047   0.00000   0.03271   0.03244  -2.99671
   D66        1.17806  -0.00188   0.00000   0.04820   0.04788   1.22595
   D67       -0.86534  -0.00035   0.00000   0.08855   0.08919  -0.77615
   D68        1.14898   0.00054   0.00000   0.01551   0.01524   1.16421
   D69       -0.92700  -0.00087   0.00000   0.03100   0.03068  -0.89632
   D70       -2.97040   0.00066   0.00000   0.07135   0.07199  -2.89842
   D71       -0.90547   0.00029   0.00000   0.02667   0.02635  -0.87912
   D72       -2.98145  -0.00112   0.00000   0.04216   0.04180  -2.93965
   D73        1.25833   0.00041   0.00000   0.08251   0.08310   1.34144
         Item               Value     Threshold  Converged?
 Maximum Force            0.036944     0.000450     NO 
 RMS     Force            0.007162     0.000300     NO 
 Maximum Displacement     2.125501     0.001800     NO 
 RMS     Displacement     0.583297     0.001200     NO 
 Predicted change in Energy=-3.080258D-02
 GradGradGradGradGradGradGradGradGradGradGradGradGradGradGradGradGradGrad

                          Input orientation:                          
 ---------------------------------------------------------------------
 Center     Atomic      Atomic             Coordinates (Angstroms)
 Number     Number       Type             X           Y           Z
 ---------------------------------------------------------------------
      1          8           0       -0.237864   -0.140412   -1.763240
      2          6           0        0.264189    0.732016   -1.062437
      3          7           0       -0.487969    1.628999   -0.361315
      4          6           0       -1.794442    1.204335    0.106536
      5          6           0       -2.642225    2.400995    0.477016
      6          8           0       -3.935151    2.053424    0.600537
      7          8           0       -2.208527    3.502334    0.682429
      8          6           0       -1.530689    0.302656    1.364487
      9          6           0       -0.524168   -0.720746    0.943674
     10          6           0        0.845572   -0.655904    0.963173
     11          7           0        1.391300   -1.674854    0.195904
     12          6           0        0.356570   -2.408859   -0.192041
     13          7           0       -0.807191   -1.866291    0.234049
     14          6           0        1.759684    0.792493   -0.774877
     15          6           0        2.530587   -0.397536   -1.330164
     16          7           0        1.897467   -1.696514   -0.933250
     17          1           0       -0.031283    2.345643    0.183162
     18          1           0       -2.282996    0.625374   -0.674550
     19          1           0       -4.426333    2.844701    0.869468
     20          1           0       -1.080516    0.933629    2.132739
     21          1           0       -2.443266   -0.127948    1.776142
     22          1           0        1.461703    0.112588    1.407478
     23          1           0        0.404096   -3.308810   -0.786427
     24          1           0       -1.729533   -2.201106   -0.007833
     25          1           0        1.863247    0.794635    0.313773
     26          1           0        2.191512    1.730875   -1.133897
     27          1           0        2.555841   -0.370964   -2.419783
     28          1           0        3.558398   -0.359241   -0.969773
     29          1           0        2.485959   -2.489185   -1.188255
     30          1           0        1.019448   -1.759143   -1.457685
     31          1           0        1.576770   -1.827601    0.060634
 ---------------------------------------------------------------------
                    Distance matrix (angstroms):
                    1          2          3          4          5
     1  O    0.000000
     2  C    1.226505   0.000000
     3  N    2.271291   1.364511   0.000000
     4  C    2.779810   2.414031   1.451240   0.000000
     5  C    4.154329   3.688176   2.437128   1.512609   0.000000
     6  O    4.906148   4.705960   3.603937   2.355339   1.344515
     7  O    4.809824   4.102870   2.749382   2.404978   1.201348
     8  C    3.413265   3.048917   2.413472   1.570042   2.534983
     9  C    2.783189   2.599328   2.688049   2.453637   3.801210
    10  C    2.978740   2.523376   2.958612   3.341256   4.663229
    11  N    2.974379   2.940548   3.841561   4.294958   5.741157
    12  C    2.822742   3.260556   4.128705   4.215587   5.707460
    13  N    2.700362   3.095147   3.559974   3.227951   4.651463
    14  C    2.416065   1.524091   2.433664   3.684877   4.850909
    15  C    2.813892   2.546395   3.762604   4.830732   6.152695
    16  N    2.769472   2.929513   4.132367   4.808978   6.275925
    17  H    3.164115   2.059759   1.009255   2.101711   2.628009
    18  H    2.440131   2.578756   2.080265   1.088107   2.146620
    19  H    5.778003   5.495151   4.301566   3.193699   1.879876
    20  H    4.128229   3.472467   2.656117   2.165288   2.708046
    21  H    4.170273   4.015890   3.388033   2.232382   2.850063
    22  H    3.606382   2.813931   3.037985   3.672444   4.790072
    23  H    3.377132   4.052657   5.035718   5.098963   6.593802
    24  H    3.090791   3.700044   4.041799   3.407979   4.716716
    25  H    3.098865   2.110654   2.584594   3.686393   4.786055
    26  H    3.130440   2.171957   2.790498   4.207582   5.138980
    27  H    2.879061   2.882816   4.183530   5.271511   6.564685
    28  H    3.884466   3.471490   4.549330   5.679446   6.939728
    29  H    3.642328   3.915128   5.146603   5.800035   7.279097
    30  H    2.072314   2.632966   3.867019   4.375724   5.870065
    31  H    3.076689   3.088008   4.048367   4.534293   5.987847
                    6          7          8          9         10
[...]
 3322,-0.00050096,-0.00009815,-0.00003649,0.00083124,0.00078028,-0.0004
 9416,-0.00003721,-0.00031517,-0.00002300,0.00020814,0.00000925,-0.0000
 6086,0.00004828,0.00037344,0.00011667,-0.07236196,-0.00540255,-0.28734
 217,-0.00214938,0.00007548,-0.01564797,-0.00011289,-0.00022347,0.00082
 723,-0.00021200,0.00050436,-0.00011157,0.00014973,0.00002184,-0.000008
 94,-0.00001018,0.00000524,-0.00000845,0.00000829,0.00000593,-0.0000396
 0,0.00002207,0.00001080,-0.00004512,0.00035996,0.00043094,-0.00012476,
 -0.00000186,0.00000658,-0.00000405,-0.00002413,-0.00001567,0.00001626,
 0.07536216,0.00724722,0.31366832,-0.00478751,0.00096520,-0.00318041,-0
 .00166239,-0.03231845,0.01363971,-0.00018941,0.00239342,-0.00118386,-0
 .00030057,0.00030654,-0.00019495,-0.00017013,-0.00031672,-0.00009564,-
 0.00002953,0.00010392,0.00003835,0.00005406,0.00016301,-0.00003282,0.0
 0001481,0.00022217,-0.00016458,0.00020366,0.00001144,-0.00000269,-0.00
 017769,0.00001714,0.00005505,0.00019607,0.00011433,-0.00012962,-0.0001
 2933,-0.00005002,-0.00009231,0.00013043,0.00000695,-0.00000192,-0.0553
 9710,-0.04461318,0.02206510,0.00416367,0.01530457,-0.00766078,-0.00204
 187,0.00365156,0.00232352,-0.00044167,-0.00012945,0.00079431,0.0000571
 9,0.00003550,0.00000604,-0.00002546,-0.00000505,0.00002364,0.00000153,
 -0.00001163,0.00002423,-0.00000252,-0.00000296,0.00001563,-0.00000176,
 0.00003223,0.00002949,-0.00000667,-0.00000266,0.00000975,0.00000470,0.
 00000196,-0.00000397,0.00173146,0.00929007,-0.00359281,0.05855916,-0.0
 0087908,0.00083516,0.00037899,-0.00346167,-0.00535076,0.00056149,0.001
 40178,-0.00002549,-0.00062464,-0.00079537,0.00023217,-0.00026622,-0.00
 008650,0.00011509,0.00003411,0.00005104,-0.00003683,-0.00001592,0.0000
 2551,-0.00008315,-0.00001380,0.00029752,0.00002060,-0.00001949,0.00004
 946,-0.00003321,0.00006047,-0.00003132,-0.00007271,-0.00002629,-0.0001
 0855,0.00000530,0.00010790,0.00006001,0.00003671,0.00004627,-0.0000499
 9,-0.00000023,-0.00005271,-0.03995411,-0.26154759,0.09163230,-0.004187
 66,-0.01949314,0.00811788,0.00316051,-0.00195271,-0.00250679,0.0001086
 2,0.00007636,0.00045899,0.00002047,0.00002380,0.00001540,-0.00000152,0
 .00000585,0.00000256,-0.00001035,0.00000030,0.00000621,-0.00000038,0.0
 0005556,-0.00007551,0.00001927,0.00001496,0.00000156,0.00000396,0.0000
 0599,-0.00000239,0.00000460,-0.00000529,-0.00000156,0.00048205,0.00147
 568,0.00007298,0.04438975,0.28480607,-0.00152908,-0.00010777,-0.001308
 00,-0.00125645,-0.00363829,0.00057904,0.00086897,-0.00024264,0.0004400
 2,0.00006945,-0.00001647,-0.00042433,0.00011155,0.00026672,0.00012010,
 -0.00006932,-0.00006640,-0.00002061,-0.00012354,-0.00016086,-0.0000607
 6,0.00014080,-0.00010584,0.00010447,-0.00042081,0.00005883,-0.00014000
 ,0.00030270,0.00012807,-0.00041495,-0.00007948,-0.00023478,0.00003666,
 0.00027759,0.00004822,0.00009053,0.00005764,0.00026069,0.00018214,0.01
 989267,0.09375609,-0.08231694,-0.00415958,-0.01576703,0.00590769,0.002
 43903,-0.00455137,-0.00156009,0.00070660,0.00012487,-0.00027623,-0.000
 05078,-0.00003438,0.00003005,0.00001202,0.00000312,0.00000190,0.000009
 05,0.00000452,-0.00002375,0.00001100,-0.00000096,-0.00003728,0.0000445
 0,0.00005110,0.00030643,0.00001820,0.00001323,-0.00001006,-0.00002850,
 0.00001062,0.00000643,0.00580203,0.02886089,-0.01149036,-0.02240903,-0
 .09798672,0.08940037,-0.00022708,-0.00037677,-0.00101680,0.00075262,0.
 00038755,0.00160582,-0.00004489,-0.00017886,-0.00044394,-0.00015222,0.
 00001909,-0.00009209,-0.00006404,0.00004674,0.00000168,0.00004628,-0.0
 0001217,-0.00001426,0.00003057,-0.00002997,-0.00001835,0.00006857,-0.0
 0002676,0.00001222,-0.00001334,0.00002872,0.00001045,0.00001634,-0.000
 15830,-0.00003138,-0.00032124,-0.00002499,0.00037396,0.00017784,0.0000
 3599,0.00010498,-0.00011973,0.00005040,-0.00008848,0.00222091,-0.00200
 331,0.01928308,-0.05562239,0.00493360,-0.02921427,-0.00003840,-0.00625
 022,0.01461269,0.00013364,-0.00008595,0.00007386,-0.00004093,-0.000000
 44,0.00002197,-0.00000834,0.00000374,0.00000812,-0.00000250,0.00000422
 ,-0.00000377,-0.00000280,0.00002158,-0.00001945,-0.00000386,0.00002961
 ,-0.00002396,-0.00000016,-0.00000847,0.00000514,-0.00000642,-0.0000059
 3,0.00001590,-0.00169804,0.00229212,0.00163156,0.00121405,-0.00065163,
 -0.00065702,0.05329208,0.00032936,0.00097802,0.00012170,-0.00137697,-0
 .00059028,-0.00048454,0.00053097,-0.00008193,0.00012619,-0.00013886,-0
 .00003766,0.00013003,-0.00005262,0.00001523,-0.00003788,0.00007142,-0.
 00001593,-0.00000585,0.00005947,0.00000793,0.00002047,0.00005157,-0.00
 008641,-0.00001323,-0.00024941,0.00003047,-0.00006331,0.00004765,-0.00
 045456,-0.00025103,-0.00089046,-0.00030448,0.00111679,0.00061151,0.000
 24928,0.00033095,-0.00033799,0.00026642,-0.00001988,-0.00202543,0.0017
 4772,-0.02343078,0.00202029,-0.05221851,0.02970405,-0.00168121,-0.0174
 1854,0.04027294,-0.00016044,0.00020104,-0.00005150,0.00004916,0.000008
 89,-0.00000827,-0.00000179,0.00000211,-0.00000169,-0.00001130,0.000017
 55,0.00000459,-0.00000186,0.00002701,-0.00001640,0.00001430,0.00000386
 ,0.00014950,0.00000141,-0.00000540,0.00001729,0.00000071,0.00003730,0.
 00000229,0.00354274,-0.00231798,-0.00217241,-0.00028492,0.00087089,-0.
 00027009,-0.00187405,0.07072200,0.00009560,0.00061678,0.00101314,-0.00
 088501,-0.00100680,-0.00082960,0.00013607,0.00019738,0.00018607,0.0000
 0137,-0.00004111,0.00006969,-0.00001746,0.00000555,-0.00000345,0.00002
 092,-0.00000485,0.00000033,0.00001212,0.00000113,0.00000887,-0.0000166
 3,0.00000871,-0.00000695,-0.00001042,0.00000483,-0.00002095,-0.0000519
 1,-0.00002299,-0.00002523,0.00002453,-0.00005643,0.00001415,0.00000649
 ,0.00001041,0.00003034,0.00003293,0.00003598,0.00001975,-0.00111254,-0
 .00075572,-0.01454041,-0.02375565,0.03963067,-0.31424487,0.00020452,0.
 00255373,-0.00229323,-0.00010325,0.00013445,-0.00005086,0.00002316,0.0
 0001740,0.00000125,-0.00000205,0.00000068,-0.00000209,-0.00000352,0.00
 000038,0.00000498,0.00000204,-0.00000207,0.00000349,-0.00000359,-0.000
 01015,0.00005849,0.00000394,0.00000304,-0.00000339,-0.00000548,0.00000
 124,-0.00000773,0.00187793,-0.00191804,0.00023028,-0.00006661,-0.00006
 556,0.00078283,0.02448329,-0.04071120,0.33449866,0.00047419,0.00006254
 ,0.00001396,0.00061039,0.00254556,0.00119672,-0.00104170,-0.00035325,0
 .00015971,0.00014324,0.00018813,0.00008696,0.00003703,-0.00014649,0.00
 000743,-0.00007524,0.00004977,0.00001290,-0.00002786,0.00005801,0.0000
 1689,-0.00007658,0.00001881,-0.00001670,0.00000921,0.00003753,0.000001
 98,-0.00006758,-0.00000527,-0.00001830,0.00004055,-0.00001502,0.000052
 62,-0.00001866,-0.00001718,0.00000273,0.00007369,-0.00000753,0.0000335
 9,-0.01479450,-0.00000471,-0.00379756,-0.30230399,-0.01778467,-0.07131
 889,-0.00633599,-0.00282171,-0.00133804,-0.00000883,-0.00005749,-0.000
 09222,0.00000324,-0.00000168,0.00000117,0.00000179,-0.00000533,-0.0000
 0472,0.00000214,-0.00000196,0.00000231,0.00000388,-0.00001951,0.000022
 75,-0.00002816,0.00001495,0.00001789,0.00000434,0.00001199,-0.00000858
 ,0.00000638,0.00001039,-0.00000508,0.00091099,-0.00058621,0.00017174,-
 0.00008879,0.00029857,-0.00001732,-0.00041455,0.00069996,-0.00073083,0
 .32233108,-0.00016001,0.00145172,0.00041885,-0.00034019,-0.00449123,-0
 .00280638,0.00191150,0.00080258,-0.00013692,-0.00020691,-0.00041295,-0
 .00010372,-0.00002789,0.00022088,-0.00002491,0.00014320,-0.00008666,-0
 .00002419,0.00005468,-0.00006868,-0.00001859,0.00008621,-0.00001848,-0
 .00000596,0.00003618,0.00002272,0.00001890,-0.00002495,-0.00005585,-0.
 00005519,-0.00021539,-0.00015416,0.00023268,0.00017927,0.00006773,0.00
 019342,-0.00005069,-0.00001104,-0.00005886,0.02178210,0.00356188,0.005
 60887,-0.00777786,-0.05091150,-0.00079413,-0.03894736,-0.01039920,-0.0
 0963899,-0.00002095,0.00012317,0.00011830,0.00000345,0.00000603,-0.000
 00163,0.00000085,0.00000582,0.00000840,-0.00000959,0.00001207,-0.00000
 013,-0.00000457,0.00003731,-0.00003294,0.00000845,0.00001050,0.0000423
 4,0.00000819,0.00004883,-0.00003697,0.00000956,-0.00000847,-0.00000176
 ,-0.00042892,0.00089484,0.00003581,-0.00043392,0.00020394,0.00050716,0
 .00520531,0.00137607,0.00042706,0.01913874,0.06221914,-0.00044769,0.00
 060841,0.00084172,0.00057783,-0.00442659,-0.00204634,0.00131955,0.0005
 6052,-0.00020193,-0.00006291,-0.00020284,-0.00019338,0.00000880,0.0001
 2097,-0.00001490,0.00005149,-0.00004530,-0.00000749,0.00001176,-0.0000
 3668,-0.00001299,0.00008557,-0.00002816,0.00002232,0.00002044,-0.00004
 549,0.00001794,0.00004565,-0.00000286,0.00002792,-0.00007740,-0.000020
 54,-0.00002078,0.00001335,0.00005091,-0.00000773,-0.00010900,-0.000004
 28,-0.00004485,0.01946754,0.00062501,0.00381698,-0.07547873,-0.0042584
 2,-0.07265738,0.00949000,0.00233744,0.00247655,0.00002158,0.00004295,0
 .00007708,0.00000148,0.00000844,0.00000580,0.00000677,0.00000076,0.000
 00485,0.00000048,0.00000109,-0.00000250,-0.00000573,0.00002367,-0.0000
 2545,0.00003782,-0.00000754,-0.00003117,-0.00000823,-0.00001339,0.0000
 1070,0.00000044,-0.00000204,-0.00000116,0.00025965,0.00076482,0.000816
 55,-0.00050710,0.00015398,0.00032657,-0.03058540,-0.00250501,-0.006228
 96,0.07537720,0.00551686,0.07264942,-0.00250297,0.00343516,-0.00000285
 ,-0.00165856,-0.00181939,-0.00151814,0.00006711,0.00036629,0.00051442,
 0.00010536,-0.00002303,-0.00001564,-0.00002793,0.00007276,0.00005514,0
 .00003362,-0.00002081,-0.00000676,0.00000262,-0.00003969,-0.00002483,-
 0.00005300,0.00002713,0.00001532,-0.00010047,-0.00011741,-0.00012558,0
 .00021790,-0.00005804,-0.00006394,0.00005968,0.00000455,-0.00004691,-0
 .00001135,0.00007155,0.00002510,0.00001901,0.00010147,-0.00000387,-0.0
 0098458,-0.00348635,0.00117695,0.01045363,-0.00830319,-0.00949948,-0.1
 7337766,0.13350815,0.10042181,-0.00004668,0.00003465,0.00010181,0.0000
 3027,0.00000286,-0.00001598,-0.00001080,0.00000826,0.00000118,0.000002
 21,-0.00001402,0.00000276,0.00000730,-0.00001594,0.00000869,0.00000241
 ,-0.00002222,0.00002757,-0.00007141,-0.00012391,0.00010405,-0.00003849
 ,0.00000385,0.00004002,0.00002501,0.00012610,-0.00002510,0.00057554,-0
 .00077371,-0.00048931,0.00031366,0.00046439,0.00001792,0.00011033,-0.0
 0049203,-0.00065212,0.17688275,-0.00057719,0.00161412,0.00025474,-0.00
 071535,-0.00065413,-0.00047050,-0.00017508,0.00030154,0.00031080,0.000
 09027,0.00007727,-0.00001786,0.00011088,-0.00010035,-0.00001869,-0.000
 09133,0.00003360,0.00001195,-0.00004785,0.00005856,0.00001812,-0.00001
 522,-0.00002180,-0.00000543,0.00007578,-0.00008402,-0.00007887,0.00016
 942,-0.00030306,-0.00005702,-0.00070109,-0.00096649,0.00088432,0.00026
 602,0.00031173,0.00026486,-0.00037043,0.00004432,-0.00014993,-0.003211
 79,-0.00450104,0.00302013,0.01828702,-0.01926963,-0.01599741,0.1344963
 3,-0.21141927,-0.11569807,-0.00007172,-0.00003834,0.00004795,0.0000190
 2,-0.00000617,-0.00000849,0.00001579,-0.00000706,-0.00000261,0.0000055
 5,0.00000292,-0.00000075,-0.00000905,-0.00000402,0.00000562,0.00000870
 ,-0.00000458,-0.00003194,-0.00012820,-0.00003461,0.00010075,0.00002672
 ,0.00007164,-0.00001485,-0.00018709,0.00004368,0.00003479,0.00101626,-
 0.00078208,-0.00103986,0.00067286,0.00093572,0.00064329,-0.00035834,0.
 00130055,-0.00072869,-0.14260978,0.22279042,-0.00196423,0.00180615,0.0
 0007614,-0.00003189,-0.00062278,-0.00079972,-0.00027050,0.00018901,0.0
 0035645,0.00013460,0.00007619,0.00000183,0.00014951,-0.00009664,-0.000
 01199,-0.00011783,0.00003543,0.00000482,-0.00007002,0.00005416,0.00000
 973,-0.00004323,-0.00001348,-0.00003078,-0.00006952,0.00018978,0.00012
 872,-0.00035249,0.00013625,0.00003323,0.00066508,0.00130068,-0.0008710
 8,-0.00009651,0.00003230,-0.00025347,0.00023250,-0.00013877,0.00009059
 ,0.00040302,0.00114630,-0.00015907,-0.00575750,0.00385214,0.00431971,0
 .10137574,-0.11639922,-0.14764739,0.00002997,-0.00003896,0.00000675,0.
 00001383,-0.00001070,-0.00000385,0.00001710,-0.00000875,0.00000395,0.0
 0000716,-0.00000397,-0.00000589,-0.00000981,-0.00001095,0.00001915,0.0
 0001664,-0.00001523,0.00000581,0.00009001,0.00005309,-0.00004384,-0.00
 000719,-0.00001170,0.00004842,-0.00001336,0.00018958,0.00007810,-0.000
 10949,0.00028873,0.00030407,-0.00044870,0.00079290,0.00001480,-0.00010
 600,-0.00032655,0.00008753,-0.11063272,0.12342460,0.14667556,-0.010069
 27,-0.01698361,-0.00767995,0.01143101,0.01600236,0.01330992,0.00050644
 ,-0.00647108,-0.00618555,-0.00189344,-0.00023754,0.00031684,-0.0010500
 5,0.00076472,-0.00001741,0.00076775,-0.00026105,-0.00011231,0.00054610
 ,-0.00051860,-0.00012271,0.00055884,-0.00025393,0.00017232,-0.00062729
 ,0.00003302,0.00014354,0.00065604,-0.00120320,-0.00054030,-0.00257271,
 -0.00066759,0.00254264,0.00194490,-0.00001515,0.00086028,-0.00179929,0
 .00087793,-0.00054875,-0.00049763,-0.00092150,-0.00141799,-0.01163691,
 -0.01384812,-0.00246816,-0.30451592,-0.01081062,-0.08768018,0.00083631
 ,0.00033975,-0.00054286,-0.00020742,0.00012000,0.00013481,-0.00010478,
 0.00006037,0.00003215,-0.00005188,0.00002925,0.00000696,0.00000489,0.0
 0024468,-0.00017758,0.00012223,-0.00002113,0.00004566,0.00007170,-0.00
 018991,0.00015604,-0.00016727,-0.00009691,0.00022653,-0.00068527,0.000
 00623,0.00002416,-0.00112073,0.00036165,0.00031915,0.00069596,0.001568
 45,0.00004027,0.00091780,0.00044054,0.00038902,-0.00969049,-0.00000350
 ,-0.00332666,0.32133264,-0.00315341,0.00935951,0.00589651,-0.00275737,
 -0.01488200,-0.01141079,-0.00136655,0.00408993,0.00430623,0.00161066,0
 .00026367,-0.00023700,0.00081721,-0.00039237,0.00014531,-0.00062600,0.
 00015699,0.00007498,-0.00048022,0.00024476,0.00005593,-0.00053575,0.00
 024648,-0.00008838,-0.00010781,-0.00044153,-0.00032684,0.00021104,-0.0
 0004020,0.00033039,0.00098240,0.00058169,-0.00054661,-0.00104761,-0.00
 016531,-0.00083967,0.00020342,0.00024249,0.00038589,0.00046170,0.00114
 902,-0.00036951,-0.03601810,-0.00420025,-0.01139289,-0.01621326,-0.053
 79412,-0.00985249,-0.00044359,-0.00010753,0.00011285,0.00021003,-0.000
 06303,-0.00008907,0.00007157,-0.00003172,-0.00003437,0.00006108,-0.000
 07373,-0.00000154,0.00001079,-0.00020499,0.00015383,-0.00004959,-0.000
 02129,-0.00020751,-0.00013448,-0.00043506,0.00036378,-0.00005829,0.000
 13498,-0.00002161,0.00033650,0.00012711,0.00016902,0.00048368,0.000196
 31,0.00024775,0.00016689,0.00091136,0.00032669,-0.00086403,-0.00699799
 ,0.00179501,0.02169617,0.00144094,0.01054633,0.02927505,0.06246768,-0.
 00158561,0.00004067,-0.00654188,0.00281062,-0.00132261,-0.00007037,-0.
 00054675,-0.00086269,-0.00009354,-0.00022996,0.00013203,0.00020353,0.0
 0015669,-0.00024672,-0.00015106,-0.00010244,0.00007115,-0.00000856,0.0
 0001625,0.00015105,0.00003855,0.00010009,-0.00016759,-0.00008887,0.000
 16663,0.00027802,0.00007821,-0.00002386,-0.00080618,-0.00044924,-0.000
 68232,-0.00040454,0.00101571,0.00155246,0.00081856,0.00069306,-0.00021
 839,-0.00009509,-0.00037684,-0.00105542,-0.00052756,-0.00065700,0.0064
 4982,0.00042233,0.00352345,-0.09291147,-0.00761339,-0.09528980,0.00020
 040,-0.00024245,0.00005569,-0.00001609,-0.00001892,0.00000146,0.000023
 07,-0.00001831,0.00002435,-0.00001710,0.00004989,-0.00001047,-0.000038
 30,0.00004322,-0.00000454,-0.00002584,0.00006153,0.00006327,0.00000262
 ,0.00015032,-0.00006586,0.00011897,0.00002953,0.00013879,-0.00009835,-
 0.00021414,-0.00009892,0.00006433,0.00012591,0.00007613,0.00117076,0.0
 0066393,-0.00003020,0.00032168,0.00171801,0.00001630,0.02131466,0.0037
 8399,0.00829220,0.09820687,0.00570579,0.10286399,-0.00179055,0.0005113
 8,0.00203956,0.00104201,0.00060871,-0.00114958,-0.00073856,0.00016172,
 0.00079654,0.00068689,-0.00015755,-0.00027139,-0.00024161,0.00059290,0
 .00036311,0.00010789,-0.00014119,-0.00000469,-0.00007184,-0.00044431,-
 0.00013000,-0.00037265,0.00036118,0.00023115,0.00129207,0.00035169,0.0
 0061732,-0.00190501,0.00340615,0.00206744,0.00097989,0.00264419,-0.005
 29116,-0.00679582,-0.00169131,-0.00122026,0.00273617,-0.00223091,0.000
 42307,0.00050632,0.00088217,-0.00097417,-0.00138648,-0.00351893,0.0099
 1549,-0.05776766,0.00249894,0.00524934,0.00003646,0.00006006,-0.000074
 35,-0.00002215,0.00002977,-0.00006063,-0.00005552,0.00004472,-0.000029
 77,0.00003940,-0.00012617,-0.00000500,0.00005422,-0.00011406,0.0000797
 0,0.00020970,-0.00014920,-0.00054445,0.00026100,0.00012067,-0.00044659
 ,-0.00026631,-0.00029121,-0.00000872,0.00023866,-0.00003245,-0.0000857
 7,-0.00033320,0.00025706,0.00020728,-0.00018160,-0.00097607,-0.0002181
 7,-0.00039784,0.00013300,0.00074790,-0.00033400,-0.00598761,0.02029248
 ,0.00629774,0.00725790,-0.03512401,0.05817241,-0.00107775,0.00087488,0
 .00066483,0.00221943,-0.00153406,-0.00113346,-0.00091623,0.00039617,0.
 00081381,0.00075105,-0.00002531,-0.00018525,0.00011855,0.00016195,0.00
 018977,-0.00015044,-0.00001799,0.00002335,-0.00017366,-0.00016091,-0.0
 0004163,-0.00016472,0.00021733,0.00025753,0.00212351,-0.00063968,0.000
 30280,0.00185353,0.00212216,0.00040710,0.00135149,-0.00288640,-0.00510
 684,-0.00403686,-0.00127496,-0.00017576,0.00133438,-0.00166250,-0.0002
 8358,0.00062177,0.00121814,0.00016022,0.00086996,-0.00563283,0.0296015
 7,0.00146861,-0.08166305,0.06282180,0.00003615,-0.00008741,-0.00007789
 ,-0.00001290,-0.00000712,-0.00003253,-0.00000101,0.00001086,-0.0000245
 3,0.00002037,-0.00005807,-0.00000511,0.00003876,-0.00012669,0.00008402
 ,0.00004501,-0.00008688,-0.00079467,-0.00001669,0.00005472,-0.00018746
 ,0.00009967,-0.00013017,-0.00012554,-0.00008042,-0.00042827,-0.0006317
 1,-0.00034077,0.00040244,-0.00011842,-0.00221057,-0.00487721,-0.000024
 46,-0.00008458,0.00125043,-0.00028300,-0.00200383,0.00916963,-0.026415
 88,0.00237944,0.00023821,-0.00170575,-0.00406126,0.08518257,0.00273756
 ,-0.00344424,-0.00202986,-0.00237364,0.00257563,0.00366108,0.00194474,
 -0.00083249,-0.00230411,-0.00136321,0.00000651,0.00039546,0.00005961,-
 0.00060163,-0.00043568,0.00010758,0.00011665,-0.00005154,0.00025664,0.
 00050337,0.00010396,0.00040876,-0.00070052,-0.00011647,-0.00223512,-0.
 00061765,-0.00082525,0.00282404,-0.00484296,-0.00368862,-0.00624557,-0
 .00827948,0.00384873,0.00547595,0.00458967,0.00398597,-0.00663793,0.00
 265763,-0.00118946,-0.00026991,0.00040035,0.00210583,0.00234394,0.0082
 3109,0.00698425,0.00827655,0.05635036,-0.30868645,-0.00000606,0.000025
 68,0.00023630,0.00001698,-0.00002307,0.00010350,0.00005153,-0.00004925
 ,0.00006507,-0.00002339,0.00015611,-0.00000278,-0.00009505,0.00028926,
 -0.00018343,0.00008046,0.00000850,0.00069470,-0.00054479,-0.00075008,0
 .00082811,0.00000575,0.00072740,-0.00001906,-0.00012861,-0.00024314,-0
 .00052036,0.00033942,-0.00040811,-0.00061207,-0.00075762,-0.00341052,0
 .00135078,-0.00004598,-0.00077883,0.00029877,-0.00070416,0.00151507,-0
 .01073049,-0.00610676,0.00480200,-0.01314752,0.00260833,-0.05797331,0.
 31988062\\-0.00000609,0.00000135,-0.00000435,-0.00001780,0.00001967,0.
 00002715,0.00002341,-0.00001458,-0.00000318,-0.00001600,-0.00000867,-0
 .00000738,-0.00000419,0.00000466,-0.00000027,0.00000584,-0.00000152,-0
 .00000184,0.00000598,-0.00000201,0.00000082,-0.00000518,0.00000269,0.0
 0000363,0.00000173,0.00000958,-0.00000691,0.00000386,0.00000323,0.0000
 0055,0.00000578,0.00000767,0.00000410,0.00000392,-0.00000673,-0.000009
 21,-0.00000302,-0.00000093,0.00000645,-0.00000800,0.00000097,-0.000005
 73,0.00001916,-0.00000514,0.00000704,0.00001766,-0.00000216,0.00001387
 ,-0.00000299,0.00000245,0.00000035,0.00000204,0.00000041,-0.00000024,-
 0.00000408,0.00000272,0.00000048,-0.00000024,0.00000091,0.00000071,-0.
 00000175,0.00000078,0.00000187,-0.00000258,-0.00000349,0.00000080,-0.0
 0000083,-0.00000090,0.00000233,0.00000198,0.00000150,-0.00000265,-0.00
 000157,0.00000331,-0.00000180,-0.00000118,-0.00000324,-0.00000253,-0.0
 0000039,-0.00000145,0.00000076,-0.00000024,-0.00000216,-0.00000148,0.0
 0000318,-0.00000234,0.00000643,-0.00001827,-0.00000359,-0.00001341,-0.
 00000016,-0.00000299,-0.00001635\\\@


 NEVER LOSE YOUR IGNORANCE, IT CAN'T BE REPLACED.
   -- ANDY CAPP
 Job cpu time:       0 days  5 hours 41 minutes  1.2 seconds.
 File lengths (MBytes):  RWF=    608 Int=      0 D2E=      0 Chk=     18 Scr=      1
 Normal termination of Gaussian 09 at Sat Jul 24 05:44:41 2021.
