 Entering Gaussian System, Link 0=g09
 Input=opt_freq-conf-628.com
 Output=opt_freq-conf-628.log
 Initial command:
 /aerosol/software/g09/l1.exe "/scratch/nicole/10507/Gau-72489.inp" -scrdir="/scratch/nicole/10507/"
 Entering Link 1 = /aerosol/software/g09/l1.exe PID=     72491.
  
 Copyright (c) 1988,1990,1992,1993,1995,1998,2003,2009,2013,
            Gaussian, Inc.  All Rights Reserved.
  
 This is part of the Gaussian(R) 09 program.  It is based on
 the Gaussian(R) 03 system (copyright 2003, Gaussian, Inc.),
 the Gaussian(R) 98 system (copyright 1998, Gaussian, Inc.),
 the Gaussian(R) 94 system (copyright 1995, Gaussian, Inc.),
 the Gaussian 92(TM) system (copyright 1992, Gaussian, Inc.),
 the Gaussian 90(TM) system (copyright 1990, Gaussian, Inc.),
 the Gaussian 88(TM) system (copyright 1988, Gaussian, Inc.),
 the Gaussian 86(TM) system (copyright 1986, Carnegie Mellon
 University), and the Gaussian 82(TM) system (copyright 1983,
 Carnegie Mellon University). Gaussian is a federally registered
 trademark of Gaussian, Inc.
  
 This software contains proprietary and confidential information,
 including trade secrets, belonging to Gaussian, Inc.
  
 This software is provided under written license and may be
 used, copied, transmitted, or stored only in accord with that
 written license.
  
 The following legend is applicable only to US Government
 contracts under FAR:
  
                    RESTRICTED RIGHTS LEGEND
  
 Use, reproduction and disclosure by the US Government is
 subject to restrictions as set forth in subparagraphs (a)
 and (c) of the Commercial Computer Software - Restricted
 Rights clause in FAR 52.227-19.
  
 Gaussian, Inc.
 340 Quinnipiac St., Bldg. 40, Wallingford CT 06492
  
  
 ---------------------------------------------------------------
 Warning -- This program may not be used in any manner that
 competes with the business of Gaussian, Inc. or will provide
 assistance to any competitor of Gaussian, Inc.  The licensee
 of this program is prohibited from giving any competitor of
 Gaussian, Inc. access to this program.  By using this program,
 the user acknowledges that Gaussian, Inc. is engaged in the
 business of creating and licensing software in the field of
 computational chemistry and represents and warrants to the
 licensee that it is not a competitor of Gaussian, Inc. and that
 it will not use this program in any manner prohibited above.
 ---------------------------------------------------------------
  

 Cite this work as:
 Gaussian 09, Revision D.01,
 M. J. Frisch, G. W. Trucks, H. B. Schlegel, G. E. Scuseria, 
 M. A. Robb, J. R. Cheeseman, G. Scalmani, V. Barone, B. Mennucci, 
 G. A. Petersson, H. Nakatsuji, M. Caricato, X. Li, H. P. Hratchian, 
 A. F. Izmaylov, J. Bloino, G. Zheng, J. L. Sonnenberg, M. Hada, 
 M. Ehara, K. Toyota, R. Fukuda, J. Hasegawa, M. Ishida, T. Nakajima, 
 Y. Honda, O. Kitao, H. Nakai, T. Vreven, J. A. Montgomery, Jr., 
 J. E. Peralta, F. Ogliaro, M. Bearpark, J. J. Heyd, E. Brothers, 
 K. N. Kudin, V. N. Staroverov, T. Keith, R. Kobayashi, J. Normand, 
 K. Raghavachari, A. Rendell, J. C. Burant, S. S. Iyengar, J. Tomasi, 
 M. Cossi, N. Rega, J. M. Millam, M. Klene, J. E. Knox, J. B. Cross, 
 V. Bakken, C. Adamo, J. Jaramillo, R. Gomperts, R. E. Stratmann, 
 O. Yazyev, A. J. Austin, R. Cammi, C. Pomelli, J. W. Ochterski, 
 R. L. Martin, K. Morokuma, V. G. Zakrzewski, G. A. Voth, 
 P. Salvador, J. J. Dannenberg, S. Dapprich, A. D. Daniels, 
 O. Farkas, J. B. Foresman, J. V. Ortiz, J. Cioslowski, 
 and D. J. Fox, Gaussian, Inc., Wallingford CT, 2013.
 
 ******************************************
 Gaussian 09:  ES64L-G09RevD.01 24-Apr-2013
                24-Jul-2021 
 ******************************************
 %mem=2gb
 %nproc=4
 Will use up to    4 processors via shared memory.
 %chk=conf-628.chk
 ----------------------------------------------------------------------
 # B3LYP/6-311++G(d,p) EmpiricalDispersion=GD3BJ opt=calcfc freq=norama
 n nosymm integral(ultrafinegrid)
 ----------------------------------------------------------------------
 1/10=4,14=-1,18=20,19=15,26=4,38=1/1,3;
 2/9=110,12=2,15=1,17=6,18=5,40=1/2;
 3/5=4,6=6,7=1111,11=2,16=1,25=1,30=1,71=2,74=-5,75=-5,124=41,140=1/1,2,3;
 4//1;
 5/5=2,38=5/2;
 8/6=4,10=90,11=11/1;
 11/6=1,8=1,9=11,15=111,16=1,31=1/1,2,10;
 10/6=1,13=1,31=1/2;
 6/7=2,8=2,9=2,10=2,28=1/1;
 7/10=1,18=20,25=1,30=1/1,2,3,16;
 1/10=4,14=-1,18=20,19=15,26=4/3(2);
 2/9=110,15=1/2;
 99//99;
 2/9=110,15=1/2;
 3/5=4,6=6,7=1111,11=2,16=1,25=1,30=1,71=1,74=-5,75=-5,124=41/1,2,3;
 4/5=5,16=3,69=1/1;
 5/5=2,38=5/2;
 7/30=1/1,2,3,16;
 1/14=-1,18=20,19=15,26=4/3(-5);
 2/9=110,15=1/2;
 6/7=2,8=2,9=2,10=2,19=2,28=1/1;
 99/9=1/99;
 ------------------------------------------------------------
 Candidate Structure: Conf:628 OPT and FREQ calc in gas phase
 ------------------------------------------------------------
 Symbolic Z-matrix:
 Charge =  1 Multiplicity = 1
 O                    -1.23346   0.12207  -0.84287 
 C                    -1.46356  -0.06705   0.34931 
 N                    -0.46101  -0.24379   1.22995 
 C                     0.90694  -0.33709   0.75078 
 C                     1.71594  -0.95986   1.86883 
 O                     3.00756  -1.162     1.5238 
 O                     1.28005  -1.2415    2.95329 
 C                     1.44827   1.05177   0.32468 
 C                     2.3268    0.99156  -0.87917 
 C                     2.2344    1.60899  -2.09359 
 N                     3.28424   1.23058  -2.91301 
 C                     3.98976   0.38949  -2.19678 
 N                     3.44646   0.20531  -0.96361 
 C                    -2.87106  -0.07869   0.92827 
 C                    -3.8502   -0.83512   0.0418 
 N                    -3.94724  -0.19776  -1.29196 
 H                    -0.63042  -0.51316   2.1862 
 H                     0.91497  -1.01819  -0.10778 
 H                     3.43321  -1.56793   2.29421 
 H                     0.60119   1.68663   0.07355 
 H                     1.95518   1.52679   1.16546 
 H                     1.47839   2.30342  -2.43091 
 H                     4.89002  -0.11398  -2.50001 
 H                     3.77118  -0.40044  -0.22689 
 H                    -2.85146  -0.51082   1.9302 
 H                    -3.19337   0.96164   1.02586 
 H                    -3.51778  -1.86885  -0.07297 
 H                    -4.83409  -0.86052   0.51303 
 H                    -4.44019   0.69304  -1.23969 
 H                    -2.9845    0.00017  -1.59919 
 H                    -4.40624  -0.79443  -1.97939 
 

 GradGradGradGradGradGradGradGradGradGradGradGradGradGradGradGradGradGrad
 Berny optimization.
 Initialization pass.
                           ----------------------------
                           !    Initial Parameters    !
                           ! (Angstroms and Degrees)  !
 --------------------------                            --------------------------
 ! Name  Definition              Value          Derivative Info.                !
 --------------------------------------------------------------------------------
 ! R1    R(1,2)                  1.2288         calculate D2E/DX2 analytically  !
 ! R2    R(2,3)                  1.3461         calculate D2E/DX2 analytically  !
 ! R3    R(2,14)                 1.522          calculate D2E/DX2 analytically  !
 ! R4    R(3,4)                  1.4524         calculate D2E/DX2 analytically  !
 ! R5    R(3,17)                 1.0078         calculate D2E/DX2 analytically  !
 ! R6    R(4,5)                  1.514          calculate D2E/DX2 analytically  !
 ! R7    R(4,8)                  1.5503         calculate D2E/DX2 analytically  !
 ! R8    R(4,18)                 1.0959         calculate D2E/DX2 analytically  !
 ! R9    R(5,6)                  1.3521         calculate D2E/DX2 analytically  !
 ! R10   R(5,7)                  1.2022         calculate D2E/DX2 analytically  !
 ! R11   R(6,19)                 0.9693         calculate D2E/DX2 analytically  !
 ! R12   R(8,9)                  1.4915         calculate D2E/DX2 analytically  !
 ! R13   R(8,20)                 1.088          calculate D2E/DX2 analytically  !
 ! R14   R(8,21)                 1.0906         calculate D2E/DX2 analytically  !
 ! R15   R(9,10)                 1.3655         calculate D2E/DX2 analytically  !
 ! R16   R(9,13)                 1.3708         calculate D2E/DX2 analytically  !
 ! R17   R(10,11)                1.3845         calculate D2E/DX2 analytically  !
 ! R18   R(10,22)                1.0805         calculate D2E/DX2 analytically  !
 ! R19   R(11,12)                1.3108         calculate D2E/DX2 analytically  !
 ! R20   R(12,13)                1.3601         calculate D2E/DX2 analytically  !
 ! R21   R(12,23)                1.0751         calculate D2E/DX2 analytically  !
 ! R22   R(13,24)                1.0075         calculate D2E/DX2 analytically  !
 ! R23   R(14,15)                1.5221         calculate D2E/DX2 analytically  !
 ! R24   R(14,25)                1.0913         calculate D2E/DX2 analytically  !
 ! R25   R(14,26)                1.0935         calculate D2E/DX2 analytically  !
 ! R26   R(15,16)                1.4814         calculate D2E/DX2 analytically  !
 ! R27   R(15,27)                1.0919         calculate D2E/DX2 analytically  !
 ! R28   R(15,28)                1.0912         calculate D2E/DX2 analytically  !
 ! R29   R(16,29)                1.0194         calculate D2E/DX2 analytically  !
 ! R30   R(16,30)                1.0298         calculate D2E/DX2 analytically  !
 ! R31   R(16,31)                1.0194         calculate D2E/DX2 analytically  !
 ! A1    A(1,2,3)              121.0287         calculate D2E/DX2 analytically  !
 ! A2    A(1,2,14)             122.9159         calculate D2E/DX2 analytically  !
 ! A3    A(3,2,14)             116.0343         calculate D2E/DX2 analytically  !
 ! A4    A(2,3,4)              119.6091         calculate D2E/DX2 analytically  !
 ! A5    A(2,3,17)             122.0502         calculate D2E/DX2 analytically  !
 ! A6    A(4,3,17)             117.0118         calculate D2E/DX2 analytically  !
 ! A7    A(3,4,5)              106.6215         calculate D2E/DX2 analytically  !
 ! A8    A(3,4,8)              111.2221         calculate D2E/DX2 analytically  !
 ! A9    A(3,4,18)             107.7743         calculate D2E/DX2 analytically  !
 ! A10   A(5,4,8)              112.6361         calculate D2E/DX2 analytically  !
 ! A11   A(5,4,18)             108.6            calculate D2E/DX2 analytically  !
 ! A12   A(8,4,18)             109.8079         calculate D2E/DX2 analytically  !
 ! A13   A(4,5,6)              112.5496         calculate D2E/DX2 analytically  !
 ! A14   A(4,5,7)              124.6622         calculate D2E/DX2 analytically  !
 ! A15   A(6,5,7)              122.786          calculate D2E/DX2 analytically  !
 ! A16   A(5,6,19)             106.2178         calculate D2E/DX2 analytically  !
 ! A17   A(4,8,9)              113.0376         calculate D2E/DX2 analytically  !
 ! A18   A(4,8,20)             108.3203         calculate D2E/DX2 analytically  !
 ! A19   A(4,8,21)             109.9119         calculate D2E/DX2 analytically  !
 ! A20   A(9,8,20)             107.2092         calculate D2E/DX2 analytically  !
 ! A21   A(9,8,21)             111.4708         calculate D2E/DX2 analytically  !
 ! A22   A(20,8,21)            106.5992         calculate D2E/DX2 analytically  !
 ! A23   A(8,9,10)             131.2776         calculate D2E/DX2 analytically  !
 ! A24   A(8,9,13)             123.6415         calculate D2E/DX2 analytically  !
 ! A25   A(10,9,13)            105.0607         calculate D2E/DX2 analytically  !
 ! A26   A(9,10,11)            110.5777         calculate D2E/DX2 analytically  !
 ! A27   A(9,10,22)            127.9938         calculate D2E/DX2 analytically  !
 ! A28   A(11,10,22)           121.4286         calculate D2E/DX2 analytically  !
 ! A29   A(10,11,12)           105.0775         calculate D2E/DX2 analytically  !
 ! A30   A(11,12,13)           111.5502         calculate D2E/DX2 analytically  !
 ! A31   A(11,12,23)           126.6602         calculate D2E/DX2 analytically  !
 ! A32   A(13,12,23)           121.7894         calculate D2E/DX2 analytically  !
 ! A33   A(9,13,12)            107.7261         calculate D2E/DX2 analytically  !
 ! A34   A(9,13,24)            124.2674         calculate D2E/DX2 analytically  !
 ! A35   A(12,13,24)           128.0001         calculate D2E/DX2 analytically  !
 ! A36   A(2,14,15)            112.158          calculate D2E/DX2 analytically  !
 ! A37   A(2,14,25)            109.6131         calculate D2E/DX2 analytically  !
 ! A38   A(2,14,26)            107.4131         calculate D2E/DX2 analytically  !
 ! A39   A(15,14,25)           110.4549         calculate D2E/DX2 analytically  !
 ! A40   A(15,14,26)           109.5831         calculate D2E/DX2 analytically  !
 ! A41   A(25,14,26)           107.4625         calculate D2E/DX2 analytically  !
 ! A42   A(14,15,16)           110.6517         calculate D2E/DX2 analytically  !
 ! A43   A(14,15,27)           109.625          calculate D2E/DX2 analytically  !
 ! A44   A(14,15,28)           109.8824         calculate D2E/DX2 analytically  !
 ! A45   A(16,15,27)           109.4274         calculate D2E/DX2 analytically  !
 ! A46   A(16,15,28)           109.862          calculate D2E/DX2 analytically  !
 ! A47   A(27,15,28)           107.3284         calculate D2E/DX2 analytically  !
 ! A48   A(15,16,29)           111.1897         calculate D2E/DX2 analytically  !
 ! A49   A(15,16,30)           106.8621         calculate D2E/DX2 analytically  !
 ! A50   A(15,16,31)           112.6314         calculate D2E/DX2 analytically  !
 ! A51   A(29,16,30)           107.4223         calculate D2E/DX2 analytically  !
 ! A52   A(29,16,31)           109.1651         calculate D2E/DX2 analytically  !
 ! A53   A(30,16,31)           109.4057         calculate D2E/DX2 analytically  !
 ! D1    D(1,2,3,4)             -5.7833         calculate D2E/DX2 analytically  !
 ! D2    D(1,2,3,17)          -172.2233         calculate D2E/DX2 analytically  !
 ! D3    D(14,2,3,4)           175.8395         calculate D2E/DX2 analytically  !
 ! D4    D(14,2,3,17)            9.3995         calculate D2E/DX2 analytically  !
 ! D5    D(1,2,14,15)           42.5179         calculate D2E/DX2 analytically  !
 ! D6    D(1,2,14,25)          165.59           calculate D2E/DX2 analytically  !
 ! D7    D(1,2,14,26)          -77.9467         calculate D2E/DX2 analytically  !
 ! D8    D(3,2,14,15)         -139.1387         calculate D2E/DX2 analytically  !
 ! D9    D(3,2,14,25)          -16.0665         calculate D2E/DX2 analytically  !
 ! D10   D(3,2,14,26)          100.3967         calculate D2E/DX2 analytically  !
 ! D11   D(2,3,4,5)           -162.3258         calculate D2E/DX2 analytically  !
 ! D12   D(2,3,4,8)             74.5263         calculate D2E/DX2 analytically  !
 ! D13   D(2,3,4,18)           -45.8863         calculate D2E/DX2 analytically  !
 ! D14   D(17,3,4,5)             4.7854         calculate D2E/DX2 analytically  !
 ! D15   D(17,3,4,8)          -118.3625         calculate D2E/DX2 analytically  !
 ! D16   D(17,3,4,18)          121.2248         calculate D2E/DX2 analytically  !
 ! D17   D(3,4,5,6)            177.0537         calculate D2E/DX2 analytically  !
 ! D18   D(3,4,5,7)             -3.4817         calculate D2E/DX2 analytically  !
 ! D19   D(8,4,5,6)            -60.685          calculate D2E/DX2 analytically  !
 ! D20   D(8,4,5,7)            118.7796         calculate D2E/DX2 analytically  !
 ! D21   D(18,4,5,6)            61.1665         calculate D2E/DX2 analytically  !
 ! D22   D(18,4,5,7)          -119.3689         calculate D2E/DX2 analytically  !
 ! D23   D(3,4,8,9)           -142.6518         calculate D2E/DX2 analytically  !
 ! D24   D(3,4,8,20)           -24.0009         calculate D2E/DX2 analytically  !
 ! D25   D(3,4,8,21)            92.103          calculate D2E/DX2 analytically  !
 ! D26   D(5,4,8,9)             97.7181         calculate D2E/DX2 analytically  !
 ! D27   D(5,4,8,20)          -143.631          calculate D2E/DX2 analytically  !
 ! D28   D(5,4,8,21)           -27.5271         calculate D2E/DX2 analytically  !
 ! D29   D(18,4,8,9)           -23.4471         calculate D2E/DX2 analytically  !
 ! D30   D(18,4,8,20)           95.2039         calculate D2E/DX2 analytically  !
 ! D31   D(18,4,8,21)         -148.6922         calculate D2E/DX2 analytically  !
 ! D32   D(4,5,6,19)          -179.4098         calculate D2E/DX2 analytically  !
 ! D33   D(7,5,6,19)             1.114          calculate D2E/DX2 analytically  !
 ! D34   D(4,8,9,10)           122.1202         calculate D2E/DX2 analytically  !
 ! D35   D(4,8,9,13)           -55.9913         calculate D2E/DX2 analytically  !
 ! D36   D(20,8,9,10)            2.8264         calculate D2E/DX2 analytically  !
 ! D37   D(20,8,9,13)         -175.2851         calculate D2E/DX2 analytically  !
 ! D38   D(21,8,9,10)         -113.4811         calculate D2E/DX2 analytically  !
 ! D39   D(21,8,9,13)           68.4074         calculate D2E/DX2 analytically  !
 ! D40   D(8,9,10,11)         -179.1727         calculate D2E/DX2 analytically  !
 ! D41   D(8,9,10,22)            0.8717         calculate D2E/DX2 analytically  !
 ! D42   D(13,9,10,11)          -0.8008         calculate D2E/DX2 analytically  !
 ! D43   D(13,9,10,22)         179.2437         calculate D2E/DX2 analytically  !
 ! D44   D(8,9,13,12)          179.4127         calculate D2E/DX2 analytically  !
 ! D45   D(8,9,13,24)            0.2674         calculate D2E/DX2 analytically  !
 ! D46   D(10,9,13,12)           0.8823         calculate D2E/DX2 analytically  !
 ! D47   D(10,9,13,24)        -178.263          calculate D2E/DX2 analytically  !
 ! D48   D(9,10,11,12)           0.4004         calculate D2E/DX2 analytically  !
 ! D49   D(22,10,11,12)       -179.6406         calculate D2E/DX2 analytically  !
 ! D50   D(10,11,12,13)          0.1804         calculate D2E/DX2 analytically  !
 ! D51   D(10,11,12,23)       -179.6957         calculate D2E/DX2 analytically  !
 ! D52   D(11,12,13,9)          -0.6868         calculate D2E/DX2 analytically  !
 ! D53   D(11,12,13,24)        178.4169         calculate D2E/DX2 analytically  !
 ! D54   D(23,12,13,9)         179.1963         calculate D2E/DX2 analytically  !
 ! D55   D(23,12,13,24)         -1.7            calculate D2E/DX2 analytically  !
 ! D56   D(2,14,15,16)         -61.1453         calculate D2E/DX2 analytically  !
 ! D57   D(2,14,15,27)          59.6366         calculate D2E/DX2 analytically  !
 ! D58   D(2,14,15,28)         177.3607         calculate D2E/DX2 analytically  !
 ! D59   D(25,14,15,16)        176.2583         calculate D2E/DX2 analytically  !
 ! D60   D(25,14,15,27)        -62.9598         calculate D2E/DX2 analytically  !
 ! D61   D(25,14,15,28)         54.7643         calculate D2E/DX2 analytically  !
 ! D62   D(26,14,15,16)         58.0532         calculate D2E/DX2 analytically  !
 ! D63   D(26,14,15,27)        178.835          calculate D2E/DX2 analytically  !
 ! D64   D(26,14,15,28)        -63.4408         calculate D2E/DX2 analytically  !
 ! D65   D(14,15,16,29)        -71.244          calculate D2E/DX2 analytically  !
 ! D66   D(14,15,16,30)         45.6958         calculate D2E/DX2 analytically  !
 ! D67   D(14,15,16,31)        165.8619         calculate D2E/DX2 analytically  !
 ! D68   D(27,15,16,29)        167.8569         calculate D2E/DX2 analytically  !
 ! D69   D(27,15,16,30)        -75.2034         calculate D2E/DX2 analytically  !
 ! D70   D(27,15,16,31)         44.9627         calculate D2E/DX2 analytically  !
 ! D71   D(28,15,16,29)         50.2621         calculate D2E/DX2 analytically  !
 ! D72   D(28,15,16,30)        167.2018         calculate D2E/DX2 analytically  !
 ! D73   D(28,15,16,31)        -72.632          calculate D2E/DX2 analytically  !
 --------------------------------------------------------------------------------
 Trust Radius=3.00D-01 FncErr=1.00D-07 GrdErr=1.00D-06
 Number of steps in this run=    167 maximum allowed number of steps=    186.
 GradGradGradGradGradGradGradGradGradGradGradGradGradGradGradGradGradGrad

                          Input orientation:                          
 ---------------------------------------------------------------------
 Center     Atomic      Atomic             Coordinates (Angstroms)
 Number     Number       Type             X           Y           Z
 ---------------------------------------------------------------------
      1          8           0       -1.233463    0.122074   -0.842866
      2          6           0       -1.463560   -0.067049    0.349309
      3          7           0       -0.461006   -0.243787    1.229948
      4          6           0        0.906943   -0.337087    0.750784
      5          6           0        1.715938   -0.959856    1.868830
      6          8           0        3.007560   -1.161999    1.523802
      7          8           0        1.280047   -1.241497    2.953289
      8          6           0        1.448272    1.051775    0.324677
      9          6           0        2.326805    0.991563   -0.879167
     10          6           0        2.234402    1.608991   -2.093590
     11          7           0        3.284242    1.230580   -2.913009
     12          6           0        3.989758    0.389487   -2.196781
     13          7           0        3.446464    0.205306   -0.963613
     14          6           0       -2.871056   -0.078694    0.928273
     15          6           0       -3.850202   -0.835119    0.041802
     16          7           0       -3.947238   -0.197765   -1.291964
     17          1           0       -0.630415   -0.513162    2.186204
     18          1           0        0.914972   -1.018186   -0.107783
     19          1           0        3.433214   -1.567928    2.294215
     20          1           0        0.601188    1.686628    0.073553
     21          1           0        1.955185    1.526786    1.165459
     22          1           0        1.478392    2.303420   -2.430909
     23          1           0        4.890020   -0.113984   -2.500014
     24          1           0        3.771180   -0.400440   -0.226888
     25          1           0       -2.851456   -0.510823    1.930199
     26          1           0       -3.193370    0.961642    1.025863
     27          1           0       -3.517783   -1.868848   -0.072974
     28          1           0       -4.834088   -0.860524    0.513026
     29          1           0       -4.440189    0.693039   -1.239695
     30          1           0       -2.984500    0.000168   -1.599192
     31          1           0       -4.406235   -0.794427   -1.979392
 ---------------------------------------------------------------------
                    Distance matrix (angstroms):
                    1          2          3          4          5
     1  O    0.000000
     2  C    1.228818   0.000000
     3  N    2.242121   1.346060   0.000000
     4  C    2.707746   2.419378   1.452442   0.000000
     5  C    4.150040   3.635280   2.379077   1.514048   0.000000
     6  O    5.023568   4.750712   3.600057   2.385504   1.352107
     7  O    4.752668   3.960736   2.645108   2.410020   1.202238
     8  C    3.069071   3.119477   2.478576   1.550336   2.550041
     9  C    3.665083   4.122703   3.707606   2.537333   3.425300
    10  C    3.975087   4.738332   4.663038   3.693214   4.750637
    11  N    5.091555   5.904929   5.776221   4.640313   5.488494
    12  C    5.402465   6.035700   5.652681   4.326638   4.849760
    13  N    4.682224   5.089821   4.503523   3.111674   3.517819
    14  C    2.420527   1.521965   2.434462   3.790982   4.764620
    15  C    2.923385   2.525975   3.639782   4.835403   5.859651
    16  N    2.769217   2.979852   4.303019   5.268330   6.530158
    17  H    3.153167   2.065752   1.007813   2.110665   2.409489
    18  H    2.540927   2.602117   2.069428   1.095946   2.133529
    19  H    5.871563   5.478476   4.248642   3.206118   1.870759
    20  H    2.579457   2.722978   2.488375   2.155818   3.386674
    21  H    4.021699   3.859304   2.996175   2.178253   2.595256
    22  H    3.825481   4.690822   4.863271   4.173967   5.403068
    23  H    6.348141   6.963392   6.524028   5.146102   5.465994
    24  H    5.069408   5.276898   4.478650   3.027161   2.988143
    25  H    3.272362   2.149978   2.505177   3.942939   4.589824
    26  H    2.835183   2.123245   2.993413   4.309864   5.338918
    27  H    3.126439   2.764893   3.698961   4.754268   5.655855
    28  H    3.970950   3.466535   4.474169   5.769745   6.689612
    29  H    3.281245   3.458754   4.776053   5.797843   7.091748
    30  H    1.911288   2.472737   3.798891   4.558449   5.919708
    31  H    3.492585   3.822468   5.115457   5.991067   7.233062
                    6          7          8          9         10
     6  O    0.000000
     7  O    2.243669   0.000000
     8  C    2.961431   3.492421   0.000000
     9  C    3.297805   4.557410   1.491538   0.000000
    10  C    4.621871   5.874272   2.603172   1.365496   0.000000
    11  N    5.048394   6.673936   3.726307   2.260603   1.384487
    12  C    4.149044   6.043663   3.640814   2.205451   2.139886
    13  N    2.872176   4.704118   2.523682   1.370754   2.171699
    14  C    6.007190   4.762821   4.505428   5.606250   6.168115
    15  C    7.023680   5.912813   5.631537   6.506947   6.896085
    16  N    7.564886   6.814401   5.769437   6.399102   6.489965
    17  H    3.754281   2.183749   3.199258   4.517283   5.570220
    18  H    2.657382   3.090843   2.180863   2.574372   3.547730
    19  H    0.969276   2.275316   3.831699   4.224392   5.548225
    20  H    4.001065   4.162649   1.087958   2.090106   2.714761
    21  H    2.909548   3.363858   1.090647   2.145941   3.272021
    22  H    5.476059   6.449447   3.026677   2.201971   1.080540
    23  H    4.564328   6.636392   4.602554   3.227917   3.191572
    24  H    2.056211   4.126336   2.794468   2.109350   3.143895
    25  H    5.909082   4.318555   4.848409   6.079809   6.822789
    26  H    6.573380   5.346051   4.695170   5.839723   6.293708
    27  H    6.754955   5.707102   5.774934   6.556760   7.018966
    28  H    7.912269   6.594140   6.569658   7.526407   7.928209
    29  H    8.157637   7.351507   6.103271   6.783163   6.791044
    30  H    6.856275   6.360282   4.945362   5.450803   5.483582
    31  H    8.208035   7.540890   6.556862   7.052239   7.063110
                   11         12         13         14         15
    11  N    0.000000
    12  C    1.310791   0.000000
    13  N    2.208539   1.360071   0.000000
    14  C    7.372743   7.553537   6.600829   0.000000
    15  C    7.993642   8.244749   7.438728   1.522083   0.000000
    16  N    7.547334   8.009960   7.411957   2.470182   1.481407
    17  H    6.660867   6.432055   5.201778   2.606074   3.881899
    18  H    4.305773   3.974891   2.939018   4.036095   4.771035
    19  H    5.913461   4.930543   3.709175   6.620229   7.658885
    20  H    4.040583   4.280117   3.371294   3.987905   5.116160
    21  H    4.299771   4.091160   2.916020   5.091800   6.367395
    22  H    2.155110   3.166214   3.229295   5.989680   6.660228
    23  H    2.134699   1.075130   2.132212   8.484615   9.130846
    24  H    3.180028   2.133598   1.007538   6.749608   7.638495
    25  H    8.008491   8.040194   6.967839   1.091319   2.160719
    26  H    7.585940   7.893676   6.972622   1.093485   2.151315
    27  H    7.996236   8.122425   7.320934   2.150675   1.091912
    28  H    9.056363   9.314818   8.478443   2.153412   1.091205
    29  H    7.921853   8.489532   7.906541   2.785289   2.079804
    30  H    6.522051   7.010631   6.465550   2.531239   2.034701
    31  H    8.007230   8.481840   7.980987   3.365050   2.096677
                   16         17         18         19         20
    16  N    0.000000
    17  H    4.816476   0.000000
    18  H    5.071140   2.811699   0.000000
    19  H    8.319200   4.199676   3.523259   0.000000
    20  H    5.109184   3.289258   2.728985   4.852200   0.000000
    21  H    6.622054   3.447990   3.029863   3.610528   1.746744
    22  H    6.081988   5.804992   4.092361   6.413693   2.724381
    23  H    8.919839   7.252254   4.726664   5.217362   5.315969
    24  H    7.794192   5.020932   2.924674   2.798787   3.807225
    25  H    3.417760   2.235747   4.312397   6.383341   4.494071
    26  H    2.699049   3.176503   4.699292   7.205488   3.978840
    27  H    2.112555   3.908793   4.513774   7.349183   5.443235
    28  H    2.117485   4.537736   5.784631   8.486539   6.018584
    29  H    1.019443   5.263656   5.734742   8.921377   5.303520
    30  H    1.029773   4.487142   4.297351   7.668415   4.301091
    31  H    1.019432   5.629220   5.645196   8.962086   5.953529
                   21         22         23         24         25
    21  H    0.000000
    22  H    3.710034   0.000000
    23  H    4.974040   4.181844   0.000000
    24  H    2.991767   4.174379   2.549698   0.000000
    25  H    5.276407   6.759202   8.928309   6.965953   0.000000
    26  H    5.181360   5.964478   8.884254   7.206220   1.761501
    27  H    6.558767   6.923109   8.925313   7.436994   2.510164
    28  H    7.226282   7.650144  10.207546   8.649265   2.462012
    29  H    6.883364   6.248353   9.449470   8.345540   3.744541
    30  H    5.862964   5.090592   7.926700   6.905281   3.568672
    31  H    7.466310   6.665535   9.335652   8.372372   4.216951
                   26         27         28         29         30
    26  H    0.000000
    27  H    3.053582   0.000000
    28  H    2.505045   1.758628   0.000000
    29  H    2.599896   2.962319   2.375024   0.000000
    30  H    2.803386   2.471225   2.936534   1.651768   0.000000
    31  H    3.685971   2.361813   2.529738   1.661583   1.672503
                   31
    31  H    0.000000
 Symmetry turned off by external request.
 Stoichiometry    C9H15N4O3(1+)
 Framework group  C1[X(C9H15N4O3)]
 Deg. of freedom    87
 Full point group                 C1      NOp   1
 Rotational constants (GHZ):      0.7088180      0.3127596      0.2291588
 Standard basis: 6-311++G(d,p) (5D, 7F)
   457 basis functions,   711 primitive gaussians,   473 cartesian basis functions
    60 alpha electrons       60 beta electrons
       nuclear repulsion energy      1138.6918025008 Hartrees.
 NAtoms=   31 NActive=   31 NUniq=   31 SFac= 1.00D+00 NAtFMM=   60 NAOKFM=F Big=F
 Integral buffers will be    131072 words long.
 Raffenetti 2 integral format.
 Two-electron integral symmetry is turned off.
 Nuclear repulsion after empirical dispersion term =     1138.6360523558 Hartrees.
 One-electron integrals computed using PRISM.
 NBasis=   457 RedAO= T EigKep=  2.91D-06  NBF=   457
 NBsUse=   457 1.00D-06 EigRej= -1.00D+00 NBFU=   457
 ExpMin= 3.60D-02 ExpMax= 8.59D+03 ExpMxC= 1.30D+03 IAcc=3 IRadAn=         5 AccDes= 0.00D+00
 Harris functional with IExCor=  402 and IRadAn=       5 diagonalized for initial guess.
 HarFok:  IExCor=  402 AccDes= 0.00D+00 IRadAn=         5 IDoV= 1 UseB2=F ITyADJ=14
 ICtDFT=  3500011 ScaDFX=  1.000000  1.000000  1.000000  1.000000
 FoFCou: FMM=F IPFlag=           0 FMFlag=      100000 FMFlg1=           0
         NFxFlg=           0 DoJE=T BraDBF=F KetDBF=T FulRan=T
         wScrn=  0.000000 ICntrl=     500 IOpCl=  0 I1Cent=   200000004 NGrid=           0
         NMat0=    1 NMatS0=      1 NMatT0=    0 NMatD0=    1 NMtDS0=    0 NMtDT0=    0
 Symmetry not used in FoFCou.
 Requested convergence on RMS density matrix=1.00D-08 within 128 cycles.
 Requested convergence on MAX density matrix=1.00D-06.
 Requested convergence on             energy=1.00D-06.
 No special actions if energy rises.
 SCF Done:  E(RB3LYP) =  -796.760117121     A.U. after   14 cycles
            NFock= 14  Conv=0.97D-08     -V/T= 2.0036
 DoSCS=F DFT=T ScalE2(SS,OS)=  1.000000  1.000000
 Range of M.O.s used for correlation:     1   457
 NBasis=   457 NAE=    60 NBE=    60 NFC=     0 NFV=     0
 NROrb=    457 NOA=    60 NOB=    60 NVA=   397 NVB=   397

 **** Warning!!: The largest alpha MO coefficient is  0.11839627D+03

 Symmetrizing basis deriv contribution to polar:
 IMax=3 JMax=2 DiffMx= 0.00D+00
 G2DrvN: will do    32 centers at a time, making    1 passes.
 Calling FoFCou, ICntrl=  3107 FMM=F I1Cent=   0 AccDes= 0.00D+00.
 End of G2Drv F.D. properties file   721 does not exist.
 End of G2Drv F.D. properties file   722 does not exist.
 End of G2Drv F.D. properties file   788 does not exist.
          IDoAtm=1111111111111111111111111111111
          Differentiating once with respect to nuclear coordinates.
          There are    96 degrees of freedom in the 1st order CPHF.  IDoFFX=6 NUNeed=     0.
     90 vectors produced by pass  0 Test12= 2.48D-14 1.04D-09 XBig12= 2.07D-01 8.85D-02.
 AX will form    90 AO Fock derivatives at one time.
     90 vectors produced by pass  1 Test12= 2.48D-14 1.04D-09 XBig12= 2.53D-02 6.88D-02.
     90 vectors produced by pass  2 Test12= 2.48D-14 1.04D-09 XBig12= 2.64D-04 2.00D-03.
     90 vectors produced by pass  3 Test12= 2.48D-14 1.04D-09 XBig12= 1.35D-06 1.29D-04.
     90 vectors produced by pass  4 Test12= 2.48D-14 1.04D-09 XBig12= 3.31D-09 5.28D-06.
     85 vectors produced by pass  5 Test12= 2.48D-14 1.04D-09 XBig12= 5.34D-12 1.91D-07.
     30 vectors produced by pass  6 Test12= 2.48D-14 1.04D-09 XBig12= 7.27D-15 5.60D-09.
      6 vectors produced by pass  7 Test12= 2.48D-14 1.04D-09 XBig12= 5.10D-16 3.20D-09.
      1 vectors produced by pass  8 Test12= 2.48D-14 1.04D-09 XBig12= 1.53D-16 1.21D-09.
 InvSVY:  IOpt=1 It=  1 EMax= 5.55D-16
 Solved reduced A of dimension   572 with    96 vectors.
 End of Minotr F.D. properties file   721 does not exist.
 End of Minotr F.D. properties file   722 does not exist.
 End of Minotr F.D. properties file   788 does not exist.

 **********************************************************************

            Population analysis using the SCF density.

 **********************************************************************

 Alpha  occ. eigenvalues --  -19.31013 -19.25923 -19.25653 -14.61817 -14.49401
 Alpha  occ. eigenvalues --  -14.44413 -14.36755 -10.44693 -10.43978 -10.41981
 Alpha  occ. eigenvalues --  -10.36607 -10.36414 -10.30244 -10.29888 -10.28816
 Alpha  occ. eigenvalues --  -10.26066  -1.25524  -1.21770  -1.19424  -1.16789
 Alpha  occ. eigenvalues --   -1.10029  -1.08771  -0.97699  -0.95379  -0.92417
 Alpha  occ. eigenvalues --   -0.86356  -0.84296  -0.78869  -0.78439  -0.77860
 Alpha  occ. eigenvalues --   -0.75907  -0.73536  -0.70159  -0.69812  -0.67907
 Alpha  occ. eigenvalues --   -0.67266  -0.65065  -0.63123  -0.62595  -0.62388
 Alpha  occ. eigenvalues --   -0.60931  -0.59720  -0.58993  -0.57597  -0.56601
 Alpha  occ. eigenvalues --   -0.55829  -0.55144  -0.53015  -0.51943  -0.50829
 Alpha  occ. eigenvalues --   -0.49843  -0.49640  -0.48729  -0.46795  -0.43576
 Alpha  occ. eigenvalues --   -0.42412  -0.42194  -0.36256  -0.34694  -0.31230
 Alpha virt. eigenvalues --   -0.18312  -0.15409  -0.13892  -0.13596  -0.13146
 Alpha virt. eigenvalues --   -0.11629  -0.10387  -0.10239  -0.08913  -0.08068
 Alpha virt. eigenvalues --   -0.07771  -0.07483  -0.07015  -0.06598  -0.05850
 Alpha virt. eigenvalues --   -0.05792  -0.04656  -0.04386  -0.04233  -0.03678
 Alpha virt. eigenvalues --   -0.03164  -0.02830  -0.02432  -0.01958  -0.01785
 Alpha virt. eigenvalues --   -0.01460  -0.00908  -0.00663  -0.00220  -0.00038
 Alpha virt. eigenvalues --    0.00442   0.00602   0.01042   0.01314   0.01985
 Alpha virt. eigenvalues --    0.02222   0.02384   0.02756   0.03034   0.03357
 Alpha virt. eigenvalues --    0.03729   0.03899   0.04254   0.04487   0.04780
 Alpha virt. eigenvalues --    0.05794   0.05958   0.06402   0.06573   0.06782
 Alpha virt. eigenvalues --    0.06972   0.07367   0.07721   0.07907   0.08423
 Alpha virt. eigenvalues --    0.08926   0.09359   0.09628   0.10133   0.10353
 Alpha virt. eigenvalues --    0.10787   0.10983   0.11700   0.12187   0.12507
 Alpha virt. eigenvalues --    0.12817   0.13151   0.13621   0.13660   0.14459
 Alpha virt. eigenvalues --    0.15012   0.15240   0.15831   0.16053   0.16366
 Alpha virt. eigenvalues --    0.17088   0.17114   0.17756   0.18221   0.18510
 Alpha virt. eigenvalues --    0.18894   0.19147   0.20274   0.20361   0.20635
 Alpha virt. eigenvalues --    0.20880   0.21167   0.21461   0.21704   0.22765
 Alpha virt. eigenvalues --    0.22884   0.23308   0.23820   0.24438   0.25118
 Alpha virt. eigenvalues --    0.25727   0.26153   0.26499   0.27328   0.27552
 Alpha virt. eigenvalues --    0.28123   0.28742   0.28924   0.29572   0.30331
 Alpha virt. eigenvalues --    0.31230   0.31943   0.32261   0.33402   0.34252
 Alpha virt. eigenvalues --    0.34987   0.36407   0.37061   0.38318   0.38926
 Alpha virt. eigenvalues --    0.39305   0.40181   0.40520   0.41548   0.42557
 Alpha virt. eigenvalues --    0.43171   0.45413   0.45703   0.47448   0.48430
 Alpha virt. eigenvalues --    0.48917   0.49546   0.50228   0.51668   0.52479
 Alpha virt. eigenvalues --    0.52728   0.53378   0.53928   0.54413   0.55382
 Alpha virt. eigenvalues --    0.55726   0.56209   0.57136   0.57684   0.58530
 Alpha virt. eigenvalues --    0.59197   0.59358   0.59881   0.61307   0.62436
 Alpha virt. eigenvalues --    0.63325   0.63712   0.64251   0.65007   0.65895
 Alpha virt. eigenvalues --    0.66412   0.66938   0.67866   0.68667   0.70074
 Alpha virt. eigenvalues --    0.71382   0.73714   0.74515   0.74980   0.76659
 Alpha virt. eigenvalues --    0.77346   0.79139   0.80516   0.80544   0.81921
 Alpha virt. eigenvalues --    0.84016   0.85073   0.85380   0.86497   0.87527
 Alpha virt. eigenvalues --    0.88921   0.92068   0.92808   0.93713   0.94669
 Alpha virt. eigenvalues --    0.95416   0.97160   0.97394   0.98952   1.00197
 Alpha virt. eigenvalues --    1.01765   1.03091   1.03428   1.04812   1.05503
 Alpha virt. eigenvalues --    1.06910   1.07714   1.09298   1.10630   1.11278
 Alpha virt. eigenvalues --    1.11787   1.12888   1.13760   1.15367   1.16135
 Alpha virt. eigenvalues --    1.16621   1.17963   1.19518   1.21042   1.23777
 Alpha virt. eigenvalues --    1.24930   1.25794   1.27718   1.29640   1.30912
 Alpha virt. eigenvalues --    1.31616   1.33088   1.36225   1.37297   1.37992
 Alpha virt. eigenvalues --    1.38850   1.40799   1.41094   1.42439   1.43798
 Alpha virt. eigenvalues --    1.45283   1.46188   1.47777   1.48801   1.49613
 Alpha virt. eigenvalues --    1.51116   1.53031   1.53290   1.54024   1.55984
 Alpha virt. eigenvalues --    1.56476   1.57541   1.57797   1.59258   1.60137
 Alpha virt. eigenvalues --    1.60673   1.61369   1.62408   1.63111   1.64343
 Alpha virt. eigenvalues --    1.66528   1.67583   1.67871   1.69610   1.70550
 Alpha virt. eigenvalues --    1.71280   1.72710   1.73745   1.75992   1.76360
 Alpha virt. eigenvalues --    1.77731   1.81013   1.81119   1.83710   1.84318
 Alpha virt. eigenvalues --    1.85520   1.88469   1.90998   1.92793   1.93206
 Alpha virt. eigenvalues --    1.94386   1.96373   1.98695   2.00282   2.01791
 Alpha virt. eigenvalues --    2.03081   2.04266   2.04818   2.05866   2.08640
 Alpha virt. eigenvalues --    2.09318   2.11769   2.13700   2.16384   2.18320
 Alpha virt. eigenvalues --    2.18726   2.22382   2.22771   2.26905   2.27683
 Alpha virt. eigenvalues --    2.30350   2.30958   2.33254   2.34523   2.36389
 Alpha virt. eigenvalues --    2.39104   2.41735   2.42865   2.44089   2.45009
 Alpha virt. eigenvalues --    2.47613   2.48823   2.49489   2.50234   2.51772
 Alpha virt. eigenvalues --    2.52437   2.53112   2.54072   2.55268   2.56205
 Alpha virt. eigenvalues --    2.57314   2.58876   2.59864   2.62186   2.63964
 Alpha virt. eigenvalues --    2.65407   2.66274   2.66920   2.67690   2.70255
 Alpha virt. eigenvalues --    2.70660   2.71431   2.72918   2.74058   2.75131
 Alpha virt. eigenvalues --    2.76535   2.78507   2.79683   2.80988   2.82736
 Alpha virt. eigenvalues --    2.84220   2.84563   2.85327   2.86799   2.89357
 Alpha virt. eigenvalues --    2.89812   2.90338   2.91327   2.92357   2.93661
 Alpha virt. eigenvalues --    2.96080   2.98661   2.99160   3.03755   3.03882
 Alpha virt. eigenvalues --    3.05233   3.11788   3.14511   3.15685   3.20397
 Alpha virt. eigenvalues --    3.23337   3.24607   3.27645   3.33398   3.38075
 Alpha virt. eigenvalues --    3.44194   3.47559   3.48742   3.51926   3.55356
 Alpha virt. eigenvalues --    3.59354   3.61450   3.62665   3.65287   3.67340
 Alpha virt. eigenvalues --    3.72718   3.74630   3.77367   3.78321   3.82051
 Alpha virt. eigenvalues --    3.82872   3.87498   3.94122   3.96087   3.96637
 Alpha virt. eigenvalues --    4.08181   4.14814   4.25652   4.43897   4.47285
 Alpha virt. eigenvalues --    4.49043   4.59699   4.70721   4.72767   4.83613
 Alpha virt. eigenvalues --    4.86902   4.87718   4.93889   4.96059   5.09482
 Alpha virt. eigenvalues --    5.20072   5.23233   5.34766   5.49441   5.66073
 Alpha virt. eigenvalues --    5.73143  23.64929  23.66933  23.69764  23.70441
 Alpha virt. eigenvalues --   23.72620  23.77464  23.84641  23.89401  24.08084
 Alpha virt. eigenvalues --   35.34075  35.47559  35.48490  35.63428  49.75228
 Alpha virt. eigenvalues --   49.87311  49.89216
          Condensed to atoms (all electrons):
               1          2          3          4          5          6
     1  O    8.096853   0.334698  -0.159301   0.007889   0.004116  -0.000343
     2  C    0.334698   8.324381  -0.134416  -0.537694  -0.148111   0.024061
     3  N   -0.159301  -0.134416   7.586575  -0.568873   0.184991   0.052571
     4  C    0.007889  -0.537694  -0.568873  15.554050  -5.797868  -0.330251
     5  C    0.004116  -0.148111   0.184991  -5.797868  10.741296   0.229592
     6  O   -0.000343   0.024061   0.052571  -0.330251   0.229592   8.082829
     7  O   -0.000106   0.062530   0.024847  -0.030648   0.355961  -0.115970
     8  C   -0.094472  -0.491024   0.201491  -0.841838   0.025459  -0.022912
     9  C    0.097920   0.265129   0.157847  -1.394849   0.364101   0.099549
    10  C   -0.001680  -0.111447   0.021493   0.268033   0.068675  -0.009720
    11  N   -0.000213   0.001099  -0.000989  -0.003120  -0.000382   0.000901
    12  C    0.001009   0.002016   0.000686  -0.043466   0.087552  -0.006838
    13  N   -0.000783   0.002017  -0.010378  -0.156674   0.101293   0.025883
    14  C    0.013045  -1.278072  -0.722510  -0.266679  -0.310019  -0.001280
    15  C    0.015496  -0.072243   0.094259   0.011383  -0.010021   0.000267
    16  N   -0.051509   0.056196  -0.008110  -0.000407   0.000200  -0.000026
    17  H   -0.000821   0.004607   0.296000   0.023409   0.033861   0.004928
    18  H   -0.016900   0.036728  -0.047929   0.522168  -0.123261   0.000617
    19  H   -0.000227  -0.005025   0.004782  -0.219438   0.228001   0.223484
    20  H   -0.024125  -0.007644   0.008574  -0.059816  -0.045522  -0.002129
    21  H    0.005398   0.033060  -0.017477  -0.020590  -0.114766   0.001067
    22  H   -0.000069   0.012255  -0.001209  -0.009694  -0.005417   0.000048
    23  H   -0.000051  -0.001655   0.000593  -0.006980   0.006199   0.000139
    24  H    0.000225   0.006689  -0.006810   0.136322  -0.102974  -0.030495
    25  H    0.001029  -0.045267  -0.005816   0.021012  -0.023155  -0.000366
    26  H    0.009548  -0.113689   0.003696   0.003995   0.012129  -0.000074
    27  H    0.000319  -0.013173   0.009528   0.007163   0.003340  -0.000111
    28  H    0.000899   0.002357  -0.005011  -0.004426  -0.001296   0.000018
    29  H   -0.000303  -0.049274  -0.001439  -0.004911  -0.000271   0.000001
    30  H    0.085075   0.071359   0.015345  -0.006027   0.000079  -0.000023
    31  H    0.001502   0.025707   0.004297   0.001976  -0.000351  -0.000003
               7          8          9         10         11         12
     1  O   -0.000106  -0.094472   0.097920  -0.001680  -0.000213   0.001009
     2  C    0.062530  -0.491024   0.265129  -0.111447   0.001099   0.002016
     3  N    0.024847   0.201491   0.157847   0.021493  -0.000989   0.000686
     4  C   -0.030648  -0.841838  -1.394849   0.268033  -0.003120  -0.043466
     5  C    0.355961   0.025459   0.364101   0.068675  -0.000382   0.087552
     6  O   -0.115970  -0.022912   0.099549  -0.009720   0.000901  -0.006838
     7  O    7.956966  -0.034665   0.003014   0.002812   0.000071   0.000196
     8  C   -0.034665  11.483961  -3.019792  -1.185785  -0.035076  -0.087257
     9  C    0.003014  -3.019792  10.257237  -0.598486  -0.168642   0.042614
    10  C    0.002812  -1.185785  -0.598486   7.185527   0.535398  -0.327704
    11  N    0.000071  -0.035076  -0.168642   0.535398   6.532071   0.350383
    12  C    0.000196  -0.087257   0.042614  -0.327704   0.350383   5.378670
    13  N    0.000465  -0.323746   0.035450   0.090389   0.048915   0.145251
    14  C   -0.005844  -0.117993   0.121413  -0.033769   0.000763  -0.003291
    15  C    0.001174   0.032065   0.000493  -0.001173   0.000074   0.000415
    16  N    0.000025  -0.007508  -0.001089  -0.000115   0.000019   0.000010
    17  H    0.038192   0.000286  -0.033245   0.000531  -0.000092   0.000519
    18  H   -0.007801  -0.086812  -0.068551   0.051399  -0.000191  -0.025133
    19  H   -0.014328  -0.005458   0.002192   0.000525  -0.000294   0.002249
    20  H   -0.001484   0.444037   0.025533  -0.049267   0.000473   0.007322
    21  H    0.000670   0.537282  -0.171109  -0.023760   0.001805  -0.011044
    22  H    0.000047  -0.072679  -0.084360   0.480243  -0.076231   0.036356
    23  H   -0.000020   0.010631   0.081851  -0.026104  -0.066526   0.446906
    24  H    0.003958  -0.019464  -0.072165   0.010399   0.012599  -0.051590
    25  H   -0.002577  -0.008511   0.004836  -0.000741   0.000018  -0.000079
    26  H   -0.000116  -0.004080   0.000619   0.001821  -0.000021   0.000033
    27  H   -0.000242  -0.003820   0.001062   0.000738   0.000003   0.000097
    28  H    0.000092   0.000912  -0.000253  -0.000211   0.000004  -0.000009
    29  H    0.000009   0.000109   0.000840  -0.000409  -0.000002  -0.000010
    30  H    0.000128   0.013488  -0.006441  -0.001518  -0.000077   0.000174
    31  H   -0.000002   0.000446  -0.000699   0.000685  -0.000010  -0.000039
              13         14         15         16         17         18
     1  O   -0.000783   0.013045   0.015496  -0.051509  -0.000821  -0.016900
     2  C    0.002017  -1.278072  -0.072243   0.056196   0.004607   0.036728
     3  N   -0.010378  -0.722510   0.094259  -0.008110   0.296000  -0.047929
     4  C   -0.156674  -0.266679   0.011383  -0.000407   0.023409   0.522168
     5  C    0.101293  -0.310019  -0.010021   0.000200   0.033861  -0.123261
     6  O    0.025883  -0.001280   0.000267  -0.000026   0.004928   0.000617
     7  O    0.000465  -0.005844   0.001174   0.000025   0.038192  -0.007801
     8  C   -0.323746  -0.117993   0.032065  -0.007508   0.000286  -0.086812
     9  C    0.035450   0.121413   0.000493  -0.001089  -0.033245  -0.068551
    10  C    0.090389  -0.033769  -0.001173  -0.000115   0.000531   0.051399
    11  N    0.048915   0.000763   0.000074   0.000019  -0.000092  -0.000191
    12  C    0.145251  -0.003291   0.000415   0.000010   0.000519  -0.025133
    13  N    6.934561   0.000491   0.000497  -0.000023  -0.000877   0.012248
    14  C    0.000491   8.729519  -0.232469  -0.110687  -0.075475  -0.009090
    15  C    0.000497  -0.232469   5.983357   0.021858  -0.009899  -0.000865
    16  N   -0.000023  -0.110687   0.021858   6.424323   0.001912   0.000378
    17  H   -0.000877  -0.075475  -0.009899   0.001912   0.403372   0.006847
    18  H    0.012248  -0.009090  -0.000865   0.000378   0.006847   0.447516
    19  H   -0.002300  -0.002277  -0.000058   0.000015   0.003881   0.001755
    20  H    0.007730  -0.009972   0.002787  -0.000923   0.002315  -0.012914
    21  H    0.018669   0.016284  -0.001333   0.000227  -0.006411   0.011875
    22  H    0.019245   0.003083  -0.000097   0.000477  -0.000449   0.000546
    23  H   -0.121218  -0.000351   0.000015  -0.000005   0.000120  -0.002157
    24  H    0.363263   0.003177  -0.000022   0.000001  -0.001587   0.006160
    25  H    0.000036   0.424035   0.003979   0.007569  -0.007545   0.000109
    26  H   -0.000093   0.430824  -0.074205   0.017296   0.001741  -0.000832
    27  H   -0.000118  -0.063304   0.412071  -0.021792   0.000710  -0.000659
    28  H    0.000034  -0.033256   0.397200  -0.025630   0.000834   0.000173
    29  H   -0.000007   0.050426  -0.001331   0.352750  -0.000644  -0.000262
    30  H   -0.000025  -0.074730  -0.017618   0.257372   0.002469  -0.000372
    31  H   -0.000016  -0.024742  -0.014963   0.327189   0.000445   0.000431
              19         20         21         22         23         24
     1  O   -0.000227  -0.024125   0.005398  -0.000069  -0.000051   0.000225
     2  C   -0.005025  -0.007644   0.033060   0.012255  -0.001655   0.006689
     3  N    0.004782   0.008574  -0.017477  -0.001209   0.000593  -0.006810
     4  C   -0.219438  -0.059816  -0.020590  -0.009694  -0.006980   0.136322
     5  C    0.228001  -0.045522  -0.114766  -0.005417   0.006199  -0.102974
     6  O    0.223484  -0.002129   0.001067   0.000048   0.000139  -0.030495
     7  O   -0.014328  -0.001484   0.000670   0.000047  -0.000020   0.003958
     8  C   -0.005458   0.444037   0.537282  -0.072679   0.010631  -0.019464
     9  C    0.002192   0.025533  -0.171109  -0.084360   0.081851  -0.072165
    10  C    0.000525  -0.049267  -0.023760   0.480243  -0.026104   0.010399
    11  N   -0.000294   0.000473   0.001805  -0.076231  -0.066526   0.012599
    12  C    0.002249   0.007322  -0.011044   0.036356   0.446906  -0.051590
    13  N   -0.002300   0.007730   0.018669   0.019245  -0.121218   0.363263
    14  C   -0.002277  -0.009972   0.016284   0.003083  -0.000351   0.003177
    15  C   -0.000058   0.002787  -0.001333  -0.000097   0.000015  -0.000022
    16  N    0.000015  -0.000923   0.000227   0.000477  -0.000005   0.000001
    17  H    0.003881   0.002315  -0.006411  -0.000449   0.000120  -0.001587
    18  H    0.001755  -0.012914   0.011875   0.000546  -0.002157   0.006160
    19  H    0.439969  -0.001147  -0.002567  -0.000037   0.000337  -0.002224
    20  H   -0.001147   0.522716  -0.041178  -0.001554   0.001211  -0.000993
    21  H   -0.002567  -0.041178   0.548344   0.002407  -0.001688   0.008313
    22  H   -0.000037  -0.001554   0.002407   0.566019  -0.001394   0.002152
    23  H    0.000337   0.001211  -0.001688  -0.001394   0.519218  -0.009540
    24  H   -0.002224  -0.000993   0.008313   0.002152  -0.009540   0.380084
    25  H   -0.000393  -0.000114   0.000669   0.000070  -0.000013   0.000263
    26  H    0.000051   0.001826  -0.001043   0.000190   0.000000  -0.000081
    27  H   -0.000033   0.000057  -0.000100   0.000035   0.000004  -0.000019
    28  H    0.000006   0.000074  -0.000017  -0.000015   0.000000   0.000002
    29  H    0.000001  -0.000071   0.000046  -0.000068  -0.000001   0.000007
    30  H    0.000033   0.000263  -0.000242  -0.000971   0.000025  -0.000110
    31  H    0.000000   0.000211  -0.000029   0.000035   0.000000  -0.000005
              25         26         27         28         29         30
     1  O    0.001029   0.009548   0.000319   0.000899  -0.000303   0.085075
     2  C   -0.045267  -0.113689  -0.013173   0.002357  -0.049274   0.071359
     3  N   -0.005816   0.003696   0.009528  -0.005011  -0.001439   0.015345
     4  C    0.021012   0.003995   0.007163  -0.004426  -0.004911  -0.006027
     5  C   -0.023155   0.012129   0.003340  -0.001296  -0.000271   0.000079
     6  O   -0.000366  -0.000074  -0.000111   0.000018   0.000001  -0.000023
     7  O   -0.002577  -0.000116  -0.000242   0.000092   0.000009   0.000128
     8  C   -0.008511  -0.004080  -0.003820   0.000912   0.000109   0.013488
     9  C    0.004836   0.000619   0.001062  -0.000253   0.000840  -0.006441
    10  C   -0.000741   0.001821   0.000738  -0.000211  -0.000409  -0.001518
    11  N    0.000018  -0.000021   0.000003   0.000004  -0.000002  -0.000077
    12  C   -0.000079   0.000033   0.000097  -0.000009  -0.000010   0.000174
    13  N    0.000036  -0.000093  -0.000118   0.000034  -0.000007  -0.000025
    14  C    0.424035   0.430824  -0.063304  -0.033256   0.050426  -0.074730
    15  C    0.003979  -0.074205   0.412071   0.397200  -0.001331  -0.017618
    16  N    0.007569   0.017296  -0.021792  -0.025630   0.352750   0.257372
    17  H   -0.007545   0.001741   0.000710   0.000834  -0.000644   0.002469
    18  H    0.000109  -0.000832  -0.000659   0.000173  -0.000262  -0.000372
    19  H   -0.000393   0.000051  -0.000033   0.000006   0.000001   0.000033
    20  H   -0.000114   0.001826   0.000057   0.000074  -0.000071   0.000263
    21  H    0.000669  -0.001043  -0.000100  -0.000017   0.000046  -0.000242
    22  H    0.000070   0.000190   0.000035  -0.000015  -0.000068  -0.000971
    23  H   -0.000013   0.000000   0.000004   0.000000  -0.000001   0.000025
    24  H    0.000263  -0.000081  -0.000019   0.000002   0.000007  -0.000110
    25  H    0.468005  -0.006943  -0.006052  -0.011080   0.003198  -0.004383
    26  H   -0.006943   0.474141   0.008993  -0.004060  -0.003497  -0.006610
    27  H   -0.006052   0.008993   0.434560  -0.008405  -0.002722  -0.010153
    28  H   -0.011080  -0.004060  -0.008405   0.423164  -0.001266   0.003105
    29  H    0.003198  -0.003497  -0.002722  -0.001266   0.358934  -0.018486
    30  H   -0.004383  -0.006610  -0.010153   0.003105  -0.018486   0.351070
    31  H   -0.001155   0.001115   0.002074  -0.001403  -0.016828  -0.008301
              31
     1  O    0.001502
     2  C    0.025707
     3  N    0.004297
     4  C    0.001976
     5  C   -0.000351
     6  O   -0.000003
     7  O   -0.000002
     8  C    0.000446
     9  C   -0.000699
    10  C    0.000685
    11  N   -0.000010
    12  C   -0.000039
    13  N   -0.000016
    14  C   -0.024742
    15  C   -0.014963
    16  N    0.327189
    17  H    0.000445
    18  H    0.000431
    19  H    0.000000
    20  H    0.000211
    21  H   -0.000029
    22  H    0.000035
    23  H    0.000000
    24  H   -0.000005
    25  H   -0.001155
    26  H    0.001115
    27  H    0.002074
    28  H   -0.001403
    29  H   -0.016828
    30  H   -0.008301
    31  H    0.358141
 Mulliken charges:
               1
     1  O   -0.324120
     2  C   -0.256153
     3  N    0.022691
     4  C   -0.253149
     5  C    0.236568
     6  O   -0.225414
     7  O   -0.237354
     8  C   -0.287275
     9  C    0.057980
    10  C   -0.346780
    11  N   -0.132730
    12  C    0.054003
    13  N   -0.190180
    14  C   -0.417250
    15  C   -0.541092
    16  N   -0.239992
    17  H    0.310066
    18  H    0.304779
    19  H    0.348525
    20  H    0.233723
    21  H    0.227238
    22  H    0.131036
    23  H    0.170453
    24  H    0.364463
    25  H    0.189362
    26  H    0.247327
    27  H    0.249946
    28  H    0.267462
    29  H    0.335479
    30  H    0.356102
    31  H    0.344289
 Sum of Mulliken charges =   1.00000
 Mulliken charges with hydrogens summed into heavy atoms:
               1
     1  O   -0.324120
     2  C   -0.256153
     3  N    0.332757
     4  C    0.051630
     5  C    0.236568
     6  O    0.123110
     7  O   -0.237354
     8  C    0.173686
     9  C    0.057980
    10  C   -0.215744
    11  N   -0.132730
    12  C    0.224456
    13  N    0.174283
    14  C    0.019439
    15  C   -0.023684
    16  N    0.795877
 APT charges:
               1
     1  O   -0.594609
     2  C   -0.148012
     3  N   -0.452558
     4  C   -0.483786
     5  C   -0.016815
     6  O   -0.647989
     7  O    0.004263
     8  C   -1.109823
     9  C    0.298893
    10  C   -0.624519
    11  N   -0.132136
    12  C   -0.391547
    13  N   -0.582395
    14  C   -0.518067
    15  C   -1.178011
    16  N   -1.026530
    17  H    0.652922
    18  H    0.322316
    19  H    1.073389
    20  H    0.245575
    21  H    0.547845
    22  H    0.354740
    23  H    1.038211
    24  H    0.500339
    25  H    0.446732
    26  H    0.446313
    27  H    0.256947
    28  H    0.929421
    29  H    0.789767
    30  H   -0.006111
    31  H    1.005235
 Sum of APT charges =   1.00000
 APT charges with hydrogens summed into heavy atoms:
               1
     1  O   -0.594609
     2  C   -0.148012
     3  N    0.200363
     4  C   -0.161471
     5  C   -0.016815
     6  O    0.425400
     7  O    0.004263
     8  C   -0.316403
     9  C    0.298893
    10  C   -0.269780
    11  N   -0.132136
    12  C    0.646664
    13  N   -0.082055
    14  C    0.374978
    15  C    0.008358
    16  N    0.762361
 Electronic spatial extent (au):  <R**2>=           4698.3391
 Charge=              1.0000 electrons
 Dipole moment (field-independent basis, Debye):
    X=            -14.3932    Y=             -3.5865    Z=              1.9746  Tot=             14.9641
 Quadrupole moment (field-independent basis, Debye-Ang):
   XX=             -6.5003   YY=            -88.4971   ZZ=            -96.7049
   XY=             -6.9277   XZ=             27.8990   YZ=              5.3257
 Traceless Quadrupole moment (field-independent basis, Debye-Ang):
   XX=             57.4005   YY=            -24.5963   ZZ=            -32.8042
   XY=             -6.9277   XZ=             27.8990   YZ=              5.3257
 Octapole moment (field-independent basis, Debye-Ang**2):
  XXX=           -376.5953  YYY=            -17.3826  ZZZ=             47.6336  XYY=            -68.8636
  XXY=            -73.2931  XXZ=            -13.0028  XZZ=           -117.7575  YZZ=            -22.9646
  YYZ=             13.5018  XYZ=              9.6879
 Hexadecapole moment (field-independent basis, Debye-Ang**3):
 XXXX=          -2351.8130 YYYY=           -519.9076 ZZZZ=          -1727.1452 XXXY=           -331.6732
 XXXZ=            670.3159 YYYX=           -218.5514 YYYZ=            281.8843 ZZZX=            458.6523
 ZZZY=            373.6831 XXYY=           -710.0282 XXZZ=           -777.8313 YYZZ=           -356.7522
 XXYZ=            144.7626 YYXZ=            146.6365 ZZXY=           -143.1379
 N-N= 1.138636052356D+03 E-N=-4.122946110735D+03  KE= 7.938856008562D+02
  Exact polarizability:   0.000   0.000   0.000   0.000   0.000   0.000
 Approx polarizability: 205.032 -17.927 164.476  -9.650 -22.378 229.122
 Calling FoFJK, ICntrl=    100147 FMM=F ISym2X=0 I1Cent= 0 IOpClX= 0 NMat=1 NMatS=1 NMatT=0.
 -------------------------------------------------------------------
 Center     Atomic                   Forces (Hartrees/Bohr)
 Number     Number              X              Y              Z
 -------------------------------------------------------------------
      1        8          -0.015107257   -0.000563878   -0.015565462
      2        6           0.010958426   -0.001581737    0.017492541
      3        7          -0.008076376   -0.002582457   -0.006239850
      4        6          -0.001944894    0.000049688    0.001357066
      5        6           0.005377445   -0.001084023   -0.001702304
      6        8          -0.006718433   -0.000465044    0.002586397
      7        8          -0.003185223   -0.000318957    0.001913943
      8        6           0.005470552    0.001427541   -0.006934707
      9        6          -0.007808921    0.002170118    0.005046602
     10        6           0.001572807    0.003589126   -0.010030430
     11        7          -0.004692343    0.002806209    0.002143333
     12        6           0.001856583   -0.000643666   -0.003723292
     13        7           0.005772635   -0.004447675    0.006383769
     14        6           0.004603120    0.005390970   -0.000856318
     15        6          -0.000612586   -0.012628576    0.022881377
     16        7          -0.003300912    0.001658501   -0.006323440
     17        1          -0.000329443   -0.000460475    0.005084749
     18        1           0.002526442    0.002677083   -0.000323438
     19        1           0.004118074   -0.000435463    0.000561429
     20        1          -0.000755066   -0.000639300   -0.000012096
     21        1           0.001167284    0.000350479    0.003257325
     22        1           0.000920177   -0.000467128    0.000477922
     23        1           0.002190394   -0.000992485   -0.002303358
     24        1           0.002906073   -0.000254446   -0.000455252
     25        1          -0.004809250   -0.000597037   -0.001122217
     26        1          -0.000319066    0.001857093    0.002560029
     27        1          -0.000606922    0.001254270   -0.005775665
     28        1          -0.000982837    0.000885676   -0.003900738
     29        1          -0.002847057    0.002342212   -0.001673620
     30        1           0.015242368    0.002034958   -0.002903562
     31        1          -0.002585791   -0.000331578   -0.001900731
 -------------------------------------------------------------------
 Cartesian Forces:  Max     0.022881377 RMS     0.005473664
 FormGI is forming the generalized inverse of G from B-inverse, IUseBI=4.

 GradGradGradGradGradGradGradGradGradGradGradGradGradGradGradGradGradGrad
 Berny optimization.
 Internal  Forces:  Max     0.025037241 RMS     0.004990367
 Search for a local minimum.
 Step number   1 out of a maximum of  167
 All quantities printed in internal units (Hartrees-Bohrs-Radians)
 Mixed Optimization -- RFO/linear search
 Second derivative matrix not updated -- analytic derivatives used.
 ITU=  0
     Eigenvalues ---    0.00151   0.00225   0.00296   0.00328   0.00357
     Eigenvalues ---    0.00671   0.00783   0.00819   0.00997   0.01097
     Eigenvalues ---    0.01979   0.02001   0.02029   0.02527   0.03447
     Eigenvalues ---    0.03869   0.03964   0.04104   0.04221   0.04338
     Eigenvalues ---    0.04542   0.04711   0.04906   0.05038   0.05256
     Eigenvalues ---    0.05694   0.05971   0.06121   0.06259   0.07713
     Eigenvalues ---    0.07945   0.08211   0.10437   0.10877   0.10967
     Eigenvalues ---    0.11554   0.11694   0.12280   0.12958   0.13246
     Eigenvalues ---    0.15099   0.15591   0.15886   0.16509   0.18404
     Eigenvalues ---    0.18630   0.20425   0.21299   0.21871   0.22834
     Eigenvalues ---    0.23078   0.23681   0.24515   0.25105   0.25719
     Eigenvalues ---    0.26762   0.30492   0.31463   0.32109   0.32585
     Eigenvalues ---    0.33499   0.33579   0.33636   0.34166   0.34207
     Eigenvalues ---    0.34703   0.34862   0.35454   0.36728   0.37263
     Eigenvalues ---    0.37721   0.39427   0.40125   0.41525   0.43828
     Eigenvalues ---    0.44284   0.44794   0.45685   0.46920   0.47067
     Eigenvalues ---    0.48038   0.51168   0.52775   0.56712   0.59663
     Eigenvalues ---    0.79572   0.89098
 RFO step:  Lambda=-1.45389578D-02 EMin= 1.50537817D-03
 Linear search not attempted -- first point.
 Iteration  1 RMS(Cart)=  0.09417580 RMS(Int)=  0.00377080
 Iteration  2 RMS(Cart)=  0.00819702 RMS(Int)=  0.00032153
 Iteration  3 RMS(Cart)=  0.00005802 RMS(Int)=  0.00031971
 Iteration  4 RMS(Cart)=  0.00000005 RMS(Int)=  0.00031971
 Variable       Old X    -DE/DX   Delta X   Delta X   Delta X     New X
                                 (Linear)    (Quad)   (Total)
    R1        2.32213   0.01219   0.00000   0.03454   0.03454   2.35666
    R2        2.54369  -0.00166   0.00000  -0.03496  -0.03496   2.50872
    R3        2.87610  -0.00314   0.00000   0.00251   0.00251   2.87861
    R4        2.74472   0.00863   0.00000   0.01917   0.01917   2.76389
    R5        1.90449   0.00500   0.00000   0.01312   0.01312   1.91762
    R6        2.86114   0.00321   0.00000   0.01205   0.01205   2.87319
    R7        2.92971   0.00728   0.00000   0.01895   0.01895   2.94866
    R8        2.07104  -0.00139   0.00000  -0.00490  -0.00490   2.06614
    R9        2.55511  -0.00315   0.00000  -0.01783  -0.01783   2.53728
   R10        2.27190   0.00296   0.00000   0.00455   0.00455   2.27645
   R11        1.83167   0.00244   0.00000   0.00399   0.00399   1.83565
   R12        2.81860   0.00352   0.00000  -0.00289  -0.00289   2.81570
   R13        2.05594   0.00022   0.00000   0.00243   0.00243   2.05837
   R14        2.06102   0.00321   0.00000   0.00852   0.00852   2.06954
   R15        2.58041   0.00782   0.00000   0.01474   0.01474   2.59515
   R16        2.59035   0.01157   0.00000   0.02328   0.02330   2.61365
   R17        2.61630  -0.00417   0.00000  -0.01769  -0.01771   2.59859
   R18        2.04192  -0.00109   0.00000  -0.00230  -0.00230   2.03962
   R19        2.47704   0.00254   0.00000   0.00320   0.00319   2.48023
   R20        2.57016   0.00705   0.00000   0.01448   0.01449   2.58465
   R21        2.03170   0.00295   0.00000   0.00709   0.00709   2.03879
   R22        1.90397   0.00076   0.00000   0.00149   0.00149   1.90546
   R23        2.87632  -0.00063   0.00000   0.01559   0.01559   2.89191
   R24        2.06229  -0.00088   0.00000  -0.00152  -0.00152   2.06077
   R25        2.06639   0.00209   0.00000   0.00429   0.00429   2.07068
   R26        2.79945   0.01356   0.00000   0.04954   0.04954   2.84900
   R27        2.06342  -0.00077   0.00000  -0.00298  -0.00298   2.06044
   R28        2.06208  -0.00082   0.00000  -0.00458  -0.00458   2.05750
   R29        1.92647   0.00334   0.00000   0.00410   0.00410   1.93057
   R30        1.94599   0.01551   0.00000   0.06897   0.06897   2.01496
   R31        1.92645   0.00264   0.00000   0.00236   0.00236   1.92880
    A1        2.11235   0.01565   0.00000   0.03002   0.03001   2.14236
    A2        2.14529  -0.02504   0.00000  -0.07558  -0.07560   2.06968
    A3        2.02518   0.00941   0.00000   0.04584   0.04582   2.07100
    A4        2.08757   0.00865   0.00000   0.04515   0.04469   2.13226
    A5        2.13018  -0.00398   0.00000  -0.01427  -0.01473   2.11544
    A6        2.04224  -0.00433   0.00000  -0.01991  -0.02038   2.02186
    A7        1.86090  -0.00637   0.00000  -0.02007  -0.02006   1.84084
    A8        1.94119   0.00428   0.00000   0.02030   0.02033   1.96152
    A9        1.88102   0.00150   0.00000   0.01445   0.01456   1.89558
   A10        1.96587   0.00262   0.00000   0.00295   0.00301   1.96888
   A11        1.89543   0.00133   0.00000   0.00530   0.00532   1.90075
   A12        1.91651  -0.00344   0.00000  -0.02222  -0.02231   1.89420
   A13        1.96436   0.00230   0.00000  -0.00242  -0.00242   1.96194
   A14        2.17577  -0.00369   0.00000  -0.01459  -0.01460   2.16117
   A15        2.14302   0.00139   0.00000   0.01697   0.01697   2.15999
   A16        1.85385   0.00605   0.00000   0.03434   0.03434   1.88819
   A17        1.97288   0.00988   0.00000   0.01999   0.01999   1.99286
   A18        1.89055  -0.00411   0.00000  -0.02037  -0.02037   1.87017
   A19        1.91832  -0.00308   0.00000  -0.00809  -0.00829   1.91003
   A20        1.87115  -0.00318   0.00000  -0.00521  -0.00506   1.86609
   A21        1.94553  -0.00179   0.00000   0.00779   0.00776   1.95330
   A22        1.86051   0.00174   0.00000   0.00415   0.00402   1.86453
   A23        2.29123  -0.00497   0.00000  -0.01491  -0.01495   2.27628
   A24        2.15795   0.00708   0.00000   0.01997   0.01994   2.17789
   A25        1.83366  -0.00209   0.00000  -0.00467  -0.00470   1.82895
   A26        1.92994   0.00145   0.00000   0.00424   0.00422   1.93417
   A27        2.23391  -0.00076   0.00000  -0.00676  -0.00675   2.22716
   A28        2.11933  -0.00069   0.00000   0.00252   0.00252   2.12185
   A29        1.83395   0.00341   0.00000   0.00869   0.00865   1.84260
   A30        1.94692  -0.00005   0.00000  -0.00074  -0.00074   1.94617
   A31        2.21064  -0.00150   0.00000  -0.00952  -0.00952   2.20112
   A32        2.12563   0.00155   0.00000   0.01026   0.01027   2.13589
   A33        1.88018  -0.00270   0.00000  -0.00732  -0.00730   1.87287
   A34        2.16888   0.00378   0.00000   0.01928   0.01927   2.18815
   A35        2.23402  -0.00108   0.00000  -0.01196  -0.01197   2.22206
   A36        1.95753  -0.02268   0.00000  -0.05799  -0.05790   1.89962
   A37        1.91311   0.01293   0.00000   0.05577   0.05559   1.96869
   A38        1.87471   0.00427   0.00000   0.00361   0.00308   1.87780
   A39        1.92780   0.00339   0.00000  -0.00371  -0.00294   1.92486
   A40        1.91259   0.00642   0.00000   0.00947   0.00917   1.92175
   A41        1.87557  -0.00356   0.00000  -0.00487  -0.00526   1.87032
   A42        1.93124  -0.01376   0.00000  -0.04453  -0.04472   1.88652
   A43        1.91332   0.00697   0.00000   0.02138   0.01892   1.93224
   A44        1.91781   0.00610   0.00000   0.04482   0.04442   1.96223
   A45        1.90987  -0.00197   0.00000  -0.04676  -0.04686   1.86301
   A46        1.91745   0.00435   0.00000   0.00449   0.00535   1.92281
   A47        1.87323  -0.00126   0.00000   0.02239   0.02135   1.89459
   A48        1.94063   0.00226   0.00000   0.01516   0.01517   1.95580
   A49        1.86510  -0.00305   0.00000  -0.06418  -0.06417   1.80093
   A50        1.96579   0.00090   0.00000   0.00539   0.00533   1.97112
   A51        1.87487   0.00082   0.00000   0.02013   0.02023   1.89510
   A52        1.90529  -0.00208   0.00000  -0.01229  -0.01232   1.89296
   A53        1.90949   0.00117   0.00000   0.03673   0.03666   1.94615
    D1       -0.10094   0.00177   0.00000   0.04098   0.04124  -0.05970
    D2       -3.00586   0.00060   0.00000  -0.01168  -0.01149  -3.01735
    D3        3.06898   0.00133   0.00000   0.03153   0.03134   3.10031
    D4        0.16405   0.00016   0.00000  -0.02113  -0.02139   0.14266
    D5        0.74208  -0.00205   0.00000  -0.05629  -0.05564   0.68644
    D6        2.89009  -0.00408   0.00000  -0.06105  -0.06147   2.82863
    D7       -1.36043   0.00089   0.00000  -0.03540  -0.03516  -1.39559
    D8       -2.42843  -0.00086   0.00000  -0.04471  -0.04437  -2.47280
    D9       -0.28041  -0.00289   0.00000  -0.04946  -0.05019  -0.33061
   D10        1.75225   0.00208   0.00000  -0.02381  -0.02389   1.72836
   D11       -2.83312   0.00093   0.00000  -0.01323  -0.01324  -2.84636
   D12        1.30073  -0.00072   0.00000  -0.01603  -0.01590   1.28483
   D13       -0.80087  -0.00002   0.00000  -0.01013  -0.01025  -0.81112
   D14        0.08352   0.00197   0.00000   0.03701   0.03700   0.12052
   D15       -2.06582   0.00032   0.00000   0.03421   0.03434  -2.03147
   D16        2.11577   0.00102   0.00000   0.04011   0.03999   2.15576
   D17        3.09017  -0.00125   0.00000   0.00227   0.00228   3.09244
   D18       -0.06077  -0.00114   0.00000  -0.00223  -0.00220  -0.06296
   D19       -1.05915   0.00136   0.00000   0.01571   0.01572  -1.04343
   D20        2.07309   0.00146   0.00000   0.01121   0.01125   2.08434
   D21        1.06756  -0.00035   0.00000  -0.00678  -0.00683   1.06073
   D22       -2.08338  -0.00024   0.00000  -0.01127  -0.01130  -2.09468
   D23       -2.48974  -0.00026   0.00000  -0.00775  -0.00764  -2.49739
   D24       -0.41889  -0.00094   0.00000  -0.01561  -0.01561  -0.43450
   D25        1.60750  -0.00287   0.00000  -0.02659  -0.02645   1.58105
   D26        1.70550   0.00311   0.00000   0.00173   0.00176   1.70726
   D27       -2.50683   0.00244   0.00000  -0.00613  -0.00620  -2.51304
   D28       -0.48044   0.00051   0.00000  -0.01711  -0.01705  -0.49749
   D29       -0.40923   0.00207   0.00000   0.00865   0.00859  -0.40064
   D30        1.66162   0.00140   0.00000   0.00079   0.00062   1.66225
   D31       -2.59517  -0.00053   0.00000  -0.01020  -0.01022  -2.60539
   D32       -3.13129  -0.00064   0.00000  -0.01892  -0.01896   3.13294
   D33        0.01944  -0.00071   0.00000  -0.01433  -0.01429   0.00515
   D34        2.13140  -0.00166   0.00000  -0.04124  -0.04129   2.09011
   D35       -0.97723  -0.00245   0.00000  -0.05966  -0.05973  -1.03697
   D36        0.04933  -0.00033   0.00000  -0.02443  -0.02443   0.02490
   D37       -3.05930  -0.00112   0.00000  -0.04286  -0.04288  -3.10218
   D38       -1.98062   0.00042   0.00000  -0.03054  -0.03046  -2.01108
   D39        1.19393  -0.00037   0.00000  -0.04897  -0.04890   1.14503
   D40       -3.12715  -0.00007   0.00000  -0.00709  -0.00685  -3.13401
   D41        0.01521  -0.00023   0.00000  -0.00491  -0.00477   0.01045
   D42       -0.01398   0.00076   0.00000   0.00921   0.00923  -0.00475
   D43        3.12839   0.00060   0.00000   0.01139   0.01132   3.13971
   D44        3.13134  -0.00044   0.00000   0.00267   0.00288   3.13423
   D45        0.00467  -0.00024   0.00000   0.00273   0.00288   0.00755
   D46        0.01540  -0.00095   0.00000  -0.01136  -0.01133   0.00406
   D47       -3.11128  -0.00076   0.00000  -0.01130  -0.01134  -3.12261
   D48        0.00699  -0.00028   0.00000  -0.00343  -0.00344   0.00355
   D49       -3.13532  -0.00014   0.00000  -0.00545  -0.00538  -3.14070
   D50        0.00315  -0.00030   0.00000  -0.00393  -0.00399  -0.00084
   D51       -3.13628   0.00007   0.00000  -0.00334  -0.00335  -3.13963
   D52       -0.01199   0.00080   0.00000   0.00987   0.00990  -0.00209
   D53        3.11396   0.00065   0.00000   0.01016   0.01025   3.12421
   D54        3.12757   0.00044   0.00000   0.00929   0.00926   3.13682
   D55       -0.02967   0.00029   0.00000   0.00958   0.00961  -0.02006
   D56       -1.06719   0.00675   0.00000   0.08346   0.08353  -0.98365
   D57        1.04085   0.00004   0.00000   0.01068   0.01022   1.05108
   D58        3.09553   0.00627   0.00000   0.07726   0.07789  -3.10977
   D59        3.07629   0.00359   0.00000   0.05506   0.05490   3.13119
   D60       -1.09886  -0.00313   0.00000  -0.01773  -0.01841  -1.11727
   D61        0.95582   0.00311   0.00000   0.04886   0.04926   1.00507
   D62        1.01322   0.00197   0.00000   0.05746   0.05751   1.07073
   D63        3.12126  -0.00475   0.00000  -0.01533  -0.01580   3.10546
   D64       -1.10725   0.00149   0.00000   0.05126   0.05187  -1.05538
   D65       -1.24344  -0.00119   0.00000  -0.03315  -0.03256  -1.27600
   D66        0.79754  -0.00079   0.00000  -0.03866  -0.03815   0.75939
   D67        2.89484  -0.00081   0.00000  -0.03236  -0.03179   2.86305
   D68        2.92966   0.00018   0.00000  -0.00100  -0.00162   2.92804
   D69       -1.31255   0.00058   0.00000  -0.00650  -0.00721  -1.31976
   D70        0.78475   0.00056   0.00000  -0.00020  -0.00085   0.78390
   D71        0.87724   0.00033   0.00000  -0.00315  -0.00301   0.87423
   D72        2.91822   0.00073   0.00000  -0.00865  -0.00860   2.90963
   D73       -1.26767   0.00070   0.00000  -0.00235  -0.00224  -1.26991
         Item               Value     Threshold  Converged?
 Maximum Force            0.025037     0.000450     NO 
 RMS     Force            0.004990     0.000300     NO 
 Maximum Displacement     0.460419     0.001800     NO 
 RMS     Displacement     0.099186     0.001200     NO 
 Predicted change in Energy=-8.101280D-03
 GradGradGradGradGradGradGradGradGradGradGradGradGradGradGradGradGradGrad

                          Input orientation:                          
 ---------------------------------------------------------------------
 Center     Atomic      Atomic             Coordinates (Angstroms)
 Number     Number       Type             X           Y           Z
 ---------------------------------------------------------------------
      1          8           0       -1.396015    0.052103   -0.807294
      2          6           0       -1.525499   -0.112727    0.422058
      3          7           0       -0.491175   -0.282960    1.236681
      4          6           0        0.883416   -0.363576    0.743569
      5          6           0        1.687425   -0.972485    1.881328
      6          8           0        2.974480   -1.166742    1.551909
      7          8           0        1.225780   -1.237043    2.962098
      8          6           0        1.433930    1.023792    0.288722
      9          6           0        2.317193    0.966827   -0.909910
     10          6           0        2.184846    1.557864   -2.142426
     11          7           0        3.239171    1.224733   -2.959966
     12          6           0        4.006013    0.437189   -2.242793
     13          7           0        3.493915    0.244370   -0.989282
     14          6           0       -2.928066   -0.094497    1.016111
     15          6           0       -3.878875   -0.819136    0.060715
     16          7           0       -3.789025   -0.149014   -1.286800
     17          1           0       -0.625235   -0.521056    2.213959
     18          1           0        0.907948   -1.044452   -0.111549
     19          1           0        3.429927   -1.547999    2.320545
     20          1           0        0.575203    1.638000    0.020792
     21          1           0        1.924473    1.516437    1.134909
     22          1           0        1.389898    2.204830   -2.480701
     23          1           0        4.930199   -0.016450   -2.565401
     24          1           0        3.879820   -0.325476   -0.252346
     25          1           0       -2.972706   -0.545301    2.008079
     26          1           0       -3.228583    0.953757    1.123536
     27          1           0       -3.567308   -1.854236   -0.081855
     28          1           0       -4.908329   -0.812929    0.415163
     29          1           0       -4.248854    0.763244   -1.293061
     30          1           0       -2.740857   -0.002060   -1.415949
     31          1           0       -4.183092   -0.714723   -2.039443
 ---------------------------------------------------------------------
                    Distance matrix (angstroms):
                    1          2          3          4          5
     1  O    0.000000
     2  C    1.247093   0.000000
     3  N    2.260273   1.327559   0.000000
     4  C    2.788148   2.443187   1.462586   0.000000
     5  C    4.217352   3.632014   2.374302   1.520426   0.000000
     6  O    5.113966   4.757869   3.590432   2.381394   1.342670
     7  O    4.769069   3.909658   2.614436   2.408740   1.204646
     8  C    3.186537   3.172959   2.512420   1.560366   2.566276
     9  C    3.825593   4.207833   3.749233   2.561188   3.456667
    10  C    4.107610   4.809794   4.687012   3.703326   4.779194
    11  N    5.243472   5.994077   5.813816   4.667813   5.538393
    12  C    5.602754   6.164533   5.731496   4.394337   4.936741
    13  N    4.897091   5.226272   4.594989   3.191720   3.603408
    14  C    2.386101   1.523294   2.454100   3.830676   4.777260
    15  C    2.770757   2.483539   3.625864   4.832519   5.858484
    16  N    2.448852   2.836383   4.154722   5.099033   6.380176
    17  H    3.170264   2.046488   1.014758   2.112551   2.379670
    18  H    2.644756   2.659795   2.086897   1.093353   2.141103
    19  H    5.969372   5.497317   4.260296   3.220936   1.886913
    20  H    2.662047   2.763875   2.511102   2.150281   3.393120
    21  H    4.116074   3.881319   3.013891   2.184352   2.609227
    22  H    3.898184   4.721930   4.852469   4.153210   5.404734
    23  H    6.566325   7.114086   6.627077   5.238915   5.585963
    24  H    5.318361   5.451381   4.617857   3.157806   3.126945
    25  H    3.281641   2.190203   2.611872   4.062226   4.681385
    26  H    2.810586   2.128369   3.005939   4.334544   5.334021
    27  H    2.979077   2.730525   3.697302   4.765746   5.678361
    28  H    3.818250   3.454544   4.524048   5.818425   6.758629
    29  H    2.979997   3.335509   4.649117   5.635404   6.951899
    30  H    1.477158   2.206267   3.489472   4.234331   5.605661
    31  H    3.142295   3.672083   4.954761   5.791197   7.064124
                    6          7          8          9         10
     6  O    0.000000
     7  O    2.247560   0.000000
     8  C    2.960975   3.507369   0.000000
     9  C    3.323356   4.587011   1.490006   0.000000
    10  C    4.657801   5.898091   2.599921   1.373294   0.000000
[...]
 ,-0.00000082,-0.00000556,0.00002165,0.00003304,-0.00001861,0.00000986,
 0.00497275,0.11494545,-0.25002504,0.00062687,0.00946573,-0.01640680,-0
 .00259209,-0.00233494,-0.00137647,0.00027950,0.00036666,0.00112057,-0.
 00000113,0.00005432,0.00002663,0.00000669,0.00000434,0.00000707,-0.000
 00082,-0.00001123,-0.00000722,-0.00000483,-0.00002056,0.00000831,-0.00
 000020,-0.00001217,0.00000257,0.00000106,0.00000017,0.00000142,0.00000
 851,0.00000432,-0.00000515,-0.00375072,-0.12394355,0.27074273,-0.00022
 508,-0.00358307,0.00047356,-0.00744177,0.03227276,0.00410693,-0.001935
 39,-0.00194157,0.00046483,-0.00021925,-0.00170376,-0.00029515,0.000231
 59,-0.00021628,0.00024582,-0.00017842,0.00007936,-0.00005297,-0.000118
 96,0.00002929,-0.00015852,-0.00038832,0.00037321,-0.00011494,-0.000031
 52,-0.00014805,0.00001626,-0.00001834,0.00000197,-0.00005878,-0.000055
 92,0.00002378,0.00004429,-0.00000278,-0.00000619,0.00004840,0.00004544
 ,-0.00003821,0.00000191,-0.05974753,0.05844684,0.01159577,0.00484447,-
 0.02658437,-0.00486590,0.00112884,0.00078591,0.00135419,-0.00011085,0.
 00093093,0.00044519,0.00012856,0.00001186,-0.00001919,0.00001237,0.000
 00642,0.00001883,-0.00001997,0.00008719,0.00006739,-0.00009034,-0.0000
 8665,0.00000713,0.00000257,0.00000866,-0.00000142,0.00000185,0.0000039
 5,0.00000105,0.00002164,0.00000958,-0.00000595,-0.00004615,-0.00069258
 ,-0.00022685,0.06656078,-0.00015274,0.00012185,0.00067127,0.00280105,0
 .00005874,-0.00000756,-0.00023571,0.00048698,-0.00071865,0.00017302,0.
 00006257,0.00003350,0.00005639,-0.00004059,0.00000824,-0.00002510,0.00
 000932,0.00000104,-0.00002278,0.00003883,-0.00001093,0.00000413,0.0000
 0140,-0.00004702,0.00001985,-0.00001126,0.00001412,0.00000240,-0.00000
 471,-0.00000114,-0.00000389,-0.00000285,0.00000387,-0.00000267,0.00000
 169,-0.00000147,0.00000322,0.00001076,-0.00000367,0.05240338,-0.281420
 46,-0.04516070,0.00109873,-0.01267278,-0.00192491,0.00020741,0.0014372
 7,0.00020638,-0.00006507,-0.00032059,-0.00011315,-0.00005935,-0.000017
 47,0.00000996,0.00000512,-0.00000653,0.00000082,0.00003441,-0.00001834
 ,0.00001452,0.00001215,-0.00000299,0.00000233,0.00000243,0.00000879,-0
 .00000275,-0.00000101,-0.00000112,-0.00000109,0.00000309,0.00000025,-0
 .00000016,0.00340783,-0.01468505,-0.00295573,-0.05736140,0.30578854,0.
 00068307,0.00267512,-0.00061572,0.00405601,-0.01406631,-0.00356905,-0.
 00079706,0.00025407,-0.00027172,0.00021085,0.00008012,0.00001451,0.000
 06927,0.00002404,0.00009941,-0.00004656,0.00001157,-0.00002649,-0.0000
 3749,-0.00002288,-0.00006552,0.00002806,0.00003467,0.00003807,-0.00001
 092,-0.00001762,0.00000127,0.00000995,-0.00000661,-0.00000530,-0.00001
 875,0.00001097,0.00000616,-0.00000666,0.00000026,0.00000872,-0.0000054
 8,-0.00000011,-0.00000063,0.01087138,-0.04614218,-0.05475398,0.0029178
 3,-0.02136430,-0.00598504,0.00073354,-0.00040054,0.00153685,-0.0000046
 9,0.00036161,0.00023207,-0.00007343,0.00002673,-0.00001787,0.00000505,
 -0.00000312,0.00000784,0.00002760,-0.00000958,-0.00000807,-0.00000927,
 -0.00000337,-0.00000397,0.00000102,-0.00000363,-0.00000321,-0.00000058
 ,0.00000023,0.00000039,0.00000692,0.00000141,0.00000340,-0.00646408,0.
 02711099,0.00655413,-0.01002745,0.05201724,0.05833067,-0.00019873,0.00
 052695,0.00060573,0.00151957,-0.00139704,-0.00061708,0.00006902,0.0004
 0633,-0.00001431,-0.00005346,-0.00002187,0.00001530,-0.00010576,0.0000
 3510,-0.00007447,0.00007934,-0.00001604,0.00002102,0.00005271,-0.00000
 120,0.00004955,-0.00000349,-0.00004100,0.00001819,0.00000657,0.0000288
 7,0.00000081,0.00000207,0.00000646,0.00001966,0.00001726,0.00000198,-0
 .00001517,0.00000235,-0.00000618,-0.00000245,-0.00000539,0.00001388,-0
 .00000768,0.00359240,-0.02392818,-0.00436346,-0.06276864,0.05181470,0.
 01030654,0.00013994,-0.00196340,-0.00060637,0.00002156,-0.00009213,-0.
 00008636,-0.00002910,-0.00001671,0.00001465,-0.00001496,-0.00000089,-0
 .00001021,0.00000103,-0.00002107,-0.00001234,0.00001889,0.00000777,0.0
 0000007,-0.00000194,-0.00001212,0.00000316,-0.00000111,-0.00000184,0.0
 0000002,-0.00001301,-0.00000774,0.00000127,0.00093241,0.00063276,0.000
 54495,-0.00311327,-0.00183779,-0.00285351,0.06210434,-0.00032650,0.000
 50230,0.00072579,0.00045839,0.00017185,-0.00099108,-0.00010785,0.00000
 761,0.00014889,-0.00002479,-0.00005037,-0.00000244,-0.00003510,0.00001
 863,-0.00003079,0.00002368,-0.00000785,0.00000791,0.00001679,-0.000006
 61,0.00002154,-0.00001366,-0.00000792,0.00001023,-0.00000185,0.0000080
 7,-0.00000241,0.00000353,0.00000366,0.00000643,0.00000445,0.00000253,-
 0.00000248,0.00000110,-0.00000177,-0.00000117,-0.00000072,0.00000243,-
 0.00000122,0.00043865,-0.00978879,-0.00366971,0.04949859,-0.30188632,-
 0.04130891,0.00297986,-0.01487424,0.00189616,0.00002760,-0.00004096,-0
 .00001988,-0.00000742,-0.00000059,0.00000890,-0.00000350,0.00000172,-0
 .00000281,-0.00000165,-0.00000752,-0.00000459,0.00000505,-0.00000026,0
 .00000074,-0.00000079,-0.00000679,0.00000069,-0.00000035,-0.00000068,-
 0.00000006,-0.00000387,-0.00000186,-0.00000043,-0.00006267,0.00046231,
 -0.00018406,-0.00129806,0.00089973,-0.00116696,-0.05242572,0.32493477,
 0.00039065,-0.00025140,0.00102231,0.00159199,0.00044530,-0.00065100,-0
 .00036130,0.00023663,0.00006502,0.00005806,-0.00005862,-0.00005425,0.0
 0003234,-0.00005535,0.00008178,-0.00003723,0.00001975,-0.00002327,-0.0
 0001591,0.00005880,-0.00004312,-0.00001575,0.00000672,-0.00000342,0.00
 000273,-0.00000594,-0.00000730,-0.00000771,0.00000529,-0.00001514,-0.0
 0001228,0.00000010,0.00001268,-0.00000422,0.00000233,0.00000808,0.0000
 0887,-0.00000450,0.00000982,0.00283489,-0.02066639,-0.00380368,0.01265
 535,-0.05310415,-0.05801287,-0.00762640,0.03960262,-0.00342769,0.00004
 402,-0.00014070,0.00005352,-0.00001688,-0.00000349,0.00001577,0.000000
 29,-0.00000947,0.00000382,0.00000230,0.00001157,-0.00001940,0.00000272
 ,-0.00000608,0.00000481,-0.00000207,0.00000233,-0.00000387,0.00000001,
 -0.00000057,0.00000088,0.00000545,-0.00000197,0.00000003,0.00034690,0.
 00008512,0.00042797,-0.00377054,-0.00110439,-0.00174177,-0.00670413,0.
 04360485,0.07025420,0.00086985,0.00004076,0.00062681,-0.00004097,-0.00
 152269,-0.00438921,-0.00132049,-0.00000479,0.00072821,0.00011075,0.000
 19539,-0.00027971,0.00005345,-0.00007631,0.00020809,-0.00012849,0.0000
 4891,-0.00006625,-0.00005517,0.00004542,-0.00008235,0.00002468,0.00005
 445,-0.00001886,-0.00000220,-0.00002169,-0.00000872,-0.00000637,0.0000
 0029,-0.00002176,-0.00002230,0.00000454,0.00002502,-0.00000765,0.00000
 295,0.00000687,0.00001483,-0.00001368,0.00001497,-0.01818255,0.0023246
 3,0.00679083,-0.28622492,0.02919150,0.09530387,0.00574704,-0.00011410,
 -0.00176627,0.00004511,-0.00008407,0.00014637,-0.00005587,0.00000402,-
 0.00000422,0.00000129,-0.00000885,0.00001031,0.00000913,0.00001365,-0.
 00000352,-0.00000971,-0.00001014,0.00000450,0.00000077,0.00000432,-0.0
 0000430,0.00000014,0.00000006,0.00000086,0.00001411,0.00000527,-0.0000
 0452,0.00020258,0.00025900,-0.00018934,0.00102445,-0.00019074,0.000491
 46,-0.00349657,0.00064173,0.00113827,0.30140432,0.00021122,0.00021524,
 -0.00004904,-0.00147329,-0.00039137,-0.00322725,-0.00104067,0.00016442
 ,0.00036612,0.00000563,0.00008830,-0.00019648,-0.00002872,-0.00002241,
 0.00007507,-0.00003914,0.00001769,-0.00002853,-0.00000959,0.00001177,-
 0.00001967,0.00000483,0.00000931,0.00000728,0.00000241,-0.00000517,-0.
 00000210,-0.00000141,-0.00000373,-0.00000034,-0.00000297,0.00000070,0.
 00000303,-0.00000112,0.00000032,0.00000184,0.00000172,-0.00000102,-0.0
 0000010,-0.01392465,0.00110926,0.00494384,0.03487537,-0.05633768,-0.01
 509344,-0.01843738,-0.00086065,0.01253962,0.00001509,-0.00004001,0.000
 02564,-0.00003068,-0.00000773,0.00000873,-0.00000678,0.00000042,0.0000
 0083,-0.00000087,0.00000344,0.00000151,-0.00000460,0.00000128,-0.00000
 139,0.00000208,0.00000238,0.00000086,-0.00000035,-0.00000013,0.0000004
 3,0.00000122,0.00000160,-0.00000170,0.00057964,0.00044696,0.00012779,0
 .00013382,0.00048368,0.00092664,0.02870979,-0.00090508,-0.01186955,-0.
 03046247,0.05607956,0.00096960,-0.00018756,0.00237590,-0.00094151,-0.0
 0226400,-0.00549970,-0.00153657,0.00013847,0.00113453,0.00002143,0.000
 26782,-0.00034115,0.00005328,-0.00008197,0.00022938,-0.00015732,0.0000
 5521,-0.00007598,-0.00006418,0.00004454,-0.00007807,0.00003335,0.00007
 080,-0.00003141,-0.00000679,-0.00001863,-0.00001603,-0.00001594,0.0000
 0862,-0.00002925,-0.00002129,0.00000576,0.00003496,-0.00000839,0.00000
 231,0.00000692,0.00002652,-0.00002129,0.00002511,-0.02051088,0.0021595
 9,0.01035193,0.08683033,-0.01056382,-0.08532177,0.03113514,0.00086935,
 -0.01932140,0.00005908,-0.00011518,0.00016337,-0.00006695,0.00000704,-
 0.00000720,-0.00000183,-0.00000785,0.00000956,0.00000744,0.00001069,-0
 .00001066,-0.00000844,-0.00001339,0.00000782,-0.00000153,-0.00000200,-
 0.00000424,0.00000035,-0.00000071,0.00000157,0.00001593,0.00000712,-0.
 00000818,0.00045103,0.00044847,0.00046908,0.00072268,0.00015896,0.0007
 7021,0.00420372,-0.00111392,-0.00059989,-0.09847080,0.00901324,0.09937
 567,-0.00257045,-0.00254715,-0.00132132,-0.00089891,0.00014919,0.00000
 366,0.00024910,0.00015910,-0.00000876,-0.00008456,0.00002147,0.0000707
 2,-0.00012347,0.00006351,-0.00010330,0.00009784,-0.00003614,0.00002988
 ,0.00005480,-0.00003733,0.00006238,-0.00001556,-0.00000042,-0.00002282
 ,-0.00001368,0.00001526,-0.00000303,-0.00005713,0.00003493,-0.00000254
 ,0.00005137,-0.00001491,-0.00000941,0.00001796,-0.00000913,-0.00000479
 ,0.00003221,-0.00001118,0.00000499,-0.00053200,0.00064956,-0.00002440,
 0.00197821,-0.00647735,-0.00096750,-0.11499325,0.13717283,0.00103301,-
 0.00004630,0.00012169,-0.00006707,0.00000644,-0.00000401,-0.00001858,-
 0.00001850,0.00001146,-0.00001178,-0.00001254,-0.00001564,-0.00000477,
 0.00000998,0.00000267,0.00000275,-0.00001072,-0.00001687,0.00001937,0.
 00000225,-0.00000147,0.00000216,-0.00001486,0.00000198,-0.00000683,0.0
 0006952,-0.00021116,-0.00005013,0.00023057,-0.00014392,-0.00040413,0.0
 0035107,-0.00080498,0.00171715,0.00037899,-0.00089715,0.00029514,0.111
 35331,-0.00207196,-0.00047161,-0.00163345,0.00038722,-0.00022958,0.001
 07334,-0.00055692,0.00009720,-0.00054245,0.00021222,0.00002176,-0.0000
 7225,0.00015512,-0.00005777,0.00004571,-0.00014201,0.00002503,-0.00001
 763,-0.00010947,0.00002225,-0.00002578,-0.00000077,0.00007975,-0.00003
 110,-0.00001151,-0.00004076,-0.00000604,-0.00004346,0.00000273,-0.0000
 4301,-0.00001609,-0.00001711,0.00003099,-0.00000229,0.00000613,0.00000
 588,0.00003258,-0.00002956,0.00002572,0.00022244,0.00157009,0.00011065
 ,0.00424913,-0.01249586,0.00189000,0.12668813,-0.35184349,-0.01412823,
 -0.00001209,0.00004388,0.00010679,-0.00001432,-0.00000177,0.00000241,0
 .00001574,0.00000059,0.00001020,0.00000968,0.00004232,0.00000127,-0.00
 001803,-0.00000901,0.00000196,0.00000298,0.00002575,0.00000359,0.00000
 293,0.00000287,0.00000206,0.00001844,0.00001616,-0.00000871,-0.0001459
 3,-0.00016815,-0.00024493,0.00028706,-0.00013626,0.00011325,-0.0004786
 9,0.00081750,0.00251989,-0.00062916,0.00107986,-0.00090490,-0.14073927
 ,0.37193490,0.00049088,0.00036745,0.00008457,-0.00065448,0.00015285,0.
 00014273,0.00036226,-0.00007759,0.00007262,-0.00011882,0.00005100,0.00
 006449,-0.00013740,0.00005127,-0.00000731,0.00012122,-0.00002667,0.000
 00466,0.00008457,-0.00003015,-0.00000546,-0.00001045,-0.00003668,0.000
 02167,0.00000704,0.00001095,0.00002612,0.00003275,-0.00002005,0.000041
 41,0.00001243,0.00000234,-0.00004902,0.00001547,-0.00000716,0.00000120
 ,-0.00003977,0.00002920,-0.00004934,0.00021850,0.00065963,0.00091552,-
 0.01357887,0.03101794,0.00405041,-0.00117586,-0.01073641,-0.05991739,-
 0.00003419,0.00000874,-0.00007302,0.00001066,-0.00000162,-0.00000370,-
 0.00001371,0.00000783,-0.00000352,-0.00000334,-0.00002034,0.00002559,0
 .00000457,0.00001016,-0.00001375,0.00000507,-0.00000077,0.00001369,-0.
 00000128,0.00000126,-0.00000164,-0.00001465,-0.00000487,0.00001265,0.0
 0026599,-0.00044459,-0.00001289,-0.00030642,-0.00090205,-0.00056559,0.
 00024286,0.00202240,-0.00600219,0.00048777,-0.00027852,0.00144688,-0.0
 0166769,0.01052690,0.05981285,0.00516464,-0.00395765,0.04009006,0.0110
 6153,0.00360353,-0.04482830,0.00552131,-0.00169956,0.01722437,-0.00335
 546,0.00039623,0.00068127,-0.00234983,0.00132239,-0.00130201,0.0017477
 2,-0.00054329,0.00036784,0.00140870,-0.00084287,0.00114977,-0.00021795
 ,-0.00057333,0.00013156,-0.00011977,0.00045415,0.00009064,0.00000628,0
 .00010813,0.00040748,0.00044651,-0.00002761,-0.00040512,0.00022664,-0.
 00012901,-0.00009877,-0.00011679,0.00016817,-0.00025145,-0.00089242,0.
 00195960,0.00215317,0.00217309,-0.00802184,0.01866354,-0.21265734,-0.0
 1127180,0.03664849,0.00177003,-0.00003391,-0.00093054,-0.00014342,0.00
 021245,-0.00021343,-0.00023237,0.00014077,-0.00014372,-0.00016244,-0.0
 0071470,-0.00003739,0.00029554,0.00004933,0.00000101,-0.00003371,-0.00
 025771,0.00016336,0.00000216,-0.00001096,-0.00000355,-0.00023345,-0.00
 004604,0.00003080,-0.00298653,-0.00073355,0.00003468,-0.00055226,-0.00
 015264,0.00077341,0.00030000,0.00070075,-0.00177396,-0.00034445,0.0015
 0332,-0.00405030,-0.00431458,0.00331925,0.00094981,0.20196382,-0.00123
 638,-0.01405245,-0.00098969,0.00088706,-0.00056443,0.00150258,0.000107
 03,0.00128107,0.00015330,-0.00003606,-0.00004703,0.00013894,0.00003605
 ,0.00003059,-0.00003406,-0.00004487,-0.00001231,0.00000800,-0.00006169
 ,-0.00006088,0.00001925,0.00001461,0.00004918,-0.00007825,-0.00001725,
 -0.00002773,0.00000221,-0.00011987,0.00005508,-0.00006837,0.00003918,-
 0.00003933,0.00002086,0.00002217,-0.00000593,0.00000424,0.00006378,-0.
 00005094,0.00003034,0.00036986,0.00026887,-0.00083218,-0.01497861,-0.0
 0036011,0.00684097,-0.01665385,-0.06779873,-0.00211934,0.00005702,0.00
 092414,0.00017774,-0.00007585,0.00000916,-0.00010052,0.00000785,0.0000
 0978,0.00000575,-0.00000656,0.00002639,-0.00003210,-0.00000138,-0.0000
 0183,0.00000827,-0.00002513,-0.00000304,0.00003366,0.00000700,0.000002
 44,0.00000511,0.00001135,0.00002278,-0.00001105,-0.00021197,-0.0003542
 2,-0.00013821,0.00023439,-0.00020161,-0.00045165,-0.00052126,-0.000523
 03,0.00002416,0.00050628,-0.00104158,0.00198035,0.03242823,0.00593004,
 -0.00735064,0.01705011,0.07781803,0.01499847,-0.00138413,-0.00184910,-
 0.00867894,0.00168350,-0.01723252,0.00252582,-0.00012992,0.00253309,-0
 .00082368,0.00005322,0.00026844,-0.00079144,0.00045267,-0.00032428,0.0
 0062441,-0.00017456,0.00009542,0.00042662,-0.00023302,0.00026350,-0.00
 011621,-0.00020228,0.00010374,-0.00001899,0.00009011,0.00011675,0.0000
 9010,-0.00007876,0.00018167,0.00010428,-0.00002556,-0.00021665,0.00008
 834,-0.00003352,-0.00002729,-0.00015346,0.00012604,-0.00018145,-0.0000
 5583,-0.00027110,-0.00036552,0.03118544,0.00433815,-0.01181950,0.04908
 538,-0.00231085,-0.06590282,0.00001987,0.00008891,-0.00028106,-0.00007
 820,0.00010583,-0.00001346,-0.00006673,0.00003368,-0.00003842,-0.00004
 478,-0.00025226,0.00003033,0.00010359,0.00002476,-0.00003308,0.0000242
 8,0.00001760,0.00006277,-0.00000209,0.00000490,-0.00000751,-0.00007746
 ,-0.00001726,0.00004739,-0.00019618,-0.00002948,0.00054945,-0.00009024
 ,-0.00026069,-0.00017707,-0.00024659,-0.00003009,0.00044624,-0.0010983
 2,0.00327088,-0.00499321,0.00062856,0.00061055,-0.00115525,-0.06272713
 ,-0.00540537,0.09275901,-0.00459713,0.00170928,-0.00072027,-0.00035359
 ,-0.00004681,0.00145849,0.00007745,-0.00005121,-0.00008881,-0.00002207
 ,-0.00000188,0.00000912,-0.00003260,0.00001006,-0.00006594,0.00003150,
 -0.00000909,0.00001995,0.00001512,-0.00000218,0.00003515,0.00000738,-0
 .00000737,-0.00000697,-0.00000385,0.00002380,-0.00002484,-0.00001784,0
 .00002950,0.00000070,0.00002407,0.00000879,0.00001696,-0.00000666,-0.0
 0000180,-0.00000496,0.00003067,-0.00001185,0.00002403,0.00045706,-0.00
 042079,0.00081486,0.00153668,0.00421841,0.00267079,-0.13133161,-0.0906
 6938,-0.12089643,0.00002513,-0.00003375,-0.00011882,0.00000356,-0.0000
 1845,-0.00001149,-0.00001245,0.00000370,-0.00000906,-0.00000266,0.0000
 0330,-0.00000680,-0.00000162,0.00000323,0.00000565,-0.00000677,-0.0000
 2862,-0.00000416,-0.00000056,-0.00000388,0.00000153,-0.00000950,-0.000
 00466,-0.00001063,0.00014598,-0.00004277,0.00025495,0.00006299,0.00002
 022,-0.00012535,0.00059488,0.00031930,-0.00048362,-0.00000378,0.000315
 68,0.00103770,0.00882289,0.00938910,0.01444508,-0.00337520,-0.01785124
 ,-0.02463888,0.12794252,0.00099495,0.00000385,-0.00002665,-0.00082929,
 0.00005849,0.00022435,0.00027871,-0.00008987,0.00002895,-0.00010133,0.
 00000207,0.00005375,-0.00009995,0.00005419,-0.00003061,0.00009350,-0.0
 0003877,0.00000774,0.00006650,-0.00003626,0.00001104,-0.00000426,-0.00
 001550,-0.00000394,-0.00000182,0.00001402,0.00000282,-0.00002699,0.000
 00908,0.00000471,0.00002570,-0.00001870,-0.00001425,0.00001134,-0.0000
 0219,-0.00000572,0.00000520,-0.00000843,-0.00000093,-0.00057612,-0.002
 32021,0.00360177,0.01047938,0.01240696,0.01104327,-0.08370936,-0.16432
 081,-0.13542105,-0.00008379,0.00003837,-0.00005891,0.00003924,0.000014
 49,-0.00000151,-0.00000760,0.00001572,-0.00000171,0.00000002,-0.000016
 70,0.00000488,0.00000343,0.00000173,-0.00000322,-0.00000228,-0.0000021
 9,0.00000353,0.00000316,0.00000267,0.00000115,-0.00000653,0.00000640,0
 .00000318,0.00079726,0.00064160,0.00080699,-0.00006676,0.00013217,0.00
 000992,0.00060627,0.00027754,0.00065712,-0.00020446,-0.00009963,0.0000
 4689,-0.01886380,-0.01621786,-0.02498182,-0.00197173,-0.00128237,-0.00
 006194,0.09315136,0.17079014,0.00305635,-0.00088524,0.00195837,-0.0000
 0165,0.00030106,-0.00188893,0.00047475,-0.00004155,0.00067394,-0.00019
 966,0.00000879,0.00008768,-0.00019640,0.00007738,-0.00004781,0.0001610
 7,-0.00004245,0.00001355,0.00011459,-0.00004001,0.00003185,-0.00003862
 ,-0.00003799,0.00002760,-0.00000195,0.00001333,0.00002470,0.00000058,-
 0.00000866,0.00003877,0.00002888,-0.00001298,-0.00006213,0.00002978,-0
 .00001567,0.00000674,-0.00003119,0.00002829,-0.00005341,0.00172826,0.0
 0409155,-0.00442153,-0.01403028,-0.01567718,-0.01844549,-0.11467239,-0
 .13796202,-0.23327719,0.00008865,0.00001964,-0.00006081,-0.00000619,0.
 00000201,-0.00000185,-0.00001957,0.00000996,-0.00000665,-0.00000765,-0
 .00003798,0.00000909,0.00001685,0.00000710,-0.00001076,0.00000085,0.00
 000275,0.00002542,0.00000063,0.00000217,0.00000011,-0.00001860,-0.0000
 0349,0.00001353,-0.00130333,-0.00073915,-0.00046986,0.00038008,0.00007
 379,0.00020730,-0.00043337,0.00007850,0.00200193,0.00042394,-0.0005452
 3,-0.00006473,0.00082911,0.00057735,0.00112304,-0.00279559,0.00665571,
 0.00716039,0.12642208,0.14410021,0.24540714\\-0.00000834,-0.00000282,0
 .00000173,0.00001262,0.00000309,0.00000045,-0.00001056,0.00000685,-0.0
 0000016,-0.00000557,-0.00000243,-0.00000217,-0.00000811,0.00000146,-0.
 00000002,0.00000194,-0.00000653,0.00000877,0.00000160,-0.00000045,-0.0
 0000069,0.00000698,0.00000033,-0.00000127,-0.00000667,0.00000165,0.000
 00180,0.00000116,0.00000158,-0.00000381,-0.00000111,0.00000023,-0.0000
 0193,-0.00000422,0.00000168,0.00000069,0.00000728,-0.00000436,0.000000
 31,0.00000144,-0.00000080,0.00000840,-0.00000101,0.00000194,-0.0000016
 0,0.00000058,-0.00000299,0.00000751,0.00000304,-0.00000165,0.00000042,
 0.00000114,-0.00000133,0.00000018,0.00000181,0.00000007,0.00000111,0.0
 0000256,-0.00000118,-0.00000254,0.00000101,0.00000231,0.00000136,0.000
 00041,-0.00000095,-0.00000018,0.00000077,-0.00000143,-0.00000063,-0.00
 000080,0.00000154,-0.00000075,0.00000025,-0.00000150,-0.00000150,0.000
 00020,0.00000103,-0.00000264,0.00000009,0.00000133,-0.00000094,-0.0000
 0099,0.00000094,-0.00000149,0.00000042,0.00000108,-0.00000045,0.000002
 42,0.00000009,-0.00000935,-0.00000034,0.00000126,-0.00000063\\\@


 ARTHROPOD AXIOM: A COMPUTER SYSTEM IS LIKE A SPIDER'S WEB.
 YOU CANNOT PULL ON ONE END WITHOUT MAKING THE OTHER END MOVE.
     -- GREG WETTSTEIN
 Job cpu time:       0 days  4 hours 59 minutes 38.6 seconds.
 File lengths (MBytes):  RWF=    608 Int=      0 D2E=      0 Chk=     18 Scr=      1
 Normal termination of Gaussian 09 at Sat Jul 24 04:07:32 2021.
