 Entering Gaussian System, Link 0=g09
 Input=opt_freq-conf-342.com
 Output=opt_freq-conf-342.log
 Initial command:
 /aerosol/software/g09/l1.exe "/scratch/nicole/10509/Gau-72488.inp" -scrdir="/scratch/nicole/10509/"
 Entering Link 1 = /aerosol/software/g09/l1.exe PID=     72493.
  
 Copyright (c) 1988,1990,1992,1993,1995,1998,2003,2009,2013,
            Gaussian, Inc.  All Rights Reserved.
  
 This is part of the Gaussian(R) 09 program.  It is based on
 the Gaussian(R) 03 system (copyright 2003, Gaussian, Inc.),
 the Gaussian(R) 98 system (copyright 1998, Gaussian, Inc.),
 the Gaussian(R) 94 system (copyright 1995, Gaussian, Inc.),
 the Gaussian 92(TM) system (copyright 1992, Gaussian, Inc.),
 the Gaussian 90(TM) system (copyright 1990, Gaussian, Inc.),
 the Gaussian 88(TM) system (copyright 1988, Gaussian, Inc.),
 the Gaussian 86(TM) system (copyright 1986, Carnegie Mellon
 University), and the Gaussian 82(TM) system (copyright 1983,
 Carnegie Mellon University). Gaussian is a federally registered
 trademark of Gaussian, Inc.
  
 This software contains proprietary and confidential information,
 including trade secrets, belonging to Gaussian, Inc.
  
 This software is provided under written license and may be
 used, copied, transmitted, or stored only in accord with that
 written license.
  
 The following legend is applicable only to US Government
 contracts under FAR:
  
                    RESTRICTED RIGHTS LEGEND
  
 Use, reproduction and disclosure by the US Government is
 subject to restrictions as set forth in subparagraphs (a)
 and (c) of the Commercial Computer Software - Restricted
 Rights clause in FAR 52.227-19.
  
 Gaussian, Inc.
 340 Quinnipiac St., Bldg. 40, Wallingford CT 06492
  
  
 ---------------------------------------------------------------
 Warning -- This program may not be used in any manner that
 competes with the business of Gaussian, Inc. or will provide
 assistance to any competitor of Gaussian, Inc.  The licensee
 of this program is prohibited from giving any competitor of
 Gaussian, Inc. access to this program.  By using this program,
 the user acknowledges that Gaussian, Inc. is engaged in the
 business of creating and licensing software in the field of
 computational chemistry and represents and warrants to the
 licensee that it is not a competitor of Gaussian, Inc. and that
 it will not use this program in any manner prohibited above.
 ---------------------------------------------------------------
  

 Cite this work as:
 Gaussian 09, Revision D.01,
 M. J. Frisch, G. W. Trucks, H. B. Schlegel, G. E. Scuseria, 
 M. A. Robb, J. R. Cheeseman, G. Scalmani, V. Barone, B. Mennucci, 
 G. A. Petersson, H. Nakatsuji, M. Caricato, X. Li, H. P. Hratchian, 
 A. F. Izmaylov, J. Bloino, G. Zheng, J. L. Sonnenberg, M. Hada, 
 M. Ehara, K. Toyota, R. Fukuda, J. Hasegawa, M. Ishida, T. Nakajima, 
 Y. Honda, O. Kitao, H. Nakai, T. Vreven, J. A. Montgomery, Jr., 
 J. E. Peralta, F. Ogliaro, M. Bearpark, J. J. Heyd, E. Brothers, 
 K. N. Kudin, V. N. Staroverov, T. Keith, R. Kobayashi, J. Normand, 
 K. Raghavachari, A. Rendell, J. C. Burant, S. S. Iyengar, J. Tomasi, 
 M. Cossi, N. Rega, J. M. Millam, M. Klene, J. E. Knox, J. B. Cross, 
 V. Bakken, C. Adamo, J. Jaramillo, R. Gomperts, R. E. Stratmann, 
 O. Yazyev, A. J. Austin, R. Cammi, C. Pomelli, J. W. Ochterski, 
 R. L. Martin, K. Morokuma, V. G. Zakrzewski, G. A. Voth, 
 P. Salvador, J. J. Dannenberg, S. Dapprich, A. D. Daniels, 
 O. Farkas, J. B. Foresman, J. V. Ortiz, J. Cioslowski, 
 and D. J. Fox, Gaussian, Inc., Wallingford CT, 2013.
 
 ******************************************
 Gaussian 09:  ES64L-G09RevD.01 24-Apr-2013
                24-Jul-2021 
 ******************************************
 %mem=2gb
 %nproc=4
 Will use up to    4 processors via shared memory.
 %chk=conf-342.chk
 ----------------------------------------------------------------------
 # B3LYP/6-311++G(d,p) EmpiricalDispersion=GD3BJ opt=calcfc freq=norama
 n nosymm integral(ultrafinegrid)
 ----------------------------------------------------------------------
 1/10=4,14=-1,18=20,19=15,26=4,38=1/1,3;
 2/9=110,12=2,15=1,17=6,18=5,40=1/2;
 3/5=4,6=6,7=1111,11=2,16=1,25=1,30=1,71=2,74=-5,75=-5,124=41,140=1/1,2,3;
 4//1;
 5/5=2,38=5/2;
 8/6=4,10=90,11=11/1;
 11/6=1,8=1,9=11,15=111,16=1,31=1/1,2,10;
 10/6=1,13=1,31=1/2;
 6/7=2,8=2,9=2,10=2,28=1/1;
 7/10=1,18=20,25=1,30=1/1,2,3,16;
 1/10=4,14=-1,18=20,19=15,26=4/3(2);
 2/9=110,15=1/2;
 99//99;
 2/9=110,15=1/2;
 3/5=4,6=6,7=1111,11=2,16=1,25=1,30=1,71=1,74=-5,75=-5,124=41/1,2,3;
 4/5=5,16=3,69=1/1;
 5/5=2,38=5/2;
 7/30=1/1,2,3,16;
 1/14=-1,18=20,19=15,26=4/3(-5);
 2/9=110,15=1/2;
 6/7=2,8=2,9=2,10=2,19=2,28=1/1;
 99/9=1/99;
 ------------------------------------------------------------
 Candidate Structure: Conf:342 OPT and FREQ calc in gas phase
 ------------------------------------------------------------
 Symbolic Z-matrix:
 Charge =  1 Multiplicity = 1
 O                     0.48802  -1.04421  -0.1281 
 C                     1.12385  -0.01749  -0.37361 
 N                     0.49047   1.13594  -0.6784 
 C                    -0.95233   1.1798   -0.7779 
 C                    -1.31346   2.46054  -1.51699 
 O                    -2.62801   2.61896  -1.77297 
 O                    -0.51      3.28466  -1.8519 
 C                    -1.63884   1.09438   0.62074 
 C                    -2.6427   -0.01018   0.70235 
 C                    -3.98987  -0.02168   0.90501 
 N                    -4.47679  -1.31734   0.86655 
 C                    -3.42519  -2.06674   0.63906 
 N                    -2.29364  -1.32744   0.53059 
 C                     2.63954   0.02136  -0.38261 
 C                     3.23439  -0.9979    0.57318 
 N                     4.72017  -1.02743   0.50222 
 H                     0.98137   1.94095  -1.03734 
 H                    -1.27896   0.34084  -1.40351 
 H                    -3.11555   1.84612  -1.4643 
 H                    -2.13152   2.03418   0.87054 
 H                    -0.86367   0.94257   1.36936 
 H                    -4.64492   0.82058   1.07669 
 H                    -3.41306  -3.13835   0.54534 
 H                    -1.35254  -1.64532   0.35214 
 H                     2.98248   1.02797  -0.1359 
 H                     2.97543  -0.20079  -1.39969 
 H                     2.83034  -1.97896   0.32785 
 H                     2.92493  -0.76764   1.59206 
 H                     5.03857  -1.26512  -0.43712 
 H                     5.12401  -0.12292   0.74615 
 H                     5.11721  -1.71841   1.14051 
 

 GradGradGradGradGradGradGradGradGradGradGradGradGradGradGradGradGradGrad
 Berny optimization.
 Initialization pass.
                           ----------------------------
                           !    Initial Parameters    !
                           ! (Angstroms and Degrees)  !
 --------------------------                            --------------------------
 ! Name  Definition              Value          Derivative Info.                !
 --------------------------------------------------------------------------------
 ! R1    R(1,2)                  1.2324         calculate D2E/DX2 analytically  !
 ! R2    R(2,3)                  1.3507         calculate D2E/DX2 analytically  !
 ! R3    R(2,14)                 1.5162         calculate D2E/DX2 analytically  !
 ! R4    R(3,4)                  1.4469         calculate D2E/DX2 analytically  !
 ! R5    R(3,17)                 1.0089         calculate D2E/DX2 analytically  !
 ! R6    R(4,5)                  1.5222         calculate D2E/DX2 analytically  !
 ! R7    R(4,8)                  1.5604         calculate D2E/DX2 analytically  !
 ! R8    R(4,18)                 1.0963         calculate D2E/DX2 analytically  !
 ! R9    R(5,6)                  1.3486         calculate D2E/DX2 analytically  !
 ! R10   R(5,7)                  1.1987         calculate D2E/DX2 analytically  !
 ! R11   R(6,19)                 0.9645         calculate D2E/DX2 analytically  !
 ! R12   R(8,9)                  1.4948         calculate D2E/DX2 analytically  !
 ! R13   R(8,20)                 1.0901         calculate D2E/DX2 analytically  !
 ! R14   R(8,21)                 1.0883         calculate D2E/DX2 analytically  !
 ! R15   R(9,10)                 1.3624         calculate D2E/DX2 analytically  !
 ! R16   R(9,13)                 1.3735         calculate D2E/DX2 analytically  !
 ! R17   R(10,11)                1.3847         calculate D2E/DX2 analytically  !
 ! R18   R(10,22)                1.0807         calculate D2E/DX2 analytically  !
 ! R19   R(11,12)                1.3112         calculate D2E/DX2 analytically  !
 ! R20   R(12,13)                1.356          calculate D2E/DX2 analytically  !
 ! R21   R(12,23)                1.0758         calculate D2E/DX2 analytically  !
 ! R22   R(13,24)                1.0092         calculate D2E/DX2 analytically  !
 ! R23   R(14,15)                1.5186         calculate D2E/DX2 analytically  !
 ! R24   R(14,25)                1.0917         calculate D2E/DX2 analytically  !
 ! R25   R(14,26)                1.0939         calculate D2E/DX2 analytically  !
 ! R26   R(15,16)                1.4878         calculate D2E/DX2 analytically  !
 ! R27   R(15,27)                1.089          calculate D2E/DX2 analytically  !
 ! R28   R(15,28)                1.0895         calculate D2E/DX2 analytically  !
 ! R29   R(16,29)                1.0199         calculate D2E/DX2 analytically  !
 ! R30   R(16,30)                1.0202         calculate D2E/DX2 analytically  !
 ! R31   R(16,31)                1.021          calculate D2E/DX2 analytically  !
 ! A1    A(1,2,3)              120.9619         calculate D2E/DX2 analytically  !
 ! A2    A(1,2,14)             122.5677         calculate D2E/DX2 analytically  !
 ! A3    A(3,2,14)             116.457          calculate D2E/DX2 analytically  !
 ! A4    A(2,3,4)              120.5963         calculate D2E/DX2 analytically  !
 ! A5    A(2,3,17)             122.2413         calculate D2E/DX2 analytically  !
 ! A6    A(4,3,17)             115.884          calculate D2E/DX2 analytically  !
 ! A7    A(3,4,5)              107.1857         calculate D2E/DX2 analytically  !
 ! A8    A(3,4,8)              112.0505         calculate D2E/DX2 analytically  !
 ! A9    A(3,4,18)             108.2482         calculate D2E/DX2 analytically  !
 ! A10   A(5,4,8)              112.142          calculate D2E/DX2 analytically  !
 ! A11   A(5,4,18)             107.2244         calculate D2E/DX2 analytically  !
 ! A12   A(8,4,18)             109.7869         calculate D2E/DX2 analytically  !
 ! A13   A(4,5,6)              114.9777         calculate D2E/DX2 analytically  !
 ! A14   A(4,5,7)              123.7188         calculate D2E/DX2 analytically  !
 ! A15   A(6,5,7)              121.3027         calculate D2E/DX2 analytically  !
 ! A16   A(5,6,19)             109.7462         calculate D2E/DX2 analytically  !
 ! A17   A(4,8,9)              112.6345         calculate D2E/DX2 analytically  !
 ! A18   A(4,8,20)             110.9184         calculate D2E/DX2 analytically  !
 ! A19   A(4,8,21)             108.1098         calculate D2E/DX2 analytically  !
 ! A20   A(9,8,20)             108.7249         calculate D2E/DX2 analytically  !
 ! A21   A(9,8,21)             109.7374         calculate D2E/DX2 analytically  !
 ! A22   A(20,8,21)            106.5321         calculate D2E/DX2 analytically  !
 ! A23   A(8,9,10)             132.7209         calculate D2E/DX2 analytically  !
 ! A24   A(8,9,13)             122.0847         calculate D2E/DX2 analytically  !
 ! A25   A(10,9,13)            105.1775         calculate D2E/DX2 analytically  !
 ! A26   A(9,10,11)            110.5788         calculate D2E/DX2 analytically  !
 ! A27   A(9,10,22)            128.0541         calculate D2E/DX2 analytically  !
 ! A28   A(11,10,22)           121.3671         calculate D2E/DX2 analytically  !
 ! A29   A(10,11,12)           104.9269         calculate D2E/DX2 analytically  !
 ! A30   A(11,12,13)           111.8108         calculate D2E/DX2 analytically  !
 ! A31   A(11,12,23)           126.4054         calculate D2E/DX2 analytically  !
 ! A32   A(13,12,23)           121.7836         calculate D2E/DX2 analytically  !
 ! A33   A(9,13,12)            107.5055         calculate D2E/DX2 analytically  !
 ! A34   A(9,13,24)            124.1364         calculate D2E/DX2 analytically  !
 ! A35   A(12,13,24)           128.3572         calculate D2E/DX2 analytically  !
 ! A36   A(2,14,15)            111.7542         calculate D2E/DX2 analytically  !
 ! A37   A(2,14,25)            109.6529         calculate D2E/DX2 analytically  !
 ! A38   A(2,14,26)            107.8944         calculate D2E/DX2 analytically  !
 ! A39   A(15,14,25)           110.7074         calculate D2E/DX2 analytically  !
 ! A40   A(15,14,26)           109.1835         calculate D2E/DX2 analytically  !
 ! A41   A(25,14,26)           107.513          calculate D2E/DX2 analytically  !
 ! A42   A(14,15,16)           111.9921         calculate D2E/DX2 analytically  !
 ! A43   A(14,15,27)           108.5138         calculate D2E/DX2 analytically  !
 ! A44   A(14,15,28)           109.6021         calculate D2E/DX2 analytically  !
 ! A45   A(16,15,27)           109.9929         calculate D2E/DX2 analytically  !
 ! A46   A(16,15,28)           109.4185         calculate D2E/DX2 analytically  !
 ! A47   A(27,15,28)           107.1997         calculate D2E/DX2 analytically  !
 ! A48   A(15,16,29)           111.1194         calculate D2E/DX2 analytically  !
 ! A49   A(15,16,30)           111.4892         calculate D2E/DX2 analytically  !
 ! A50   A(15,16,31)           111.8363         calculate D2E/DX2 analytically  !
 ! A51   A(29,16,30)           107.6538         calculate D2E/DX2 analytically  !
 ! A52   A(29,16,31)           107.2566         calculate D2E/DX2 analytically  !
 ! A53   A(30,16,31)           107.2547         calculate D2E/DX2 analytically  !
 ! D1    D(1,2,3,4)             -2.5603         calculate D2E/DX2 analytically  !
 ! D2    D(1,2,3,17)          -169.1118         calculate D2E/DX2 analytically  !
 ! D3    D(14,2,3,4)           176.1388         calculate D2E/DX2 analytically  !
 ! D4    D(14,2,3,17)            9.5873         calculate D2E/DX2 analytically  !
 ! D5    D(1,2,14,15)          -29.3941         calculate D2E/DX2 analytically  !
 ! D6    D(1,2,14,25)         -152.5395         calculate D2E/DX2 analytically  !
 ! D7    D(1,2,14,26)           90.647          calculate D2E/DX2 analytically  !
 ! D8    D(3,2,14,15)          151.9296         calculate D2E/DX2 analytically  !
 ! D9    D(3,2,14,25)           28.7842         calculate D2E/DX2 analytically  !
 ! D10   D(3,2,14,26)          -88.0293         calculate D2E/DX2 analytically  !
 ! D11   D(2,3,4,5)           -163.6093         calculate D2E/DX2 analytically  !
 ! D12   D(2,3,4,8)             72.96           calculate D2E/DX2 analytically  !
 ! D13   D(2,3,4,18)           -48.247          calculate D2E/DX2 analytically  !
 ! D14   D(17,3,4,5)             3.7612         calculate D2E/DX2 analytically  !
 ! D15   D(17,3,4,8)          -119.6694         calculate D2E/DX2 analytically  !
 ! D16   D(17,3,4,18)          119.1235         calculate D2E/DX2 analytically  !
 ! D17   D(3,4,5,6)            175.9687         calculate D2E/DX2 analytically  !
 ! D18   D(3,4,5,7)             -4.3549         calculate D2E/DX2 analytically  !
 ! D19   D(8,4,5,6)            -60.6569         calculate D2E/DX2 analytically  !
 ! D20   D(8,4,5,7)            119.0194         calculate D2E/DX2 analytically  !
 ! D21   D(18,4,5,6)            59.9261         calculate D2E/DX2 analytically  !
 ! D22   D(18,4,5,7)          -120.3976         calculate D2E/DX2 analytically  !
 ! D23   D(3,4,8,9)           -125.686          calculate D2E/DX2 analytically  !
 ! D24   D(3,4,8,20)           112.1914         calculate D2E/DX2 analytically  !
 ! D25   D(3,4,8,21)            -4.2648         calculate D2E/DX2 analytically  !
 ! D26   D(5,4,8,9)            113.7174         calculate D2E/DX2 analytically  !
 ! D27   D(5,4,8,20)            -8.4053         calculate D2E/DX2 analytically  !
 ! D28   D(5,4,8,21)          -124.8614         calculate D2E/DX2 analytically  !
 ! D29   D(18,4,8,9)            -5.37           calculate D2E/DX2 analytically  !
 ! D30   D(18,4,8,20)         -127.4926         calculate D2E/DX2 analytically  !
 ! D31   D(18,4,8,21)          116.0512         calculate D2E/DX2 analytically  !
 ! D32   D(4,5,6,19)            -2.5335         calculate D2E/DX2 analytically  !
 ! D33   D(7,5,6,19)           177.7816         calculate D2E/DX2 analytically  !
 ! D34   D(4,8,9,10)          -116.9921         calculate D2E/DX2 analytically  !
 ! D35   D(4,8,9,13)            61.2759         calculate D2E/DX2 analytically  !
 ! D36   D(20,8,9,10)            6.3605         calculate D2E/DX2 analytically  !
 ! D37   D(20,8,9,13)         -175.3716         calculate D2E/DX2 analytically  !
 ! D38   D(21,8,9,10)          122.517          calculate D2E/DX2 analytically  !
 ! D39   D(21,8,9,13)          -59.215          calculate D2E/DX2 analytically  !
 ! D40   D(8,9,10,11)          178.6945         calculate D2E/DX2 analytically  !
 ! D41   D(8,9,10,22)           -1.2916         calculate D2E/DX2 analytically  !
 ! D42   D(13,9,10,11)           0.2149         calculate D2E/DX2 analytically  !
 ! D43   D(13,9,10,22)        -179.7711         calculate D2E/DX2 analytically  !
 ! D44   D(8,9,13,12)         -178.8625         calculate D2E/DX2 analytically  !
 ! D45   D(8,9,13,24)            0.8159         calculate D2E/DX2 analytically  !
 ! D46   D(10,9,13,12)          -0.1809         calculate D2E/DX2 analytically  !
 ! D47   D(10,9,13,24)         179.4975         calculate D2E/DX2 analytically  !
 ! D48   D(9,10,11,12)          -0.1645         calculate D2E/DX2 analytically  !
 ! D49   D(22,10,11,12)        179.8226         calculate D2E/DX2 analytically  !
 ! D50   D(10,11,12,13)          0.0452         calculate D2E/DX2 analytically  !
 ! D51   D(10,11,12,23)        179.8721         calculate D2E/DX2 analytically  !
 ! D52   D(11,12,13,9)           0.0867         calculate D2E/DX2 analytically  !
 ! D53   D(11,12,13,24)       -179.5738         calculate D2E/DX2 analytically  !
 ! D54   D(23,12,13,9)        -179.7494         calculate D2E/DX2 analytically  !
 ! D55   D(23,12,13,24)          0.5901         calculate D2E/DX2 analytically  !
 ! D56   D(2,14,15,16)         176.1956         calculate D2E/DX2 analytically  !
 ! D57   D(2,14,15,27)          54.588          calculate D2E/DX2 analytically  !
 ! D58   D(2,14,15,28)         -62.1737         calculate D2E/DX2 analytically  !
 ! D59   D(25,14,15,16)        -61.2594         calculate D2E/DX2 analytically  !
 ! D60   D(25,14,15,27)        177.133          calculate D2E/DX2 analytically  !
 ! D61   D(25,14,15,28)         60.3713         calculate D2E/DX2 analytically  !
 ! D62   D(26,14,15,16)         56.9136         calculate D2E/DX2 analytically  !
 ! D63   D(26,14,15,27)        -64.694          calculate D2E/DX2 analytically  !
 ! D64   D(26,14,15,28)        178.5443         calculate D2E/DX2 analytically  !
 ! D65   D(14,15,16,29)        -59.739          calculate D2E/DX2 analytically  !
 ! D66   D(14,15,16,30)         60.3573         calculate D2E/DX2 analytically  !
 ! D67   D(14,15,16,31)       -179.565          calculate D2E/DX2 analytically  !
 ! D68   D(27,15,16,29)         61.0149         calculate D2E/DX2 analytically  !
 ! D69   D(27,15,16,30)       -178.8888         calculate D2E/DX2 analytically  !
 ! D70   D(27,15,16,31)        -58.8111         calculate D2E/DX2 analytically  !
 ! D71   D(28,15,16,29)        178.5249         calculate D2E/DX2 analytically  !
 ! D72   D(28,15,16,30)        -61.3788         calculate D2E/DX2 analytically  !
 ! D73   D(28,15,16,31)         58.6989         calculate D2E/DX2 analytically  !
 --------------------------------------------------------------------------------
 Trust Radius=3.00D-01 FncErr=1.00D-07 GrdErr=1.00D-06
 Number of steps in this run=    167 maximum allowed number of steps=    186.
 GradGradGradGradGradGradGradGradGradGradGradGradGradGradGradGradGradGrad

                          Input orientation:                          
 ---------------------------------------------------------------------
 Center     Atomic      Atomic             Coordinates (Angstroms)
 Number     Number       Type             X           Y           Z
 ---------------------------------------------------------------------
      1          8           0        0.488024   -1.044212   -0.128100
      2          6           0        1.123845   -0.017492   -0.373609
      3          7           0        0.490472    1.135943   -0.678403
      4          6           0       -0.952331    1.179802   -0.777899
      5          6           0       -1.313456    2.460537   -1.516985
      6          8           0       -2.628012    2.618957   -1.772967
      7          8           0       -0.510003    3.284664   -1.851898
      8          6           0       -1.638845    1.094382    0.620743
      9          6           0       -2.642701   -0.010178    0.702351
     10          6           0       -3.989868   -0.021681    0.905013
     11          7           0       -4.476793   -1.317343    0.866546
     12          6           0       -3.425194   -2.066739    0.639055
     13          7           0       -2.293636   -1.327439    0.530588
     14          6           0        2.639540    0.021364   -0.382610
     15          6           0        3.234388   -0.997902    0.573178
     16          7           0        4.720173   -1.027433    0.502220
     17          1           0        0.981373    1.940946   -1.037338
     18          1           0       -1.278962    0.340841   -1.403513
     19          1           0       -3.115548    1.846115   -1.464303
     20          1           0       -2.131516    2.034185    0.870539
     21          1           0       -0.863674    0.942566    1.369359
     22          1           0       -4.644919    0.820583    1.076687
     23          1           0       -3.413057   -3.138350    0.545338
     24          1           0       -1.352539   -1.645316    0.352137
     25          1           0        2.982476    1.027973   -0.135904
     26          1           0        2.975428   -0.200789   -1.399690
     27          1           0        2.830344   -1.978956    0.327855
     28          1           0        2.924933   -0.767636    1.592065
     29          1           0        5.038567   -1.265120   -0.437119
     30          1           0        5.124010   -0.122922    0.746146
     31          1           0        5.117207   -1.718407    1.140508
 ---------------------------------------------------------------------
                    Distance matrix (angstroms):
                    1          2          3          4          5
     1  O    0.000000
     2  C    1.232354   0.000000
     3  N    2.248537   1.350731   0.000000
     4  C    2.728204   2.430528   1.446894   0.000000
     5  C    4.178230   3.659013   2.389964   1.522151   0.000000
     6  O    5.082723   4.794319   3.622478   2.422651   1.348584
     7  O    4.765156   3.969765   2.644815   2.404075   1.198704
     8  C    3.107719   3.139658   2.494694   1.560384   2.557761
     9  C    3.400046   3.917220   3.610658   2.542547   3.577259
    10  C    4.707909   5.271143   4.890884   3.674559   4.380715
    11  N    5.070831   5.881729   5.751453   4.621879   5.473600
    12  C    4.116718   5.091037   5.227362   4.320050   5.440972
    13  N    2.872580   3.769975   3.909114   3.130095   4.416115
    14  C    2.414384   1.516220   2.438908   3.794702   4.781480
    15  C    2.834863   2.512369   3.694431   4.908809   6.083787
    16  N    4.278863   3.836747   4.895348   6.219959   7.255881
    17  H    3.159316   2.072755   1.008884   2.094244   2.401308
    18  H    2.582110   2.638672   2.070959   1.096328   2.123011
    19  H    4.808863   4.757636   3.758373   2.365298   1.904685
    20  H    4.163628   4.044089   3.175040   2.199499   2.559545
    21  H    2.831388   2.812451   2.462608   2.162142   3.292040
    22  H    5.592502   6.007027   5.436179   4.147739   4.529374
    23  H    4.478545   5.582804   5.916475   5.143206   6.325270
    24  H    1.994900   3.051065   3.492006   3.068947   4.511449
    25  H    3.242885   2.145696   2.552655   3.989726   4.734413
    26  H    2.918130   2.124806   2.912407   4.209506   5.048856
    27  H    2.562831   2.692866   4.023699   5.050650   6.346938
    28  H    2.995661   2.769568   3.834741   4.943927   6.168569
    29  H    4.566370   4.109216   5.148639   6.479555   7.442771
    30  H    4.806813   4.155272   5.008368   6.398572   7.296369
    31  H    4.846983   4.597021   5.732576   6.994225   8.116605
                    6          7          8          9         10
     6  O    0.000000
     7  O    2.221567   0.000000
     8  C    3.005433   3.490785   0.000000
     9  C    3.611062   4.682796   1.494804   0.000000
    10  C    3.999900   5.535516   2.617960   1.362374   0.000000
    11  N    5.087188   6.656113   3.732397   2.258215   1.384672
    12  C    5.330018   6.583366   3.630986   2.201305   2.138189
    13  N    4.581727   5.488997   2.510398   1.373509   2.173109
    14  C    6.035535   4.767343   4.523567   5.392607   6.753434
    15  C    7.276935   6.183997   5.303612   5.960910   7.297465
    16  N    8.512841   7.175709   6.704718   7.435508   8.777163
    17  H    3.745465   2.166400   3.214256   4.468480   5.686639
    18  H    2.673246   3.075458   2.189737   2.533310   3.579067
    19  H    0.964495   3.001420   2.663301   2.892023   3.141139
    20  H    2.752561   3.406562   1.090116   2.114005   2.771506
    21  H    3.974593   3.998376   1.088285   2.125455   3.304312
    22  H    3.927161   5.634345   3.052759   2.199811   1.080728
    23  H    6.255991   7.445105   4.590156   3.225455   3.189938
    24  H    4.932232   5.465559   2.767681   2.112070   3.146007
    25  H    6.057127   4.498300   4.683325   5.781267   7.127332
    26  H    6.284015   4.949859   5.201070   6.001524   7.338875
    27  H    7.439617   6.604161   5.431835   5.828426   7.118941
    28  H    7.323090   6.330940   5.023807   5.688926   6.988774
    29  H    8.697527   7.313601   7.160597   7.866076   9.211954
    30  H    8.599865   7.078388   6.872682   7.767653   9.115825
    31  H    9.342884   8.102513   7.336632   7.957776   9.266777
                   11         12         13         14         15
    11  N    0.000000
    12  C    1.311184   0.000000
    13  N    2.208878   1.356006   0.000000
    14  C    7.348110   6.494996   5.195135   0.000000
    15  C    7.723368   6.745130   5.538001   1.518643   0.000000
    16  N    9.208744   8.212544   7.020279   2.492375   1.487772
    17  H    6.635721   6.187864   4.885327   2.619729   4.038151
    18  H    4.257800   3.817700   2.748357   4.061892   5.105866
    19  H    4.158523   4.453136   3.837522   6.133581   7.249927
    20  H    4.090609   4.306363   3.382657   5.327739   6.170486
    21  H    4.291228   4.018786   2.810917   4.023744   4.603632
    22  H    2.154798   3.164787   3.231216   7.472058   8.102091
    23  H    2.133254   1.075771   2.129019   6.890487   6.983611
    24  H    3.183259   2.134436   1.009234   4.387980   4.637662
    25  H    7.883280   7.157936   5.816316   1.091664   2.161117
    26  H    7.868807   6.971816   5.723491   1.093903   2.143515
    27  H    7.356776   6.263889   5.169211   2.131302   1.088992
    28  H    7.457486   6.551336   5.354771   2.145533   1.089456
    29  H    9.604392   8.569481   7.396049   2.722746   2.084987
    30  H    9.675565   8.768055   7.517899   2.732673   2.089541
    31  H    9.606287   8.564194   7.446170   3.389031   2.094278
                   16         17         18         19         20
    16  N    0.000000
    17  H    5.015988   0.000000
    18  H    6.441554   2.793480   0.000000
    19  H    8.574556   4.120201   2.375414   0.000000
    20  H    7.513641   3.652227   2.960670   2.540704   0.000000
    21  H    5.984327   3.192671   2.867639   3.730547   1.745817
    22  H    9.562956   6.113876   4.208469   3.138044   2.798664
    23  H    8.402813   6.900372   4.522959   5.382570   5.338841
    24  H    6.105910   4.498784   2.651893   4.312510   3.796613
    25  H    2.766132   2.377082   4.498760   6.294434   5.308324
    26  H    2.710118   2.948658   4.288731   6.426040   6.019130
    27  H    2.123030   4.544015   5.026479   7.293602   6.404675
    28  H    2.116163   4.245892   5.279672   7.256755   5.825674
    29  H    1.019915   5.205761   6.589705   8.787746   8.000342
    30  H    1.020159   4.960021   6.770093   8.755199   7.570419
    31  H    1.021026   5.936245   7.184952   9.341794   8.166934
                   21         22         23         24         25
    21  H    0.000000
    22  H    3.794517   0.000000
    23  H    4.881828   4.180068   0.000000
    24  H    2.823271   4.176768   2.551904   0.000000
    25  H    4.131099   7.725966   7.663236   5.116348   0.000000
    26  H    4.869661   8.077459   7.295557   4.887418   1.762686
    27  H    4.823462   8.017339   6.353861   4.196238   3.046283
    28  H    4.162683   7.751820   6.847338   4.539219   2.492670
    29  H    6.555432  10.020563   8.712300   6.450869   3.094595
    30  H    6.113593   9.819951   9.056194   6.664730   2.586260
    31  H    6.550121  10.087104   8.668095   6.518013   3.705254
                   26         27         28         29         30
    26  H    0.000000
    27  H    2.483413   0.000000
    28  H    3.045401   1.753416   0.000000
    29  H    2.513143   2.443562   2.971957   0.000000
    30  H    3.037611   2.980057   2.442781   1.646825   0.000000
    31  H    3.652806   2.440909   2.431858   1.643339   1.643515
                   31
    31  H    0.000000
 Symmetry turned off by external request.
 Stoichiometry    C9H15N4O3(1+)
 Framework group  C1[X(C9H15N4O3)]
 Deg. of freedom    87
 Full point group                 C1      NOp   1
 Rotational constants (GHZ):      0.6579548      0.3092405      0.2195217
 Standard basis: 6-311++G(d,p) (5D, 7F)
   457 basis functions,   711 primitive gaussians,   473 cartesian basis functions
    60 alpha electrons       60 beta electrons
       nuclear repulsion energy      1130.0178159133 Hartrees.
 NAtoms=   31 NActive=   31 NUniq=   31 SFac= 1.00D+00 NAtFMM=   60 NAOKFM=F Big=F
 Integral buffers will be    131072 words long.
 Raffenetti 2 integral format.
 Two-electron integral symmetry is turned off.
 Nuclear repulsion after empirical dispersion term =     1129.9621763981 Hartrees.
 One-electron integrals computed using PRISM.
 NBasis=   457 RedAO= T EigKep=  2.59D-06  NBF=   457
 NBsUse=   457 1.00D-06 EigRej= -1.00D+00 NBFU=   457
 ExpMin= 3.60D-02 ExpMax= 8.59D+03 ExpMxC= 1.30D+03 IAcc=3 IRadAn=         5 AccDes= 0.00D+00
 Harris functional with IExCor=  402 and IRadAn=       5 diagonalized for initial guess.
 HarFok:  IExCor=  402 AccDes= 0.00D+00 IRadAn=         5 IDoV= 1 UseB2=F ITyADJ=14
 ICtDFT=  3500011 ScaDFX=  1.000000  1.000000  1.000000  1.000000
 FoFCou: FMM=F IPFlag=           0 FMFlag=      100000 FMFlg1=           0
         NFxFlg=           0 DoJE=T BraDBF=F KetDBF=T FulRan=T
         wScrn=  0.000000 ICntrl=     500 IOpCl=  0 I1Cent=   200000004 NGrid=           0
         NMat0=    1 NMatS0=      1 NMatT0=    0 NMatD0=    1 NMtDS0=    0 NMtDT0=    0
 Symmetry not used in FoFCou.
 Requested convergence on RMS density matrix=1.00D-08 within 128 cycles.
 Requested convergence on MAX density matrix=1.00D-06.
 Requested convergence on             energy=1.00D-06.
 No special actions if energy rises.
 EnCoef did     2 forward-backward iterations
 SCF Done:  E(RB3LYP) =  -796.734125173     A.U. after   18 cycles
            NFock= 18  Conv=0.11D-08     -V/T= 2.0036
 DoSCS=F DFT=T ScalE2(SS,OS)=  1.000000  1.000000
 Range of M.O.s used for correlation:     1   457
 NBasis=   457 NAE=    60 NBE=    60 NFC=     0 NFV=     0
 NROrb=    457 NOA=    60 NOB=    60 NVA=   397 NVB=   397

 **** Warning!!: The largest alpha MO coefficient is  0.12813421D+03

 Symmetrizing basis deriv contribution to polar:
 IMax=3 JMax=2 DiffMx= 0.00D+00
 G2DrvN: will do    32 centers at a time, making    1 passes.
 Calling FoFCou, ICntrl=  3107 FMM=F I1Cent=   0 AccDes= 0.00D+00.
 End of G2Drv F.D. properties file   721 does not exist.
 End of G2Drv F.D. properties file   722 does not exist.
 End of G2Drv F.D. properties file   788 does not exist.
          IDoAtm=1111111111111111111111111111111
          Differentiating once with respect to nuclear coordinates.
          There are    96 degrees of freedom in the 1st order CPHF.  IDoFFX=6 NUNeed=     0.
     90 vectors produced by pass  0 Test12= 2.48D-14 1.04D-09 XBig12= 2.05D-01 6.66D-02.
 AX will form    90 AO Fock derivatives at one time.
     90 vectors produced by pass  1 Test12= 2.48D-14 1.04D-09 XBig12= 3.24D-02 4.50D-02.
     90 vectors produced by pass  2 Test12= 2.48D-14 1.04D-09 XBig12= 3.16D-04 2.61D-03.
     90 vectors produced by pass  3 Test12= 2.48D-14 1.04D-09 XBig12= 1.20D-06 1.25D-04.
     90 vectors produced by pass  4 Test12= 2.48D-14 1.04D-09 XBig12= 2.56D-09 4.86D-06.
     84 vectors produced by pass  5 Test12= 2.48D-14 1.04D-09 XBig12= 3.54D-12 1.60D-07.
     31 vectors produced by pass  6 Test12= 2.48D-14 1.04D-09 XBig12= 5.12D-15 8.80D-09.
      9 vectors produced by pass  7 Test12= 2.48D-14 1.04D-09 XBig12= 5.62D-16 2.24D-09.
      3 vectors produced by pass  8 Test12= 2.48D-14 1.04D-09 XBig12= 3.92D-16 2.06D-09.
      3 vectors produced by pass  9 Test12= 2.48D-14 1.04D-09 XBig12= 9.84D-15 8.38D-09.
      3 vectors produced by pass 10 Test12= 2.48D-14 1.04D-09 XBig12= 1.23D-15 3.67D-09.
      3 vectors produced by pass 11 Test12= 2.48D-14 1.04D-09 XBig12= 7.68D-15 6.88D-09.
      2 vectors produced by pass 12 Test12= 2.48D-14 1.04D-09 XBig12= 1.26D-15 3.87D-09.
 InvSVY:  IOpt=1 It=  1 EMax= 5.55D-16
 Solved reduced A of dimension   588 with    96 vectors.
 End of Minotr F.D. properties file   721 does not exist.
 End of Minotr F.D. properties file   722 does not exist.
 End of Minotr F.D. properties file   788 does not exist.

 **********************************************************************

            Population analysis using the SCF density.

 **********************************************************************

 Alpha  occ. eigenvalues --  -19.28111 -19.24964 -19.23070 -14.66011 -14.48830
 Alpha  occ. eigenvalues --  -14.44518 -14.37068 -10.43986 -10.43195 -10.42410
 Alpha  occ. eigenvalues --  -10.37563 -10.35755 -10.30448 -10.30334 -10.29272
 Alpha  occ. eigenvalues --  -10.26632  -1.23228  -1.22528  -1.20259  -1.14818
 Alpha  occ. eigenvalues --   -1.10402  -1.08019  -0.99046  -0.95648  -0.92019
 Alpha  occ. eigenvalues --   -0.87450  -0.84234  -0.81412  -0.80737  -0.78345
 Alpha  occ. eigenvalues --   -0.74528  -0.72621  -0.71950  -0.70416  -0.68960
 Alpha  occ. eigenvalues --   -0.67909  -0.66595  -0.64872  -0.62571  -0.61082
 Alpha  occ. eigenvalues --   -0.59635  -0.59074  -0.57958  -0.56817  -0.55899
 Alpha  occ. eigenvalues --   -0.55203  -0.53683  -0.51926  -0.51128  -0.50355
 Alpha  occ. eigenvalues --   -0.49989  -0.49430  -0.49026  -0.44004  -0.42849
 Alpha  occ. eigenvalues --   -0.41447  -0.40248  -0.36519  -0.34971  -0.31960
 Alpha virt. eigenvalues --   -0.21340  -0.16205  -0.15571  -0.14885  -0.13777
 Alpha virt. eigenvalues --   -0.11855  -0.11560  -0.10323  -0.09881  -0.09319
 Alpha virt. eigenvalues --   -0.08744  -0.07978  -0.07322  -0.06473  -0.06316
 Alpha virt. eigenvalues --   -0.06110  -0.05736  -0.05068  -0.04565  -0.03851
 Alpha virt. eigenvalues --   -0.03722  -0.02980  -0.02473  -0.02235  -0.01835
 Alpha virt. eigenvalues --   -0.01424  -0.01166  -0.00848  -0.00591  -0.00129
 Alpha virt. eigenvalues --    0.00028   0.00250   0.00851   0.01100   0.01416
 Alpha virt. eigenvalues --    0.01762   0.02227   0.02427   0.02858   0.03268
 Alpha virt. eigenvalues --    0.03552   0.04034   0.04366   0.04622   0.05085
 Alpha virt. eigenvalues --    0.05246   0.05560   0.05857   0.06657   0.07011
 Alpha virt. eigenvalues --    0.07062   0.07455   0.07843   0.08053   0.08165
 Alpha virt. eigenvalues --    0.08961   0.09180   0.09794   0.10030   0.10763
 Alpha virt. eigenvalues --    0.10999   0.11122   0.11717   0.12494   0.12519
 Alpha virt. eigenvalues --    0.13051   0.13680   0.13864   0.14519   0.14661
 Alpha virt. eigenvalues --    0.14826   0.15441   0.16033   0.16532   0.16831
 Alpha virt. eigenvalues --    0.17372   0.17616   0.18158   0.18680   0.18767
 Alpha virt. eigenvalues --    0.19045   0.19998   0.20425   0.20863   0.21227
 Alpha virt. eigenvalues --    0.21344   0.21977   0.22198   0.22551   0.22957
 Alpha virt. eigenvalues --    0.23446   0.24019   0.24288   0.24838   0.25100
 Alpha virt. eigenvalues --    0.25859   0.25991   0.26550   0.26866   0.27591
 Alpha virt. eigenvalues --    0.27896   0.28299   0.29156   0.29480   0.30498
 Alpha virt. eigenvalues --    0.30926   0.31599   0.31879   0.32646   0.33313
 Alpha virt. eigenvalues --    0.34715   0.35275   0.36637   0.37564   0.38170
 Alpha virt. eigenvalues --    0.39006   0.39918   0.41027   0.42010   0.43537
 Alpha virt. eigenvalues --    0.43811   0.44530   0.45545   0.46219   0.47006
 Alpha virt. eigenvalues --    0.47285   0.48520   0.49763   0.50295   0.51679
 Alpha virt. eigenvalues --    0.52129   0.52778   0.53802   0.54273   0.55216
 Alpha virt. eigenvalues --    0.55533   0.55972   0.56378   0.57940   0.58101
 Alpha virt. eigenvalues --    0.58487   0.58920   0.59389   0.60398   0.61068
 Alpha virt. eigenvalues --    0.61808   0.62174   0.63472   0.64678   0.64973
 Alpha virt. eigenvalues --    0.66174   0.67298   0.67811   0.68745   0.69931
 Alpha virt. eigenvalues --    0.70311   0.72653   0.74603   0.75675   0.77257
 Alpha virt. eigenvalues --    0.78369   0.79787   0.81120   0.82514   0.83112
 Alpha virt. eigenvalues --    0.83589   0.84197   0.85247   0.86758   0.87431
 Alpha virt. eigenvalues --    0.89296   0.91719   0.93343   0.94677   0.96016
 Alpha virt. eigenvalues --    0.96586   0.97295   0.98932   1.00318   1.02527
 Alpha virt. eigenvalues --    1.02973   1.03824   1.04910   1.05386   1.05896
 Alpha virt. eigenvalues --    1.07529   1.07933   1.08902   1.10397   1.11161
 Alpha virt. eigenvalues --    1.12061   1.12273   1.13748   1.15645   1.16157
 Alpha virt. eigenvalues --    1.16419   1.17143   1.19532   1.19759   1.22143
 Alpha virt. eigenvalues --    1.22453   1.24813   1.25876   1.29205   1.30098
 Alpha virt. eigenvalues --    1.32205   1.32586   1.34575   1.35103   1.35754
 Alpha virt. eigenvalues --    1.38217   1.39851   1.40357   1.43121   1.43859
 Alpha virt. eigenvalues --    1.45205   1.46463   1.47248   1.48859   1.50172
 Alpha virt. eigenvalues --    1.50942   1.52667   1.53105   1.53898   1.54548
 Alpha virt. eigenvalues --    1.55338   1.56088   1.57028   1.59678   1.59819
 Alpha virt. eigenvalues --    1.60498   1.60989   1.61710   1.63637   1.64148
 Alpha virt. eigenvalues --    1.64912   1.65311   1.66481   1.68382   1.69004
 Alpha virt. eigenvalues --    1.70342   1.72784   1.74195   1.75586   1.76425
 Alpha virt. eigenvalues --    1.78027   1.79244   1.81596   1.82968   1.84696
 Alpha virt. eigenvalues --    1.86407   1.87933   1.90085   1.92325   1.94493
 Alpha virt. eigenvalues --    1.94654   1.96000   1.98330   1.98696   2.01452
 Alpha virt. eigenvalues --    2.01746   2.02994   2.05086   2.06494   2.07556
 Alpha virt. eigenvalues --    2.09828   2.11858   2.12381   2.15477   2.17279
 Alpha virt. eigenvalues --    2.18740   2.19846   2.22849   2.25654   2.27170
 Alpha virt. eigenvalues --    2.30054   2.30729   2.32846   2.33338   2.35481
 Alpha virt. eigenvalues --    2.36958   2.37293   2.39791   2.42552   2.44992
 Alpha virt. eigenvalues --    2.47488   2.47692   2.48493   2.49120   2.50449
 Alpha virt. eigenvalues --    2.51372   2.51878   2.53170   2.53320   2.54784
 Alpha virt. eigenvalues --    2.55639   2.57301   2.58470   2.59824   2.61485
 Alpha virt. eigenvalues --    2.66105   2.66802   2.68724   2.69628   2.71005
 Alpha virt. eigenvalues --    2.71577   2.72334   2.74177   2.74950   2.75847
 Alpha virt. eigenvalues --    2.76736   2.77856   2.78006   2.80758   2.81803
 Alpha virt. eigenvalues --    2.82505   2.82769   2.83433   2.84683   2.85181
 Alpha virt. eigenvalues --    2.89932   2.90476   2.91531   2.92721   2.93682
 Alpha virt. eigenvalues --    2.96432   2.98278   3.01213   3.03861   3.05525
 Alpha virt. eigenvalues --    3.08203   3.13814   3.14011   3.21095   3.21504
 Alpha virt. eigenvalues --    3.22839   3.26624   3.28038   3.33267   3.37371
 Alpha virt. eigenvalues --    3.45148   3.47355   3.48197   3.53550   3.53892
 Alpha virt. eigenvalues --    3.57828   3.61124   3.63258   3.64424   3.66210
 Alpha virt. eigenvalues --    3.70099   3.78777   3.79664   3.80177   3.81683
 Alpha virt. eigenvalues --    3.83291   3.86810   3.93306   3.95083   3.95818
 Alpha virt. eigenvalues --    4.09294   4.15642   4.25106   4.42312   4.42508
 Alpha virt. eigenvalues --    4.44317   4.57034   4.70377   4.73402   4.84689
 Alpha virt. eigenvalues --    4.89138   4.89558   4.95993   4.96720   5.10700
 Alpha virt. eigenvalues --    5.18713   5.21522   5.30663   5.50607   5.68326
 Alpha virt. eigenvalues --    5.78629  23.64479  23.66943  23.69598  23.70519
 Alpha virt. eigenvalues --   23.72546  23.76375  23.84381  23.89210  24.08641
 Alpha virt. eigenvalues --   35.30590  35.48018  35.48219  35.63260  49.77121
 Alpha virt. eigenvalues --   49.87795  49.91572
          Condensed to atoms (all electrons):
               1          2          3          4          5          6
     1  O    8.114855   0.333074  -0.147425   0.016681  -0.000603  -0.000496
     2  C    0.333074  10.160042  -0.428463  -0.056360  -0.348393  -0.028837
     3  N   -0.147425  -0.428463   7.533124  -0.383555  -0.280369   0.011340
     4  C    0.016681  -0.056360  -0.383555  11.639331  -1.920763  -0.358938
     5  C   -0.000603  -0.348393  -0.280369  -1.920763   8.364975   0.510081
     6  O   -0.000496  -0.028837   0.011340  -0.358938   0.510081   7.826363
     7  O   -0.000513   0.038481   0.046661  -0.228233   0.385557  -0.114009
     8  C   -0.006331  -1.458051   0.040120  -2.430401   0.441632   0.051019
     9  C   -0.031733   0.218894   0.248622  -0.460337   0.246154  -0.016429
    10  C   -0.040585   0.086284   0.077044   0.300714  -0.116573  -0.010922
    11  N    0.001652   0.003283   0.001107   0.005496  -0.008600  -0.001064
    12  C   -0.000565   0.083017   0.005298   0.082083  -0.051521  -0.005678
    13  N    0.035860   0.196103   0.000613   0.009737  -0.139387  -0.012143
    14  C    0.047590  -2.888302   0.138138  -0.766998  -0.413952  -0.011713
    15  C   -0.008084   0.381587  -0.005414  -0.122151  -0.024843  -0.001074
    16  N   -0.000626  -0.000241  -0.005583   0.005611  -0.001183   0.000000
    17  H    0.000712   0.045312   0.221646   0.061339   0.007345   0.024506
    18  H   -0.005676   0.098792  -0.076314   0.636804  -0.208232   0.010530
    19  H    0.001039   0.028345   0.009049   0.049138  -0.185751   0.211789
    20  H    0.003455   0.071269  -0.012235   0.114768  -0.120526  -0.002149
    21  H   -0.010644  -0.258376   0.028726  -0.262102   0.089217   0.003986
    22  H   -0.000389   0.002352   0.002146   0.002917   0.004133  -0.003965
    23  H   -0.000392   0.004554  -0.000636   0.002580  -0.000809  -0.000104
    24  H    0.005670   0.003601   0.007632  -0.008415   0.007577   0.000212
    25  H    0.011102  -0.018106   0.028288  -0.011676  -0.008487  -0.001518
    26  H    0.007864  -0.207425   0.006847   0.023297  -0.013626  -0.000014
    27  H    0.001669   0.067731   0.000356   0.013172   0.003591   0.000064
    28  H   -0.009224  -0.128249  -0.005803  -0.011127  -0.004447  -0.000010
    29  H    0.000818  -0.022009   0.001349  -0.001803  -0.000243   0.000001
    30  H   -0.000340   0.026737  -0.002085   0.000960   0.000329   0.000006
    31  H    0.000998  -0.004280   0.001144  -0.001202  -0.000263  -0.000003
               7          8          9         10         11         12
     1  O   -0.000513  -0.006331  -0.031733  -0.040585   0.001652  -0.000565
     2  C    0.038481  -1.458051   0.218894   0.086284   0.003283   0.083017
     3  N    0.046661   0.040120   0.248622   0.077044   0.001107   0.005298
     4  C   -0.228233  -2.430401  -0.460337   0.300714   0.005496   0.082083
     5  C    0.385557   0.441632   0.246154  -0.116573  -0.008600  -0.051521
     6  O   -0.114009   0.051019  -0.016429  -0.010922  -0.001064  -0.005678
     7  O    7.990608   0.071089   0.002335  -0.001284   0.000141   0.000189
     8  C    0.071089  15.395487  -3.342231  -2.373544  -0.061197  -0.137725
     9  C    0.002335  -3.342231  10.097741  -0.400769  -0.280103  -0.005251
    10  C   -0.001284  -2.373544  -0.400769   7.972687   0.633957  -0.368975
    11  N    0.000141  -0.061197  -0.280103   0.633957   6.513549   0.356374
    12  C    0.000189  -0.137725  -0.005251  -0.368975   0.356374   5.384888
    13  N   -0.000507  -0.747585  -0.220751   0.369094   0.067979   0.166539
    14  C   -0.013116   0.338998  -0.100609  -0.043932  -0.000129   0.017127
    15  C   -0.003991  -0.096051   0.001916   0.007718   0.000006   0.005978
    16  N   -0.000045  -0.001051   0.000148  -0.000099   0.000000   0.000084
    17  H    0.062673  -0.027429  -0.002535   0.002228  -0.000008  -0.001997
    18  H   -0.016911  -0.151916  -0.119821   0.051152   0.000086  -0.004195
    19  H    0.020775   0.156898   0.016096  -0.074727   0.000146   0.002775
    20  H    0.002944   0.246327  -0.026528  -0.015473  -0.000265   0.014079
    21  H    0.001557   1.067773  -0.250490  -0.083909   0.001408  -0.030856
    22  H   -0.000276  -0.121899  -0.096950   0.531577  -0.064732   0.033131
    23  H   -0.000025   0.016895   0.080257  -0.035006  -0.071026   0.447435
    24  H    0.000269  -0.143074  -0.031452   0.063766   0.014198  -0.058337
    25  H   -0.005302   0.005574   0.001365   0.000605   0.000004   0.000352
    26  H    0.000840   0.001819  -0.002655  -0.001178   0.000024   0.000584
    27  H    0.000006   0.003776   0.001548  -0.001012  -0.000072  -0.000165
    28  H    0.000110  -0.011705   0.001497  -0.000052   0.000012   0.001141
    29  H    0.000016   0.000380  -0.000005   0.000004   0.000000   0.000000
    30  H    0.000045   0.000277  -0.000197  -0.000070   0.000000  -0.000005
    31  H   -0.000015  -0.000257   0.000096   0.000050   0.000000   0.000032
              13         14         15         16         17         18
     1  O    0.035860   0.047590  -0.008084  -0.000626   0.000712  -0.005676
     2  C    0.196103  -2.888302   0.381587  -0.000241   0.045312   0.098792
     3  N    0.000613   0.138138  -0.005414  -0.005583   0.221646  -0.076314
     4  C    0.009737  -0.766998  -0.122151   0.005611   0.061339   0.636804
     5  C   -0.139387  -0.413952  -0.024843  -0.001183   0.007345  -0.208232
     6  O   -0.012143  -0.011713  -0.001074   0.000000   0.024506   0.010530
     7  O   -0.000507  -0.013116  -0.003991  -0.000045   0.062673  -0.016911
     8  C   -0.747585   0.338998  -0.096051  -0.001051  -0.027429  -0.151916
     9  C   -0.220751  -0.100609   0.001916   0.000148  -0.002535  -0.119821
    10  C    0.369094  -0.043932   0.007718  -0.000099   0.002228   0.051152
    11  N    0.067979  -0.000129   0.000006   0.000000  -0.000008   0.000086
    12  C    0.166539   0.017127   0.005978   0.000084  -0.001997  -0.004195
    13  N    7.149857   0.027157   0.012783   0.000117  -0.004927   0.042444
    14  C    0.027157  10.025073  -0.672780  -0.131306  -0.073110  -0.030565
    15  C    0.012783  -0.672780   6.416259   0.112623  -0.036033   0.009540
    16  N    0.000117  -0.131306   0.112623   6.188128  -0.001599   0.000305
    17  H   -0.004927  -0.073110  -0.036033  -0.001599   0.434730   0.009648
    18  H    0.042444  -0.030565   0.009540   0.000305   0.009648   0.477700
    19  H    0.008799   0.009411  -0.000177  -0.000004  -0.004670  -0.019167
    20  H    0.009748  -0.005405   0.004131   0.000042   0.003683  -0.000686
    21  H   -0.021908  -0.005601  -0.028103  -0.000500  -0.002672  -0.005499
    22  H    0.027684  -0.000313   0.000092   0.000000  -0.000196   0.000010
    23  H   -0.123509   0.000758   0.000472   0.000011  -0.000084  -0.000391
    24  H    0.374019  -0.016671   0.002732  -0.001105   0.000746   0.000217
    25  H    0.000787   0.320366   0.033115   0.002708  -0.020449   0.000331
    26  H    0.000239   0.559354  -0.109269   0.011135   0.001755   0.000355
    27  H   -0.002175  -0.121520   0.400620  -0.021481   0.001717  -0.000028
    28  H    0.002130   0.137150   0.358796  -0.009909   0.000525  -0.000085
    29  H   -0.000010   0.033592  -0.021081   0.351114   0.000015   0.000016
    30  H    0.000019  -0.013700  -0.013720   0.347089   0.001159  -0.000011
    31  H    0.000024   0.002579  -0.010790   0.340194  -0.000522   0.000035
              19         20         21         22         23         24
     1  O    0.001039   0.003455  -0.010644  -0.000389  -0.000392   0.005670
     2  C    0.028345   0.071269  -0.258376   0.002352   0.004554   0.003601
     3  N    0.009049  -0.012235   0.028726   0.002146  -0.000636   0.007632
     4  C    0.049138   0.114768  -0.262102   0.002917   0.002580  -0.008415
     5  C   -0.185751  -0.120526   0.089217   0.004133  -0.000809   0.007577
     6  O    0.211789  -0.002149   0.003986  -0.003965  -0.000104   0.000212
     7  O    0.020775   0.002944   0.001557  -0.000276  -0.000025   0.000269
     8  C    0.156898   0.246327   1.067773  -0.121899   0.016895  -0.143074
     9  C    0.016096  -0.026528  -0.250490  -0.096950   0.080257  -0.031452
    10  C   -0.074727  -0.015473  -0.083909   0.531577  -0.035006   0.063766
    11  N    0.000146  -0.000265   0.001408  -0.064732  -0.071026   0.014198
    12  C    0.002775   0.014079  -0.030856   0.033131   0.447435  -0.058337
    13  N    0.008799   0.009748  -0.021908   0.027684  -0.123509   0.374019
    14  C    0.009411  -0.005405  -0.005601  -0.000313   0.000758  -0.016671
    15  C   -0.000177   0.004131  -0.028103   0.000092   0.000472   0.002732
    16  N   -0.000004   0.000042  -0.000500   0.000000   0.000011  -0.001105
    17  H   -0.004670   0.003683  -0.002672  -0.000196  -0.000084   0.000746
    18  H   -0.019167  -0.000686  -0.005499   0.000010  -0.000391   0.000217
    19  H    0.485470  -0.002519   0.006889  -0.004101  -0.000094   0.000476
    20  H   -0.002519   0.497175  -0.061591  -0.003918   0.001300  -0.003044
    21  H    0.006889  -0.061591   0.647762  -0.002021  -0.002912   0.001159
    22  H   -0.004101  -0.003918  -0.002021   0.537511  -0.001236   0.003583
    23  H   -0.000094   0.001300  -0.002912  -0.001236   0.523986  -0.015015
    24  H    0.000476  -0.003044   0.001159   0.003583  -0.015015   0.390309
    25  H    0.000315  -0.000167   0.000629   0.000022   0.000027   0.001012
    26  H   -0.000086   0.000340   0.000588  -0.000016   0.000023  -0.001867
    27  H   -0.000021  -0.000225   0.000923  -0.000023   0.000129  -0.000749
    28  H   -0.000023   0.000870  -0.008218   0.000013   0.000087  -0.001719
    29  H    0.000004  -0.000015   0.000010   0.000000  -0.000001  -0.000004
    30  H    0.000000   0.000009   0.000083  -0.000001   0.000001  -0.000111
    31  H   -0.000001   0.000005  -0.000126   0.000001   0.000001   0.000079
              25         26         27         28         29         30
     1  O    0.011102   0.007864   0.001669  -0.009224   0.000818  -0.000340
     2  C   -0.018106  -0.207425   0.067731  -0.128249  -0.022009   0.026737
     3  N    0.028288   0.006847   0.000356  -0.005803   0.001349  -0.002085
     4  C   -0.011676   0.023297   0.013172  -0.011127  -0.001803   0.000960
     5  C   -0.008487  -0.013626   0.003591  -0.004447  -0.000243   0.000329
     6  O   -0.001518  -0.000014   0.000064  -0.000010   0.000001   0.000006
     7  O   -0.005302   0.000840   0.000006   0.000110   0.000016   0.000045
     8  C    0.005574   0.001819   0.003776  -0.011705   0.000380   0.000277
     9  C    0.001365  -0.002655   0.001548   0.001497  -0.000005  -0.000197
    10  C    0.000605  -0.001178  -0.001012  -0.000052   0.000004  -0.000070
    11  N    0.000004   0.000024  -0.000072   0.000012   0.000000   0.000000
    12  C    0.000352   0.000584  -0.000165   0.001141   0.000000  -0.000005
    13  N    0.000787   0.000239  -0.002175   0.002130  -0.000010   0.000019
    14  C    0.320366   0.559354  -0.121520   0.137150   0.033592  -0.013700
    15  C    0.033115  -0.109269   0.400620   0.358796  -0.021081  -0.013720
    16  N    0.002708   0.011135  -0.021481  -0.009909   0.351114   0.347089
    17  H   -0.020449   0.001755   0.001717   0.000525   0.000015   0.001159
    18  H    0.000331   0.000355  -0.000028  -0.000085   0.000016  -0.000011
    19  H    0.000315  -0.000086  -0.000021  -0.000023   0.000004   0.000000
    20  H   -0.000167   0.000340  -0.000225   0.000870  -0.000015   0.000009
    21  H    0.000629   0.000588   0.000923  -0.008218   0.000010   0.000083
    22  H    0.000022  -0.000016  -0.000023   0.000013   0.000000  -0.000001
    23  H    0.000027   0.000023   0.000129   0.000087  -0.000001   0.000001
    24  H    0.001012  -0.001867  -0.000749  -0.001719  -0.000004  -0.000111
    25  H    0.559158  -0.058501   0.006201  -0.017890   0.000626  -0.002622
    26  H   -0.058501   0.557441  -0.015429   0.013817   0.000591  -0.000641
    27  H    0.006201  -0.015429   0.408977  -0.020984  -0.005411   0.002338
    28  H   -0.017890   0.013817  -0.020984   0.464367   0.002160  -0.008200
    29  H    0.000626   0.000591  -0.005411   0.002160   0.357203  -0.028357
    30  H   -0.002622  -0.000641   0.002338  -0.008200  -0.028357   0.363661
    31  H    0.003156   0.000145  -0.000370  -0.003320  -0.010328  -0.014291
              31
     1  O    0.000998
     2  C   -0.004280
     3  N    0.001144
     4  C   -0.001202
     5  C   -0.000263
     6  O   -0.000003
     7  O   -0.000015
     8  C   -0.000257
     9  C    0.000096
    10  C    0.000050
    11  N    0.000000
    12  C    0.000032
    13  N    0.000024
    14  C    0.002579
    15  C   -0.010790
    16  N    0.340194
    17  H   -0.000522
    18  H    0.000035
    19  H   -0.000001
    20  H    0.000005
    21  H   -0.000126
    22  H    0.000001
    23  H    0.000001
    24  H    0.000079
    25  H    0.003156
    26  H    0.000145
    27  H   -0.000370
    28  H   -0.003320
    29  H   -0.010328
    30  H   -0.014291
    31  H    0.346569
 Mulliken charges:
               1
     1  O   -0.319411
     2  C   -0.002366
     3  N   -0.061370
     4  C    0.059433
     5  C   -0.212020
     6  O   -0.080832
     7  O   -0.240070
     8  C   -0.727617
     9  C    0.472179
    10  C   -0.528772
    11  N   -0.112226
    12  C    0.064165
    13  N   -0.228830
    14  C   -0.347573
    15  C   -0.594806
    16  N   -0.184577
    17  H    0.296493
    18  H    0.301531
    19  H    0.283925
    20  H    0.284598
    21  H    0.184821
    22  H    0.154863
    23  H    0.172723
    24  H    0.404306
    25  H    0.168976
    26  H    0.223651
    27  H    0.276847
    28  H    0.258290
    29  H    0.341370
    30  H    0.341638
    31  H    0.350661
 Sum of Mulliken charges =   1.00000
 Mulliken charges with hydrogens summed into heavy atoms:
               1
     1  O   -0.319411
     2  C   -0.002366
     3  N    0.235123
     4  C    0.360965
     5  C   -0.212020
     6  O    0.203093
     7  O   -0.240070
     8  C   -0.258197
     9  C    0.472179
    10  C   -0.373909
    11  N   -0.112226
    12  C    0.236888
    13  N    0.175476
    14  C    0.045054
    15  C   -0.059669
    16  N    0.849091
 APT charges:
               1
     1  O   -0.464418
     2  C   -0.032108
     3  N   -0.474887
     4  C   -0.118315
     5  C   -0.802338
     6  O    0.200246
     7  O    0.104194
     8  C   -1.166011
     9  C    0.700293
    10  C   -1.112531
    11  N    0.197464
    12  C   -0.397214
    13  N   -0.588958
    14  C   -0.714136
    15  C   -0.210126
    16  N   -1.816093
    17  H    0.650602
    18  H    0.375094
    19  H    0.308461
    20  H    0.698064
    21  H    0.144652
    22  H    0.781265
    23  H    0.735700
    24  H    0.111256
    25  H    0.427347
    26  H    0.484120
    27  H    0.254805
    28  H    0.206685
    29  H    0.749978
    30  H    0.710787
    31  H    1.056123
 Sum of APT charges =   1.00000
 APT charges with hydrogens summed into heavy atoms:
               1
     1  O   -0.464418
     2  C   -0.032108
     3  N    0.175714
     4  C    0.256780
     5  C   -0.802338
     6  O    0.508707
     7  O    0.104194
     8  C   -0.323295
     9  C    0.700293
    10  C   -0.331267
    11  N    0.197464
    12  C    0.338486
    13  N   -0.477702
    14  C    0.197331
    15  C    0.251364
    16  N    0.700795
 Electronic spatial extent (au):  <R**2>=           4912.1966
 Charge=              1.0000 electrons
 Dipole moment (field-independent basis, Debye):
    X=             22.5141    Y=             -4.2517    Z=              2.0236  Tot=             23.0012
 Quadrupole moment (field-independent basis, Debye-Ang):
   XX=             -5.3089   YY=            -94.4398   ZZ=            -93.0170
   XY=            -24.8143   XZ=             13.0090   YZ=              6.2368
 Traceless Quadrupole moment (field-independent basis, Debye-Ang):
   XX=             58.9464   YY=            -30.1846   ZZ=            -28.7618
   XY=            -24.8143   XZ=             13.0090   YZ=              6.2368
 Octapole moment (field-independent basis, Debye-Ang**2):
  XXX=            769.2892  YYY=           -143.6076  ZZZ=             37.6739  XYY=             97.0651
  XXY=            -77.3080  XXZ=             35.1965  XZZ=             90.5242  YZZ=            -39.1066
  YYZ=             49.5109  XYZ=            -27.6820
 Hexadecapole moment (field-independent basis, Debye-Ang**3):
 XXXX=          -2384.2984 YYYY=          -1581.7447 ZZZZ=           -621.3073 XXXY=           -633.3746
 XXXZ=            413.2114 YYYX=            169.4349 YYYZ=            439.5108 ZZZX=             79.1433
 ZZZY=            368.1464 XXYY=           -793.2991 XXZZ=           -754.5631 YYZZ=           -414.2438
 XXYZ=            117.1795 YYXZ=              0.8906 ZZXY=             20.8420
 N-N= 1.129962176398D+03 E-N=-4.105651199626D+03  KE= 7.938397090710D+02
  Exact polarizability:   0.000   0.000   0.000   0.000   0.000   0.000
 Approx polarizability: 229.575  11.803 224.676  -9.150 -12.536 152.390
 Calling FoFJK, ICntrl=    100147 FMM=F ISym2X=0 I1Cent= 0 IOpClX= 0 NMat=1 NMatS=1 NMatT=0.
 -------------------------------------------------------------------
 Center     Atomic                   Forces (Hartrees/Bohr)
 Number     Number              X              Y              Z
 -------------------------------------------------------------------
      1        8           0.015749183   -0.002110239    0.003307628
      2        6          -0.023806566    0.002082659   -0.003686627
      3        7           0.012405289   -0.008319307    0.001210377
      4        6           0.000821817   -0.000003610   -0.002319605
      5        6          -0.011048553    0.003562891   -0.003498271
      6        8           0.009460192   -0.001335876    0.001674904
      7        8           0.005644814    0.001288463    0.000533021
      8        6          -0.007611248   -0.006234336    0.001465877
      9        6           0.008898193    0.010579441   -0.002219513
     10        6          -0.014970030   -0.001334312    0.000693883
     11        7          -0.000301769    0.005356059    0.000132774
     12        6          -0.004385888   -0.004475125    0.000886451
     13        7           0.007688355   -0.002799588   -0.000698763
     14        6           0.011647058    0.005251759   -0.003608709
     15        6          -0.029420707   -0.000780714    0.002728383
     16        7           0.005539059   -0.001252799    0.000798681
     17        1           0.002081876    0.006175636   -0.000378245
     18        1          -0.000620851   -0.000282271    0.002752986
     19        1          -0.006606751   -0.002490897    0.000965679
     20        1           0.000150781    0.001006765   -0.000043496
     21        1           0.003292686    0.000963475    0.000942515
     22        1           0.000376962   -0.000681696    0.000691929
     23        1          -0.001580695   -0.002704802   -0.000042470
     24        1           0.001514917   -0.000806550   -0.000802632
     25        1           0.000628225    0.002037156   -0.000400539
     26        1          -0.001128486    0.000915419   -0.003067624
     27        1           0.004794316   -0.003067771    0.000792199
     28        1           0.005701785   -0.001115289    0.002728938
     29        1           0.002087161   -0.000563131   -0.004505367
     30        1           0.002173213    0.003958117    0.000394585
     31        1           0.000825663   -0.002819530    0.002571052
 -------------------------------------------------------------------
 Cartesian Forces:  Max     0.029420707 RMS     0.006024033
 FormGI is forming the generalized inverse of G from B-inverse, IUseBI=4.

 GradGradGradGradGradGradGradGradGradGradGradGradGradGradGradGradGradGrad
 Berny optimization.
 Internal  Forces:  Max     0.020554376 RMS     0.004055230
 Search for a local minimum.
 Step number   1 out of a maximum of  167
 All quantities printed in internal units (Hartrees-Bohrs-Radians)
 Mixed Optimization -- RFO/linear search
 Second derivative matrix not updated -- analytic derivatives used.
 ITU=  0
     Eigenvalues ---    0.00035   0.00158   0.00175   0.00199   0.00375
     Eigenvalues ---    0.00494   0.00540   0.00820   0.00987   0.01286
     Eigenvalues ---    0.01506   0.02080   0.02373   0.02754   0.03356
     Eigenvalues ---    0.03793   0.03955   0.04074   0.04174   0.04236
     Eigenvalues ---    0.04357   0.04456   0.04912   0.04995   0.05322
     Eigenvalues ---    0.05371   0.06022   0.06093   0.06253   0.07503
     Eigenvalues ---    0.07844   0.08242   0.10479   0.10634   0.10901
     Eigenvalues ---    0.11404   0.11642   0.12467   0.13030   0.13296
     Eigenvalues ---    0.13716   0.15634   0.15856   0.16850   0.17277
     Eigenvalues ---    0.17817   0.19095   0.19700   0.20217   0.21726
     Eigenvalues ---    0.22759   0.23062   0.23809   0.24108   0.25148
     Eigenvalues ---    0.27069   0.29276   0.29837   0.31500   0.32122
     Eigenvalues ---    0.32793   0.33301   0.33827   0.33998   0.34217
     Eigenvalues ---    0.34306   0.34735   0.35095   0.35276   0.36675
     Eigenvalues ---    0.36884   0.37589   0.41845   0.43266   0.43360
     Eigenvalues ---    0.43532   0.44436   0.44653   0.46535   0.46751
     Eigenvalues ---    0.47049   0.48539   0.52099   0.59474   0.69038
     Eigenvalues ---    0.77708   0.90376
 RFO step:  Lambda=-9.22652452D-03 EMin= 3.47020111D-04
 Linear search not attempted -- first point.
 Iteration  1 RMS(Cart)=  0.07940058 RMS(Int)=  0.00195271
 Iteration  2 RMS(Cart)=  0.00295520 RMS(Int)=  0.00030222
 Iteration  3 RMS(Cart)=  0.00000549 RMS(Int)=  0.00030221
 Iteration  4 RMS(Cart)=  0.00000000 RMS(Int)=  0.00030221
 Variable       Old X    -DE/DX   Delta X   Delta X   Delta X     New X
                                 (Linear)    (Quad)   (Total)
    R1        2.32881  -0.00571   0.00000  -0.00548  -0.00548   2.32334
    R2        2.55251  -0.00505   0.00000  -0.02395  -0.02395   2.52856
    R3        2.86524   0.00292   0.00000   0.03100   0.03100   2.89624
    R4        2.73423   0.00916   0.00000   0.01250   0.01250   2.74674
    R5        1.90651   0.00608   0.00000   0.01296   0.01296   1.91947
    R6        2.87645   0.00162   0.00000   0.00709   0.00709   2.88354
    R7        2.94870   0.00401   0.00000   0.01047   0.01047   2.95916
    R8        2.07176  -0.00117   0.00000  -0.00467  -0.00467   2.06709
    R9        2.54845  -0.00373   0.00000  -0.02149  -0.02149   2.52696
   R10        2.26522   0.00452   0.00000   0.00748   0.00748   2.27270
   R11        1.82263   0.00564   0.00000   0.01103   0.01103   1.83366
   R12        2.82477  -0.00054   0.00000  -0.01580  -0.01580   2.80897
   R13        2.06002   0.00079   0.00000   0.00262   0.00262   2.06264
   R14        2.05656   0.00286   0.00000   0.00790   0.00790   2.06446
   R15        2.57451   0.01255   0.00000   0.02303   0.02303   2.59754
   R16        2.59556   0.00825   0.00000   0.01749   0.01750   2.61306
   R17        2.61665  -0.00344   0.00000  -0.01407  -0.01408   2.60257
   R18        2.04228  -0.00065   0.00000  -0.00150  -0.00150   2.04078
   R19        2.47778   0.00337   0.00000   0.00312   0.00311   2.48089
   R20        2.56248   0.00963   0.00000   0.02118   0.02119   2.58367
   R21        2.03291   0.00268   0.00000   0.00621   0.00621   2.03913
   R22        1.90717   0.00181   0.00000   0.00648   0.00648   1.91365
   R23        2.86982   0.00400   0.00000   0.00423   0.00423   2.87405
   R24        2.06295   0.00199   0.00000   0.00332   0.00332   2.06626
   R25        2.06718   0.00232   0.00000   0.00474   0.00474   2.07191
   R26        2.81148   0.01066   0.00000   0.05637   0.05637   2.86786
   R27        2.05790   0.00081   0.00000  -0.00066  -0.00066   2.05723
   R28        2.05877   0.00070   0.00000   0.00030   0.00030   2.05907
   R29        1.92736   0.00493   0.00000   0.00934   0.00934   1.93670
   R30        1.92782   0.00446   0.00000   0.00827   0.00827   1.93609
   R31        1.92946   0.00384   0.00000   0.00697   0.00697   1.93643
    A1        2.11118   0.02055   0.00000   0.05877   0.05874   2.16993
    A2        2.13921  -0.01434   0.00000  -0.05111  -0.05114   2.08807
    A3        2.03256  -0.00620   0.00000  -0.00736  -0.00739   2.02517
    A4        2.10480   0.01293   0.00000   0.01283   0.01270   2.11750
    A5        2.13351  -0.00523   0.00000   0.00778   0.00767   2.14118
    A6        2.02256  -0.00746   0.00000  -0.01471  -0.01486   2.00769
    A7        1.87074  -0.00559   0.00000  -0.00185  -0.00184   1.86890
    A8        1.95565   0.00842   0.00000   0.02154   0.02161   1.97726
    A9        1.88929   0.00053   0.00000   0.00259   0.00270   1.89199
   A10        1.95725  -0.00323   0.00000  -0.00786  -0.00795   1.94930
   A11        1.87142   0.00238   0.00000   0.01062   0.01047   1.88189
   A12        1.91614  -0.00264   0.00000  -0.02454  -0.02454   1.89160
   A13        2.00674   0.00121   0.00000   0.00884   0.00883   2.01557
   A14        2.15930  -0.00472   0.00000  -0.02172  -0.02173   2.13757
   A15        2.11713   0.00351   0.00000   0.01285   0.01284   2.12997
   A16        1.91543   0.00786   0.00000   0.04037   0.04037   1.95580
   A17        1.96584   0.00423   0.00000  -0.02033  -0.02034   1.94550
   A18        1.93589  -0.00167   0.00000  -0.00684  -0.00691   1.92898
   A19        1.88687  -0.00240   0.00000  -0.00298  -0.00283   1.88405
   A20        1.89761  -0.00361   0.00000   0.00410   0.00385   1.90145
   A21        1.91528   0.00281   0.00000   0.02874   0.02871   1.94399
   A22        1.85934   0.00053   0.00000  -0.00113  -0.00128   1.85805
   A23        2.31642  -0.00437   0.00000   0.00568   0.00565   2.32207
   A24        2.13078   0.00587   0.00000  -0.00428  -0.00431   2.12647
   A25        1.83569  -0.00151   0.00000  -0.00168  -0.00168   1.83401
   A26        1.92996   0.00042   0.00000  -0.00116  -0.00119   1.92877
   A27        2.23497  -0.00004   0.00000  -0.00175  -0.00179   2.23318
   A28        2.11826  -0.00039   0.00000   0.00291   0.00288   2.12113
   A29        1.83132   0.00333   0.00000   0.01224   0.01223   1.84355
   A30        1.95147   0.00009   0.00000  -0.00299  -0.00298   1.94848
   A31        2.20619  -0.00169   0.00000  -0.00963  -0.00963   2.19656
   A32        2.12552   0.00160   0.00000   0.01262   0.01262   2.13814
   A33        1.87633  -0.00233   0.00000  -0.00640  -0.00638   1.86995
   A34        2.16659   0.00145   0.00000   0.00298   0.00296   2.16954
   A35        2.24026   0.00088   0.00000   0.00346   0.00344   2.24369
   A36        1.95048  -0.01184   0.00000  -0.06486  -0.06486   1.88562
   A37        1.91380   0.00430   0.00000   0.02783   0.02814   1.94194
   A38        1.88311   0.00143   0.00000  -0.00896  -0.00903   1.87409
   A39        1.93221   0.00374   0.00000   0.01999   0.02009   1.95230
   A40        1.90561   0.00478   0.00000   0.02212   0.02118   1.92679
   A41        1.87646  -0.00211   0.00000   0.00579   0.00537   1.88182
   A42        1.95463  -0.00324   0.00000  -0.01447  -0.01405   1.94058
   A43        1.89392   0.00411   0.00000   0.03640   0.03548   1.92940
   A44        1.91292   0.00444   0.00000   0.04248   0.04163   1.95455
   A45        1.91974  -0.00267   0.00000  -0.04170  -0.04157   1.87817
   A46        1.90971  -0.00268   0.00000  -0.04263  -0.04245   1.86727
   A47        1.87099   0.00026   0.00000   0.02245   0.01986   1.89085
   A48        1.93940   0.00076   0.00000   0.00099   0.00098   1.94038
   A49        1.94585   0.00063   0.00000   0.00300   0.00300   1.94886
   A50        1.95191  -0.00111   0.00000  -0.00915  -0.00915   1.94276
   A51        1.87891  -0.00085   0.00000  -0.00415  -0.00415   1.87477
   A52        1.87198   0.00021   0.00000   0.00443   0.00443   1.87641
   A53        1.87195   0.00032   0.00000   0.00521   0.00521   1.87716
    D1       -0.04469  -0.00124   0.00000  -0.04309  -0.04328  -0.08797
    D2       -2.95156  -0.00157   0.00000  -0.07180  -0.07222  -3.02378
    D3        3.07420  -0.00070   0.00000  -0.02869  -0.02827   3.04594
    D4        0.16733  -0.00103   0.00000  -0.05739  -0.05720   0.11013
    D5       -0.51302   0.00072   0.00000   0.02436   0.02369  -0.48934
    D6       -2.66232   0.00103   0.00000   0.02364   0.02351  -2.63880
    D7        1.58209   0.00040   0.00000   0.00670   0.00685   1.58894
    D8        2.65167  -0.00033   0.00000   0.00813   0.00789   2.65956
    D9        0.50238  -0.00002   0.00000   0.00741   0.00772   0.51010
   D10       -1.53640  -0.00065   0.00000  -0.00953  -0.00895  -1.54535
   D11       -2.85552  -0.00056   0.00000  -0.01889  -0.01877  -2.87430
   D12        1.27339   0.00198   0.00000  -0.02150  -0.02141   1.25198
   D13       -0.84207  -0.00039   0.00000  -0.00617  -0.00615  -0.84822
   D14        0.06565  -0.00018   0.00000   0.01071   0.01068   0.07632
   D15       -2.08863   0.00235   0.00000   0.00809   0.00804  -2.08059
   D16        2.07910  -0.00001   0.00000   0.02343   0.02330   2.10240
   D17        3.07123  -0.00159   0.00000   0.00133   0.00135   3.07258
   D18       -0.07601  -0.00191   0.00000  -0.00544  -0.00540  -0.08140
   D19       -1.05866   0.00304   0.00000   0.02206   0.02208  -1.03659
   D20        2.07728   0.00272   0.00000   0.01528   0.01534   2.09262
   D21        1.04591  -0.00061   0.00000  -0.00601  -0.00610   1.03981
   D22       -2.10133  -0.00093   0.00000  -0.01279  -0.01284  -2.11417
   D23       -2.19363  -0.00711   0.00000  -0.05520  -0.05512  -2.24875
   D24        1.95811  -0.00422   0.00000  -0.04101  -0.04101   1.91709
   D25       -0.07443  -0.00253   0.00000  -0.03409  -0.03403  -0.10846
   D26        1.98474  -0.00358   0.00000  -0.06256  -0.06245   1.92229
   D27       -0.14670  -0.00069   0.00000  -0.04837  -0.04835  -0.19505
   D28       -2.17924   0.00101   0.00000  -0.04145  -0.04136  -2.22061
   D29       -0.09372  -0.00274   0.00000  -0.05453  -0.05461  -0.14833
   D30       -2.22517   0.00015   0.00000  -0.04034  -0.04050  -2.26567
   D31        2.02548   0.00185   0.00000  -0.03342  -0.03352   1.99196
   D32       -0.04422   0.00033   0.00000   0.01809   0.01804  -0.02618
   D33        3.10287   0.00067   0.00000   0.02481   0.02487   3.12774
   D34       -2.04190   0.00124   0.00000   0.03549   0.03544  -2.00646
   D35        1.06947   0.00123   0.00000   0.02134   0.02127   1.09074
   D36        0.11101  -0.00063   0.00000   0.01588   0.01581   0.12683
   D37       -3.06081  -0.00064   0.00000   0.00173   0.00165  -3.05916
   D38        2.13833  -0.00047   0.00000   0.03275   0.03289   2.17122
   D39       -1.03350  -0.00048   0.00000   0.01860   0.01873  -1.01477
   D40        3.11881   0.00013   0.00000  -0.01298  -0.01302   3.10579
   D41       -0.02254  -0.00036   0.00000  -0.02866  -0.02867  -0.05121
   D42        0.00375   0.00003   0.00000  -0.00050  -0.00050   0.00325
   D43       -3.13760  -0.00046   0.00000  -0.01618  -0.01615   3.12944
   D44       -3.12174  -0.00001   0.00000   0.00960   0.00956  -3.11218
   D45        0.01424  -0.00014   0.00000   0.01532   0.01527   0.02951
   D46       -0.00316  -0.00010   0.00000  -0.00104  -0.00103  -0.00419
   D47        3.13282  -0.00023   0.00000   0.00468   0.00468   3.13751
   D48       -0.00287   0.00006   0.00000   0.00189   0.00189  -0.00098
   D49        3.13850   0.00051   0.00000   0.01635   0.01637  -3.12832
   D50        0.00079  -0.00013   0.00000  -0.00259  -0.00259  -0.00180
   D51        3.13936   0.00011   0.00000  -0.00106  -0.00109   3.13827
   D52        0.00151   0.00016   0.00000   0.00238   0.00236   0.00387
   D53       -3.13415   0.00029   0.00000  -0.00365  -0.00368  -3.13783
   D54       -3.13722  -0.00006   0.00000   0.00097   0.00096  -3.13626
   D55        0.01030   0.00008   0.00000  -0.00506  -0.00508   0.00522
   D56        3.07519  -0.00111   0.00000  -0.03970  -0.03973   3.03547
   D57        0.95274   0.00152   0.00000  -0.00283  -0.00224   0.95050
   D58       -1.08514  -0.00358   0.00000  -0.07395  -0.07463  -1.15977
   D59       -1.06918  -0.00123   0.00000  -0.03523  -0.03538  -1.10456
   D60        3.09155   0.00140   0.00000   0.00163   0.00210   3.09365
   D61        1.05368  -0.00371   0.00000  -0.06948  -0.07029   0.98339
   D62        0.99333   0.00136   0.00000  -0.00260  -0.00238   0.99095
   D63       -1.12912   0.00399   0.00000   0.03426   0.03510  -1.09402
   D64        3.11619  -0.00111   0.00000  -0.03685  -0.03729   3.07890
   D65       -1.04264   0.00019   0.00000   0.00288   0.00287  -1.03977
   D66        1.05343   0.00006   0.00000   0.00031   0.00031   1.05374
   D67       -3.13400   0.00014   0.00000   0.00275   0.00274  -3.13126
   D68        1.06491   0.00142   0.00000   0.01074   0.01058   1.07549
   D69       -3.12220   0.00129   0.00000   0.00817   0.00802  -3.11418
   D70       -1.02645   0.00137   0.00000   0.01061   0.01045  -1.01600
   D71        3.11585  -0.00143   0.00000  -0.01177  -0.01161   3.10424
   D72       -1.07126  -0.00156   0.00000  -0.01434  -0.01418  -1.08544
   D73        1.02449  -0.00148   0.00000  -0.01191  -0.01175   1.01274
         Item               Value     Threshold  Converged?
 Maximum Force            0.020554     0.000450     NO 
 RMS     Force            0.004055     0.000300     NO 
 Maximum Displacement     0.289090     0.001800     NO 
 RMS     Displacement     0.079808     0.001200     NO 
 Predicted change in Energy=-5.032616D-03
 GradGradGradGradGradGradGradGradGradGradGradGradGradGradGradGradGradGrad

                          Input orientation:                          
 ---------------------------------------------------------------------
 Center     Atomic      Atomic             Coordinates (Angstroms)
 Number     Number       Type             X           Y           Z
 ---------------------------------------------------------------------
      1          8           0        0.620146   -1.055374    0.012069
      2          6           0        1.162676   -0.006487   -0.330069
      3          7           0        0.504552    1.111507   -0.657729
      4          6           0       -0.946548    1.138464   -0.736933
      5          6           0       -1.330760    2.408728   -1.490055
      6          8           0       -2.637018    2.561308   -1.732010
      7          8           0       -0.518556    3.226660   -1.833144
      8          6           0       -1.644496    1.062108    0.662763
      9          6           0       -2.679865   -0.003892    0.696981
     10          6           0       -4.046511    0.019871    0.842355
     11          7           0       -4.562680   -1.254360    0.760848
     12          6           0       -3.530524   -2.042372    0.567937
     13          7           0       -2.360284   -1.337192    0.517447
     14          6           0        2.691571    0.065252   -0.409228
     15          6           0        3.262047   -0.932295    0.587035
     16          7           0        4.771591   -1.028301    0.463827
     17          1           0        0.970745    1.932634   -1.032090
     18          1           0       -1.275779    0.282871   -1.333669
     19          1           0       -3.158352    1.811356   -1.404409
     20          1           0       -2.111025    2.017320    0.910338
     21          1           0       -0.871488    0.890871    1.415502
     22          1           0       -4.681459    0.876582    1.013061
     23          1           0       -3.566037   -3.115445    0.460143
     24          1           0       -1.419481   -1.684780    0.377606
     25          1           0        3.051258    1.080374   -0.220231
     26          1           0        2.979736   -0.208006   -1.431190
     27          1           0        2.853278   -1.925591    0.409805
     28          1           0        3.043984   -0.650574    1.616763
     29          1           0        5.048052   -1.325916   -0.477089
     30          1           0        5.223940   -0.127208    0.645732
     31          1           0        5.157015   -1.707172    1.127624
 ---------------------------------------------------------------------
                    Distance matrix (angstroms):
                    1          2          3          4          5
     1  O    0.000000
     2  C    1.229456   0.000000
     3  N    2.270983   1.338057   0.000000
     4  C    2.797939   2.434189   1.453511   0.000000
     5  C    4.249991   3.660062   2.396648   1.525904   0.000000
     6  O    5.170235   4.795486   3.622909   2.423294   1.337211
     7  O    4.799716   3.941956   2.627209   2.396960   1.202662
     8  C    3.167924   3.163515   2.522806   1.565922   2.558602
     9  C    3.530552   3.977432   3.635914   2.522989   3.524762
    10  C    4.860372   5.339560   4.914682   3.654472   4.303729
    11  N    5.240415   5.960452   5.769448   4.587522   5.378670
    12  C    4.302467   5.193975   5.266028   4.300853   5.374625
    13  N    3.036081   3.860091   3.947714   3.114641   4.372859
    14  C    2.392508   1.532622   2.437099   3.807241   4.779039
    15  C    2.706542   2.470943   3.651073   4.873726   6.047364
    16  N    4.176040   3.833881   4.903497   6.231678   7.271142
    17  H    3.184554   2.071198   1.015742   2.096148   2.394435
    18  H    2.682619   2.652735   2.076803   1.093858   2.132310
    19  H    4.949910   4.809371   3.803182   2.406322   1.924652
    20  H    4.208044   4.043702   3.181286   2.200431   2.554193
    21  H    2.825326   2.826675   2.498090   2.167928   3.310148
    22  H    5.730747   6.061165   5.453572   4.132871   4.454239
    23  H    4.687088   5.714087   5.973815   5.137165   6.270266
    24  H    2.165606   3.159907   3.548668   3.071901   4.500316
    25  H    3.244332   2.181759   2.584199   4.031478   4.751743
    26  H    2.892869   2.134193   2.909620   4.208406   5.042929
    27  H    2.429474   2.662425   3.984984   5.014192   6.316800
    28  H    2.934944   2.782863   3.837572   4.966376   6.176572
    29  H    4.463050   4.105929   5.159171   6.486595   7.460757
[...]
 0.00001119,-0.00000176,0.00000806,-0.00000176,0.00000159,-0.00001909,0
 .00001316,0.00000207,-0.01392115,-0.06037344,-0.06345549,0.00460361,0.
 02267411,0.00432068,0.00070697,-0.00040749,0.00030216,-0.00080196,-0.0
 0000895,0.00030276,-0.00001863,0.00002053,-0.00002368,0.00000822,-0.00
 001989,0.00002659,0.00001102,-0.00000906,0.00000855,0.00001133,0.00002
 914,-0.00002951,0.00000241,-0.00000142,0.00000389,-0.00000050,0.000000
 47,-0.00000029,0.00001350,0.00000939,-0.00000169,0.01456987,0.06126398
 ,0.06547579,-0.00132654,-0.00142295,-0.00404906,-0.00942207,0.00521897
 ,0.03334607,-0.00103637,-0.00041457,-0.00154975,-0.00008931,-0.0003157
 7,-0.00140701,-0.00015633,-0.00048832,0.00019739,-0.00013735,0.0001730
 8,-0.00005901,0.00006516,0.00017985,-0.00022208,0.00025757,0.00006187,
 -0.00012899,0.00002319,0.00001571,0.00000473,0.00002938,-0.00001323,-0
 .00000360,-0.00004551,-0.00003348,-0.00001048,-0.00001111,-0.00000013,
 0.00000151,-0.00001738,0.00002351,0.00000779,-0.06218701,0.01235862,0.
 06926725,0.00247331,-0.00223202,-0.01996023,0.00196793,-0.00106915,-0.
 00071642,-0.00042927,0.00032227,0.00063918,-0.00035992,0.00016143,-0.0
 0001293,0.00005672,0.00000681,-0.00000151,-0.00000377,-0.00000358,0.00
 001997,0.00004179,0.00000695,-0.00002092,0.00000480,-0.00000249,-0.000
 00066,-0.00000283,0.00000016,0.00000136,0.00002271,0.00002494,-0.00000
 321,0.00138737,-0.00076539,-0.00586904,0.07018755,-0.00096768,-0.00057
 519,-0.00156162,-0.00273490,-0.00034760,0.00701382,0.00120658,0.000258
 75,0.00009204,-0.00022249,0.00003169,0.00006714,0.00005797,0.00025872,
 -0.00016914,0.00001306,-0.00007731,0.00004284,-0.00006852,-0.00013904,
 0.00016006,0.00004156,-0.00005602,0.00006176,-0.00000218,-0.00000429,-
 0.00002032,-0.00002054,0.00000580,0.00000512,0.00002852,0.00002344,0.0
 0000747,0.00001145,0.00000660,-0.00000104,0.00001689,-0.00001599,-0.00
 001197,0.01251623,-0.05488474,-0.03814612,-0.00597095,0.00320460,0.022
 11829,-0.00100565,0.00102214,-0.00037288,0.00019339,-0.00004999,-0.000
 56909,0.00011348,0.00000687,0.00004077,-0.00002298,0.00000546,-0.00001
 207,-0.00001013,0.00000790,-0.00001714,0.00000234,-0.00002163,0.000014
 41,-0.00000382,0.00000203,-0.00000112,-0.00000018,-0.00000075,0.000001
 58,0.00000130,-0.00001129,0.00001005,0.00915856,-0.00334045,-0.0293138
 2,-0.01457609,0.05555833,0.00009632,-0.00025556,0.00069889,0.00289485,
 0.00001574,-0.00168729,-0.00040955,0.00067002,0.00048463,0.00030472,0.
 00004320,0.00012058,0.00000308,-0.00002171,0.00001094,-0.00000291,0.00
 000829,-0.00000474,-0.00000508,0.00000662,-0.00002256,-0.00009883,-0.0
 0003655,-0.00002286,-0.00000568,0.00001358,0.00003137,-0.00000283,-0.0
 0000590,-0.00000297,-0.00000477,-0.00000268,-0.00000160,-0.00000523,-0
 .00000080,0.00000004,0.00000366,0.00000438,0.00000158,0.06200472,-0.03
 825871,-0.27585883,0.00461287,-0.00242341,-0.02064778,0.00073261,-0.00
 101138,0.00198239,-0.00000789,-0.00012825,-0.00020189,-0.00000381,-0.0
 0005567,-0.00003170,-0.00000049,-0.00000108,0.00000393,0.,0.00001089,-
 0.00000962,0.00000637,-0.00000304,-0.00002736,0.00000004,0.00000008,-0
 .00000007,-0.00000035,-0.00000011,-0.00000081,-0.00000079,-0.00000052,
 -0.00000347,0.00178039,-0.00122419,-0.00600393,-0.06833277,0.03916451,
 0.30149637,-0.00205924,-0.00290278,0.00019960,0.00100648,0.00520665,-0
 .00129041,0.00039437,-0.00239565,0.00047806,-0.00032371,-0.00004586,-0
 .00001653,-0.00006392,0.00016307,-0.00012505,0.00005133,-0.00005179,0.
 00003506,0.00002189,-0.00016074,0.00010638,-0.00001293,0.00000739,-0.0
 0000368,-0.00001243,0.00003642,-0.00000765,-0.00000472,0.00000364,0.00
 001075,0.00006011,-0.00000721,-0.00000292,-0.00005506,-0.00000438,-0.0
 0000252,0.00004758,-0.00002729,-0.00001321,0.00638674,0.01570431,0.004
 08128,-0.06510449,-0.06641867,-0.00876187,-0.02126558,-0.03390456,-0.0
 0362940,0.00050922,0.00003647,0.00010321,-0.00003246,0.00005481,-0.000
 01935,-0.00001763,0.00001063,-0.00001266,0.00002467,-0.00002213,0.0000
 1225,-0.00001886,0.00001972,0.00007164,-0.00000143,0.00000138,0.000001
 69,-0.00000139,-0.00000152,0.00000192,-0.00006162,-0.00000638,0.000006
 64,-0.00257257,0.00184007,-0.00280433,0.00050923,-0.00039935,-0.000141
 88,0.08328494,-0.00228749,0.00187730,-0.00111756,-0.00156514,-0.002738
 72,0.00058668,-0.00004886,0.00025097,0.00007304,0.00000450,0.00003098,
 -0.00001643,-0.00000623,-0.00003508,0.00004181,-0.00000146,0.00000544,
 -0.00000757,0.00001583,0.00003777,-0.00001754,0.00001309,0.00000538,-0
 .00000461,0.00000657,0.00001082,0.00000251,0.00000589,-0.00000367,-0.0
 0000135,-0.00000350,-0.00001141,-0.00000161,-0.00001050,0.00000249,0.0
 0000151,0.00000102,-0.00000248,0.00000371,-0.00140658,-0.01959927,-0.0
 0192158,-0.07744522,-0.30000296,-0.03881038,0.00293134,0.00635710,0.00
 073112,-0.00004983,0.00006887,-0.00009269,0.00002130,0.00001371,0.0000
 0682,0.00000451,0.00000266,-0.00000009,-0.00000531,0.00000167,-0.00000
 111,0.00001363,-0.00000321,-0.00001931,0.00000084,-0.00000070,-0.00000
 088,-0.00000251,0.00000038,-0.00000094,-0.00000119,0.00001838,-0.00000
 475,0.00140943,-0.00052414,0.00285855,-0.00021081,0.00077271,0.0001195
 5,0.07917490,0.31716265,0.00015870,-0.00104837,-0.00124884,0.00014192,
 0.00095714,0.00068390,0.00025044,-0.00024541,0.00019068,-0.00006685,-0
 .00007132,0.00001252,-0.00001296,0.00006317,-0.00004700,0.00004131,-0.
 00001641,0.00001061,0.00001145,-0.00004916,0.00001671,-0.00000552,-0.0
 0002409,0.00001492,-0.00000357,0.00000085,-0.00001000,-0.00000925,0.00
 000399,-0.00000369,0.00001297,0.00000979,-0.00000175,0.00000355,0.0000
 0177,-0.00000099,0.00000684,-0.00000425,-0.00002088,0.00509240,0.02069
 765,0.00346829,-0.01240101,-0.04182861,-0.05900687,0.00564160,0.009468
 26,0.00022436,0.00017829,0.00005072,0.00011656,-0.00002344,-0.00000963
 ,0.00000247,-0.00001696,-0.00000837,0.00001265,0.00000427,-0.00000016,
 -0.00000294,-0.00000212,-0.00000967,0.00002420,-0.00000177,0.00000040,
 0.00000383,0.00000038,-0.00000093,0.00000502,-0.00000641,-0.00001150,0
 .00003365,-0.00240500,0.00210151,-0.00190193,0.00086242,-0.00015931,0.
 00057745,0.01101822,0.03814547,0.05878699,-0.00055569,-0.00044588,0.00
 079175,0.00203864,0.00064186,-0.00085255,-0.00059737,0.00023457,0.0002
 5582,0.00016454,0.00001186,-0.00005460,0.00007920,0.00002131,-0.000009
 67,-0.00008512,0.00000013,0.00000177,-0.00007274,-0.00002524,0.0000267
 4,-0.00004670,0.00002450,-0.00005303,-0.00000625,-0.00001013,0.0000453
 7,-0.00000168,-0.00000370,0.00001507,0.00000327,0.00000442,-0.00000035
 ,0.00000056,-0.00000221,-0.00000143,0.00000289,-0.00000209,0.00001439,
 0.00334791,-0.00492598,-0.01691342,-0.05087694,0.00197646,0.01411319,-
 0.01529706,0.01051771,0.03922976,0.00008484,-0.00010325,-0.00004638,-0
 .00001815,-0.00000548,-0.00000980,0.00002014,0.00001619,-0.00003126,-0
 .00000913,0.00001314,-0.00000384,-0.00001585,-0.00002939,-0.00001351,-
 0.00000071,0.00000093,-0.00000481,0.00000022,0.00000047,-0.00000285,-0
 .00000006,0.00000080,-0.00002632,0.00042308,-0.00009097,0.00076285,-0.
 00184184,0.00249036,-0.00181852,0.00314026,-0.00119440,-0.00963080,0.0
 6437127,-0.00020613,0.00018538,0.00068637,-0.00059516,0.00051988,-0.00
 017210,0.00004041,-0.00033031,-0.00033777,-0.00001001,-0.00001522,-0.0
 0000862,0.00001619,0.00000561,0.00001387,-0.00002504,-0.00000245,-0.00
 000429,-0.00000981,-0.00001710,-0.00001841,0.00001279,0.00002333,-0.00
 000237,0.00000368,0.00001360,-0.00000046,0.00001076,0.00000010,0.00000
 507,-0.00000211,-0.00001665,-0.00000318,-0.00001801,-0.00000172,0.0000
 0034,0.00000312,-0.00000515,0.00000619,-0.00216610,0.00547363,0.021716
 16,0.00709151,-0.06975268,-0.07006171,-0.00134542,0.00014303,0.0029995
 9,0.00000277,0.00004436,0.00011819,-0.00001401,0.00000497,-0.00000070,
 0.00000755,0.00000778,-0.00000454,0.00001038,-0.00001248,0.00000642,0.
 00000108,0.00002438,-0.00000219,0.00000308,-0.00000055,-0.00000091,-0.
 00000142,0.00000007,-0.00000175,-0.00000511,0.00000900,-0.00001463,-0.
 00104550,0.00096597,-0.00019788,0.00282052,-0.00188921,0.00276441,0.00
 440347,-0.00501859,-0.02861163,-0.00894022,0.06890057,-0.00027561,-0.0
 0054498,0.00059069,0.00073743,0.00098673,-0.00037333,-0.00026063,-0.00
 007618,0.00009878,0.00000142,0.00001355,-0.00001313,0.00001728,-0.0000
 0729,-0.00000520,-0.00002324,0.00000345,-0.00000032,-0.00001757,0.0000
 0098,0.00001462,-0.00000981,0.00000579,-0.00002243,-0.00000178,-0.0000
 0331,0.00001167,0.00000075,-0.00000084,0.00000225,0.00000171,-0.000000
 45,-0.00000113,-0.00000143,-0.00000074,0.00000009,0.00000150,0.0000009
 6,0.00000180,0.00024470,-0.00361337,-0.01642559,0.02617559,-0.06805354
 ,-0.30432524,0.00156777,-0.00072791,-0.00223839,0.00003325,-0.00008155
 ,-0.00008090,-0.00001462,0.00001620,-0.00000880,0.00000560,0.00000293,
 -0.00000749,-0.00000026,0.00000092,0.00000133,-0.00001384,-0.00000687,
 0.00001293,-0.00000003,-0.00000017,-0.00000039,0.00000020,0.00000026,-
 0.00000026,-0.00000344,0.00000089,-0.00000322,0.00042907,0.00001776,0.
 00113776,-0.00205232,0.00211662,-0.00032965,-0.00024351,-0.00057804,-0
 .00240235,-0.02700382,0.07029949,0.32326394,0.00051834,0.00028049,-0.0
 0029360,-0.00113648,-0.00074743,-0.00014865,0.00072928,-0.00015458,0.0
 0002391,-0.00023204,-0.00009022,0.00007764,-0.00017729,0.00013128,-0.0
 0010788,0.00019692,-0.00004752,0.00004488,0.00011695,-0.00007275,0.000
 05503,0.00000984,-0.00000967,0.00005314,-0.00000214,0.00001079,-0.0000
 4405,-0.00002839,0.00001164,-0.00000143,0.00005592,0.00002146,0.000003
 09,-0.00001533,0.00000445,0.00000216,0.00003346,-0.00002793,-0.0000191
 5,0.00202054,0.00014631,0.00108345,-0.00475325,0.01032539,0.03449116,-
 0.06632096,0.01804792,0.05901765,-0.00004588,0.00016714,-0.00003395,0.
 00003744,0.00000364,0.00000451,-0.00004977,-0.00001643,0.00002167,0.00
 000583,-0.00000512,-0.00000285,-0.00000530,0.00000496,0.00003316,-0.00
 000612,0.00000307,0.00000425,-0.00000088,-0.00000186,0.00000245,-0.000
 02885,-0.00002008,0.00001795,0.00010291,-0.00008251,-0.00027042,-0.000
 26863,0.00048096,-0.00161369,0.00116008,-0.00070836,-0.00014222,-0.006
 94534,-0.00072834,-0.00034935,0.06845624,-0.00041533,-0.00071830,0.000
 01296,0.00107392,0.00074393,0.00012097,-0.00037613,-0.00004836,0.00002
 237,0.00012514,0.00005332,-0.00001774,0.00015550,0.00000037,0.00003005
 ,-0.00014510,0.00000149,-0.00002218,-0.00010445,-0.00001811,-0.0000064
 7,-0.00000490,-0.00000005,-0.00002657,0.00000325,0.00001613,0.00002959
 ,0.00002416,-0.00000922,0.00000250,-0.00002572,-0.00003161,-0.00000492
 ,-0.00001650,0.00000145,-0.00000112,-0.00000732,0.00000503,0.00000421,
 -0.00063353,-0.00053892,-0.00080025,0.00096557,0.00131119,0.00253263,0
 .01552408,-0.08916016,-0.08887057,0.00006712,-0.00006940,0.00002296,-0
 .00002799,-0.00000377,-0.00000067,0.00003158,0.00002359,-0.00001708,0.
 00000110,-0.00000158,0.00000017,0.00000434,0.00000462,-0.00001294,0.00
 000473,-0.00000255,-0.00000306,-0.00000272,0.00000108,-0.00000033,0.00
 000620,0.00002722,-0.00000057,0.00014927,-0.00015711,-0.00010195,0.000
 26798,0.00032201,0.00051019,-0.00066805,-0.00001018,0.00089164,-0.0007
 4352,0.00045151,0.00020620,-0.01655819,0.08597858,-0.00019896,0.000238
 97,-0.00025451,0.00000877,0.00003979,-0.00025305,-0.00036332,0.0000614
 3,-0.00007329,0.00008583,0.00010894,0.00003053,-0.00000371,-0.00009065
 ,0.00008510,-0.00002897,0.00002691,-0.00003813,0.00000174,0.00004928,-
 0.00007367,-0.00001301,-0.00001064,0.00000531,0.00000562,0.00000393,0.
 00000079,0.00000865,-0.00000060,-0.00000804,-0.00001981,-0.00001073,-0
 .00000666,0.00000211,0.00000090,0.00000129,-0.00000992,0.00000777,-0.0
 0000811,-0.00098599,-0.00057483,0.00292666,0.00612002,-0.00021610,-0.0
 0354350,0.04945019,-0.08948068,-0.36549056,0.00001187,-0.00003769,0.00
 008627,-0.00000724,-0.00001910,0.00000889,0.00000505,-0.00000208,0.000
 01941,0.00000249,-0.00000194,-0.00000023,0.00000596,0.00000705,-0.0000
 1336,0.00000199,-0.00000178,0.00000344,-0.00000044,-0.00000021,0.00000
 333,0.00001079,0.00000601,0.00001602,0.00002696,0.00002035,-0.00028934
 ,0.00028506,-0.00037067,-0.00046325,-0.00039551,0.00057782,0.00044640,
 0.00004282,0.00071827,0.00140227,-0.05819606,0.09668431,0.38644639,0.0
 0012633,0.00137342,-0.00063191,-0.00209339,-0.00149340,0.00079927,0.00
 071525,0.00013005,-0.00001382,-0.00020080,-0.00010954,0.00000635,-0.00
 017611,0.00010081,-0.00009656,0.00018618,-0.00003531,0.00004610,0.0001
 1589,-0.00004556,0.00005183,0.00001821,-0.00000104,0.00003593,-0.00000
 389,-0.00000334,-0.00003708,-0.00003120,0.00001260,0.00000118,0.000053
 28,0.00002857,0.00000453,-0.00000479,0.00000490,0.00000198,0.00002951,
 -0.00002606,-0.00001358,0.00273285,-0.00070285,-0.00030923,-0.01164597
 ,-0.03254304,-0.00504493,-0.10218468,-0.11980925,-0.01868168,-0.000098
 53,0.00015103,-0.00009429,0.00003775,0.00001435,0.00000651,-0.00004379
 ,-0.00001781,0.00001390,-0.00000240,0.00000184,-0.00000347,-0.00000455
 ,-0.00000909,0.00002478,-0.00000693,0.00000357,0.00000297,-0.00000017,
 -0.00000140,0.00000150,-0.00002096,-0.00002276,0.00000826,-0.00043746,
 0.00107784,-0.00013957,-0.00013458,0.00010259,-0.00022979,-0.00572179,
 0.00225822,0.00209906,0.00148656,0.00013748,0.00044133,0.00254355,0.00
 770958,-0.00009611,0.10599253,0.00032885,-0.00046460,0.00023525,-0.000
 14148,0.00005151,-0.00002163,0.00042789,-0.00030622,0.00002331,-0.0000
 8929,-0.00007714,0.00000891,0.00003959,0.00015814,-0.00008439,0.000003
 82,-0.00005041,0.00002516,-0.00002683,-0.00012419,0.00005048,0.0000082
 2,0.00001181,0.00001284,0.,0.00001430,-0.00000690,-0.00000260,0.000004
 56,0.00000754,0.00002377,-0.00000679,-0.00000060,-0.00002121,0.0000009
 7,-0.00000006,0.00001814,-0.00001892,-0.00000670,0.00049513,0.00268765
 ,-0.00033048,-0.00403259,0.00465844,0.00198451,-0.11010333,-0.35185637
 ,-0.04128436,0.00007473,0.00011535,0.00002740,-0.00000332,0.00000323,-
 0.00000426,-0.00000742,0.00001353,-0.00000806,0.00000958,-0.00000692,-
 0.00000178,-0.00000880,0.00000406,0.00002222,0.00000028,0.00000071,-0.
 00000095,-0.00000167,-0.00000047,0.00000006,-0.00001870,0.00000219,0.0
 0000144,-0.00006388,-0.00064706,-0.00045400,-0.00007506,0.00001808,-0.
 00005056,0.00127495,0.00091564,0.00014843,0.00042287,0.00032156,0.0002
 3891,-0.00252580,-0.00743574,-0.00059743,0.12266537,0.37169696,0.00043
 925,0.00016370,-0.00000230,-0.00065898,0.00011137,-0.00022408,0.000239
 97,-0.00014699,-0.00004757,-0.00010355,-0.00001361,0.00003401,-0.00011
 648,0.00000016,-0.00001085,0.00010546,-0.00000428,0.00000454,0.0000813
 6,0.00000398,-0.00001530,0.00000016,-0.00000043,0.00002930,0.00000182,
 0.00000527,-0.00002654,-0.00001025,0.00000846,-0.00000506,0.00001938,0
 .00000614,-0.00000355,-0.00000522,0.00000103,0.00000174,0.00001173,-0.
 00001013,-0.00001359,-0.00005352,-0.00047858,-0.00003238,0.00190111,0.
 00807876,0.00189026,-0.01681380,-0.03926458,-0.06860144,-0.00004887,0.
 00005439,0.00002565,0.00001315,0.00000157,-0.00000285,-0.00002438,-0.0
 0001397,0.00002429,0.00000899,-0.00000854,0.00000320,-0.00000249,0.000
 01082,0.00001705,-0.00000146,0.00000048,0.00000533,-0.00000026,-0.0000
 0096,0.00000309,-0.00001268,-0.00000978,0.00001461,-0.00002338,0.00003
 254,0.00045862,-0.00018799,-0.00029106,-0.00037859,0.00167245,-0.00039
 108,-0.00003885,0.00042478,0.00076525,-0.00036337,-0.01495868,-0.03569
 444,-0.00170115,0.01691647,0.04439590,0.06423474,0.00041398,-0.0009385
 7,0.00054259,0.00059185,0.00316358,-0.00149272,-0.00078066,-0.00055435
 ,0.00008284,0.00002753,0.00018734,0.00000657,-0.00010857,-0.00004866,0
 .00001832,0.00001261,0.00001804,-0.00000979,0.00003480,0.00000679,0.00
 000029,-0.00003139,0.00000060,-0.00002557,-0.00000801,0.00001898,0.000
 01905,-0.00000055,-0.00000359,0.00000610,0.00002084,-0.00000667,-0.000
 00293,-0.00002781,0.00000203,-0.00000044,0.00002060,-0.00001087,0.0000
 0068,-0.00674813,-0.00238119,0.00283155,-0.01441879,0.02007716,-0.0200
 6672,-0.14097653,0.10925713,-0.10755498,0.00001223,-0.00005221,0.00000
 211,0.00000092,-0.00000036,-0.00000152,0.00000296,0.00000414,-0.000006
 69,-0.00000315,0.00000153,0.00000129,-0.00000520,-0.00000080,0.0000061
 3,-0.00000205,0.00000084,-0.00000096,-0.00000212,-0.00000049,-0.000000
 47,-0.00001744,0.00000371,-0.00000565,0.00013573,0.00007854,0.00022529
 ,0.00044311,-0.00042977,0.00024522,0.00073294,-0.00091368,-0.00079592,
 0.00120725,0.00054757,0.00061365,0.00402934,-0.00638406,0.00424314,0.0
 0877414,-0.00867118,0.01118591,0.14666957,-0.00022349,0.00001696,-0.00
 007893,-0.00012476,0.00022001,0.00003068,-0.00027345,-0.00000816,-0.00
 001559,0.00007828,0.00003333,0.00000313,0.00012565,-0.00000029,0.00003
 032,-0.00011197,0.00000083,-0.00001785,-0.00007890,-0.00000975,-0.0000
 1264,-0.00000215,0.00000544,-0.00002324,0.00000366,0.00001359,0.000021
 34,0.00002154,-0.00000687,0.00000217,-0.00002169,-0.00002914,-0.000003
 49,-0.00001632,0.00000116,-0.00000062,-0.00000688,0.00000335,0.0000064
 2,-0.00037403,0.00011116,0.00028941,0.00087552,0.00335477,-0.00420450,
 0.10285995,-0.19512006,0.12854892,0.00004943,-0.00006748,0.00003740,-0
 .00001564,-0.00000153,-0.00000491,0.00002551,0.00001815,-0.00001429,0.
 00000319,-0.00000419,0.00000263,0.00000709,0.00000782,-0.00000932,0.00
 000475,-0.00000235,-0.00000203,-0.00000208,0.00000110,-0.00000192,0.00
 000437,0.00002423,-0.00000694,-0.00024534,0.00017976,0.00000600,-0.000
 01961,-0.00009164,0.00014867,-0.00092151,0.00041549,-0.00044199,0.0001
 4489,-0.00003264,-0.00021638,-0.00784268,0.00926354,-0.00713659,0.0190
 4823,-0.01968387,0.02268862,-0.11297152,0.20138726,0.00024562,-0.00006
 348,-0.00009606,-0.00011661,-0.00018728,0.00071543,0.00042271,-0.00007
 430,-0.00002990,-0.00010029,-0.00007383,-0.00004583,-0.00011219,0.0000
 3031,-0.00004213,0.00011226,-0.00001307,0.00001450,0.00007561,-0.00001
 671,0.00001110,0.00002131,-0.00000358,0.00004250,0.00000343,0.00000045
 ,-0.00003371,-0.00001660,0.00000913,-0.00000617,0.00002574,0.00001440,
 -0.00000101,0.00000035,0.00000268,0.00000288,0.00001312,-0.00001209,-0
 .00001799,0.00184046,0.00072202,-0.00096573,0.00174813,-0.00752083,0.0
 0770861,-0.10043507,0.12716440,-0.18645001,-0.00004139,0.00009857,-0.0
 0000470,0.00000299,0.00000916,0.00000105,-0.00002779,-0.00001356,0.000
 02248,0.00000529,-0.00000600,0.00000097,-0.00000761,0.00000505,0.00002
 194,-0.00000245,0.00000070,0.00000601,0.00000010,-0.00000127,0.0000043
 1,-0.00001238,-0.00001264,0.00001996,-0.00013359,0.00010301,-0.0000126
 0,-0.00004473,0.00010089,0.00029080,-0.00032867,-0.00016107,0.00005490
 ,0.00075267,-0.00065648,0.00006304,-0.01875412,0.02451010,-0.01926525,
 0.00493009,-0.00433022,0.00472102,0.10993362,-0.13962446,0.19326956\\-
 0.00000155,0.00000326,-0.00000244,0.00000369,-0.00000229,0.00000073,-0
 .00000187,0.00000309,0.00000073,-0.00000045,-0.00000560,0.00000192,-0.
 00000458,0.00000046,0.00000022,0.00000443,0.00000457,-0.00000093,0.000
 00254,-0.00000102,0.00000079,0.00000139,0.00000389,-0.00000047,0.00000
 263,-0.00000163,-0.00000069,0.00000104,0.00000060,-0.00000071,0.000000
 08,-0.00000186,-0.00000090,-0.00000185,-0.00000008,-0.00000010,0.00000
 276,0.00000248,0.00000033,-0.00000130,0.00000041,-0.00000002,-0.000002
 08,-0.00000083,-0.00000014,0.00000219,0.00000039,-0.00000056,-0.000000
 28,-0.00000129,0.00000001,0.00000094,-0.00000161,0.00000051,-0.0000020
 2,-0.00000312,0.00000158,-0.00000051,0.00000127,-0.00000076,-0.0000025
 4,-0.00000029,0.,0.,0.00000023,0.00000059,0.00000008,0.00000026,-0.000
 00015,-0.00000260,-0.00000012,-0.00000086,0.00000013,-0.00000018,0.,0.
 00000075,-0.00000035,0.00000017,-0.00000039,0.00000027,0.00000059,-0.0
 0000046,-0.00000035,0.,0.00000004,-0.00000009,0.00000043,-0.00000006,-
 0.00000045,0.00000015,-0.00000014,0.,0.\\\@


 BETTER TO HUNT IN FIELDS, FOR HEALTH UNBOUGHT
 THAN FEE THE DOCTOR FOR A NAUSEOUS DRAUGHT.
 THE WISE, FOR CURE, ON EXERCISE DEPEND;
 GOD NEVER MADE HIS WORK FOR MAN TO MEND.
     -- JOHN DRYDEN (1631-1700)
 Job cpu time:       0 days  4 hours 50 minutes 37.6 seconds.
 File lengths (MBytes):  RWF=    608 Int=      0 D2E=      0 Chk=     18 Scr=      1
 Normal termination of Gaussian 09 at Sat Jul 24 04:50:29 2021.
