 Entering Gaussian System, Link 0=g09
 Input=opt_freq-conf-580.com
 Output=opt_freq-conf-580.log
 Initial command:
 /aerosol/software/g09/l1.exe "/scratch/nicole/10505/Gau-72679.inp" -scrdir="/scratch/nicole/10505/"
 Entering Link 1 = /aerosol/software/g09/l1.exe PID=     72682.
  
 Copyright (c) 1988,1990,1992,1993,1995,1998,2003,2009,2013,
            Gaussian, Inc.  All Rights Reserved.
  
 This is part of the Gaussian(R) 09 program.  It is based on
 the Gaussian(R) 03 system (copyright 2003, Gaussian, Inc.),
 the Gaussian(R) 98 system (copyright 1998, Gaussian, Inc.),
 the Gaussian(R) 94 system (copyright 1995, Gaussian, Inc.),
 the Gaussian 92(TM) system (copyright 1992, Gaussian, Inc.),
 the Gaussian 90(TM) system (copyright 1990, Gaussian, Inc.),
 the Gaussian 88(TM) system (copyright 1988, Gaussian, Inc.),
 the Gaussian 86(TM) system (copyright 1986, Carnegie Mellon
 University), and the Gaussian 82(TM) system (copyright 1983,
 Carnegie Mellon University). Gaussian is a federally registered
 trademark of Gaussian, Inc.
  
 This software contains proprietary and confidential information,
 including trade secrets, belonging to Gaussian, Inc.
  
 This software is provided under written license and may be
 used, copied, transmitted, or stored only in accord with that
 written license.
  
 The following legend is applicable only to US Government
 contracts under FAR:
  
                    RESTRICTED RIGHTS LEGEND
  
 Use, reproduction and disclosure by the US Government is
 subject to restrictions as set forth in subparagraphs (a)
 and (c) of the Commercial Computer Software - Restricted
 Rights clause in FAR 52.227-19.
  
 Gaussian, Inc.
 340 Quinnipiac St., Bldg. 40, Wallingford CT 06492
  
  
 ---------------------------------------------------------------
 Warning -- This program may not be used in any manner that
 competes with the business of Gaussian, Inc. or will provide
 assistance to any competitor of Gaussian, Inc.  The licensee
 of this program is prohibited from giving any competitor of
 Gaussian, Inc. access to this program.  By using this program,
 the user acknowledges that Gaussian, Inc. is engaged in the
 business of creating and licensing software in the field of
 computational chemistry and represents and warrants to the
 licensee that it is not a competitor of Gaussian, Inc. and that
 it will not use this program in any manner prohibited above.
 ---------------------------------------------------------------
  

 Cite this work as:
 Gaussian 09, Revision D.01,
 M. J. Frisch, G. W. Trucks, H. B. Schlegel, G. E. Scuseria, 
 M. A. Robb, J. R. Cheeseman, G. Scalmani, V. Barone, B. Mennucci, 
 G. A. Petersson, H. Nakatsuji, M. Caricato, X. Li, H. P. Hratchian, 
 A. F. Izmaylov, J. Bloino, G. Zheng, J. L. Sonnenberg, M. Hada, 
 M. Ehara, K. Toyota, R. Fukuda, J. Hasegawa, M. Ishida, T. Nakajima, 
 Y. Honda, O. Kitao, H. Nakai, T. Vreven, J. A. Montgomery, Jr., 
 J. E. Peralta, F. Ogliaro, M. Bearpark, J. J. Heyd, E. Brothers, 
 K. N. Kudin, V. N. Staroverov, T. Keith, R. Kobayashi, J. Normand, 
 K. Raghavachari, A. Rendell, J. C. Burant, S. S. Iyengar, J. Tomasi, 
 M. Cossi, N. Rega, J. M. Millam, M. Klene, J. E. Knox, J. B. Cross, 
 V. Bakken, C. Adamo, J. Jaramillo, R. Gomperts, R. E. Stratmann, 
 O. Yazyev, A. J. Austin, R. Cammi, C. Pomelli, J. W. Ochterski, 
 R. L. Martin, K. Morokuma, V. G. Zakrzewski, G. A. Voth, 
 P. Salvador, J. J. Dannenberg, S. Dapprich, A. D. Daniels, 
 O. Farkas, J. B. Foresman, J. V. Ortiz, J. Cioslowski, 
 and D. J. Fox, Gaussian, Inc., Wallingford CT, 2013.
 
 ******************************************
 Gaussian 09:  ES64L-G09RevD.01 24-Apr-2013
                24-Jul-2021 
 ******************************************
 %mem=2gb
 %nproc=4
 Will use up to    4 processors via shared memory.
 %chk=conf-580.chk
 ----------------------------------------------------------------------
 # B3LYP/6-311++G(d,p) EmpiricalDispersion=GD3BJ opt=calcfc freq=norama
 n nosymm integral(ultrafinegrid)
 ----------------------------------------------------------------------
 1/10=4,14=-1,18=20,19=15,26=4,38=1/1,3;
 2/9=110,12=2,15=1,17=6,18=5,40=1/2;
 3/5=4,6=6,7=1111,11=2,16=1,25=1,30=1,71=2,74=-5,75=-5,124=41,140=1/1,2,3;
 4//1;
 5/5=2,38=5/2;
 8/6=4,10=90,11=11/1;
 11/6=1,8=1,9=11,15=111,16=1,31=1/1,2,10;
 10/6=1,13=1,31=1/2;
 6/7=2,8=2,9=2,10=2,28=1/1;
 7/10=1,18=20,25=1,30=1/1,2,3,16;
 1/10=4,14=-1,18=20,19=15,26=4/3(2);
 2/9=110,15=1/2;
 99//99;
 2/9=110,15=1/2;
 3/5=4,6=6,7=1111,11=2,16=1,25=1,30=1,71=1,74=-5,75=-5,124=41/1,2,3;
 4/5=5,16=3,69=1/1;
 5/5=2,38=5/2;
 7/30=1/1,2,3,16;
 1/14=-1,18=20,19=15,26=4/3(-5);
 2/9=110,15=1/2;
 6/7=2,8=2,9=2,10=2,19=2,28=1/1;
 99/9=1/99;
 ------------------------------------------------------------
 Candidate Structure: Conf:580 OPT and FREQ calc in gas phase
 ------------------------------------------------------------
 Symbolic Z-matrix:
 Charge =  1 Multiplicity = 1
 O                     1.1626    0.47867  -1.24083 
 C                     1.43062   0.39643  -0.04924 
 N                     0.44893   0.32097   0.88846 
 C                    -0.95542   0.32737   0.51041 
 C                    -1.72354   0.76875   1.73533 
 O                    -2.59503   1.76808   1.49955 
 O                    -1.57563   0.26701   2.82237 
 C                    -1.39558  -1.08541   0.07214 
 C                    -2.827    -1.1616   -0.34837 
 C                    -3.94651  -1.63385   0.27999 
 N                    -5.07043  -1.45394  -0.50815 
 C                    -4.63104  -0.88057  -1.60483 
 N                    -3.28184  -0.68161  -1.55821 
 C                     2.85113   0.35726   0.49446 
 C                     3.88925   0.67519  -0.5716 
 N                     5.27509   0.60883  -0.03633 
 H                     0.66614   0.21415   1.86708 
 H                    -1.09215   1.03096  -0.31002 
 H                    -3.03128   1.94422   2.34426 
 H                    -1.24299  -1.76764   0.90622 
 H                    -0.73868  -1.39207  -0.73967 
 H                    -4.00148  -2.07935   1.265 
 H                    -5.22149  -0.59048  -2.45542 
 H                    -2.71356  -0.26592  -2.27903 
 H                     3.04083  -0.64193   0.90267 
 H                     2.93715   1.06208   1.32718 
 H                     3.77607  -0.02889  -1.39457 
 H                     3.69767   1.66864  -0.97572 
 H                     5.96943   0.81982  -0.75442 
 H                     5.41211   1.27593   0.72291 
 H                     5.48682  -0.32092   0.32558 
 

 GradGradGradGradGradGradGradGradGradGradGradGradGradGradGradGradGradGrad
 Berny optimization.
 Initialization pass.
                           ----------------------------
                           !    Initial Parameters    !
                           ! (Angstroms and Degrees)  !
 --------------------------                            --------------------------
 ! Name  Definition              Value          Derivative Info.                !
 --------------------------------------------------------------------------------
 ! R1    R(1,2)                  1.2241         calculate D2E/DX2 analytically  !
 ! R2    R(2,3)                  1.3597         calculate D2E/DX2 analytically  !
 ! R3    R(2,14)                 1.5215         calculate D2E/DX2 analytically  !
 ! R4    R(3,4)                  1.4544         calculate D2E/DX2 analytically  !
 ! R5    R(3,17)                 1.0081         calculate D2E/DX2 analytically  !
 ! R6    R(4,5)                  1.5117         calculate D2E/DX2 analytically  !
 ! R7    R(4,8)                  1.5433         calculate D2E/DX2 analytically  !
 ! R8    R(4,18)                 1.0894         calculate D2E/DX2 analytically  !
 ! R9    R(5,6)                  1.3468         calculate D2E/DX2 analytically  !
 ! R10   R(5,7)                  1.2064         calculate D2E/DX2 analytically  !
 ! R11   R(6,19)                 0.9669         calculate D2E/DX2 analytically  !
 ! R12   R(8,9)                  1.4938         calculate D2E/DX2 analytically  !
 ! R13   R(8,20)                 1.0883         calculate D2E/DX2 analytically  !
 ! R14   R(8,21)                 1.0884         calculate D2E/DX2 analytically  !
 ! R15   R(9,10)                 1.3679         calculate D2E/DX2 analytically  !
 ! R16   R(9,13)                 1.3788         calculate D2E/DX2 analytically  !
 ! R17   R(10,11)                1.3845         calculate D2E/DX2 analytically  !
 ! R18   R(10,22)                1.0825         calculate D2E/DX2 analytically  !
 ! R19   R(11,12)                1.3132         calculate D2E/DX2 analytically  !
 ! R20   R(12,13)                1.3646         calculate D2E/DX2 analytically  !
 ! R21   R(12,23)                1.0753         calculate D2E/DX2 analytically  !
 ! R22   R(13,24)                1.0076         calculate D2E/DX2 analytically  !
 ! R23   R(14,15)                1.5216         calculate D2E/DX2 analytically  !
 ! R24   R(14,25)                1.0959         calculate D2E/DX2 analytically  !
 ! R25   R(14,26)                1.0943         calculate D2E/DX2 analytically  !
 ! R26   R(15,16)                1.4871         calculate D2E/DX2 analytically  !
 ! R27   R(15,27)                1.089          calculate D2E/DX2 analytically  !
 ! R28   R(15,28)                1.0895         calculate D2E/DX2 analytically  !
 ! R29   R(16,29)                1.0209         calculate D2E/DX2 analytically  !
 ! R30   R(16,30)                1.0199         calculate D2E/DX2 analytically  !
 ! R31   R(16,31)                1.0199         calculate D2E/DX2 analytically  !
 ! A1    A(1,2,3)              121.1297         calculate D2E/DX2 analytically  !
 ! A2    A(1,2,14)             123.6408         calculate D2E/DX2 analytically  !
 ! A3    A(3,2,14)             115.227          calculate D2E/DX2 analytically  !
 ! A4    A(2,3,4)              121.176          calculate D2E/DX2 analytically  !
 ! A5    A(2,3,17)             121.3189         calculate D2E/DX2 analytically  !
 ! A6    A(4,3,17)             117.442          calculate D2E/DX2 analytically  !
 ! A7    A(3,4,5)              106.3383         calculate D2E/DX2 analytically  !
 ! A8    A(3,4,8)              110.1931         calculate D2E/DX2 analytically  !
 ! A9    A(3,4,18)             108.6502         calculate D2E/DX2 analytically  !
 ! A10   A(5,4,8)              110.6385         calculate D2E/DX2 analytically  !
 ! A11   A(5,4,18)             110.9702         calculate D2E/DX2 analytically  !
 ! A12   A(8,4,18)             109.9717         calculate D2E/DX2 analytically  !
 ! A13   A(4,5,6)              113.8036         calculate D2E/DX2 analytically  !
 ! A14   A(4,5,7)              123.1211         calculate D2E/DX2 analytically  !
 ! A15   A(6,5,7)              123.0739         calculate D2E/DX2 analytically  !
 ! A16   A(5,6,19)             105.914          calculate D2E/DX2 analytically  !
 ! A17   A(4,8,9)              113.5732         calculate D2E/DX2 analytically  !
 ! A18   A(4,8,20)             108.435          calculate D2E/DX2 analytically  !
 ! A19   A(4,8,21)             107.3141         calculate D2E/DX2 analytically  !
 ! A20   A(9,8,20)             108.5493         calculate D2E/DX2 analytically  !
 ! A21   A(9,8,21)             110.7317         calculate D2E/DX2 analytically  !
 ! A22   A(20,8,21)            108.0823         calculate D2E/DX2 analytically  !
 ! A23   A(8,9,10)             132.2612         calculate D2E/DX2 analytically  !
 ! A24   A(8,9,13)             123.049          calculate D2E/DX2 analytically  !
 ! A25   A(10,9,13)            104.6715         calculate D2E/DX2 analytically  !
 ! A26   A(9,10,11)            110.9795         calculate D2E/DX2 analytically  !
 ! A27   A(9,10,22)            126.988          calculate D2E/DX2 analytically  !
 ! A28   A(11,10,22)           122.0242         calculate D2E/DX2 analytically  !
 ! A29   A(10,11,12)           105.1009         calculate D2E/DX2 analytically  !
 ! A30   A(11,12,13)           111.4658         calculate D2E/DX2 analytically  !
 ! A31   A(11,12,23)           126.488          calculate D2E/DX2 analytically  !
 ! A32   A(13,12,23)           122.046          calculate D2E/DX2 analytically  !
 ! A33   A(9,13,12)            107.782          calculate D2E/DX2 analytically  !
 ! A34   A(9,13,24)            125.8228         calculate D2E/DX2 analytically  !
 ! A35   A(12,13,24)           126.3934         calculate D2E/DX2 analytically  !
 ! A36   A(2,14,15)            112.4095         calculate D2E/DX2 analytically  !
 ! A37   A(2,14,25)            108.5535         calculate D2E/DX2 analytically  !
 ! A38   A(2,14,26)            109.1908         calculate D2E/DX2 analytically  !
 ! A39   A(15,14,25)           109.474          calculate D2E/DX2 analytically  !
 ! A40   A(15,14,26)           110.1769         calculate D2E/DX2 analytically  !
 ! A41   A(25,14,26)           106.8689         calculate D2E/DX2 analytically  !
 ! A42   A(14,15,16)           111.9807         calculate D2E/DX2 analytically  !
 ! A43   A(14,15,27)           108.8738         calculate D2E/DX2 analytically  !
 ! A44   A(14,15,28)           109.2953         calculate D2E/DX2 analytically  !
 ! A45   A(16,15,27)           109.8784         calculate D2E/DX2 analytically  !
 ! A46   A(16,15,28)           109.7596         calculate D2E/DX2 analytically  !
 ! A47   A(27,15,28)           106.9165         calculate D2E/DX2 analytically  !
 ! A48   A(15,16,29)           111.8023         calculate D2E/DX2 analytically  !
 ! A49   A(15,16,30)           111.3432         calculate D2E/DX2 analytically  !
 ! A50   A(15,16,31)           111.2144         calculate D2E/DX2 analytically  !
 ! A51   A(29,16,30)           107.2805         calculate D2E/DX2 analytically  !
 ! A52   A(29,16,31)           107.266          calculate D2E/DX2 analytically  !
 ! A53   A(30,16,31)           107.7099         calculate D2E/DX2 analytically  !
 ! D1    D(1,2,3,4)              0.3576         calculate D2E/DX2 analytically  !
 ! D2    D(1,2,3,17)           177.3943         calculate D2E/DX2 analytically  !
 ! D3    D(14,2,3,4)          -179.0877         calculate D2E/DX2 analytically  !
 ! D4    D(14,2,3,17)           -2.0511         calculate D2E/DX2 analytically  !
 ! D5    D(1,2,14,15)           10.0468         calculate D2E/DX2 analytically  !
 ! D6    D(1,2,14,25)         -111.2039         calculate D2E/DX2 analytically  !
 ! D7    D(1,2,14,26)          132.6334         calculate D2E/DX2 analytically  !
 ! D8    D(3,2,14,15)         -170.5235         calculate D2E/DX2 analytically  !
 ! D9    D(3,2,14,25)           68.2258         calculate D2E/DX2 analytically  !
 ! D10   D(3,2,14,26)          -47.9369         calculate D2E/DX2 analytically  !
 ! D11   D(2,3,4,5)           -158.491          calculate D2E/DX2 analytically  !
 ! D12   D(2,3,4,8)             81.5636         calculate D2E/DX2 analytically  !
 ! D13   D(2,3,4,18)           -38.9825         calculate D2E/DX2 analytically  !
 ! D14   D(17,3,4,5)            24.3615         calculate D2E/DX2 analytically  !
 ! D15   D(17,3,4,8)           -95.584          calculate D2E/DX2 analytically  !
 ! D16   D(17,3,4,18)          143.87           calculate D2E/DX2 analytically  !
 ! D17   D(3,4,5,6)            129.6372         calculate D2E/DX2 analytically  !
 ! D18   D(3,4,5,7)            -50.781          calculate D2E/DX2 analytically  !
 ! D19   D(8,4,5,6)           -110.7067         calculate D2E/DX2 analytically  !
 ! D20   D(8,4,5,7)             68.875          calculate D2E/DX2 analytically  !
 ! D21   D(18,4,5,6)            11.6523         calculate D2E/DX2 analytically  !
 ! D22   D(18,4,5,7)          -168.7659         calculate D2E/DX2 analytically  !
 ! D23   D(3,4,8,9)           -179.3492         calculate D2E/DX2 analytically  !
 ! D24   D(3,4,8,20)            59.9            calculate D2E/DX2 analytically  !
 ! D25   D(3,4,8,21)           -56.6265         calculate D2E/DX2 analytically  !
 ! D26   D(5,4,8,9)             63.3402         calculate D2E/DX2 analytically  !
 ! D27   D(5,4,8,20)           -57.4105         calculate D2E/DX2 analytically  !
 ! D28   D(5,4,8,21)          -173.9371         calculate D2E/DX2 analytically  !
 ! D29   D(18,4,8,9)           -59.6006         calculate D2E/DX2 analytically  !
 ! D30   D(18,4,8,20)          179.6487         calculate D2E/DX2 analytically  !
 ! D31   D(18,4,8,21)           63.1221         calculate D2E/DX2 analytically  !
 ! D32   D(4,5,6,19)           178.8089         calculate D2E/DX2 analytically  !
 ! D33   D(7,5,6,19)            -0.7731         calculate D2E/DX2 analytically  !
 ! D34   D(4,8,9,10)          -102.7806         calculate D2E/DX2 analytically  !
 ! D35   D(4,8,9,13)            75.411          calculate D2E/DX2 analytically  !
 ! D36   D(20,8,9,10)           17.9057         calculate D2E/DX2 analytically  !
 ! D37   D(20,8,9,13)         -163.9026         calculate D2E/DX2 analytically  !
 ! D38   D(21,8,9,10)          136.3996         calculate D2E/DX2 analytically  !
 ! D39   D(21,8,9,13)          -45.4088         calculate D2E/DX2 analytically  !
 ! D40   D(8,9,10,11)          178.3004         calculate D2E/DX2 analytically  !
 ! D41   D(8,9,10,22)           -0.6592         calculate D2E/DX2 analytically  !
 ! D42   D(13,9,10,11)          -0.1328         calculate D2E/DX2 analytically  !
 ! D43   D(13,9,10,22)        -179.0924         calculate D2E/DX2 analytically  !
 ! D44   D(8,9,13,12)         -178.5556         calculate D2E/DX2 analytically  !
 ! D45   D(8,9,13,24)            1.9074         calculate D2E/DX2 analytically  !
 ! D46   D(10,9,13,12)           0.0611         calculate D2E/DX2 analytically  !
 ! D47   D(10,9,13,24)        -179.4759         calculate D2E/DX2 analytically  !
 ! D48   D(9,10,11,12)           0.1538         calculate D2E/DX2 analytically  !
 ! D49   D(22,10,11,12)        179.1736         calculate D2E/DX2 analytically  !
 ! D50   D(10,11,12,13)         -0.1125         calculate D2E/DX2 analytically  !
 ! D51   D(10,11,12,23)        179.7345         calculate D2E/DX2 analytically  !
 ! D52   D(11,12,13,9)           0.034          calculate D2E/DX2 analytically  !
 ! D53   D(11,12,13,24)        179.5676         calculate D2E/DX2 analytically  !
 ! D54   D(23,12,13,9)        -179.821          calculate D2E/DX2 analytically  !
 ! D55   D(23,12,13,24)         -0.2873         calculate D2E/DX2 analytically  !
 ! D56   D(2,14,15,16)        -178.9104         calculate D2E/DX2 analytically  !
 ! D57   D(2,14,15,27)         -57.2083         calculate D2E/DX2 analytically  !
 ! D58   D(2,14,15,28)          59.2471         calculate D2E/DX2 analytically  !
 ! D59   D(25,14,15,16)        -58.188          calculate D2E/DX2 analytically  !
 ! D60   D(25,14,15,27)         63.5141         calculate D2E/DX2 analytically  !
 ! D61   D(25,14,15,28)        179.9695         calculate D2E/DX2 analytically  !
 ! D62   D(26,14,15,16)         59.0607         calculate D2E/DX2 analytically  !
 ! D63   D(26,14,15,27)       -179.2371         calculate D2E/DX2 analytically  !
 ! D64   D(26,14,15,28)        -62.7818         calculate D2E/DX2 analytically  !
 ! D65   D(14,15,16,29)        179.8294         calculate D2E/DX2 analytically  !
 ! D66   D(14,15,16,30)        -60.1839         calculate D2E/DX2 analytically  !
 ! D67   D(14,15,16,31)         59.9494         calculate D2E/DX2 analytically  !
 ! D68   D(27,15,16,29)         58.7058         calculate D2E/DX2 analytically  !
 ! D69   D(27,15,16,30)        178.6925         calculate D2E/DX2 analytically  !
 ! D70   D(27,15,16,31)        -61.1741         calculate D2E/DX2 analytically  !
 ! D71   D(28,15,16,29)        -58.5946         calculate D2E/DX2 analytically  !
 ! D72   D(28,15,16,30)         61.3921         calculate D2E/DX2 analytically  !
 ! D73   D(28,15,16,31)       -178.4746         calculate D2E/DX2 analytically  !
 --------------------------------------------------------------------------------
 Trust Radius=3.00D-01 FncErr=1.00D-07 GrdErr=1.00D-06
 Number of steps in this run=    167 maximum allowed number of steps=    186.
 GradGradGradGradGradGradGradGradGradGradGradGradGradGradGradGradGradGrad

                          Input orientation:                          
 ---------------------------------------------------------------------
 Center     Atomic      Atomic             Coordinates (Angstroms)
 Number     Number       Type             X           Y           Z
 ---------------------------------------------------------------------
      1          8           0        1.162603    0.478671   -1.240831
      2          6           0        1.430616    0.396434   -0.049241
      3          7           0        0.448932    0.320965    0.888456
      4          6           0       -0.955423    0.327373    0.510414
      5          6           0       -1.723545    0.768751    1.735326
      6          8           0       -2.595029    1.768084    1.499553
      7          8           0       -1.575633    0.267005    2.822369
      8          6           0       -1.395584   -1.085407    0.072144
      9          6           0       -2.826998   -1.161603   -0.348369
     10          6           0       -3.946509   -1.633854    0.279987
     11          7           0       -5.070431   -1.453941   -0.508152
     12          6           0       -4.631038   -0.880572   -1.604833
     13          7           0       -3.281841   -0.681612   -1.558207
     14          6           0        2.851131    0.357259    0.494464
     15          6           0        3.889249    0.675187   -0.571600
     16          7           0        5.275090    0.608825   -0.036333
     17          1           0        0.666139    0.214146    1.867082
     18          1           0       -1.092150    1.030957   -0.310017
     19          1           0       -3.031278    1.944219    2.344257
     20          1           0       -1.242985   -1.767641    0.906216
     21          1           0       -0.738682   -1.392072   -0.739669
     22          1           0       -4.001481   -2.079351    1.264996
     23          1           0       -5.221486   -0.590477   -2.455421
     24          1           0       -2.713556   -0.265923   -2.279028
     25          1           0        3.040831   -0.641932    0.902672
     26          1           0        2.937152    1.062081    1.327175
     27          1           0        3.776071   -0.028894   -1.394566
     28          1           0        3.697671    1.668637   -0.975717
     29          1           0        5.969430    0.819825   -0.754425
     30          1           0        5.412113    1.275928    0.722911
     31          1           0        5.486815   -0.320917    0.325582
 ---------------------------------------------------------------------
                    Distance matrix (angstroms):
                    1          2          3          4          5
     1  O    0.000000
     2  C    1.224125   0.000000
     3  N    2.251236   1.359660   0.000000
     4  C    2.752414   2.451768   1.454363   0.000000
     5  C    4.155900   3.643080   2.374312   1.511700   0.000000
     6  O    4.826188   4.526147   3.425389   2.396321   1.346752
     7  O    4.904318   4.159378   2.800320   2.394461   1.206354
     8  C    3.273311   3.193430   2.458961   1.543298   2.512297
     9  C    4.404986   4.543592   3.802560   2.541131   3.047238
    10  C    5.733993   5.757076   4.848861   3.584145   3.582191
    11  N    6.566774   6.774813   5.963571   4.598244   4.601652
    12  C    5.962073   6.387038   5.785004   4.409483   4.725510
    13  N    4.604353   5.064228   4.572744   3.272531   3.921632
    14  C    2.424277   1.521517   2.434566   3.806705   4.757807
    15  C    2.814443   2.528921   3.754067   4.976201   6.069112
    16  N    4.287226   3.850358   4.922388   6.260786   7.221166
    17  H    3.158413   2.071219   1.008116   2.117270   2.456732
    18  H    2.501068   2.614377   2.077344   1.089418   2.156580
    19  H    5.708706   5.294617   4.106844   3.207233   1.860830
    20  H    3.929705   3.569910   2.687969   2.151380   2.711392
    21  H    2.713987   2.895047   2.644942   2.136860   3.429972
    22  H    6.284140   6.112643   5.070452   3.954767   3.677213
    23  H    6.585962   7.142419   6.645742   5.276165   5.625429
    24  H    4.081284   4.752350   4.514280   3.350226   4.262125
    25  H    3.062369   2.139424   2.765016   4.130795   5.038116
    26  H    3.175539   2.146453   2.633052   4.044631   4.687720
    27  H    2.666734   2.737145   4.050240   5.113014   6.377949
    28  H    2.812983   2.759782   3.980662   5.065458   6.127734
    29  H    4.843404   4.612741   5.781334   7.056622   8.085996
    30  H    4.748710   4.149946   5.056929   6.441307   7.224945
    31  H    4.668169   4.136163   5.109708   6.477413   7.427251
                    6          7          8          9         10
     6  O    0.000000
     7  O    2.245495   0.000000
     8  C    3.408604   3.070045   0.000000
     9  C    3.471554   3.695999   1.493848   0.000000
    10  C    3.858370   3.962073   2.617481   1.367902   0.000000
    11  N    4.532101   5.125196   3.738591   2.268035   1.384461
    12  C    4.560474   5.500231   3.649982   2.216357   2.142092
    13  N    3.977766   4.795880   2.525680   1.378761   2.174283
    14  C    5.715006   5.002353   4.504912   5.937883   7.086497
    15  C    6.894198   6.445974   5.607456   6.966463   8.213158
    16  N    8.101951   7.431112   6.883320   8.299133   9.495660
    17  H    3.631118   2.437398   3.026771   4.359233   5.216368
    18  H    2.465065   3.260248   2.171892   2.796156   3.949264
    19  H    0.966882   2.271682   4.125121   4.115591   4.231012
    20  H    3.831635   2.814620   1.088304   2.109588   2.778327
    21  H    4.294965   4.017603   1.088395   2.137123   3.374657
    22  H    4.103156   3.716926   3.033400   2.196501   1.082466
    23  H    5.301218   6.471676   4.612057   3.240282   3.193221
    24  H    4.292891   5.253869   2.817200   2.131328   3.152771
    25  H    6.158520   5.081648   4.535221   6.022174   7.084812
    26  H    5.579712   4.820060   4.995939   6.401378   7.466555
    27  H    7.224678   6.819885   5.478456   6.780713   8.063390
    28  H    6.762760   6.648140   5.884218   7.139687   8.421207
    29  H    8.906715   8.368216   7.652226   9.025967  10.267248
    30  H    8.059760   7.365749   7.234926   8.658646   9.810546
    31  H    8.429611   7.513839   6.929365   8.383344   9.524363
                   11         12         13         14         15
    11  N    0.000000
    12  C    1.313212   0.000000
    13  N    2.213179   1.364585   0.000000
    14  C    8.187603   7.869061   6.550272   0.000000
    15  C    9.209402   8.722571   7.364701   1.521597   0.000000
    16  N   10.559708  10.139520   8.786489   2.494115   1.487101
    17  H    6.429035   6.427494   5.302974   2.584329   4.067944
    18  H    4.694752   4.225425   3.047231   4.080505   5.000933
    19  H    4.882814   5.112141   4.710307   6.367332   7.616190
    20  H    4.092455   4.309426   3.377835   4.631040   5.872919
    21  H    4.338373   4.020021   2.764492   4.179713   5.071445
    22  H    2.162833   3.173221   3.231413   7.313623   8.557113
    23  H    2.135473   1.075307   2.139047   8.646802   9.389152
    24  H    3.178403   2.123457   1.007635   6.248709   6.884623
    25  H    8.272990   8.074782   6.784813   1.095903   2.151300
    26  H    8.591867   8.345542   7.074021   1.094341   2.159056
    27  H    9.004281   8.452753   7.089918   2.138472   1.088950
    28  H    9.319266   8.732791   7.387594   2.144242   1.089475
    29  H   11.274271  10.769608   9.406721   3.390793   2.093203
    30  H   10.901901  10.532510   9.198930   2.730342   2.087047
    31  H   10.650555  10.315555   8.975973   2.726770   2.085516
                   16         17         18         19         20
    16  N    0.000000
    17  H    5.002119   0.000000
    18  H    6.387084   2.915222   0.000000
    19  H    8.743354   4.109956   3.411662   0.000000
    20  H    7.001521   2.914704   3.055180   4.363927   0.000000
    21  H    6.376812   3.368770   2.486083   5.088952   1.761905
    22  H    9.745487   5.235391   4.540803   4.277291   2.799140
    23  H   10.838285   7.348168   4.927801   5.853085   5.339924
    24  H    8.343460   5.370571   2.861444   5.134242   3.816217
    25  H    2.727277   2.702243   4.620682   6.755505   4.429257
    26  H    2.744185   2.483544   4.349326   6.118396   5.065380
    27  H    2.120976   4.513213   5.098931   8.013237   5.788589
    28  H    2.119881   4.403094   4.877722   7.508457   6.305534
    29  H    1.020923   5.946768   7.078699   9.585345   7.840385
    30  H    1.019928   4.996077   6.590325   8.623586   7.320331
    31  H    1.019917   5.089346   6.746431   9.042334   6.907993
                   21         22         23         24         25
    21  H    0.000000
    22  H    3.890616   0.000000
    23  H    4.866404   4.188873   0.000000
    24  H    2.745535   4.184182   2.534988   0.000000
    25  H    4.188641   7.196639   8.918819   6.586165   0.000000
    26  H    4.879187   7.616895   9.143432   6.833652   1.759151
    27  H    4.761317   8.471597   9.077269   6.553908   2.488714
    28  H    5.394895   8.851280   9.319039   6.822388   3.049347
    29  H    7.063390  10.578391  11.406969   8.882427   3.668705
    30  H    6.862190  10.008372  11.254275   8.798605   3.055074
    31  H    6.406165   9.695482  11.066814   8.604250   2.533559
                   26         27         28         29         30
    26  H    0.000000
    27  H    3.049900   0.000000
    28  H    2.499923   1.750198   0.000000
    29  H    3.685981   2.437402   2.435230   0.000000
    30  H    2.556619   2.977063   2.445173   1.643519   0.000000
    31  H    3.068657   2.443529   2.975356   1.643357   1.647229
                   31
    31  H    0.000000
 Symmetry turned off by external request.
 Stoichiometry    C9H15N4O3(1+)
 Framework group  C1[X(C9H15N4O3)]
 Deg. of freedom    87
 Full point group                 C1      NOp   1
 Rotational constants (GHZ):      1.0449480      0.2251058      0.2000292
 Standard basis: 6-311++G(d,p) (5D, 7F)
   457 basis functions,   711 primitive gaussians,   473 cartesian basis functions
    60 alpha electrons       60 beta electrons
       nuclear repulsion energy      1111.5256414978 Hartrees.
 NAtoms=   31 NActive=   31 NUniq=   31 SFac= 1.00D+00 NAtFMM=   60 NAOKFM=F Big=F
 Integral buffers will be    131072 words long.
 Raffenetti 2 integral format.
 Two-electron integral symmetry is turned off.
 Nuclear repulsion after empirical dispersion term =     1111.4717372650 Hartrees.
 One-electron integrals computed using PRISM.
 NBasis=   457 RedAO= T EigKep=  1.76D-06  NBF=   457
 NBsUse=   457 1.00D-06 EigRej= -1.00D+00 NBFU=   457
 ExpMin= 3.60D-02 ExpMax= 8.59D+03 ExpMxC= 1.30D+03 IAcc=3 IRadAn=         5 AccDes= 0.00D+00
 Harris functional with IExCor=  402 and IRadAn=       5 diagonalized for initial guess.
 HarFok:  IExCor=  402 AccDes= 0.00D+00 IRadAn=         5 IDoV= 1 UseB2=F ITyADJ=14
 ICtDFT=  3500011 ScaDFX=  1.000000  1.000000  1.000000  1.000000
 FoFCou: FMM=F IPFlag=           0 FMFlag=      100000 FMFlg1=           0
         NFxFlg=           0 DoJE=T BraDBF=F KetDBF=T FulRan=T
         wScrn=  0.000000 ICntrl=     500 IOpCl=  0 I1Cent=   200000004 NGrid=           0
         NMat0=    1 NMatS0=      1 NMatT0=    0 NMatD0=    1 NMtDS0=    0 NMtDT0=    0
 Symmetry not used in FoFCou.
 Requested convergence on RMS density matrix=1.00D-08 within 128 cycles.
 Requested convergence on MAX density matrix=1.00D-06.
 Requested convergence on             energy=1.00D-06.
 No special actions if energy rises.
 EnCoef did     2 forward-backward iterations
 SCF Done:  E(RB3LYP) =  -796.737765160     A.U. after   18 cycles
            NFock= 18  Conv=0.23D-08     -V/T= 2.0038
 DoSCS=F DFT=T ScalE2(SS,OS)=  1.000000  1.000000
 Range of M.O.s used for correlation:     1   457
 NBasis=   457 NAE=    60 NBE=    60 NFC=     0 NFV=     0
 NROrb=    457 NOA=    60 NOB=    60 NVA=   397 NVB=   397

 **** Warning!!: The largest alpha MO coefficient is  0.18591700D+03


 **** Warning!!: The smallest alpha delta epsilon is  0.98140031D-01

 Symmetrizing basis deriv contribution to polar:
 IMax=3 JMax=2 DiffMx= 0.00D+00
 G2DrvN: will do    32 centers at a time, making    1 passes.
 Calling FoFCou, ICntrl=  3107 FMM=F I1Cent=   0 AccDes= 0.00D+00.
 End of G2Drv F.D. properties file   721 does not exist.
 End of G2Drv F.D. properties file   722 does not exist.
 End of G2Drv F.D. properties file   788 does not exist.
          IDoAtm=1111111111111111111111111111111
          Differentiating once with respect to nuclear coordinates.
          There are    96 degrees of freedom in the 1st order CPHF.  IDoFFX=6 NUNeed=     0.
     90 vectors produced by pass  0 Test12= 2.48D-14 1.04D-09 XBig12= 2.10D-01 1.08D-01.
 AX will form    90 AO Fock derivatives at one time.
     90 vectors produced by pass  1 Test12= 2.48D-14 1.04D-09 XBig12= 2.17D-02 4.36D-02.
     90 vectors produced by pass  2 Test12= 2.48D-14 1.04D-09 XBig12= 2.23D-04 1.72D-03.
     90 vectors produced by pass  3 Test12= 2.48D-14 1.04D-09 XBig12= 9.22D-07 9.75D-05.
     90 vectors produced by pass  4 Test12= 2.48D-14 1.04D-09 XBig12= 1.98D-09 3.81D-06.
     86 vectors produced by pass  5 Test12= 2.48D-14 1.04D-09 XBig12= 2.78D-12 1.35D-07.
     31 vectors produced by pass  6 Test12= 2.48D-14 1.04D-09 XBig12= 5.40D-15 8.35D-09.
     10 vectors produced by pass  7 Test12= 2.48D-14 1.04D-09 XBig12= 6.01D-16 2.31D-09.
      4 vectors produced by pass  8 Test12= 2.48D-14 1.04D-09 XBig12= 2.90D-16 1.92D-09.
      4 vectors produced by pass  9 Test12= 2.48D-14 1.04D-09 XBig12= 2.90D-15 4.48D-09.
      4 vectors produced by pass 10 Test12= 2.48D-14 1.04D-09 XBig12= 1.82D-15 3.77D-09.
      4 vectors produced by pass 11 Test12= 2.48D-14 1.04D-09 XBig12= 1.69D-15 3.54D-09.
      4 vectors produced by pass 12 Test12= 2.48D-14 1.04D-09 XBig12= 2.53D-15 4.63D-09.
      2 vectors produced by pass 13 Test12= 2.48D-14 1.04D-09 XBig12= 5.37D-16 1.91D-09.
 InvSVY:  IOpt=1 It=  1 EMax= 7.22D-16
 Solved reduced A of dimension   599 with    96 vectors.
 End of Minotr F.D. properties file   721 does not exist.
 End of Minotr F.D. properties file   722 does not exist.
 End of Minotr F.D. properties file   788 does not exist.

 **********************************************************************

            Population analysis using the SCF density.

 **********************************************************************

 Alpha  occ. eigenvalues --  -19.27834 -19.23417 -19.22673 -14.65450 -14.47689
 Alpha  occ. eigenvalues --  -14.44416 -14.36347 -10.42564 -10.42412 -10.41818
 Alpha  occ. eigenvalues --  -10.36796 -10.34301 -10.29595 -10.28816 -10.28355
 Alpha  occ. eigenvalues --  -10.25591  -1.22658  -1.22435  -1.18860  -1.13589
 Alpha  occ. eigenvalues --   -1.09348  -1.06731  -0.98077  -0.94785  -0.91293
 Alpha  occ. eigenvalues --   -0.86484  -0.83388  -0.80861  -0.80108  -0.77845
 Alpha  occ. eigenvalues --   -0.73866  -0.71723  -0.71025  -0.69081  -0.67023
 Alpha  occ. eigenvalues --   -0.65800  -0.65730  -0.62363  -0.61175  -0.60665
 Alpha  occ. eigenvalues --   -0.59013  -0.58049  -0.57838  -0.56142  -0.55023
 Alpha  occ. eigenvalues --   -0.53915  -0.52987  -0.51517  -0.51054  -0.49907
 Alpha  occ. eigenvalues --   -0.48858  -0.48242  -0.47494  -0.43490  -0.41236
 Alpha  occ. eigenvalues --   -0.40256  -0.39273  -0.35782  -0.34190  -0.30728
 Alpha virt. eigenvalues --   -0.20914  -0.15492  -0.15159  -0.13877  -0.13170
 Alpha virt. eigenvalues --   -0.11482  -0.11461  -0.09652  -0.09508  -0.08589
 Alpha virt. eigenvalues --   -0.08186  -0.07354  -0.06857  -0.06352  -0.05954
 Alpha virt. eigenvalues --   -0.05616  -0.05134  -0.04749  -0.04001  -0.03345
 Alpha virt. eigenvalues --   -0.03006  -0.02909  -0.02286  -0.01799  -0.01504
 Alpha virt. eigenvalues --   -0.01136  -0.00601  -0.00415   0.00029   0.00288
 Alpha virt. eigenvalues --    0.00360   0.01211   0.01646   0.01787   0.02023
 Alpha virt. eigenvalues --    0.02295   0.02498   0.02678   0.03239   0.03294
 Alpha virt. eigenvalues --    0.03422   0.04142   0.04729   0.04871   0.05192
 Alpha virt. eigenvalues --    0.05788   0.05854   0.06391   0.06695   0.06806
 Alpha virt. eigenvalues --    0.07426   0.07844   0.08052   0.08420   0.08630
 Alpha virt. eigenvalues --    0.08963   0.09631   0.09948   0.10501   0.11232
 Alpha virt. eigenvalues --    0.11388   0.12238   0.12404   0.12609   0.12785
 Alpha virt. eigenvalues --    0.13016   0.13565   0.14263   0.14943   0.15134
 Alpha virt. eigenvalues --    0.15465   0.15872   0.16194   0.16538   0.17099
 Alpha virt. eigenvalues --    0.17598   0.18254   0.18608   0.19061   0.19346
 Alpha virt. eigenvalues --    0.19641   0.20156   0.20463   0.20709   0.21153
 Alpha virt. eigenvalues --    0.21768   0.22551   0.23016   0.23531   0.23955
 Alpha virt. eigenvalues --    0.24114   0.24646   0.24891   0.25390   0.26028
 Alpha virt. eigenvalues --    0.26706   0.26857   0.27874   0.28070   0.28586
 Alpha virt. eigenvalues --    0.28961   0.29344   0.29570   0.30523   0.30857
 Alpha virt. eigenvalues --    0.31115   0.31373   0.32105   0.32806   0.33473
 Alpha virt. eigenvalues --    0.34999   0.36090   0.37334   0.38202   0.38847
 Alpha virt. eigenvalues --    0.39801   0.40359   0.42290   0.42868   0.43979
 Alpha virt. eigenvalues --    0.44724   0.45251   0.46106   0.46700   0.47670
 Alpha virt. eigenvalues --    0.48354   0.49116   0.49441   0.49538   0.51366
 Alpha virt. eigenvalues --    0.52111   0.53193   0.54018   0.54238   0.55013
 Alpha virt. eigenvalues --    0.55196   0.56306   0.57282   0.57824   0.58779
 Alpha virt. eigenvalues --    0.59304   0.60602   0.61128   0.62007   0.62674
 Alpha virt. eigenvalues --    0.63101   0.63486   0.64297   0.64487   0.66720
 Alpha virt. eigenvalues --    0.66929   0.67932   0.69012   0.70131   0.70837
 Alpha virt. eigenvalues --    0.72418   0.74042   0.74826   0.75419   0.75743
 Alpha virt. eigenvalues --    0.78109   0.80756   0.80951   0.81147   0.82169
 Alpha virt. eigenvalues --    0.83095   0.84725   0.85854   0.86369   0.88739
 Alpha virt. eigenvalues --    0.90104   0.91411   0.92947   0.94170   0.96103
 Alpha virt. eigenvalues --    0.96819   0.97981   0.98756   1.01520   1.02819
 Alpha virt. eigenvalues --    1.03212   1.04278   1.05185   1.05759   1.06823
 Alpha virt. eigenvalues --    1.07045   1.08739   1.09946   1.11316   1.11675
 Alpha virt. eigenvalues --    1.12753   1.13347   1.14801   1.15158   1.17122
 Alpha virt. eigenvalues --    1.17394   1.19317   1.20377   1.22111   1.22691
 Alpha virt. eigenvalues --    1.23030   1.25065   1.26549   1.29516   1.30678
 Alpha virt. eigenvalues --    1.31795   1.33451   1.35298   1.36477   1.37518
 Alpha virt. eigenvalues --    1.39143   1.39824   1.41361   1.43439   1.44962
 Alpha virt. eigenvalues --    1.46117   1.47174   1.48412   1.49906   1.51097
 Alpha virt. eigenvalues --    1.52160   1.53087   1.53316   1.54157   1.55427
 Alpha virt. eigenvalues --    1.55944   1.56318   1.58132   1.59264   1.59450
 Alpha virt. eigenvalues --    1.60123   1.60685   1.61261   1.63933   1.64415
 Alpha virt. eigenvalues --    1.65156   1.67983   1.68735   1.69728   1.70503
 Alpha virt. eigenvalues --    1.71559   1.73981   1.74564   1.75520   1.76618
 Alpha virt. eigenvalues --    1.78389   1.78942   1.81011   1.83231   1.84696
 Alpha virt. eigenvalues --    1.84761   1.87594   1.88465   1.90769   1.93991
 Alpha virt. eigenvalues --    1.96219   1.96738   1.97846   1.99989   2.02152
 Alpha virt. eigenvalues --    2.02740   2.04479   2.05935   2.09376   2.10913
 Alpha virt. eigenvalues --    2.13266   2.14506   2.15314   2.16032   2.17331
 Alpha virt. eigenvalues --    2.19319   2.22021   2.22546   2.24143   2.25808
 Alpha virt. eigenvalues --    2.28679   2.29857   2.31852   2.33518   2.36744
 Alpha virt. eigenvalues --    2.37850   2.38866   2.40562   2.43729   2.44562
 Alpha virt. eigenvalues --    2.46200   2.47055   2.48029   2.49246   2.49751
 Alpha virt. eigenvalues --    2.51278   2.52200   2.52776   2.53974   2.55272
 Alpha virt. eigenvalues --    2.56274   2.57136   2.60115   2.60214   2.62150
 Alpha virt. eigenvalues --    2.63199   2.67311   2.67744   2.68429   2.72242
 Alpha virt. eigenvalues --    2.72621   2.74030   2.75526   2.76398   2.77830
 Alpha virt. eigenvalues --    2.79114   2.80240   2.81005   2.81599   2.82414
 Alpha virt. eigenvalues --    2.82900   2.83316   2.83986   2.85010   2.85346
 Alpha virt. eigenvalues --    2.86027   2.89700   2.91178   2.92036   2.93582
 Alpha virt. eigenvalues --    2.95039   2.97383   2.99747   3.05464   3.06811
 Alpha virt. eigenvalues --    3.08760   3.10332   3.16250   3.18320   3.22386
 Alpha virt. eigenvalues --    3.22992   3.29040   3.29777   3.35007   3.38270
 Alpha virt. eigenvalues --    3.44469   3.47908   3.51184   3.54843   3.56405
 Alpha virt. eigenvalues --    3.58491   3.61100   3.61700   3.63818   3.65309
 Alpha virt. eigenvalues --    3.70876   3.76754   3.77643   3.79566   3.81196
 Alpha virt. eigenvalues --    3.82790   3.87697   3.92324   3.99094   4.04632
 Alpha virt. eigenvalues --    4.09310   4.13894   4.23578   4.42877   4.42928
 Alpha virt. eigenvalues --    4.44107   4.57823   4.69968   4.73291   4.84798
 Alpha virt. eigenvalues --    4.86784   4.93083   4.97816   4.99479   5.10034
 Alpha virt. eigenvalues --    5.17221   5.20984   5.33669   5.51754   5.66056
 Alpha virt. eigenvalues --    5.77066  23.65510  23.68371  23.70463  23.71088
 Alpha virt. eigenvalues --   23.73464  23.77373  23.85416  23.89059  24.07401
 Alpha virt. eigenvalues --   35.31073  35.48294  35.49368  35.63002  49.78495
 Alpha virt. eigenvalues --   49.89303  49.92771
          Condensed to atoms (all electrons):
               1          2          3          4          5          6
     1  O    8.030520   0.218947  -0.123458   0.117288   0.063642  -0.000802
     2  C    0.218947   9.811266  -0.678621  -0.737426   0.071871   0.043831
     3  N   -0.123458  -0.678621   8.042728  -1.480185   0.381907   0.008378
     4  C    0.117288  -0.737426  -1.480185  17.272994  -5.728922   0.039955
     5  C    0.063642   0.071871   0.381907  -5.728922  10.278142   0.013287
     6  O   -0.000802   0.043831   0.008378   0.039955   0.013287   7.898275
     7  O    0.000184   0.046449   0.016494  -0.026723   0.409459  -0.147526
     8  C   -0.076929   0.299154   0.309820  -2.452840   0.805293  -0.016507
     9  C    0.005919  -0.964224   0.543982  -2.339831   0.933704  -0.088852
    10  C   -0.002217   0.079045   0.018084   0.770354  -0.728313   0.057656
    11  N   -0.000050  -0.000060   0.000122  -0.014693   0.023038  -0.000560
    12  C    0.000046  -0.013165  -0.001210   0.135925  -0.094409   0.004131
    13  N   -0.000196  -0.003210  -0.002315  -0.046824   0.087584   0.012698
    14  C    0.097931  -2.823828  -0.259983   0.294818  -0.208390  -0.002312
    15  C   -0.040979   0.804933  -0.035216  -0.099407   0.000923  -0.000384
    16  N    0.004918  -0.028988   0.002308   0.003176   0.001019  -0.000009
    17  H    0.000254   0.085468   0.240793   0.037528  -0.037262   0.010703
    18  H   -0.012696   0.096056  -0.087817   0.688982  -0.176237  -0.006167
    19  H   -0.000045   0.002571  -0.001172  -0.151569   0.178188   0.237445
    20  H    0.001576   0.023854   0.000398  -0.007620  -0.095902   0.002490
    21  H   -0.004939   0.027214  -0.034047  -0.083011   0.100854  -0.004525
    22  H    0.000060  -0.001486  -0.002561   0.030430  -0.025563   0.000070
    23  H   -0.000009  -0.000685  -0.000323   0.004621  -0.004116  -0.000531
    24  H   -0.000968   0.001192   0.002283   0.003971  -0.014692   0.001107
    25  H    0.005375  -0.213517   0.030979   0.004091   0.018353  -0.000081
    26  H    0.003120  -0.039447   0.025747   0.043889  -0.026256  -0.000022
    27  H   -0.004237   0.037275  -0.006807   0.002645  -0.003925   0.000028
    28  H   -0.008351  -0.056075  -0.006560   0.002350   0.005226   0.000013
    29  H    0.000549   0.005282   0.001261  -0.000193  -0.000162  -0.000003
    30  H    0.000120   0.003915  -0.001815  -0.002472   0.000771   0.000001
    31  H    0.001277  -0.003612   0.001354   0.000115  -0.000530   0.000002
               7          8          9         10         11         12
     1  O    0.000184  -0.076929   0.005919  -0.002217  -0.000050   0.000046
     2  C    0.046449   0.299154  -0.964224   0.079045  -0.000060  -0.013165
     3  N    0.016494   0.309820   0.543982   0.018084   0.000122  -0.001210
     4  C   -0.026723  -2.452840  -2.339831   0.770354  -0.014693   0.135925
     5  C    0.409459   0.805293   0.933704  -0.728313   0.023038  -0.094409
     6  O   -0.147526  -0.016507  -0.088852   0.057656  -0.000560   0.004131
     7  O    7.956734  -0.013976  -0.004518  -0.018307  -0.000314   0.001645
     8  C   -0.013976  17.824686  -7.376754  -2.549036  -0.030948  -0.494388
     9  C   -0.004518  -7.376754  16.215726  -0.939147  -0.118304   0.164901
    10  C   -0.018307  -2.549036  -0.939147   9.021410   0.474194  -0.206880
    11  N   -0.000314  -0.030948  -0.118304   0.474194   6.520487   0.340014
    12  C    0.001645  -0.494388   0.164901  -0.206880   0.340014   5.363685
    13  N   -0.002974  -0.040349  -0.314333   0.084422   0.037794   0.196684
    14  C   -0.018082  -0.117114   0.204777  -0.004745   0.000200   0.006898
    15  C   -0.002798  -0.025428  -0.002490   0.001606   0.000041  -0.000226
    16  N   -0.000049   0.002212   0.000316   0.000002   0.000000   0.000001
    17  H    0.029460  -0.034087  -0.026818   0.012537  -0.000195   0.000187
    18  H   -0.003661   0.185847  -0.467726   0.005765  -0.001200  -0.004758
    19  H   -0.006977  -0.013237   0.011981   0.001106   0.000125  -0.003969
    20  H    0.004515   0.755747  -0.309158  -0.076920  -0.003293  -0.007848
    21  H   -0.003726   0.275212   0.082566  -0.044621   0.002177   0.000361
    22  H   -0.003172  -0.090110  -0.097072   0.523106  -0.073607   0.036704
    23  H    0.000052   0.011559   0.085705  -0.037154  -0.065575   0.432306
    24  H    0.000398  -0.033608   0.031313  -0.014031   0.009328  -0.015177
    25  H   -0.000296  -0.002234   0.011207   0.000845   0.000005   0.000172
    26  H   -0.002196   0.011436  -0.010338  -0.001650   0.000014  -0.000037
    27  H    0.000064   0.005161  -0.008103  -0.000062  -0.000007  -0.000135
    28  H    0.000044  -0.002537   0.000901  -0.000107   0.000001   0.000010
    29  H   -0.000012   0.000119   0.000161   0.000013   0.000000   0.000001
    30  H    0.000024  -0.000254   0.000073   0.000016   0.000000   0.000000
    31  H    0.000022   0.000341   0.000196   0.000010   0.000000   0.000001
              13         14         15         16         17         18
     1  O   -0.000196   0.097931  -0.040979   0.004918   0.000254  -0.012696
     2  C   -0.003210  -2.823828   0.804933  -0.028988   0.085468   0.096056
     3  N   -0.002315  -0.259983  -0.035216   0.002308   0.240793  -0.087817
     4  C   -0.046824   0.294818  -0.099407   0.003176   0.037528   0.688982
     5  C    0.087584  -0.208390   0.000923   0.001019  -0.037262  -0.176237
     6  O    0.012698  -0.002312  -0.000384  -0.000009   0.010703  -0.006167
     7  O   -0.002974  -0.018082  -0.002798  -0.000049   0.029460  -0.003661
     8  C   -0.040349  -0.117114  -0.025428   0.002212  -0.034087   0.185847
     9  C   -0.314333   0.204777  -0.002490   0.000316  -0.026818  -0.467726
    10  C    0.084422  -0.004745   0.001606   0.000002   0.012537   0.005765
    11  N    0.037794   0.000200   0.000041   0.000000  -0.000195  -0.001200
    12  C    0.196684   0.006898  -0.000226   0.000001   0.000187  -0.004758
    13  N    6.855517  -0.008948  -0.000217   0.000000   0.001374   0.021824
    14  C   -0.008948   9.509084  -1.347440  -0.076276   0.018911  -0.070336
    15  C   -0.000217  -1.347440   6.924701   0.060470  -0.040178   0.002934
    16  N    0.000000  -0.076276   0.060470   6.216237  -0.001078  -0.000588
    17  H    0.001374   0.018911  -0.040178  -0.001078   0.408601   0.011630
    18  H    0.021824  -0.070336   0.002934  -0.000588   0.011630   0.487746
    19  H   -0.001258  -0.003354   0.000118   0.000004  -0.000030   0.005851
    20  H    0.010358  -0.005219  -0.000341  -0.000321   0.000588   0.005625
    21  H    0.020063  -0.050038  -0.000148  -0.000165  -0.003318  -0.002377
    22  H    0.014536   0.000498  -0.000077   0.000000   0.000446  -0.000119
    23  H   -0.115831   0.000239   0.000003   0.000000  -0.000046   0.000300
    24  H    0.346872   0.000838   0.000152   0.000007  -0.000097  -0.008448
    25  H   -0.000058   0.549339  -0.061774   0.005349  -0.002606  -0.002211
    26  H    0.000161   0.371798  -0.043649   0.004385  -0.005377   0.003487
    27  H    0.000026  -0.059997   0.376253  -0.016549   0.002039   0.001749
    28  H   -0.000023   0.061721   0.351006  -0.017559   0.001260  -0.001322
    29  H   -0.000001  -0.008721  -0.010494   0.342180  -0.000465  -0.000032
    30  H   -0.000002  -0.007597  -0.003456   0.350717   0.000090  -0.000153
    31  H   -0.000002   0.032677  -0.041035   0.348796   0.000614   0.000103
              19         20         21         22         23         24
     1  O   -0.000045   0.001576  -0.004939   0.000060  -0.000009  -0.000968
     2  C    0.002571   0.023854   0.027214  -0.001486  -0.000685   0.001192
     3  N   -0.001172   0.000398  -0.034047  -0.002561  -0.000323   0.002283
     4  C   -0.151569  -0.007620  -0.083011   0.030430   0.004621   0.003971
     5  C    0.178188  -0.095902   0.100854  -0.025563  -0.004116  -0.014692
     6  O    0.237445   0.002490  -0.004525   0.000070  -0.000531   0.001107
     7  O   -0.006977   0.004515  -0.003726  -0.003172   0.000052   0.000398
     8  C   -0.013237   0.755747   0.275212  -0.090110   0.011559  -0.033608
     9  C    0.011981  -0.309158   0.082566  -0.097072   0.085705   0.031313
    10  C    0.001106  -0.076920  -0.044621   0.523106  -0.037154  -0.014031
    11  N    0.000125  -0.003293   0.002177  -0.073607  -0.065575   0.009328
    12  C   -0.003969  -0.007848   0.000361   0.036704   0.432306  -0.015177
    13  N   -0.001258   0.010358   0.020063   0.014536  -0.115831   0.346872
    14  C   -0.003354  -0.005219  -0.050038   0.000498   0.000239   0.000838
    15  C    0.000118  -0.000341  -0.000148  -0.000077   0.000003   0.000152
    16  N    0.000004  -0.000321  -0.000165   0.000000   0.000000   0.000007
    17  H   -0.000030   0.000588  -0.003318   0.000446  -0.000046  -0.000097
    18  H    0.005851   0.005625  -0.002377  -0.000119   0.000300  -0.008448
    19  H    0.450604  -0.002455   0.001312   0.000082  -0.000220  -0.000472
    20  H   -0.002455   0.489390  -0.022990  -0.002586   0.000683   0.001574
    21  H    0.001312  -0.022990   0.533277  -0.000432  -0.000443  -0.006523
    22  H    0.000082  -0.002586  -0.000432   0.531850  -0.000773   0.000923
    23  H   -0.000220   0.000683  -0.000443  -0.000773   0.517060  -0.002555
    24  H   -0.000472   0.001574  -0.006523   0.000923  -0.002555   0.390508
    25  H    0.000167  -0.003822   0.000634   0.000030   0.000003  -0.000042
    26  H   -0.000209   0.000879  -0.000969  -0.000054   0.000005   0.000057
    27  H   -0.000022   0.000494  -0.001038  -0.000005  -0.000005  -0.000002
    28  H    0.000023  -0.000208   0.000640   0.000002   0.000000  -0.000026
    29  H    0.000000  -0.000043  -0.000036   0.000000   0.000000   0.000002
    30  H    0.000008   0.000024  -0.000106   0.000000   0.000000   0.000000
    31  H   -0.000002   0.000019   0.000029   0.000001   0.000000   0.000000
              25         26         27         28         29         30
     1  O    0.005375   0.003120  -0.004237  -0.008351   0.000549   0.000120
     2  C   -0.213517  -0.039447   0.037275  -0.056075   0.005282   0.003915
     3  N    0.030979   0.025747  -0.006807  -0.006560   0.001261  -0.001815
     4  C    0.004091   0.043889   0.002645   0.002350  -0.000193  -0.002472
     5  C    0.018353  -0.026256  -0.003925   0.005226  -0.000162   0.000771
     6  O   -0.000081  -0.000022   0.000028   0.000013  -0.000003   0.000001
     7  O   -0.000296  -0.002196   0.000064   0.000044  -0.000012   0.000024
     8  C   -0.002234   0.011436   0.005161  -0.002537   0.000119  -0.000254
     9  C    0.011207  -0.010338  -0.008103   0.000901   0.000161   0.000073
    10  C    0.000845  -0.001650  -0.000062  -0.000107   0.000013   0.000016
    11  N    0.000005   0.000014  -0.000007   0.000001   0.000000   0.000000
    12  C    0.000172  -0.000037  -0.000135   0.000010   0.000001   0.000000
    13  N   -0.000058   0.000161   0.000026  -0.000023  -0.000001  -0.000002
    14  C    0.549339   0.371798  -0.059997   0.061721  -0.008721  -0.007597
    15  C   -0.061774  -0.043649   0.376253   0.351006  -0.010494  -0.003456
    16  N    0.005349   0.004385  -0.016549  -0.017559   0.342180   0.350717
    17  H   -0.002606  -0.005377   0.002039   0.001260  -0.000465   0.000090
    18  H   -0.002211   0.003487   0.001749  -0.001322  -0.000032  -0.000153
    19  H    0.000167  -0.000209  -0.000022   0.000023   0.000000   0.000008
    20  H   -0.003822   0.000879   0.000494  -0.000208  -0.000043   0.000024
    21  H    0.000634  -0.000969  -0.001038   0.000640  -0.000036  -0.000106
    22  H    0.000030  -0.000054  -0.000005   0.000002   0.000000   0.000000
    23  H    0.000003   0.000005  -0.000005   0.000000   0.000000   0.000000
    24  H   -0.000042   0.000057  -0.000002  -0.000026   0.000002   0.000000
    25  H    0.547416  -0.073966  -0.020148   0.011063   0.000831   0.001892
    26  H   -0.073966   0.570978   0.012906  -0.019831   0.002364  -0.000236
    27  H   -0.020148   0.012906   0.428824  -0.023235  -0.001457   0.002405
    28  H    0.011063  -0.019831  -0.023235   0.440873  -0.004901  -0.007930
    29  H    0.000831   0.002364  -0.001457  -0.004901   0.346310  -0.011187
    30  H    0.001892  -0.000236   0.002405  -0.007930  -0.011187   0.364845
    31  H    0.000262   0.001608  -0.007088   0.002635  -0.013131  -0.031525
              31
     1  O    0.001277
     2  C   -0.003612
     3  N    0.001354
     4  C    0.000115
     5  C   -0.000530
     6  O    0.000002
     7  O    0.000022
     8  C    0.000341
     9  C    0.000196
    10  C    0.000010
    11  N    0.000000
    12  C    0.000001
    13  N   -0.000002
    14  C    0.032677
    15  C   -0.041035
    16  N    0.348796
    17  H    0.000614
    18  H    0.000103
    19  H   -0.000002
    20  H    0.000019
    21  H    0.000029
    22  H    0.000001
    23  H    0.000000
    24  H    0.000000
    25  H    0.000262
    26  H    0.001608
    27  H   -0.007088
    28  H    0.002635
    29  H   -0.013131
    30  H   -0.031525
    31  H    0.366994
 Mulliken charges:
               1
     1  O   -0.275852
     2  C   -0.093978
     3  N    0.095453
     4  C   -0.281418
     5  C   -0.228584
     6  O   -0.061787
     7  O   -0.210238
     8  C   -1.116251
     9  C    0.774243
    10  C   -0.426984
    11  N   -0.098732
    12  C    0.158528
    13  N   -0.153371
    14  C   -0.077347
    15  C   -0.767400
    16  N   -0.200513
    17  H    0.289071
    18  H    0.327948
    19  H    0.295409
    20  H    0.240513
    21  H    0.219112
    22  H    0.158879
    23  H    0.175728
    24  H    0.306116
    25  H    0.192742
    26  H    0.171406
    27  H    0.282951
    28  H    0.270896
    29  H    0.351763
    30  H    0.341830
    31  H    0.339869
 Sum of Mulliken charges =   1.00000
 Mulliken charges with hydrogens summed into heavy atoms:
               1
     1  O   -0.275852
     2  C   -0.093978
     3  N    0.384525
     4  C    0.046530
     5  C   -0.228584
     6  O    0.233622
     7  O   -0.210238
     8  C   -0.656626
     9  C    0.774243
    10  C   -0.268105
    11  N   -0.098732
    12  C    0.334255
    13  N    0.152744
    14  C    0.286801
    15  C   -0.213554
    16  N    0.832949
 APT charges:
               1
     1  O   -0.413830
     2  C   -0.064265
     3  N   -0.332094
     4  C   -0.346447
     5  C   -0.667116
     6  O   -0.516654
     7  O    0.003269
     8  C   -1.675621
     9  C    0.901496
    10  C   -0.717485
    11  N    0.171903
    12  C   -0.436314
    13  N   -0.595835
    14  C   -0.655551
    15  C   -0.145279
    16  N   -1.900368
    17  H    0.580483
    18  H    0.414416
    19  H    1.017498
    20  H    0.425030
    21  H    0.272789
    22  H    0.538385
    23  H    1.024927
    24  H    0.246097
    25  H    0.361802
    26  H    0.417007
    27  H    0.225245
    28  H    0.312020
    29  H    1.232460
    30  H    0.712579
    31  H    0.609452
 Sum of APT charges =   1.00000
 APT charges with hydrogens summed into heavy atoms:
               1
     1  O   -0.413830
     2  C   -0.064265
     3  N    0.248389
     4  C    0.067969
     5  C   -0.667116
     6  O    0.500845
     7  O    0.003269
     8  C   -0.977802
     9  C    0.901496
    10  C   -0.179099
    11  N    0.171903
    12  C    0.588612
    13  N   -0.349739
    14  C    0.123259
    15  C    0.391986
    16  N    0.654122
 Electronic spatial extent (au):  <R**2>=           5475.0251
 Charge=              1.0000 electrons
 Dipole moment (field-independent basis, Debye):
    X=             23.7583    Y=              4.2862    Z=              0.3482  Tot=             24.1443
 Quadrupole moment (field-independent basis, Debye-Ang):
   XX=             17.2323   YY=            -89.5862   ZZ=            -86.4313
   XY=              2.8196   XZ=              6.3955   YZ=              3.5495
 Traceless Quadrupole moment (field-independent basis, Debye-Ang):
   XX=             70.1607   YY=            -36.6578   ZZ=            -33.5029
   XY=              2.8196   XZ=              6.3955   YZ=              3.5495
 Octapole moment (field-independent basis, Debye-Ang**2):
  XXX=            989.8012  YYY=             32.9233  ZZZ=            -68.1957  XYY=            103.7228
  XXY=            141.0061  XXZ=            -26.2147  XZZ=             43.9708  YZZ=             17.4493
  YYZ=              3.8955  XYZ=             -6.1438
 Hexadecapole moment (field-independent basis, Debye-Ang**3):
 XXXX=          -2610.6609 YYYY=           -626.5333 ZZZZ=           -925.1462 XXXY=           -393.3325
 XXXZ=            -31.5760 YYYX=           -490.8743 YYYZ=           -120.6414 ZZZX=             50.3608
 ZZZY=            -84.1050 XXYY=           -981.9434 XXZZ=           -813.8489 YYZZ=           -220.1336
 XXYZ=            -28.5656 YYXZ=            -66.6383 ZZXY=           -176.4983
 N-N= 1.111471737265D+03 E-N=-4.069715564146D+03  KE= 7.937442880380D+02
  Exact polarizability:   0.000   0.000   0.000   0.000   0.000   0.000
 Approx polarizability: 221.227   2.570 162.232   0.916 -22.038 222.144
 Calling FoFJK, ICntrl=    100147 FMM=F ISym2X=0 I1Cent= 0 IOpClX= 0 NMat=1 NMatS=1 NMatT=0.
 -------------------------------------------------------------------
 Center     Atomic                   Forces (Hartrees/Bohr)
 Number     Number              X              Y              Z
 -------------------------------------------------------------------
      1        8           0.014281728    0.001048091   -0.000197149
      2        6          -0.023954815   -0.000918954   -0.002380528
      3        7           0.016634983    0.003766464   -0.003144946
      4        6          -0.000017778   -0.000687538   -0.003231988
      5        6          -0.011839175    0.005984552    0.003748218
      6        8           0.008783203   -0.007266123   -0.003412548
      7        8           0.004863382   -0.000529291    0.000047208
      8        6          -0.009077987   -0.001776924   -0.001114621
      9        6           0.005900496    0.000018561    0.001493026
     10        6          -0.006850547   -0.001230343    0.004632506
     11        7           0.005945585   -0.000081235    0.001903201
     12        6          -0.001762201   -0.001318911    0.002375613
     13        7           0.002777566    0.003557377   -0.004761426
     14        6           0.011244448   -0.002095795    0.010363163
     15        6          -0.030182894    0.001642768   -0.012240637
     16        7           0.005728318    0.000138132    0.000745775
     17        1          -0.000552209   -0.001521864    0.003241057
     18        1          -0.000074375    0.000794632    0.001362513
     19        1          -0.005103566    0.002307683    0.002234903
     20        1           0.000959680   -0.001075964    0.001967811
     21        1           0.002352004   -0.000888942   -0.001958952
     22        1          -0.001078766    0.000061997   -0.002407095
     23        1          -0.002283074    0.000323596   -0.001754365
     24        1          -0.000314670    0.000028903   -0.001364905
     25        1          -0.001753132   -0.000967567    0.000878172
     26        1          -0.000812849    0.000475724    0.001219084
     27        1           0.005750544   -0.000593378   -0.001130025
     28        1           0.006167433    0.001502860   -0.000219936
     29        1           0.002036076    0.000878518   -0.003197571
     30        1           0.000966002    0.002330645    0.003891349
     31        1           0.001266591   -0.003907674    0.002413095
 -------------------------------------------------------------------
 Cartesian Forces:  Max     0.030182894 RMS     0.005957825
 FormGI is forming the generalized inverse of G from B-inverse, IUseBI=4.

 GradGradGradGradGradGradGradGradGradGradGradGradGradGradGradGradGradGrad
 Berny optimization.
 Internal  Forces:  Max     0.017089675 RMS     0.003310102
 Search for a local minimum.
 Step number   1 out of a maximum of  167
 All quantities printed in internal units (Hartrees-Bohrs-Radians)
 Mixed Optimization -- RFO/linear search
 Second derivative matrix not updated -- analytic derivatives used.
 ITU=  0
     Eigenvalues ---   -0.00093   0.00043   0.00148   0.00197   0.00201
     Eigenvalues ---    0.00275   0.00418   0.00452   0.00477   0.00853
     Eigenvalues ---    0.01816   0.02011   0.02145   0.02483   0.03255
     Eigenvalues ---    0.03787   0.03834   0.03883   0.04074   0.04236
     Eigenvalues ---    0.04299   0.04485   0.04613   0.04901   0.04997
     Eigenvalues ---    0.05115   0.05212   0.05592   0.06082   0.07481
     Eigenvalues ---    0.07904   0.08240   0.10158   0.10607   0.10768
     Eigenvalues ---    0.10924   0.11558   0.11917   0.13008   0.13245
     Eigenvalues ---    0.13662   0.14597   0.15069   0.15792   0.15878
     Eigenvalues ---    0.16060   0.16118   0.18161   0.19137   0.19661
     Eigenvalues ---    0.20936   0.22553   0.22852   0.23995   0.24494
     Eigenvalues ---    0.24824   0.26744   0.29525   0.31219   0.32050
     Eigenvalues ---    0.32602   0.33117   0.33429   0.33533   0.34141
     Eigenvalues ---    0.34193   0.34250   0.34609   0.34933   0.35094
     Eigenvalues ---    0.36323   0.36923   0.37674   0.40645   0.40711
     Eigenvalues ---    0.43383   0.43561   0.44461   0.44694   0.45843
     Eigenvalues ---    0.47043   0.47091   0.47757   0.52230   0.58315
     Eigenvalues ---    0.79784   0.87062
 RFO step:  Lambda=-9.65449537D-03 EMin=-9.28065431D-04
 Linear search not attempted -- first point.
 Iteration  1 RMS(Cart)=  0.15534448 RMS(Int)=  0.02093604
 Iteration  2 RMS(Cart)=  0.04336178 RMS(Int)=  0.00097775
 Iteration  3 RMS(Cart)=  0.00162465 RMS(Int)=  0.00038782
 Iteration  4 RMS(Cart)=  0.00000303 RMS(Int)=  0.00038782
 Iteration  5 RMS(Cart)=  0.00000000 RMS(Int)=  0.00038782
 Variable       Old X    -DE/DX   Delta X   Delta X   Delta X     New X
                                 (Linear)    (Quad)   (Total)
    R1        2.31326  -0.00286   0.00000  -0.00188  -0.00188   2.31138
    R2        2.56938  -0.00681   0.00000  -0.03172  -0.03172   2.53767
    R3        2.87525   0.00137   0.00000   0.02723   0.02723   2.90248
    R4        2.74835   0.00664   0.00000   0.01302   0.01302   2.76137
    R5        1.90506   0.00319   0.00000   0.00787   0.00787   1.91294
    R6        2.85670   0.00394   0.00000   0.01698   0.01698   2.87368
    R7        2.91641   0.00344   0.00000   0.01679   0.01679   2.93320
    R8        2.05870  -0.00050   0.00000  -0.00173  -0.00173   2.05697
    R9        2.54499  -0.00585   0.00000  -0.02463  -0.02463   2.52036
   R10        2.27968   0.00086   0.00000   0.00111   0.00111   2.28079
   R11        1.82714   0.00468   0.00000   0.00829   0.00829   1.83543
   R12        2.82296  -0.00234   0.00000  -0.01043  -0.01043   2.81253
   R13        2.05660   0.00232   0.00000   0.00699   0.00699   2.06359
   R14        2.05677   0.00313   0.00000   0.01021   0.01021   2.06698
   R15        2.58496   0.00475   0.00000   0.01026   0.01026   2.59522
   R16        2.60548   0.00583   0.00000   0.01197   0.01197   2.61745
   R17        2.61625  -0.00503   0.00000  -0.01603  -0.01604   2.60022
   R18        2.04556  -0.00216   0.00000  -0.00561  -0.00561   2.03996
   R19        2.48161  -0.00027   0.00000  -0.00273  -0.00273   2.47888
   R20        2.57869   0.00310   0.00000   0.00815   0.00816   2.58685
   R21        2.03204   0.00273   0.00000   0.00687   0.00687   2.03891
   R22        1.90415   0.00081   0.00000   0.00134   0.00134   1.90550
   R23        2.87540   0.00160   0.00000  -0.00196  -0.00196   2.87345
   R24        2.07096   0.00091   0.00000   0.00250   0.00250   2.07345
   R25        2.06800   0.00117   0.00000  -0.00197  -0.00197   2.06604
   R26        2.81021   0.01073   0.00000   0.05793   0.05793   2.86815
   R27        2.05782   0.00064   0.00000  -0.00059  -0.00059   2.05722
   R28        2.05881   0.00037   0.00000  -0.00092  -0.00092   2.05789
   R29        1.92927   0.00382   0.00000   0.00684   0.00684   1.93610
   R30        1.92739   0.00455   0.00000   0.00816   0.00816   1.93555
   R31        1.92736   0.00468   0.00000   0.00888   0.00888   1.93624
    A1        2.11411   0.01709   0.00000   0.06019   0.06018   2.17429
    A2        2.15794  -0.01529   0.00000  -0.07051  -0.07051   2.08743
    A3        2.01109  -0.00179   0.00000   0.01025   0.01025   2.02134
    A4        2.11492   0.00264   0.00000   0.01714   0.01690   2.13183
    A5        2.11741  -0.00009   0.00000   0.00367   0.00342   2.12083
    A6        2.04975  -0.00258   0.00000  -0.02258  -0.02280   2.02695
    A7        1.85595   0.00083   0.00000   0.00621   0.00631   1.86226
    A8        1.92323   0.00251   0.00000   0.01420   0.01421   1.93745
    A9        1.89630  -0.00071   0.00000   0.00490   0.00487   1.90117
   A10        1.93101  -0.00258   0.00000  -0.01559  -0.01567   1.91534
   A11        1.93680  -0.00030   0.00000  -0.01009  -0.01016   1.92664
   A12        1.91937   0.00034   0.00000   0.00111   0.00090   1.92027
   A13        1.98625  -0.00501   0.00000  -0.02193  -0.02194   1.96431
   A14        2.14887  -0.00166   0.00000  -0.01099  -0.01099   2.13787
   A15        2.14804   0.00667   0.00000   0.03290   0.03289   2.18094
   A16        1.84855   0.00635   0.00000   0.04565   0.04565   1.89420
   A17        1.98223  -0.00249   0.00000  -0.01016  -0.01016   1.97207
   A18        1.89255   0.00000   0.00000  -0.00566  -0.00568   1.88687
   A19        1.87298   0.00066   0.00000   0.00059   0.00063   1.87361
   A20        1.89454   0.00109   0.00000   0.00331   0.00324   1.89778
   A21        1.93263   0.00119   0.00000   0.01579   0.01579   1.94842
   A22        1.88639  -0.00042   0.00000  -0.00418  -0.00422   1.88217
   A23        2.30839  -0.00173   0.00000  -0.01322  -0.01328   2.29512
   A24        2.14761   0.00156   0.00000   0.01218   0.01210   2.15971
   A25        1.82686   0.00017   0.00000   0.00060   0.00058   1.82744
   A26        1.93696  -0.00103   0.00000  -0.00235  -0.00237   1.93459
   A27        2.21636   0.00187   0.00000   0.00923   0.00919   2.22555
   A28        2.12972  -0.00083   0.00000  -0.00664  -0.00668   2.12304
   A29        1.83436   0.00362   0.00000   0.00980   0.00981   1.84417
   A30        1.94545   0.00011   0.00000  -0.00056  -0.00055   1.94490
   A31        2.20763  -0.00104   0.00000  -0.00606  -0.00607   2.20157
   A32        2.13010   0.00093   0.00000   0.00661   0.00661   2.13671
   A33        1.88115  -0.00288   0.00000  -0.00748  -0.00748   1.87368
   A34        2.19602   0.00242   0.00000   0.01169   0.01165   2.20767
   A35        2.20598   0.00045   0.00000  -0.00430  -0.00433   2.20165
   A36        1.96192  -0.01534   0.00000  -0.09118  -0.09148   1.87043
   A37        1.89462   0.00316   0.00000  -0.01518  -0.01617   1.87844
   A38        1.90574   0.00458   0.00000   0.04609   0.04691   1.95265
   A39        1.91068   0.00558   0.00000   0.01996   0.01761   1.92829
   A40        1.92295   0.00491   0.00000   0.03015   0.03076   1.95371
   A41        1.86521  -0.00229   0.00000   0.01478   0.01415   1.87937
   A42        1.95443  -0.00366   0.00000  -0.01288  -0.01246   1.94197
   A43        1.90021   0.00438   0.00000   0.02850   0.02764   1.92784
   A44        1.90756   0.00459   0.00000   0.04954   0.04877   1.95634
   A45        1.91774  -0.00249   0.00000  -0.03604  -0.03600   1.88174
   A46        1.91567  -0.00268   0.00000  -0.04861  -0.04841   1.86726
   A47        1.86604   0.00012   0.00000   0.02212   0.01959   1.88563
   A48        1.95132  -0.00117   0.00000  -0.00967  -0.00967   1.94165
   A49        1.94330   0.00077   0.00000   0.00634   0.00635   1.94965
   A50        1.94106   0.00075   0.00000  -0.00144  -0.00145   1.93961
   A51        1.87240   0.00028   0.00000   0.00527   0.00528   1.87768
   A52        1.87215   0.00028   0.00000   0.00455   0.00453   1.87668
   A53        1.87989  -0.00094   0.00000  -0.00475  -0.00475   1.87514
    D1        0.00624   0.00091   0.00000   0.05052   0.05051   0.05675
    D2        3.09611   0.00026   0.00000   0.00819   0.00786   3.10397
    D3       -3.12567   0.00073   0.00000   0.05801   0.05834  -3.06733
    D4       -0.03580   0.00007   0.00000   0.01568   0.01569  -0.02011
    D5        0.17535  -0.00018   0.00000   0.23801   0.23900   0.41435
    D6       -1.94087   0.00049   0.00000   0.28193   0.28098  -1.65990
    D7        2.31489  -0.00103   0.00000   0.24760   0.24720   2.56209
    D8       -2.97620   0.00021   0.00000   0.23114   0.23238  -2.74382
    D9        1.19077   0.00089   0.00000   0.27506   0.27435   1.46512
   D10       -0.83666  -0.00064   0.00000   0.24073   0.24057  -0.59609
   D11       -2.76619  -0.00013   0.00000   0.00986   0.01000  -2.75619
   D12        1.42355   0.00109   0.00000   0.01706   0.01717   1.44072
   D13       -0.68037  -0.00040   0.00000   0.00398   0.00409  -0.67628
   D14        0.42519   0.00043   0.00000   0.04991   0.04982   0.47501
   D15       -1.66826   0.00166   0.00000   0.05711   0.05698  -1.61127
   D16        2.51100   0.00016   0.00000   0.04404   0.04391   2.55491
   D17        2.26260   0.00022   0.00000   0.11632   0.11630   2.37889
   D18       -0.88630   0.00060   0.00000   0.11229   0.11230  -0.77399
   D19       -1.93220   0.00230   0.00000   0.12852   0.12844  -1.80376
   D20        1.20210   0.00269   0.00000   0.12449   0.12444   1.32654
   D21        0.20337   0.00074   0.00000   0.11219   0.11224   0.31561
   D22       -2.94552   0.00113   0.00000   0.10816   0.10824  -2.83728
   D23       -3.13023  -0.00027   0.00000  -0.02728  -0.02730   3.12565
   D24        1.04545  -0.00004   0.00000  -0.02090  -0.02096   1.02450
   D25       -0.98832   0.00010   0.00000  -0.01340  -0.01344  -1.00176
   D26        1.10549  -0.00126   0.00000  -0.03414  -0.03409   1.07140
   D27       -1.00200  -0.00103   0.00000  -0.02776  -0.02775  -1.02975
   D28       -3.03578  -0.00089   0.00000  -0.02026  -0.02023  -3.05601
   D29       -1.04023   0.00064   0.00000  -0.01158  -0.01156  -1.05178
   D30        3.13546   0.00086   0.00000  -0.00521  -0.00521   3.13025
   D31        1.10169   0.00101   0.00000   0.00229   0.00230   1.10399
   D32        3.12080  -0.00120   0.00000  -0.05366  -0.05371   3.06709
   D33       -0.01349  -0.00154   0.00000  -0.04943  -0.04938  -0.06287
   D34       -1.79386   0.00049   0.00000   0.02097   0.02095  -1.77291
   D35        1.31617   0.00025   0.00000  -0.00076  -0.00076   1.31541
   D36        0.31251  -0.00035   0.00000   0.00953   0.00949   0.32200
   D37       -2.86064  -0.00060   0.00000  -0.01221  -0.01222  -2.87286
   D38        2.38062   0.00051   0.00000   0.01574   0.01575   2.39637
   D39       -0.79253   0.00026   0.00000  -0.00600  -0.00596  -0.79849
   D40        3.11193  -0.00001   0.00000  -0.01502  -0.01483   3.09710
   D41       -0.01151  -0.00053   0.00000  -0.03007  -0.03000  -0.04150
   D42       -0.00232   0.00018   0.00000   0.00360   0.00361   0.00130
   D43       -3.12575  -0.00034   0.00000  -0.01145  -0.01155  -3.13730
   D44       -3.11638   0.00009   0.00000   0.01349   0.01364  -3.10274
   D45        0.03329   0.00035   0.00000   0.02530   0.02549   0.05878
   D46        0.00107  -0.00013   0.00000  -0.00343  -0.00345  -0.00239
   D47       -3.13245   0.00012   0.00000   0.00838   0.00840  -3.12405
   D48        0.00268  -0.00015   0.00000  -0.00235  -0.00234   0.00035
   D49        3.12717   0.00037   0.00000   0.01202   0.01198   3.13915
   D50       -0.00196   0.00006   0.00000   0.00006   0.00003  -0.00193
   D51        3.13696  -0.00007   0.00000  -0.00304  -0.00298   3.13397
   D52        0.00059   0.00004   0.00000   0.00216   0.00220   0.00280
   D53        3.13405  -0.00020   0.00000  -0.00964  -0.00950   3.12454
   D54       -3.13847   0.00017   0.00000   0.00513   0.00511  -3.13336
   D55       -0.00501  -0.00008   0.00000  -0.00667  -0.00660  -0.01161
   D56       -3.12258   0.00044   0.00000   0.16592   0.16571  -2.95687
   D57       -0.99847  -0.00208   0.00000   0.13167   0.13093  -0.86754
   D58        1.03406   0.00307   0.00000   0.20168   0.20215   1.23621
   D59       -1.01557  -0.00178   0.00000   0.10063   0.10045  -0.91512
   D60        1.10853  -0.00430   0.00000   0.06638   0.06567   1.17420
   D61        3.14106   0.00085   0.00000   0.13639   0.13689  -3.00524
   D62        1.03080   0.00165   0.00000   0.14819   0.14843   1.17924
   D63       -3.12828  -0.00088   0.00000   0.11394   0.11365  -3.01463
   D64       -1.09575   0.00428   0.00000   0.18395   0.18487  -0.91088
   D65        3.13861  -0.00005   0.00000  -0.00192  -0.00192   3.13669
   D66       -1.05041   0.00004   0.00000   0.00255   0.00253  -1.04787
   D67        1.04631  -0.00012   0.00000  -0.00018  -0.00019   1.04613
   D68        1.02461  -0.00144   0.00000  -0.00461  -0.00442   1.02019
   D69        3.11877  -0.00135   0.00000  -0.00014   0.00004   3.11881
   D70       -1.06769  -0.00152   0.00000  -0.00286  -0.00268  -1.07037
   D71       -1.02267   0.00147   0.00000   0.01857   0.01841  -1.00426
   D72        1.07149   0.00156   0.00000   0.02304   0.02286   1.09436
   D73       -3.11497   0.00139   0.00000   0.02032   0.02014  -3.09483
         Item               Value     Threshold  Converged?
 Maximum Force            0.017090     0.000450     NO 
 RMS     Force            0.003310     0.000300     NO 
 Maximum Displacement     0.876203     0.001800     NO 
 RMS     Displacement     0.183134     0.001200     NO 
 Predicted change in Energy=-6.041907D-03
 GradGradGradGradGradGradGradGradGradGradGradGradGradGradGradGradGradGrad

                          Input orientation:                          
 ---------------------------------------------------------------------
 Center     Atomic      Atomic             Coordinates (Angstroms)
 Number     Number       Type             X           Y           Z
 ---------------------------------------------------------------------
      1          8           0        1.328834    0.432111   -1.235160
      2          6           0        1.475852    0.353972   -0.023415
      3          7           0        0.470241    0.327727    0.866175
      4          6           0       -0.931859    0.321713    0.454662
      5          6           0       -1.736380    0.839699    1.636576
      6          8           0       -2.675323    1.714029    1.272239
      7          8           0       -1.534519    0.473325    2.768712
      8          6           0       -1.398907   -1.113182    0.091056
      9          6           0       -2.829661   -1.173571   -0.314425
     10          6           0       -3.953007   -1.571041    0.368331
     11          7           0       -5.080276   -1.399872   -0.401911
     12          6           0       -4.658853   -0.905248   -1.541420
     13          7           0       -3.299458   -0.744245   -1.544654
     14          6           0        2.891414    0.254250    0.564211
     15          6           0        3.844346    0.857038   -0.455925
     16          7           0        5.290699    0.577199   -0.090766
     17          1           0        0.644110    0.229708    1.858585
     18          1           0       -1.050906    0.981028   -0.403226
     19          1           0       -3.194997    1.953800    2.056974
     20          1           0       -1.255516   -1.749042    0.967179
     21          1           0       -0.739490   -1.480009   -0.700776
     22          1           0       -4.007048   -1.967256    1.371032
     23          1           0       -5.273545   -0.651008   -2.390911
     24          1           0       -2.743736   -0.394940   -2.310108
     25          1           0        3.114004   -0.809391    0.715944
     26          1           0        2.965266    0.750772    1.535455
     27          1           0        3.662253    0.434773   -1.442669
     28          1           0        3.737675    1.938455   -0.526985
     29          1           0        5.932369    0.979495   -0.780765
     30          1           0        5.533427    0.970081    0.823461
     31          1           0        5.473183   -0.430223   -0.050283
 ---------------------------------------------------------------------
                    Distance matrix (angstroms):
                    1          2          3          4          5
     1  O    0.000000
     2  C    1.223130   0.000000
     3  N    2.272375   1.342875   0.000000
     4  C    2.824610   2.454928   1.461254   0.000000
     5  C    4.220016   3.648278   2.392657   1.520685   0.000000
     6  O    4.895267   4.556395   3.461401   2.376266   1.333720
     7  O    4.922548   4.107621   2.767654   2.396041   1.206942
     8  C    3.404019   3.229533   2.484098   1.552181   2.513218
     9  C    4.551818   4.577720   3.812750   2.535552   3.009140
    10  C    5.872107   5.773357   4.839245   3.566133   3.511915
    11  N    6.717674   6.797208   5.949863   4.572410   4.511402
    12  C    6.142859   6.443957   5.798650   4.402302   4.656753
    13  N    4.785465   5.130676   4.601288   3.277050   3.882308
    14  C    2.389776   1.535925   2.441037   3.825438   4.786356
    15  C    2.667503   2.459655   3.662336   4.891613   5.960148
    16  N    4.126386   3.821965   4.920852   6.251639   7.241025
    17  H    3.175071   2.061349   1.012282   2.112615   2.467410
    18  H    2.580036   2.630962   2.086162   1.088504   2.156535
    19  H    5.798167   5.357640   4.182833   3.217593   1.882955
    20  H    4.035665   3.586686   2.702112   2.157650   2.716782
    21  H    2.867007   2.954665   2.680801   2.149011   3.440647
    22  H    6.404751   6.115127   5.056475   3.941560   3.620144
    23  H    6.789721   7.222838   6.675149   5.281450   5.563668
    24  H    4.292476   4.857443   4.576098   3.382372   4.256221
    25  H    2.921467   2.140936   2.881855   4.209118   5.205121
[...]
 .05130626,-0.00514050,0.02281671,-0.00314550,-0.00103877,-0.00061455,0
 .00111707,-0.00002227,-0.00043901,0.00014732,0.00007025,-0.00001511,-0
 .00003196,-0.00000233,-0.00000408,0.00000705,-0.00000268,0.00000308,0.
 00001174,-0.00000593,0.00003425,-0.00002274,-0.00000065,-0.00000047,0.
 00000103,-0.00000011,0.00000020,-0.00000063,-0.00000205,0.00000405,-0.
 00000705,0.00385385,-0.03277703,0.05246581,-0.00692276,0.00244949,-0.0
 0435776,0.00716099,-0.01533769,-0.02627049,0.00000603,0.00108424,0.001
 58302,0.00006198,-0.00004833,0.00007279,-0.00012554,0.00003211,-0.0003
 3932,0.00010098,-0.00005015,0.00008589,0.00015360,0.00005622,0.0002264
 6,0.00011458,0.00001638,0.00001970,-0.00001269,0.00004083,0.00000039,0
 .00000371,0.00001239,-0.00000169,-0.00001949,-0.00000533,0.00000207,0.
 00001379,-0.00000386,0.00000031,-0.00000860,-0.00000322,0.00001127,-0.
 05011330,-0.00624491,-0.00620668,-0.00026091,0.01054075,0.02289065,0.0
 0129633,0.00029963,0.00022054,-0.00179751,-0.00039791,0.00004336,0.000
 17025,-0.00002036,0.00002486,-0.00003169,-0.00000761,0.00000221,-0.000
 00913,-0.00000399,0.00001384,0.00002042,0.00006734,0.00001323,-0.00000
 039,-0.00000528,-0.00000013,0.00000041,-0.00000014,0.00000037,0.000027
 70,-0.00000132,-0.00000241,-0.00006844,0.00320087,0.00696980,0.0533923
 9,0.00056875,0.00103998,0.00102727,0.00198486,-0.00028894,0.00253570,-
 0.00052959,-0.00004789,0.00033145,-0.00005133,-0.00000501,0.00022273,-
 0.00002448,0.00000365,-0.00019557,0.00000760,-0.00000710,0.00005756,0.
 00002379,-0.00005393,0.00013373,0.00002243,0.00001060,-0.00004394,-0.0
 0001245,0.00000112,0.00000947,0.00000670,0.00001003,-0.00001115,-0.000
 02234,-0.00000504,-0.00000155,0.00000486,0.00000235,-0.00000051,-0.000
 00451,-0.00001488,0.00001668,-0.00635981,-0.10263738,-0.10735190,0.000
 81680,0.00695518,0.01615153,0.00072038,0.00012764,-0.00015216,-0.00058
 657,0.00048159,-0.00000235,0.00006911,0.00000384,0.00002879,0.00000304
 ,0.00001129,-0.00000702,-0.00000456,-0.00001536,-0.00000318,0.00000614
 ,0.00001413,0.00002781,-0.00000071,-0.00000062,-0.00000036,0.00000002,
 0.00000038,0.00000054,0.00001083,0.00000216,0.00000491,-0.00149981,-0.
 01281349,-0.02784268,0.00653689,0.10666003,-0.00333239,0.00028330,-0.0
 0003369,0.00216554,-0.00463363,-0.01219863,0.00161990,0.00067419,0.001
 17921,-0.00050980,0.00054510,0.00001978,-0.00008632,-0.00002411,-0.000
 03351,0.00003000,-0.00000441,0.00000553,0.00003586,0.00002527,0.000024
 08,0.00020510,-0.00006457,0.00002913,0.00000333,0.00007696,-0.00000534
 ,-0.00001566,0.00000487,0.00001377,0.00000902,-0.00001683,0.00001984,0
 .00003442,0.00000846,-0.00000602,-0.00001889,0.00000394,-0.00000658,-0
 .00609541,-0.10495663,-0.25502295,-0.00181022,-0.00801953,-0.01785324,
 0.00024917,0.00001234,0.00079358,-0.00019390,-0.00048828,0.00094015,0.
 00003720,-0.00005216,0.00005213,-0.00000937,-0.00000760,0.00000164,-0.
 00000913,-0.00000813,0.00000533,0.00000444,0.00003103,0.00000535,-0.00
 000041,-0.00000096,0.00000078,0.00000163,-0.00000075,-0.00000040,0.000
 01705,-0.00000081,-0.00000717,0.00004401,0.00167660,0.00489313,0.00463
 862,0.11336073,0.27780637,-0.00114816,-0.00041765,-0.00369630,0.000026
 68,0.00021270,0.00654390,0.00089947,-0.00019134,-0.00257199,-0.0002705
 5,0.00002810,-0.00009870,-0.00013543,0.00012980,0.00022216,0.00007870,
 -0.00005337,-0.00005900,0.00006697,-0.00007564,-0.00019870,-0.00001970
 ,-0.00001883,0.00003010,0.00000222,-0.00000145,0.00001256,-0.00001609,
 -0.00001039,0.00001668,0.00005869,0.00000676,0.00000828,-0.00001047,-0
 .00000694,0.00000478,0.00001891,0.00002866,-0.00003182,0.00411151,0.00
 874465,0.01921491,-0.05012053,-0.01082254,-0.03179790,-0.01617350,-0.0
 1021626,-0.03469613,0.00058319,0.00001888,0.00005452,-0.00006580,0.000
 02316,0.00002022,-0.00000613,0.00001640,0.00001100,0.00001144,-0.00000
 483,-0.00001448,-0.00000617,-0.00005716,-0.00001345,-0.00000320,-0.000
 00149,0.00000025,0.00000036,-0.00000017,-0.00000131,-0.00003404,-0.000
 00302,-0.00001332,0.00062515,-0.00026808,-0.00034944,-0.00347894,-0.00
 262002,0.00225698,0.06650982,-0.00023810,-0.00168506,-0.00021179,-0.00
 021472,0.00089915,0.00000245,0.00033094,0.00018275,-0.00021960,-0.0000
 8375,0.00000825,-0.00013089,-0.00005140,0.00004741,0.00006924,0.000046
 77,-0.00002963,-0.00001734,0.00002511,-0.00002346,-0.00004359,-0.00000
 373,0.00000097,0.00001862,-0.00000448,-0.00000215,-0.00000843,-0.00001
 033,-0.00000611,0.00000803,0.00002161,-0.00000366,0.00001149,0.0000089
 6,-0.00000090,0.00000023,0.00000522,0.00000108,-0.00001064,0.00237012,
 0.00592602,0.01425114,-0.01633426,-0.08746279,-0.09216888,0.00543543,0
 .00309320,0.01303807,0.00016083,0.00008256,0.00004599,-0.00002230,-0.0
 0000132,0.00001165,-0.00000366,0.00000494,0.00000334,-0.00000328,-0.00
 000194,0.00000455,-0.00001089,-0.00000809,-0.00001165,-0.00000230,-0.0
 0000011,0.00000181,0.00000073,0.00000170,0.00000035,-0.00000771,0.0000
 1363,-0.00000827,0.00077349,0.00051918,0.00002239,-0.00226762,-0.00051
 039,0.00164322,0.01437665,0.08702048,-0.00304705,-0.00027010,0.0011401
 1,-0.00105869,-0.00035669,-0.00220295,0.00002728,0.00002354,-0.0002373
 6,-0.00004622,-0.00000184,0.00004666,-0.00001072,-0.00001706,-0.000030
 53,0.00000485,-0.00000172,0.00000591,0.00001805,0.00000461,0.00002238,
 -0.00000062,0.00000760,-0.00000107,0.00000296,-0.00000345,0.00001713,0
 .00000427,0.00000231,-0.00000396,0.00000052,0.00000535,-0.00001118,-0.
 00001667,-0.00000322,0.00000302,0.00000691,0.00000140,-0.00000471,0.00
 173844,-0.00660665,-0.02009478,-0.04145195,-0.08767323,-0.28572793,-0.
 00156504,-0.00011631,-0.00147754,-0.00000671,-0.00002618,0.00010784,0.
 00002556,-0.00000273,0.00001648,-0.00000242,0.00000177,0.00000090,0.00
 000025,-0.00000256,-0.00000298,0.00001018,0.00001148,0.00001053,0.0000
 0041,-0.00000003,-0.00000067,-0.00000171,-0.00000006,0.00000028,-0.000
 00614,-0.00000222,0.00000946,-0.00039071,0.00014518,0.00062155,0.00169
 305,0.00242976,-0.00106955,0.04325274,0.09171113,0.30536107,-0.0004317
 6,0.00056992,-0.00071834,0.00202479,-0.00070268,0.00110419,-0.00061847
 ,0.00041383,0.00008076,0.00008787,-0.00005314,0.00009104,0.00004979,-0
 .00007506,-0.00002507,-0.00005577,0.00004999,0.00000330,-0.00003314,0.
 00004348,0.00000775,-0.00001710,-0.00000782,-0.00001242,0.00000232,0.0
 0000075,0.00001022,0.00001193,0.00000301,-0.00000471,-0.00001502,0.000
 00698,-0.00001426,-0.00001807,-0.00000205,-0.00000085,-0.00000046,0.00
 000238,0.00000485,0.00272134,-0.02214795,-0.00040123,-0.04944967,0.002
 47146,-0.00152136,-0.01290997,0.04010412,-0.00077330,0.00007111,-0.000
 12458,-0.00005071,-0.00003800,-0.00001743,-0.00002561,-0.00000430,-0.0
 0001185,0.00000104,0.00001403,0.00000636,-0.00001294,0.00000475,-0.000
 00163,0.00002078,0.00000274,-0.00000037,-0.00000205,-0.00000111,-0.000
 00194,-0.00000083,0.00000093,-0.00001129,0.00000384,-0.00292728,-0.001
 41071,0.00286916,0.00068397,0.00076877,-0.00033281,0.00203883,-0.00568
 888,0.00117957,0.06275011,-0.00025525,0.00050553,-0.00060898,0.0002492
 6,-0.00011810,0.00107603,-0.00022937,-0.00002983,-0.00017755,0.0000131
 3,-0.00001812,0.00004246,0.00000672,-0.00001177,-0.00001389,-0.0000150
 2,0.00000698,0.00000391,-0.00000547,0.00000865,0.00000556,-0.00001405,
 0.00001295,0.00000234,-0.00000097,-0.00000408,0.00000375,0.00000511,0.
 00000060,-0.00000266,-0.00000547,0.00000235,-0.00000577,-0.00000657,-0
 .00000163,-0.00000045,-0.00000015,-0.00000050,0.00000205,-0.00090563,-
 0.01021964,0.00018790,0.01492259,-0.32408211,-0.00572074,0.00183873,-0
 .00370878,-0.00010979,0.00002524,-0.00006968,-0.00002741,-0.00000899,0
 .00000262,-0.00001193,0.00000098,0.00000051,-0.00000076,0.00000477,0.0
 0000101,-0.00000366,0.00000377,-0.00000097,0.00000268,0.00000086,0.000
 00044,-0.00000057,-0.00000038,0.,0.00000005,-0.00000147,-0.00000182,0.
 00000323,-0.00143093,0.00078391,0.00111651,0.00019159,0.00106953,0.000
 02489,0.00017043,-0.00859418,0.00040717,-0.01547503,0.34324805,-0.0003
 4675,0.00069860,0.00001483,-0.00049578,-0.00007447,0.00025873,0.000002
 97,-0.00033942,-0.00011924,0.00004572,-0.00002295,0.00001046,0.0000558
 5,-0.00000286,0.00006912,-0.00003703,0.00001597,-0.00001735,-0.0000395
 3,-0.00002295,-0.00004760,-0.00000322,0.00002528,-0.00001486,0.0000028
 0,-0.00001568,0.00000844,0.00000537,-0.00000180,-0.00000566,-0.0000050
 0,0.00000392,-0.00000809,-0.00000901,-0.00000098,0.00000362,0.00000355
 ,0.00000052,-0.00000055,-0.00048382,0.02239472,-0.00001227,0.00068339,
 -0.00998547,-0.05133215,-0.00354025,0.00999601,-0.00085129,0.00003865,
 0.00011746,-0.00000161,-0.00000019,-0.00000251,0.00000225,0.00001045,0
 .00000176,0.00000121,-0.00000411,0.00000212,0.00000451,0.00000341,-0.0
 0000012,-0.00000481,0.00000051,0.00000228,-0.00000016,-0.00000114,-0.0
 0000036,0.00000011,-0.00000096,-0.00000500,0.00000673,0.00333319,0.001
 83204,-0.00186225,-0.00119056,-0.00005822,0.00078733,0.00316141,-0.029
 01227,0.00248893,-0.00031222,0.00354237,0.05030993,0.00064198,0.000270
 95,-0.00098288,-0.00000510,-0.00058578,0.00342521,-0.00061319,-0.00000
 896,-0.00066559,-0.00000743,0.00006004,0.00017956,-0.00009594,0.000008
 94,-0.00007872,0.00002520,-0.00000548,0.00002357,0.00004379,-0.0000037
 2,0.00001633,-0.00001563,0.00000354,-0.00000170,0.00000107,-0.00001172
 ,0.00000468,-0.00000427,-0.00000172,0.00000173,0.00002092,0.00000562,-
 0.00000008,-0.00001209,-0.00000425,0.00000565,0.00001260,0.00000882,-0
 .00001038,-0.00579234,0.00230332,-0.00383541,-0.01822308,-0.01308399,0
 .01984392,-0.19202558,-0.09459539,0.14581884,0.00000680,-0.00002517,-0
 .00003133,-0.00001653,-0.00000048,-0.00000183,-0.00001623,0.00000635,0
 .00000224,-0.00000120,-0.00000264,0.00000127,0.00000029,-0.00001136,-0
 .00000626,-0.00000251,-0.00000167,0.00000084,-0.00000086,-0.00000072,-
 0.00000029,-0.00001103,-0.00000247,-0.00000299,0.00052519,0.00014285,-
 0.00038020,0.00013621,0.00020992,0.00004456,0.00088361,-0.00097898,-0.
 00066277,0.00119541,0.00068045,0.00052904,0.20097999,0.00015762,-0.000
 13302,0.00005152,-0.00009037,0.00067621,-0.00048165,0.00037606,-0.0000
 4832,0.00003546,-0.00005279,-0.00005780,-0.00008395,-0.00007387,0.0000
 6873,0.00006398,0.00007691,-0.00005291,-0.00001615,0.00004636,-0.00003
 315,-0.00002936,-0.00001282,-0.00000970,0.00000226,-0.00000592,0.00000
 348,-0.00000410,-0.00000902,-0.00000400,0.00000497,0.00002191,-0.00000
 396,0.00000908,0.00000525,-0.00000142,0.00000147,0.00000549,0.00000300
 ,-0.00000999,0.00181351,-0.00087566,0.00137132,0.00426128,0.00545361,-
 0.00843716,-0.08888639,-0.12235291,0.09236940,-0.00003382,0.00004360,0
 .00005536,0.00002150,0.00000717,0.00000523,-0.00000442,0.00001248,0.00
 000247,-0.00000430,-0.00000197,0.00000448,-0.00000154,-0.00000401,-0.0
 0000830,-0.00000247,-0.00000039,0.00000199,0.00000073,0.00000197,0.000
 00067,-0.00000730,0.00000815,-0.00000690,-0.00007626,0.00032820,0.0000
 1485,-0.00021574,0.00002613,0.00008580,-0.00056064,0.00000579,-0.00010
 462,0.00079075,-0.00021423,-0.00052707,0.09729694,0.12349067,-0.000186
 36,0.00000030,-0.00015821,-0.00014969,-0.00017323,0.00078859,-0.000437
 66,-0.00000415,-0.00017177,0.00008460,0.00001262,0.00008258,0.00010140
 ,-0.00006747,-0.00000317,-0.00010197,0.00005159,0.00000232,-0.00007081
 ,0.00001715,-0.00001243,-0.00000275,0.00003185,0.00001218,0.00000641,-
 0.00001689,0.00000867,0.00001679,0.00000138,-0.00000912,-0.00002541,0.
 00000552,-0.00002294,-0.00002097,-0.00000199,0.00000009,-0.00000048,-0
 .00000977,0.00000526,-0.00165455,0.00089181,-0.00085395,-0.00363654,-0
 .00668751,0.00939785,0.13800052,0.09327742,-0.20805390,0.00007133,-0.0
 0001214,-0.00007421,-0.00001928,-0.00000110,-0.00000238,0.00001474,-0.
 00000226,-0.00000162,0.00000563,0.00000267,-0.00000659,0.00000317,0.00
 000450,0.00000933,0.00000320,0.00000420,-0.00000159,-0.00000215,0.0000
 0097,0.00000094,0.00000277,0.00000248,0.00002028,0.00009716,0.00006628
 ,-0.00019255,-0.00021723,0.00008229,0.00010859,-0.00077356,-0.00044073
 ,0.00030675,0.00011853,-0.00008027,0.00024829,-0.15092708,-0.10233601,
 0.21678512,-0.00021448,-0.00027810,0.00159013,-0.00177824,0.00037519,-
 0.00202836,0.00061603,0.00002543,0.00029099,-0.00016710,-0.00000271,-0
 .00012502,-0.00017224,0.00010827,0.00004794,0.00016134,-0.00008107,-0.
 00001649,0.00012018,-0.00002938,-0.00001306,0.00001417,-0.00005002,-0.
 00000964,-0.00000608,0.00002606,0.00000187,-0.00002537,-0.00000175,0.0
 0001753,0.00005175,-0.00000316,0.00002024,0.00001026,-0.00000465,0.000
 00540,0.00001313,0.00002337,-0.00002349,0.00275375,-0.00061572,-0.0005
 1975,-0.00643042,-0.01174447,-0.03147912,-0.07667316,-0.02994002,-0.07
 850850,-0.00013517,-0.00001060,0.00012031,0.00002614,0.00000201,0.0000
 1183,-0.00002641,0.00000747,0.00000996,-0.00000782,-0.00000396,0.00000
 689,-0.00000013,-0.00000953,-0.00001118,-0.00000532,-0.00000579,0.0000
 0190,0.00000095,-0.00000070,-0.00000067,-0.00001309,-0.00000447,-0.000
 02085,-0.00017639,-0.00023602,0.00011338,-0.00058691,0.00026044,0.0010
 0432,-0.00569789,0.00280137,0.00068106,0.00143470,0.00032066,0.0003031
 9,0.00781511,0.01055052,0.02301212,0.07835317,0.00049164,0.00008636,0.
 00002370,-0.00059761,-0.00019450,0.00015952,0.00031023,-0.00008961,-0.
 00014257,-0.00008724,0.00002840,-0.00006039,-0.00008774,0.00008817,0.0
 0007643,0.00007160,-0.00005270,-0.00001725,0.00004515,-0.00005565,-0.0
 0005036,0.00001540,-0.00000824,-0.00000124,-0.00000376,0.00000502,-0.0
 0000297,-0.00001182,-0.00000410,0.00000526,0.00002653,-0.00000563,0.00
 001096,0.00000685,-0.00000056,0.00000284,0.00000690,0.00000541,-0.0000
 1030,-0.00012091,-0.00000985,0.00020069,0.00016179,0.00480930,0.009785
 10,-0.02627928,-0.09725235,-0.09802739,-0.00002322,0.00006551,0.000047
 54,0.00000734,0.00000906,0.00001052,-0.00000271,0.00001698,0.00000463,
 -0.00000646,-0.00000242,0.00000513,-0.00000208,-0.00001354,-0.00001175
 ,-0.00000344,0.00000063,0.00000238,0.00000056,0.00000152,0.00000056,-0
 .00000948,0.00000592,-0.00000756,-0.00017093,-0.00042189,-0.00021146,0
 .00005028,0.00027582,-0.00025170,0.00218251,-0.00029056,0.00008829,0.0
 0028401,-0.00014560,0.00091551,0.00626361,0.00665583,0.01659792,0.0274
 4956,0.09586898,0.00029492,0.00005973,-0.00023885,-0.00029000,0.000111
 03,-0.00029454,0.00050534,-0.00002411,-0.00014805,-0.00007623,-0.00002
 512,-0.00009485,-0.00001593,0.00005013,0.00020142,0.00002351,-0.000017
 13,-0.00005487,0.00000515,-0.00002859,-0.00013980,0.00000373,-0.000013
 79,0.00001084,-0.00000016,0.00000047,0.00000740,-0.00000586,-0.0000065
 7,0.00000972,0.00002576,0.00000315,-0.00000308,-0.00000833,-0.00000281
 ,0.00000507,0.00001032,0.00001305,-0.00002064,0.00047991,0.00023617,0.
 00265766,-0.00562459,0.00040941,-0.00339264,-0.06952253,-0.10110135,-0
 .34898924,0.00005554,0.00002424,0.00010459,0.00000142,0.00000414,0.000
 00210,0.00000219,0.00000305,0.00000968,0.00000035,0.00000288,-0.000000
 91,-0.00000389,-0.00001608,-0.00000968,-0.00000111,0.00000127,0.000000
 60,-0.00000064,0.00000018,-0.00000018,-0.00001239,-0.00000094,-0.00000
 067,-0.00007603,0.00003034,0.00010276,-0.00009305,-0.00065142,-0.00033
 073,-0.00021052,0.00076531,0.00115945,0.00054819,0.00037843,0.00015699
 ,-0.00670863,-0.00865223,-0.02068235,0.07975102,0.10827403,0.36794154,
 0.00047179,-0.00019620,0.00049579,-0.00108307,-0.00034493,-0.00091953,
 0.00074659,-0.00001519,-0.00000256,-0.00019617,0.00009775,-0.00015506,
 -0.00019644,0.00014771,0.00011852,0.00017176,-0.00009627,-0.00002982,0
 .00012075,-0.00005597,-0.00007170,0.00003053,-0.00005311,0.00000179,-0
 .00000359,0.00001879,-0.00000402,-0.00003316,-0.00000596,0.00002409,0.
 00006785,-0.00000487,0.00002744,0.00001564,-0.00000151,0.00000711,0.00
 001675,0.00002635,-0.00003152,0.00201130,0.00134725,0.00017470,-0.0029
 7647,0.03492680,0.00156689,-0.06239786,0.04761187,0.00338790,-0.000068
 78,0.00003533,0.00013627,0.00001747,0.00000712,0.00001656,-0.00002350,
 0.00001418,0.00001088,-0.00001238,-0.00000678,0.00000848,-0.00000807,-
 0.00002050,-0.00002345,-0.00000656,-0.00000515,0.00000254,0.00000119,-
 0.00000057,-0.00000095,-0.00001967,0.00000022,-0.00002249,-0.00049350,
 -0.00154222,0.00073581,0.00009294,-0.00030516,0.00001317,0.00127104,-0
 .00043081,-0.00037869,-0.00657448,-0.00007954,-0.00170994,0.00455485,-
 0.02538718,-0.00331189,0.00074558,-0.00996727,0.00094254,0.06375766,-0
 .00031496,-0.00021006,0.00004930,0.00024616,-0.00015915,0.00035669,-0.
 00047937,-0.00003976,-0.00003184,0.00011740,0.00004806,0.00009644,0.00
 005054,-0.00004470,-0.00004253,-0.00006849,0.00002372,0.00001704,-0.00
 005354,-0.00000301,0.00001915,-0.00000335,0.00003930,0.00000676,0.0000
 0304,-0.00002129,-0.00001106,0.00000619,-0.00000275,-0.00001129,-0.000
 01942,-0.00000677,-0.00000386,0.00000031,0.00000305,-0.00000176,-0.000
 00337,-0.00002122,0.00001028,-0.00090407,0.00242042,-0.00144884,0.0060
 2169,-0.00491404,0.00161192,0.03790780,-0.39565041,-0.01301921,0.00004
 427,0.00005085,-0.00005890,-0.00000883,-0.00000569,-0.00000026,0.00001
 252,0.00000930,-0.00000512,-0.00000756,0.00000226,0.00001103,0.0000002
 0,0.00001858,-0.00000796,-0.00000027,0.00000626,0.00000259,-0.00000059
 ,0.00000336,0.00000170,0.00000653,0.00001726,0.00001076,0.00038427,-0.
 00034317,-0.00017656,0.00003445,-0.00029541,0.00007338,-0.00060887,0.0
 0081322,0.00034905,0.00021660,0.00157790,0.00052358,0.00206314,-0.0129
 9155,-0.00121740,0.00107178,-0.00937568,0.00017314,-0.04571418,0.41905
 113,-0.00013064,-0.00016578,-0.00073943,0.00074576,0.00029016,0.000737
 40,-0.00013886,0.00001355,-0.00014261,0.00006024,-0.00003073,0.0000205
 6,0.00007396,-0.00004052,0.00004912,-0.00006638,0.00003113,-0.00001252
 ,-0.00004899,0.00001615,-0.00004188,-0.00001668,0.00002479,0.00002204,
 0.00000374,-0.00001565,0.00000886,0.00001222,-0.00000314,-0.00000521,-
 0.00001289,0.00000639,-0.00001866,-0.00001972,-0.00000298,0.00000074,0
 .00000268,-0.00000665,-0.00000408,-0.00012000,-0.00131676,-0.00011289,
 -0.00085700,0.00915551,0.00076536,0.00314182,-0.01086119,-0.06291790,0
 .00005514,-0.00002358,-0.00002097,-0.00000905,0.00000098,-0.00000391,0
 .00001081,-0.00000276,0.00000025,0.00000529,0.00000235,-0.00000451,0.0
 0000015,0.00000449,0.00000446,0.00000224,0.00000362,-0.00000080,-0.000
 00173,0.00000152,0.00000078,-0.00000207,0.00000677,0.00001580,0.000105
 56,0.00044620,0.00037577,0.00016686,-0.00009894,-0.00011790,-0.0002838
 6,0.00067506,-0.00045325,-0.00183449,-0.00003490,-0.00009361,-0.005601
 28,0.02661717,0.00246994,0.00576605,-0.03741606,0.00203127,-0.00100886
 ,0.01272379,0.05818779\\-0.00000035,-0.00000130,0.00000024,-0.00000341
 ,0.00000265,0.00000587,0.00000358,-0.00000178,0.00000121,-0.00000072,0
 .00000442,0.00000095,-0.00000417,0.00000561,-0.00000225,0.00000524,0.0
 0000270,0.00000107,0.00000218,-0.00000227,-0.00000292,-0.00000197,-0.0
 0000190,-0.00000313,-0.00000033,-0.00000297,0.00000120,-0.00000054,-0.
 00000267,-0.00000266,0.00000066,-0.00000038,0.00000306,0.00000169,0.00
 000115,0.00000024,-0.00000036,-0.00000090,0.00000019,-0.00000376,-0.00
 000301,-0.00000468,0.00000815,0.00000056,0.00000416,-0.00000488,0.0000
 0094,-0.00000189,0.00000088,0.00000130,-0.00000136,0.00000004,-0.00000
 042,-0.00000027,-0.00000097,-0.00000039,-0.00000017,0.00000034,0.00000
 101,0.00000077,-0.00000030,-0.00000028,0.00000035,-0.00000019,0.000000
 14,0.00000060,-0.00000014,-0.00000050,-0.00000008,0.00000039,0.0000000
 9,-0.00000005,0.00000068,0.00000060,0.00000104,0.00000041,-0.00000028,
 0.00000046,-0.00000113,-0.00000189,-0.00000081,-0.00000109,0.00000023,
 -0.00000055,0.00000024,-0.00000017,-0.00000046,-0.00000013,0.00000025,
 0.00000004,-0.00000006,-0.00000053,-0.00000015\\\@


 ... A MOLECULAR SYSTEM ... (PASSES) ... FROM ONE STATE OF EQUILIBRIUM 
 TO ANOTHER ... BY MEANS OF ALL POSSIBLE INTERMEDIATE PATHS, 
 BUT THE PATH MOST ECONOMICAL OF ENERGY WILL BE THE MORE OFTEN TRAVELED.

                      -- HENRY EYRING, 1945
 Job cpu time:       0 days  4 hours 50 minutes 22.7 seconds.
 File lengths (MBytes):  RWF=    608 Int=      0 D2E=      0 Chk=     18 Scr=      1
 Normal termination of Gaussian 09 at Sat Jul 24 04:12:46 2021.
