 Entering Gaussian System, Link 0=g09
 Input=opt_freq-conf-862.com
 Output=opt_freq-conf-862.log
 Initial command:
 /aerosol/software/g09/l1.exe "/scratch/nicole/10511/Gau-72592.inp" -scrdir="/scratch/nicole/10511/"
 Entering Link 1 = /aerosol/software/g09/l1.exe PID=     72596.
  
 Copyright (c) 1988,1990,1992,1993,1995,1998,2003,2009,2013,
            Gaussian, Inc.  All Rights Reserved.
  
 This is part of the Gaussian(R) 09 program.  It is based on
 the Gaussian(R) 03 system (copyright 2003, Gaussian, Inc.),
 the Gaussian(R) 98 system (copyright 1998, Gaussian, Inc.),
 the Gaussian(R) 94 system (copyright 1995, Gaussian, Inc.),
 the Gaussian 92(TM) system (copyright 1992, Gaussian, Inc.),
 the Gaussian 90(TM) system (copyright 1990, Gaussian, Inc.),
 the Gaussian 88(TM) system (copyright 1988, Gaussian, Inc.),
 the Gaussian 86(TM) system (copyright 1986, Carnegie Mellon
 University), and the Gaussian 82(TM) system (copyright 1983,
 Carnegie Mellon University). Gaussian is a federally registered
 trademark of Gaussian, Inc.
  
 This software contains proprietary and confidential information,
 including trade secrets, belonging to Gaussian, Inc.
  
 This software is provided under written license and may be
 used, copied, transmitted, or stored only in accord with that
 written license.
  
 The following legend is applicable only to US Government
 contracts under FAR:
  
                    RESTRICTED RIGHTS LEGEND
  
 Use, reproduction and disclosure by the US Government is
 subject to restrictions as set forth in subparagraphs (a)
 and (c) of the Commercial Computer Software - Restricted
 Rights clause in FAR 52.227-19.
  
 Gaussian, Inc.
 340 Quinnipiac St., Bldg. 40, Wallingford CT 06492
  
  
 ---------------------------------------------------------------
 Warning -- This program may not be used in any manner that
 competes with the business of Gaussian, Inc. or will provide
 assistance to any competitor of Gaussian, Inc.  The licensee
 of this program is prohibited from giving any competitor of
 Gaussian, Inc. access to this program.  By using this program,
 the user acknowledges that Gaussian, Inc. is engaged in the
 business of creating and licensing software in the field of
 computational chemistry and represents and warrants to the
 licensee that it is not a competitor of Gaussian, Inc. and that
 it will not use this program in any manner prohibited above.
 ---------------------------------------------------------------
  

 Cite this work as:
 Gaussian 09, Revision D.01,
 M. J. Frisch, G. W. Trucks, H. B. Schlegel, G. E. Scuseria, 
 M. A. Robb, J. R. Cheeseman, G. Scalmani, V. Barone, B. Mennucci, 
 G. A. Petersson, H. Nakatsuji, M. Caricato, X. Li, H. P. Hratchian, 
 A. F. Izmaylov, J. Bloino, G. Zheng, J. L. Sonnenberg, M. Hada, 
 M. Ehara, K. Toyota, R. Fukuda, J. Hasegawa, M. Ishida, T. Nakajima, 
 Y. Honda, O. Kitao, H. Nakai, T. Vreven, J. A. Montgomery, Jr., 
 J. E. Peralta, F. Ogliaro, M. Bearpark, J. J. Heyd, E. Brothers, 
 K. N. Kudin, V. N. Staroverov, T. Keith, R. Kobayashi, J. Normand, 
 K. Raghavachari, A. Rendell, J. C. Burant, S. S. Iyengar, J. Tomasi, 
 M. Cossi, N. Rega, J. M. Millam, M. Klene, J. E. Knox, J. B. Cross, 
 V. Bakken, C. Adamo, J. Jaramillo, R. Gomperts, R. E. Stratmann, 
 O. Yazyev, A. J. Austin, R. Cammi, C. Pomelli, J. W. Ochterski, 
 R. L. Martin, K. Morokuma, V. G. Zakrzewski, G. A. Voth, 
 P. Salvador, J. J. Dannenberg, S. Dapprich, A. D. Daniels, 
 O. Farkas, J. B. Foresman, J. V. Ortiz, J. Cioslowski, 
 and D. J. Fox, Gaussian, Inc., Wallingford CT, 2013.
 
 ******************************************
 Gaussian 09:  ES64L-G09RevD.01 24-Apr-2013
                24-Jul-2021 
 ******************************************
 %mem=2gb
 %nproc=4
 Will use up to    4 processors via shared memory.
 %chk=conf-862.chk
 ----------------------------------------------------------------------
 # B3LYP/6-311++G(d,p) EmpiricalDispersion=GD3BJ opt=calcfc freq=norama
 n nosymm integral(ultrafinegrid)
 ----------------------------------------------------------------------
 1/10=4,14=-1,18=20,19=15,26=4,38=1/1,3;
 2/9=110,12=2,15=1,17=6,18=5,40=1/2;
 3/5=4,6=6,7=1111,11=2,16=1,25=1,30=1,71=2,74=-5,75=-5,124=41,140=1/1,2,3;
 4//1;
 5/5=2,38=5/2;
 8/6=4,10=90,11=11/1;
 11/6=1,8=1,9=11,15=111,16=1,31=1/1,2,10;
 10/6=1,13=1,31=1/2;
 6/7=2,8=2,9=2,10=2,28=1/1;
 7/10=1,18=20,25=1,30=1/1,2,3,16;
 1/10=4,14=-1,18=20,19=15,26=4/3(2);
 2/9=110,15=1/2;
 99//99;
 2/9=110,15=1/2;
 3/5=4,6=6,7=1111,11=2,16=1,25=1,30=1,71=1,74=-5,75=-5,124=41/1,2,3;
 4/5=5,16=3,69=1/1;
 5/5=2,38=5/2;
 7/30=1/1,2,3,16;
 1/14=-1,18=20,19=15,26=4/3(-5);
 2/9=110,15=1/2;
 6/7=2,8=2,9=2,10=2,19=2,28=1/1;
 99/9=1/99;
 ------------------------------------------------------------
 Candidate Structure: Conf:862 OPT and FREQ calc in gas phase
 ------------------------------------------------------------
 Symbolic Z-matrix:
 Charge =  1 Multiplicity = 1
 O                    -0.64382   1.8692   -0.02147 
 C                     0.40427   1.2806    0.22981 
 N                     0.59079   0.64882   1.42117 
 C                    -0.55934   0.17793   2.1589 
 C                    -0.26682   0.28216   3.63838 
 O                    -1.39388   0.18172   4.37067 
 O                     0.82812   0.40151   4.11882 
 C                    -0.95329  -1.29804   1.8377 
 C                    -0.88358  -1.61865   0.37492 
 C                    -1.65877  -1.27871  -0.69283 
 N                    -1.04311  -1.62859  -1.87774 
 C                     0.06046  -2.24305  -1.5287 
 N                     0.21252  -2.25603  -0.18544 
 C                     1.55492   1.16443  -0.75258 
 C                     1.27168   1.77315  -2.11516 
 N                     0.01421   1.25406  -2.69256 
 H                     1.48274   0.25027   1.65622 
 H                    -1.39309   0.82491   1.88935 
 H                    -1.11634   0.23657   5.29364 
 H                    -1.96103  -1.45781   2.21287 
 H                    -0.29261  -1.98659   2.36159 
 H                    -2.59999  -0.7413   -0.67729 
 H                     0.78342  -2.65745  -2.21707 
 H                     0.96095  -2.69677   0.32238 
 H                     1.7852    0.09784  -0.87003 
 H                     2.44008   1.62365  -0.30631 
 H                     2.10403   1.55295  -2.78582 
 H                     1.19989   2.85621  -2.01733 
 H                    -0.03434   0.22637  -2.64484 
 H                    -0.1372    1.56364  -3.65237 
 H                    -0.75596   1.59722  -2.11067 
 

 GradGradGradGradGradGradGradGradGradGradGradGradGradGradGradGradGradGrad
 Berny optimization.
 Initialization pass.
                           ----------------------------
                           !    Initial Parameters    !
                           ! (Angstroms and Degrees)  !
 --------------------------                            --------------------------
 ! Name  Definition              Value          Derivative Info.                !
 --------------------------------------------------------------------------------
 ! R1    R(1,2)                  1.228          calculate D2E/DX2 analytically  !
 ! R2    R(2,3)                  1.3614         calculate D2E/DX2 analytically  !
 ! R3    R(2,14)                 1.5174         calculate D2E/DX2 analytically  !
 ! R4    R(3,4)                  1.4453         calculate D2E/DX2 analytically  !
 ! R5    R(3,17)                 1.0048         calculate D2E/DX2 analytically  !
 ! R6    R(4,5)                  1.5117         calculate D2E/DX2 analytically  !
 ! R7    R(4,8)                  1.561          calculate D2E/DX2 analytically  !
 ! R8    R(4,18)                 1.0892         calculate D2E/DX2 analytically  !
 ! R9    R(5,6)                  1.3478         calculate D2E/DX2 analytically  !
 ! R10   R(5,7)                  1.2017         calculate D2E/DX2 analytically  !
 ! R11   R(6,19)                 0.9654         calculate D2E/DX2 analytically  !
 ! R12   R(8,9)                  1.4991         calculate D2E/DX2 analytically  !
 ! R13   R(8,20)                 1.0871         calculate D2E/DX2 analytically  !
 ! R14   R(8,21)                 1.0886         calculate D2E/DX2 analytically  !
 ! R15   R(9,10)                 1.3626         calculate D2E/DX2 analytically  !
 ! R16   R(9,13)                 1.3862         calculate D2E/DX2 analytically  !
 ! R17   R(10,11)                1.3804         calculate D2E/DX2 analytically  !
 ! R18   R(10,22)                1.084          calculate D2E/DX2 analytically  !
 ! R19   R(11,12)                1.3104         calculate D2E/DX2 analytically  !
 ! R20   R(12,13)                1.3519         calculate D2E/DX2 analytically  !
 ! R21   R(12,23)                1.0809         calculate D2E/DX2 analytically  !
 ! R22   R(13,24)                1.0061         calculate D2E/DX2 analytically  !
 ! R23   R(14,15)                1.519          calculate D2E/DX2 analytically  !
 ! R24   R(14,25)                1.0975         calculate D2E/DX2 analytically  !
 ! R25   R(14,26)                1.0925         calculate D2E/DX2 analytically  !
 ! R26   R(15,16)                1.4779         calculate D2E/DX2 analytically  !
 ! R27   R(15,27)                1.0914         calculate D2E/DX2 analytically  !
 ! R28   R(15,28)                1.0898         calculate D2E/DX2 analytically  !
 ! R29   R(16,29)                1.0299         calculate D2E/DX2 analytically  !
 ! R30   R(16,30)                1.0198         calculate D2E/DX2 analytically  !
 ! R31   R(16,31)                1.0245         calculate D2E/DX2 analytically  !
 ! A1    A(1,2,3)              121.2279         calculate D2E/DX2 analytically  !
 ! A2    A(1,2,14)             123.4631         calculate D2E/DX2 analytically  !
 ! A3    A(3,2,14)             115.2858         calculate D2E/DX2 analytically  !
 ! A4    A(2,3,4)              119.2668         calculate D2E/DX2 analytically  !
 ! A5    A(2,3,17)             120.6914         calculate D2E/DX2 analytically  !
 ! A6    A(4,3,17)             117.2427         calculate D2E/DX2 analytically  !
 ! A7    A(3,4,5)              108.8511         calculate D2E/DX2 analytically  !
 ! A8    A(3,4,8)              113.8197         calculate D2E/DX2 analytically  !
 ! A9    A(3,4,18)             106.8155         calculate D2E/DX2 analytically  !
 ! A10   A(5,4,8)              108.3846         calculate D2E/DX2 analytically  !
 ! A11   A(5,4,18)             110.4487         calculate D2E/DX2 analytically  !
 ! A12   A(8,4,18)             108.5132         calculate D2E/DX2 analytically  !
 ! A13   A(4,5,6)              111.3941         calculate D2E/DX2 analytically  !
 ! A14   A(4,5,7)              125.0616         calculate D2E/DX2 analytically  !
 ! A15   A(6,5,7)              123.5135         calculate D2E/DX2 analytically  !
 ! A16   A(5,6,19)             105.9508         calculate D2E/DX2 analytically  !
 ! A17   A(4,8,9)              113.0321         calculate D2E/DX2 analytically  !
 ! A18   A(4,8,20)             107.5711         calculate D2E/DX2 analytically  !
 ! A19   A(4,8,21)             110.2341         calculate D2E/DX2 analytically  !
 ! A20   A(9,8,20)             110.39           calculate D2E/DX2 analytically  !
 ! A21   A(9,8,21)             107.8233         calculate D2E/DX2 analytically  !
 ! A22   A(20,8,21)            107.6714         calculate D2E/DX2 analytically  !
 ! A23   A(8,9,10)             133.2221         calculate D2E/DX2 analytically  !
 ! A24   A(8,9,13)             121.9732         calculate D2E/DX2 analytically  !
 ! A25   A(10,9,13)            104.3467         calculate D2E/DX2 analytically  !
 ! A26   A(9,10,11)            110.8357         calculate D2E/DX2 analytically  !
 ! A27   A(9,10,22)            127.3342         calculate D2E/DX2 analytically  !
 ! A28   A(11,10,22)           121.6851         calculate D2E/DX2 analytically  !
 ! A29   A(10,11,12)           105.4148         calculate D2E/DX2 analytically  !
 ! A30   A(11,12,13)           111.3386         calculate D2E/DX2 analytically  !
 ! A31   A(11,12,23)           124.9889         calculate D2E/DX2 analytically  !
 ! A32   A(13,12,23)           123.6344         calculate D2E/DX2 analytically  !
 ! A33   A(9,13,12)            107.9562         calculate D2E/DX2 analytically  !
 ! A34   A(9,13,24)            125.8434         calculate D2E/DX2 analytically  !
 ! A35   A(12,13,24)           126.1128         calculate D2E/DX2 analytically  !
 ! A36   A(2,14,15)            114.1209         calculate D2E/DX2 analytically  !
 ! A37   A(2,14,25)            107.6262         calculate D2E/DX2 analytically  !
 ! A38   A(2,14,26)            108.5269         calculate D2E/DX2 analytically  !
 ! A39   A(15,14,25)           109.4253         calculate D2E/DX2 analytically  !
 ! A40   A(15,14,26)           110.4291         calculate D2E/DX2 analytically  !
 ! A41   A(25,14,26)           106.3929         calculate D2E/DX2 analytically  !
 ! A42   A(14,15,16)           111.6146         calculate D2E/DX2 analytically  !
 ! A43   A(14,15,27)           109.1577         calculate D2E/DX2 analytically  !
 ! A44   A(14,15,28)           109.2687         calculate D2E/DX2 analytically  !
 ! A45   A(16,15,27)           109.7541         calculate D2E/DX2 analytically  !
 ! A46   A(16,15,28)           109.1524         calculate D2E/DX2 analytically  !
 ! A47   A(27,15,28)           107.8129         calculate D2E/DX2 analytically  !
 ! A48   A(15,16,29)           111.8689         calculate D2E/DX2 analytically  !
 ! A49   A(15,16,30)           112.7938         calculate D2E/DX2 analytically  !
 ! A50   A(15,16,31)           107.4641         calculate D2E/DX2 analytically  !
 ! A51   A(29,16,30)           109.8469         calculate D2E/DX2 analytically  !
 ! A52   A(29,16,31)           105.8119         calculate D2E/DX2 analytically  !
 ! A53   A(30,16,31)           108.7401         calculate D2E/DX2 analytically  !
 ! D1    D(1,2,3,4)             25.7252         calculate D2E/DX2 analytically  !
 ! D2    D(1,2,3,17)          -173.7386         calculate D2E/DX2 analytically  !
 ! D3    D(14,2,3,4)          -152.579          calculate D2E/DX2 analytically  !
 ! D4    D(14,2,3,17)            7.9572         calculate D2E/DX2 analytically  !
 ! D5    D(1,2,14,15)           -3.3576         calculate D2E/DX2 analytically  !
 ! D6    D(1,2,14,25)         -124.9995         calculate D2E/DX2 analytically  !
 ! D7    D(1,2,14,26)          120.2427         calculate D2E/DX2 analytically  !
 ! D8    D(3,2,14,15)          174.9041         calculate D2E/DX2 analytically  !
 ! D9    D(3,2,14,25)           53.2623         calculate D2E/DX2 analytically  !
 ! D10   D(3,2,14,26)          -61.4956         calculate D2E/DX2 analytically  !
 ! D11   D(2,3,4,5)           -147.0829         calculate D2E/DX2 analytically  !
 ! D12   D(2,3,4,8)             91.9178         calculate D2E/DX2 analytically  !
 ! D13   D(2,3,4,18)           -27.8184         calculate D2E/DX2 analytically  !
 ! D14   D(17,3,4,5)            51.7184         calculate D2E/DX2 analytically  !
 ! D15   D(17,3,4,8)           -69.2808         calculate D2E/DX2 analytically  !
 ! D16   D(17,3,4,18)          170.983          calculate D2E/DX2 analytically  !
 ! D17   D(3,4,5,6)            164.5244         calculate D2E/DX2 analytically  !
 ! D18   D(3,4,5,7)            -17.4413         calculate D2E/DX2 analytically  !
 ! D19   D(8,4,5,6)            -71.1998         calculate D2E/DX2 analytically  !
 ! D20   D(8,4,5,7)            106.8345         calculate D2E/DX2 analytically  !
 ! D21   D(18,4,5,6)            47.5527         calculate D2E/DX2 analytically  !
 ! D22   D(18,4,5,7)          -134.413          calculate D2E/DX2 analytically  !
 ! D23   D(3,4,8,9)            -42.2279         calculate D2E/DX2 analytically  !
 ! D24   D(3,4,8,20)          -164.3511         calculate D2E/DX2 analytically  !
 ! D25   D(3,4,8,21)            78.5144         calculate D2E/DX2 analytically  !
 ! D26   D(5,4,8,9)           -163.4874         calculate D2E/DX2 analytically  !
 ! D27   D(5,4,8,20)            74.3894         calculate D2E/DX2 analytically  !
 ! D28   D(5,4,8,21)           -42.7451         calculate D2E/DX2 analytically  !
 ! D29   D(18,4,8,9)            76.543          calculate D2E/DX2 analytically  !
 ! D30   D(18,4,8,20)          -45.5802         calculate D2E/DX2 analytically  !
 ! D31   D(18,4,8,21)         -162.7147         calculate D2E/DX2 analytically  !
 ! D32   D(4,5,6,19)           178.6815         calculate D2E/DX2 analytically  !
 ! D33   D(7,5,6,19)             0.6113         calculate D2E/DX2 analytically  !
 ! D34   D(4,8,9,10)           -72.7374         calculate D2E/DX2 analytically  !
 ! D35   D(4,8,9,13)            98.1881         calculate D2E/DX2 analytically  !
 ! D36   D(20,8,9,10)           47.7926         calculate D2E/DX2 analytically  !
 ! D37   D(20,8,9,13)         -141.2819         calculate D2E/DX2 analytically  !
 ! D38   D(21,8,9,10)          165.1592         calculate D2E/DX2 analytically  !
 ! D39   D(21,8,9,13)          -23.9152         calculate D2E/DX2 analytically  !
 ! D40   D(8,9,10,11)          169.1789         calculate D2E/DX2 analytically  !
 ! D41   D(8,9,10,22)           -6.4597         calculate D2E/DX2 analytically  !
 ! D42   D(13,9,10,11)          -2.8833         calculate D2E/DX2 analytically  !
 ! D43   D(13,9,10,22)        -178.5219         calculate D2E/DX2 analytically  !
 ! D44   D(8,9,13,12)         -171.9316         calculate D2E/DX2 analytically  !
 ! D45   D(8,9,13,24)           11.3113         calculate D2E/DX2 analytically  !
 ! D46   D(10,9,13,12)           1.2554         calculate D2E/DX2 analytically  !
 ! D47   D(10,9,13,24)        -175.5017         calculate D2E/DX2 analytically  !
 ! D48   D(9,10,11,12)           3.4378         calculate D2E/DX2 analytically  !
 ! D49   D(22,10,11,12)        179.363          calculate D2E/DX2 analytically  !
 ! D50   D(10,11,12,13)         -2.5847         calculate D2E/DX2 analytically  !
 ! D51   D(10,11,12,23)        179.5966         calculate D2E/DX2 analytically  !
 ! D52   D(11,12,13,9)           0.8704         calculate D2E/DX2 analytically  !
 ! D53   D(11,12,13,24)        177.6164         calculate D2E/DX2 analytically  !
 ! D54   D(23,12,13,9)         178.7241         calculate D2E/DX2 analytically  !
 ! D55   D(23,12,13,24)         -4.53           calculate D2E/DX2 analytically  !
 ! D56   D(2,14,15,16)         -52.5526         calculate D2E/DX2 analytically  !
 ! D57   D(2,14,15,27)        -174.0535         calculate D2E/DX2 analytically  !
 ! D58   D(2,14,15,28)          68.2679         calculate D2E/DX2 analytically  !
 ! D59   D(25,14,15,16)         68.0915         calculate D2E/DX2 analytically  !
 ! D60   D(25,14,15,27)        -53.4095         calculate D2E/DX2 analytically  !
 ! D61   D(25,14,15,28)       -171.088          calculate D2E/DX2 analytically  !
 ! D62   D(26,14,15,16)       -175.1202         calculate D2E/DX2 analytically  !
 ! D63   D(26,14,15,27)         63.3789         calculate D2E/DX2 analytically  !
 ! D64   D(26,14,15,28)        -54.2996         calculate D2E/DX2 analytically  !
 ! D65   D(14,15,16,29)        -48.6653         calculate D2E/DX2 analytically  !
 ! D66   D(14,15,16,30)       -173.1017         calculate D2E/DX2 analytically  !
 ! D67   D(14,15,16,31)         67.0609         calculate D2E/DX2 analytically  !
 ! D68   D(27,15,16,29)         72.4895         calculate D2E/DX2 analytically  !
 ! D69   D(27,15,16,30)        -51.9468         calculate D2E/DX2 analytically  !
 ! D70   D(27,15,16,31)       -171.7843         calculate D2E/DX2 analytically  !
 ! D71   D(28,15,16,29)       -169.5537         calculate D2E/DX2 analytically  !
 ! D72   D(28,15,16,30)         66.01           calculate D2E/DX2 analytically  !
 ! D73   D(28,15,16,31)        -53.8275         calculate D2E/DX2 analytically  !
 --------------------------------------------------------------------------------
 Trust Radius=3.00D-01 FncErr=1.00D-07 GrdErr=1.00D-06
 Number of steps in this run=    167 maximum allowed number of steps=    186.
 GradGradGradGradGradGradGradGradGradGradGradGradGradGradGradGradGradGrad

                          Input orientation:                          
 ---------------------------------------------------------------------
 Center     Atomic      Atomic             Coordinates (Angstroms)
 Number     Number       Type             X           Y           Z
 ---------------------------------------------------------------------
      1          8           0       -0.643820    1.869198   -0.021474
      2          6           0        0.404266    1.280600    0.229807
      3          7           0        0.590795    0.648822    1.421167
      4          6           0       -0.559341    0.177930    2.158903
      5          6           0       -0.266819    0.282156    3.638378
      6          8           0       -1.393883    0.181715    4.370668
      7          8           0        0.828125    0.401514    4.118816
      8          6           0       -0.953291   -1.298035    1.837704
      9          6           0       -0.883583   -1.618648    0.374916
     10          6           0       -1.658771   -1.278714   -0.692833
     11          7           0       -1.043111   -1.628594   -1.877743
     12          6           0        0.060456   -2.243054   -1.528696
     13          7           0        0.212517   -2.256029   -0.185437
     14          6           0        1.554917    1.164428   -0.752576
     15          6           0        1.271682    1.773146   -2.115165
     16          7           0        0.014210    1.254061   -2.692555
     17          1           0        1.482741    0.250266    1.656218
     18          1           0       -1.393087    0.824910    1.889346
     19          1           0       -1.116339    0.236566    5.293643
     20          1           0       -1.961030   -1.457807    2.212870
     21          1           0       -0.292610   -1.986586    2.361586
     22          1           0       -2.599988   -0.741296   -0.677291
     23          1           0        0.783419   -2.657445   -2.217071
     24          1           0        0.960952   -2.696775    0.322385
     25          1           0        1.785198    0.097843   -0.870031
     26          1           0        2.440079    1.623648   -0.306310
     27          1           0        2.104031    1.552949   -2.785819
     28          1           0        1.199893    2.856212   -2.017332
     29          1           0       -0.034340    0.226369   -2.644843
     30          1           0       -0.137203    1.563644   -3.652367
     31          1           0       -0.755962    1.597218   -2.110667
 ---------------------------------------------------------------------
                    Distance matrix (angstroms):
                    1          2          3          4          5
     1  O    0.000000
     2  C    1.228037   0.000000
     3  N    2.257168   1.361351   0.000000
     4  C    2.760719   2.421948   1.445270   0.000000
     5  C    4.006912   3.614637   2.405404   1.511713   0.000000
     6  O    4.764568   4.646248   3.585623   2.363975   1.347817
     7  O    4.632788   4.009594   2.719338   2.411703   1.201653
     8  C    3.685605   3.328311   2.519515   1.561038   2.492123
     9  C    3.518477   3.175728   2.899974   2.552535   3.826701
    10  C    3.374937   3.414304   3.639359   3.385699   4.809702
    11  N    3.979915   3.872993   4.328866   4.448829   5.889073
    12  C    4.436027   3.953058   4.164840   4.454627   5.760421
    13  N    4.216360   3.566081   3.341022   3.466389   4.614510
    14  C    2.421911   1.517421   2.433216   3.730948   4.835039
    15  C    2.839351   2.548313   3.772712   4.915792   6.139486
    16  N    2.818878   2.948398   4.197794   5.002367   6.411263
    17  H    3.155607   2.063818   1.004820   2.104287   2.644038
    18  H    2.302862   2.488414   2.045968   1.089209   2.149924
    19  H    5.580253   5.389312   4.252097   3.184380   1.861093
    20  H    4.218566   4.126262   3.402424   2.154827   2.816007
    21  H    4.546361   3.962906   2.934308   2.190287   2.603470
    22  H    3.327367   3.733153   4.064117   3.612924   5.011600
    23  H    5.229547   4.651791   4.919886   5.384376   6.635551
    24  H    4.851973   4.017210   3.540812   3.734704   4.623555
    25  H    3.123760   2.124978   2.641925   3.831151   4.956864
    26  H    3.106744   2.132987   2.711884   4.142933   4.968647
    27  H    3.910538   3.472373   4.561367   5.782258   6.964636
    28  H    2.890834   2.857482   4.131204   5.263937   6.384673
    29  H    3.154745   3.093119   4.135420   4.832593   6.287768
    30  H    3.678778   3.929958   5.206498   5.989095   7.403645
    31  H    2.109805   2.631386   3.897058   4.503584   5.917784
                    6          7          8          9         10
     6  O    0.000000
     7  O    2.247011   0.000000
     8  C    2.966427   3.356395   0.000000
     9  C    4.412227   4.585607   1.499133   0.000000
    10  C    5.276558   5.670960   2.627108   1.362556   0.000000
    11  N    6.514822   6.601635   3.731204   2.258322   1.380385
    12  C    6.541949   6.283108   3.640521   2.214685   2.141111
    13  N    5.411212   5.095891   2.523878   1.386248   2.171246
    14  C    5.992393   4.984047   4.366278   3.868207   4.037363
    15  C    7.190543   6.398487   5.477940   4.727571   4.463678
    16  N    7.281605   6.912603   5.288904   4.297426   3.634928
    17  H    3.955743   2.552605   2.892132   3.276287   4.210097
    18  H    2.563329   3.175466   2.168636   2.919600   3.341178
    19  H    0.965361   2.277798   3.784851   5.262116   6.199048
    20  H    2.768715   3.856046   1.087112   2.136548   2.926866
    21  H    3.154480   3.169689   1.088601   2.105109   3.420081
    22  H    5.271483   6.005050   3.057249   2.196118   1.083951
    23  H    7.496651   7.035815   4.615773   3.252136   3.191941
    24  H    5.497231   4.902033   2.813715   2.137153   3.147143
    25  H    6.130132   5.088891   4.096295   3.408610   3.713115
    26  H    6.217118   4.865568   4.964674   4.692896   5.037228
    27  H    8.082759   7.115317   6.233161   5.382853   5.153405
    28  H    7.395076   6.619370   6.062613   5.485261   5.198448
    29  H    7.146170   6.820675   4.823019   3.639264   2.952015
    30  H    8.237600   7.916672   6.244685   5.186817   4.376414
    31  H    6.664705   6.538004   4.900109   4.066473   3.331111
                   11         12         13         14         15
    11  N    0.000000
    12  C    1.310440   0.000000
    13  N    2.198675   1.351901   0.000000
    14  C    3.977024   3.800882   3.717957   0.000000
    15  C    4.121464   4.235666   4.591288   1.519015   0.000000
    16  N    3.176720   3.685989   4.318066   2.478978   1.477858
    17  H    4.732750   4.287565   3.359564   2.577438   4.072718
    18  H    4.509227   4.817489   4.046587   3.973129   4.902678
    19  H    7.410328   7.353752   6.164349   6.674826   7.934365
    20  H    4.195814   4.324619   3.333667   5.294513   6.294550
    21  H    4.320106   3.914681   2.610571   4.800026   6.051767
    22  H    2.156907   3.171455   3.232107   4.571727   4.835258
    23  H    2.123650   1.080859   2.148162   4.164933   4.458578
    24  H    3.161936   2.107903   1.006129   4.051817   5.100822
    25  H    3.463437   2.981337   2.912508   1.097465   2.149581
    26  H    5.017877   4.701937   4.475325   1.092496   2.158578
    27  H    4.566325   4.490679   4.984790   2.141624   1.091361
    28  H    5.016377   5.247817   5.519579   2.141910   1.089843
    29  H    2.246542   2.711609   3.503129   2.643173   2.092551
    30  H    3.763023   4.363484   5.170281   3.381040   2.095671
    31  H    3.246933   3.968994   4.414971   2.715120   2.035266
                   16         17         18         19         20
    16  N    0.000000
    17  H    4.698512   0.000000
    18  H    4.812326   2.941930   0.000000
    19  H    8.129748   4.470600   3.465829   0.000000
    20  H    5.942979   3.884190   2.374452   3.616015   0.000000
    21  H    6.011678   2.941585   3.055907   3.770662   1.756516
    22  H    3.857042   4.805948   3.239944   6.229726   3.045437
    23  H    4.014679   4.893485   5.807464   8.270139   5.347476
    24  H    5.059178   3.276648   4.516539   6.134577   3.694178
    25  H    2.791923   2.548852   4.271333   6.813886   5.094953
    26  H    3.422806   2.579571   4.489103   6.777284   5.933918
    27  H    2.113146   4.670618   5.883626   8.796667   7.111699
    28  H    2.104438   4.512862   5.109977   8.104185   6.818856
    29  H    1.029944   4.560837   4.771092   8.011890   5.490533
    30  H    1.019806   5.703530   5.730057   9.096753   6.845181
    31  H    1.024459   4.584265   4.123408   7.536912   5.429396
                   21         22         23         24         25
    21  H    0.000000
    22  H    4.013666   0.000000
    23  H    4.750999   4.182104   0.000000
    24  H    2.496823   4.183723   2.545957   0.000000
    25  H    4.370982   4.468910   3.226405   3.148193   0.000000
    26  H    5.255383   5.579683   4.972252   4.609677   1.753492
    27  H    6.690888   5.642450   4.449148   5.387737   2.426774
    28  H    6.697401   5.401562   5.532970   6.030507   3.044253
    29  H    5.479800   3.374935   3.027888   4.282501   2.545033
    30  H    6.985407   4.497680   4.552496   5.929229   3.685864
    31  H    5.749730   3.305094   4.525834   5.225505   3.200749
                   26         27         28         29         30
    26  H    0.000000
    27  H    2.503176   0.000000
    28  H    2.446399   1.762535   0.000000
    29  H    3.680200   2.520381   2.972066   0.000000
    30  H    4.223988   2.402946   2.476267   1.677495   0.000000
    31  H    3.670297   2.938937   2.327906   1.638691   1.661574
                   31
    31  H    0.000000
 Symmetry turned off by external request.
 Stoichiometry    C9H15N4O3(1+)
 Framework group  C1[X(C9H15N4O3)]
 Deg. of freedom    87
 Full point group                 C1      NOp   1
 Rotational constants (GHZ):      0.7898144      0.3929674      0.3096722
 Standard basis: 6-311++G(d,p) (5D, 7F)
   457 basis functions,   711 primitive gaussians,   473 cartesian basis functions
    60 alpha electrons       60 beta electrons
       nuclear repulsion energy      1193.3746060359 Hartrees.
 NAtoms=   31 NActive=   31 NUniq=   31 SFac= 1.00D+00 NAtFMM=   60 NAOKFM=F Big=F
 Integral buffers will be    131072 words long.
 Raffenetti 2 integral format.
 Two-electron integral symmetry is turned off.
 Nuclear repulsion after empirical dispersion term =     1193.3130169520 Hartrees.
 One-electron integrals computed using PRISM.
 NBasis=   457 RedAO= T EigKep=  2.03D-06  NBF=   457
 NBsUse=   457 1.00D-06 EigRej= -1.00D+00 NBFU=   457
 ExpMin= 3.60D-02 ExpMax= 8.59D+03 ExpMxC= 1.30D+03 IAcc=3 IRadAn=         5 AccDes= 0.00D+00
 Harris functional with IExCor=  402 and IRadAn=       5 diagonalized for initial guess.
 HarFok:  IExCor=  402 AccDes= 0.00D+00 IRadAn=         5 IDoV= 1 UseB2=F ITyADJ=14
 ICtDFT=  3500011 ScaDFX=  1.000000  1.000000  1.000000  1.000000
 FoFCou: FMM=F IPFlag=           0 FMFlag=      100000 FMFlg1=           0
         NFxFlg=           0 DoJE=T BraDBF=F KetDBF=T FulRan=T
         wScrn=  0.000000 ICntrl=     500 IOpCl=  0 I1Cent=   200000004 NGrid=           0
         NMat0=    1 NMatS0=      1 NMatT0=    0 NMatD0=    1 NMtDS0=    0 NMtDT0=    0
 Symmetry not used in FoFCou.
 Requested convergence on RMS density matrix=1.00D-08 within 128 cycles.
 Requested convergence on MAX density matrix=1.00D-06.
 Requested convergence on             energy=1.00D-06.
 No special actions if energy rises.
 SCF Done:  E(RB3LYP) =  -796.774150495     A.U. after   15 cycles
            NFock= 15  Conv=0.41D-08     -V/T= 2.0037
 DoSCS=F DFT=T ScalE2(SS,OS)=  1.000000  1.000000
 Range of M.O.s used for correlation:     1   457
 NBasis=   457 NAE=    60 NBE=    60 NFC=     0 NFV=     0
 NROrb=    457 NOA=    60 NOB=    60 NVA=   397 NVB=   397

 **** Warning!!: The largest alpha MO coefficient is  0.15719733D+03

 Symmetrizing basis deriv contribution to polar:
 IMax=3 JMax=2 DiffMx= 0.00D+00
 G2DrvN: will do    32 centers at a time, making    1 passes.
 Calling FoFCou, ICntrl=  3107 FMM=F I1Cent=   0 AccDes= 0.00D+00.
 End of G2Drv F.D. properties file   721 does not exist.
 End of G2Drv F.D. properties file   722 does not exist.
 End of G2Drv F.D. properties file   788 does not exist.
          IDoAtm=1111111111111111111111111111111
          Differentiating once with respect to nuclear coordinates.
          There are    96 degrees of freedom in the 1st order CPHF.  IDoFFX=6 NUNeed=     0.
     90 vectors produced by pass  0 Test12= 2.48D-14 1.04D-09 XBig12= 2.35D-01 8.92D-02.
 AX will form    90 AO Fock derivatives at one time.
     90 vectors produced by pass  1 Test12= 2.48D-14 1.04D-09 XBig12= 1.66D-02 3.33D-02.
     90 vectors produced by pass  2 Test12= 2.48D-14 1.04D-09 XBig12= 2.15D-04 1.42D-03.
     90 vectors produced by pass  3 Test12= 2.48D-14 1.04D-09 XBig12= 9.34D-07 1.01D-04.
     90 vectors produced by pass  4 Test12= 2.48D-14 1.04D-09 XBig12= 1.83D-09 3.05D-06.
     85 vectors produced by pass  5 Test12= 2.48D-14 1.04D-09 XBig12= 2.49D-12 1.08D-07.
     28 vectors produced by pass  6 Test12= 2.48D-14 1.04D-09 XBig12= 3.92D-15 5.27D-09.
      8 vectors produced by pass  7 Test12= 2.48D-14 1.04D-09 XBig12= 3.05D-16 1.69D-09.
      3 vectors produced by pass  8 Test12= 2.48D-14 1.04D-09 XBig12= 1.79D-16 1.37D-09.
      3 vectors produced by pass  9 Test12= 2.48D-14 1.04D-09 XBig12= 6.34D-15 7.85D-09.
      3 vectors produced by pass 10 Test12= 2.48D-14 1.04D-09 XBig12= 2.86D-15 5.32D-09.
      2 vectors produced by pass 11 Test12= 2.48D-14 1.04D-09 XBig12= 2.49D-15 3.54D-09.
 InvSVY:  IOpt=1 It=  1 EMax= 7.22D-16
 Solved reduced A of dimension   582 with    96 vectors.
 End of Minotr F.D. properties file   721 does not exist.
 End of Minotr F.D. properties file   722 does not exist.
 End of Minotr F.D. properties file   788 does not exist.

 **********************************************************************

            Population analysis using the SCF density.

 **********************************************************************

 Alpha  occ. eigenvalues --  -19.28970 -19.24841 -19.23895 -14.59606 -14.50954
 Alpha  occ. eigenvalues --  -14.48338 -14.43783 -10.43295 -10.42941 -10.40158
 Alpha  occ. eigenvalues --  -10.36520 -10.36139 -10.35449 -10.34422 -10.32542
 Alpha  occ. eigenvalues --  -10.31771  -1.23731  -1.20315  -1.17371  -1.16421
 Alpha  occ. eigenvalues --   -1.14925  -1.08022  -1.01735  -0.96407  -0.93595
 Alpha  occ. eigenvalues --   -0.88854  -0.84250  -0.81074  -0.76474  -0.75761
 Alpha  occ. eigenvalues --   -0.75443  -0.74499  -0.73768  -0.72751  -0.68879
 Alpha  occ. eigenvalues --   -0.67701  -0.65716  -0.63217  -0.62588  -0.61692
 Alpha  occ. eigenvalues --   -0.60467  -0.59850  -0.58879  -0.57764  -0.57391
 Alpha  occ. eigenvalues --   -0.56622  -0.55079  -0.54779  -0.54605  -0.53942
 Alpha  occ. eigenvalues --   -0.52987  -0.51211  -0.50606  -0.44885  -0.43523
 Alpha  occ. eigenvalues --   -0.42521  -0.41802  -0.41083  -0.40813  -0.36973
 Alpha virt. eigenvalues --   -0.15989  -0.15292  -0.13804  -0.12882  -0.12378
 Alpha virt. eigenvalues --   -0.11208  -0.10794  -0.09828  -0.09595  -0.09365
 Alpha virt. eigenvalues --   -0.08415  -0.07705  -0.07207  -0.07149  -0.06424
 Alpha virt. eigenvalues --   -0.06090  -0.05423  -0.04888  -0.04506  -0.03930
 Alpha virt. eigenvalues --   -0.03707  -0.03029  -0.02576  -0.02165  -0.01612
 Alpha virt. eigenvalues --   -0.01058  -0.00854  -0.00336  -0.00283  -0.00180
 Alpha virt. eigenvalues --    0.00798   0.00898   0.01244   0.01711   0.01811
 Alpha virt. eigenvalues --    0.02078   0.02283   0.02431   0.02859   0.03141
 Alpha virt. eigenvalues --    0.03471   0.03696   0.04129   0.04295   0.04571
 Alpha virt. eigenvalues --    0.05094   0.05429   0.05787   0.05867   0.05924
 Alpha virt. eigenvalues --    0.06454   0.07176   0.07219   0.07652   0.07841
 Alpha virt. eigenvalues --    0.08441   0.08848   0.09091   0.09685   0.10356
 Alpha virt. eigenvalues --    0.10570   0.11177   0.11382   0.11585   0.12112
 Alpha virt. eigenvalues --    0.12486   0.12919   0.13067   0.13452   0.13677
 Alpha virt. eigenvalues --    0.13931   0.14656   0.14881   0.15353   0.16000
 Alpha virt. eigenvalues --    0.16483   0.16880   0.17404   0.17649   0.18111
 Alpha virt. eigenvalues --    0.18448   0.18811   0.19111   0.19969   0.20167
 Alpha virt. eigenvalues --    0.20390   0.21074   0.21246   0.21415   0.22483
 Alpha virt. eigenvalues --    0.22992   0.23104   0.23211   0.23721   0.24531
 Alpha virt. eigenvalues --    0.24594   0.25102   0.25393   0.25679   0.26344
 Alpha virt. eigenvalues --    0.27178   0.27806   0.28300   0.28747   0.30036
 Alpha virt. eigenvalues --    0.30656   0.31947   0.32174   0.33307   0.34841
 Alpha virt. eigenvalues --    0.35094   0.35627   0.36742   0.37610   0.38595
 Alpha virt. eigenvalues --    0.39896   0.40643   0.41301   0.42293   0.43052
 Alpha virt. eigenvalues --    0.44281   0.44761   0.45914   0.46184   0.47031
 Alpha virt. eigenvalues --    0.47893   0.49122   0.49887   0.50929   0.51852
 Alpha virt. eigenvalues --    0.52395   0.53305   0.54104   0.55176   0.55530
 Alpha virt. eigenvalues --    0.55683   0.56195   0.57047   0.58063   0.58846
 Alpha virt. eigenvalues --    0.59336   0.59396   0.61054   0.61389   0.62024
 Alpha virt. eigenvalues --    0.62641   0.63020   0.63596   0.65028   0.65453
 Alpha virt. eigenvalues --    0.66216   0.67285   0.67656   0.68467   0.69183
 Alpha virt. eigenvalues --    0.70504   0.71566   0.72873   0.74426   0.75626
 Alpha virt. eigenvalues --    0.76206   0.78040   0.78497   0.80505   0.81408
 Alpha virt. eigenvalues --    0.83506   0.84246   0.85910   0.86793   0.87254
 Alpha virt. eigenvalues --    0.89824   0.90161   0.90760   0.92643   0.93081
 Alpha virt. eigenvalues --    0.93600   0.95766   0.99421   1.00391   1.01157
 Alpha virt. eigenvalues --    1.01778   1.02399   1.05255   1.05526   1.06259
 Alpha virt. eigenvalues --    1.07196   1.07477   1.08189   1.09513   1.10781
 Alpha virt. eigenvalues --    1.12411   1.12880   1.13176   1.15025   1.16455
 Alpha virt. eigenvalues --    1.18096   1.19994   1.20106   1.20319   1.22220
 Alpha virt. eigenvalues --    1.23636   1.25417   1.27656   1.29896   1.31295
 Alpha virt. eigenvalues --    1.33947   1.35995   1.37116   1.37931   1.39039
 Alpha virt. eigenvalues --    1.40792   1.43116   1.43490   1.44122   1.45012
 Alpha virt. eigenvalues --    1.46482   1.46765   1.47373   1.48497   1.49941
 Alpha virt. eigenvalues --    1.50971   1.51588   1.53472   1.54252   1.55012
 Alpha virt. eigenvalues --    1.55457   1.55839   1.57439   1.58320   1.58666
 Alpha virt. eigenvalues --    1.59965   1.61056   1.61762   1.62253   1.63814
 Alpha virt. eigenvalues --    1.64409   1.66714   1.67435   1.68358   1.69651
 Alpha virt. eigenvalues --    1.69974   1.71291   1.73816   1.74104   1.75334
 Alpha virt. eigenvalues --    1.78019   1.78452   1.80558   1.84531   1.84748
 Alpha virt. eigenvalues --    1.85311   1.88517   1.88830   1.90355   1.92144
 Alpha virt. eigenvalues --    1.94802   1.96746   1.98453   1.99395   2.00500
 Alpha virt. eigenvalues --    2.01168   2.04402   2.06813   2.06998   2.08782
 Alpha virt. eigenvalues --    2.10948   2.11884   2.12108   2.14188   2.16377
 Alpha virt. eigenvalues --    2.18866   2.19812   2.20617   2.22812   2.24489
 Alpha virt. eigenvalues --    2.30231   2.31023   2.32981   2.34973   2.37802
 Alpha virt. eigenvalues --    2.39355   2.40188   2.41749   2.42884   2.44094
 Alpha virt. eigenvalues --    2.46053   2.46335   2.47981   2.49542   2.50902
 Alpha virt. eigenvalues --    2.51940   2.52705   2.55513   2.55699   2.56885
 Alpha virt. eigenvalues --    2.58039   2.59067   2.59916   2.61324   2.62384
 Alpha virt. eigenvalues --    2.64552   2.66101   2.67555   2.69936   2.70590
 Alpha virt. eigenvalues --    2.72691   2.73883   2.74840   2.75787   2.76008
 Alpha virt. eigenvalues --    2.76775   2.79500   2.80680   2.81052   2.82092
 Alpha virt. eigenvalues --    2.82937   2.84604   2.85954   2.86372   2.87881
 Alpha virt. eigenvalues --    2.89416   2.91263   2.91960   2.93373   2.93942
 Alpha virt. eigenvalues --    2.96028   2.97469   2.99975   3.01351   3.05815
 Alpha virt. eigenvalues --    3.09372   3.11105   3.14322   3.20214   3.20405
 Alpha virt. eigenvalues --    3.24026   3.26471   3.28487   3.34008   3.37110
 Alpha virt. eigenvalues --    3.39695   3.43941   3.47682   3.49418   3.55504
 Alpha virt. eigenvalues --    3.55593   3.60304   3.60678   3.62800   3.68353
 Alpha virt. eigenvalues --    3.69191   3.73097   3.74404   3.80010   3.83067
 Alpha virt. eigenvalues --    3.86948   3.88649   3.92465   3.96835   4.00111
 Alpha virt. eigenvalues --    4.09955   4.13052   4.16710   4.38954   4.50229
 Alpha virt. eigenvalues --    4.51735   4.62654   4.64266   4.74408   4.80237
 Alpha virt. eigenvalues --    4.83303   4.89701   4.95963   5.02368   5.08883
 Alpha virt. eigenvalues --    5.14317   5.15252   5.33292   5.51225   5.67809
 Alpha virt. eigenvalues --    5.74826  23.64110  23.69066  23.69607  23.71769
 Alpha virt. eigenvalues --   23.73525  23.77859  23.80063  23.84375  24.03634
 Alpha virt. eigenvalues --   35.36847  35.42404  35.49269  35.57083  49.77477
 Alpha virt. eigenvalues --   49.89113  49.90753
          Condensed to atoms (all electrons):
               1          2          3          4          5          6
     1  O    8.032709   0.517104  -0.161599  -0.047851   0.039222   0.000330
     2  C    0.517104   8.157248  -0.439780  -0.995819  -0.148988   0.018111
     3  N   -0.161599  -0.439780   8.044586  -1.255723   0.310905   0.024481
     4  C   -0.047851  -0.995819  -1.255723  16.743424  -4.808396   0.042626
     5  C    0.039222  -0.148988   0.310905  -4.808396   8.892225   0.039910
     6  O    0.000330   0.018111   0.024481   0.042626   0.039910   7.948441
     7  O    0.000338   0.036546   0.064527   0.057975   0.378199  -0.132982
     8  C    0.044366   0.182936   0.108970  -4.717809   1.992460  -0.152333
     9  C   -0.153278   0.500255  -0.074410   0.281383  -0.891483   0.081707
    10  C    0.057380  -0.992212   0.100051   1.220227  -0.048402   0.004415
    11  N   -0.021016   0.270243  -0.024758  -0.109486   0.002954   0.000219
    12  C    0.012194   0.096385   0.148801  -0.191900   0.021330   0.001170
    13  N    0.017051  -0.137712   0.044192  -0.015377   0.049480   0.000801
    14  C   -0.106137  -0.717741  -0.238268  -0.274290  -0.067171  -0.004413
    15  C    0.057063  -0.294675   0.103763   0.090016  -0.028242  -0.000727
    16  N   -0.039166  -0.035255   0.011658   0.011374  -0.001786   0.000008
    17  H   -0.000709  -0.014904   0.317309  -0.005246   0.008908   0.000609
    18  H    0.009423   0.001192  -0.130776   0.600471  -0.045132  -0.004333
    19  H    0.000048  -0.002082   0.005219  -0.217548   0.206165   0.232757
    20  H    0.000046   0.004102   0.040086  -0.181164   0.024947  -0.000351
    21  H   -0.001702   0.024246  -0.040996   0.115030  -0.034139   0.001352
    22  H   -0.001285  -0.030461  -0.003730   0.059339  -0.021174   0.000596
    23  H    0.000457  -0.005125   0.009536  -0.013006   0.000296   0.000027
    24  H   -0.000222   0.001364  -0.001727  -0.008172   0.004163   0.000068
    25  H    0.000785   0.041502  -0.056818   0.001977   0.012080   0.000228
    26  H   -0.002860   0.008918  -0.008187   0.033019  -0.014775   0.000086
    27  H    0.007598  -0.030482   0.009457  -0.003893   0.000752  -0.000025
    28  H   -0.016666   0.010815  -0.019249  -0.006005   0.000649   0.000035
    29  H    0.000048   0.069423  -0.022187   0.015075  -0.003759   0.000046
    30  H    0.003328   0.002650   0.002367   0.003909  -0.000329   0.000002
    31  H    0.068443  -0.030444   0.013724   0.018188   0.006076  -0.000017
               7          8          9         10         11         12
     1  O    0.000338   0.044366  -0.153278   0.057380  -0.021016   0.012194
     2  C    0.036546   0.182936   0.500255  -0.992212   0.270243   0.096385
     3  N    0.064527   0.108970  -0.074410   0.100051  -0.024758   0.148801
     4  C    0.057975  -4.717809   0.281383   1.220227  -0.109486  -0.191900
     5  C    0.378199   1.992460  -0.891483  -0.048402   0.002954   0.021330
     6  O   -0.132982  -0.152333   0.081707   0.004415   0.000219   0.001170
     7  O    7.924621  -0.130000   0.033743   0.001633  -0.000067   0.003400
     8  C   -0.130000  14.732728  -3.455373  -1.788141  -0.212263  -0.050481
     9  C    0.033743  -3.455373  13.565309  -4.060352   0.337699  -0.613936
    10  C    0.001633  -1.788141  -4.060352  12.169979  -0.247206  -0.552139
    11  N   -0.000067  -0.212263   0.337699  -0.247206   7.035155   0.250883
    12  C    0.003400  -0.050481  -0.613936  -0.552139   0.250883   6.460135
    13  N   -0.000306  -0.091320  -0.436754   0.309360  -0.011891   0.165340
    14  C   -0.010970  -0.079807   0.262364  -0.255850   0.022758  -0.109609
    15  C   -0.001207  -0.027974  -0.079994   0.176535  -0.069607   0.016860
    16  N   -0.000068   0.038661   0.090498  -0.079349  -0.068397   0.011556
    17  H    0.002945   0.000849   0.007269  -0.000381   0.000050   0.015289
    18  H   -0.009222  -0.051486  -0.077678   0.009835   0.001267  -0.009702
    19  H   -0.010269   0.038690  -0.015207  -0.003872   0.000144   0.000230
    20  H   -0.001579   0.484979  -0.022043  -0.017118  -0.005043  -0.015317
    21  H    0.002100   0.242552   0.014408  -0.058185   0.012276   0.005196
    22  H   -0.000006  -0.052313  -0.127247   0.621413  -0.105986  -0.031993
    23  H    0.000099   0.008181   0.023863  -0.044772  -0.090063   0.553587
    24  H    0.000065   0.012197   0.012131  -0.029770   0.005200  -0.028892
    25  H    0.000772   0.042418  -0.063050   0.010383  -0.010821  -0.035305
    26  H   -0.001019  -0.004241   0.033234  -0.022283   0.003938  -0.007707
    27  H   -0.000081   0.001534   0.008736  -0.001959  -0.001867  -0.006137
    28  H    0.000166   0.002455  -0.016398   0.006931   0.001209   0.003002
    29  H    0.000029  -0.076378  -0.045313   0.033382   0.147800  -0.013099
    30  H   -0.000006   0.004722  -0.001542   0.006185  -0.007378  -0.002860
    31  H   -0.000013   0.003660  -0.020793   0.033597  -0.018429  -0.000090
              13         14         15         16         17         18
     1  O    0.017051  -0.106137   0.057063  -0.039166  -0.000709   0.009423
     2  C   -0.137712  -0.717741  -0.294675  -0.035255  -0.014904   0.001192
     3  N    0.044192  -0.238268   0.103763   0.011658   0.317309  -0.130776
     4  C   -0.015377  -0.274290   0.090016   0.011374  -0.005246   0.600471
     5  C    0.049480  -0.067171  -0.028242  -0.001786   0.008908  -0.045132
     6  O    0.000801  -0.004413  -0.000727   0.000008   0.000609  -0.004333
     7  O   -0.000306  -0.010970  -0.001207  -0.000068   0.002945  -0.009222
     8  C   -0.091320  -0.079807  -0.027974   0.038661   0.000849  -0.051486
     9  C   -0.436754   0.262364  -0.079994   0.090498   0.007269  -0.077678
    10  C    0.309360  -0.255850   0.176535  -0.079349  -0.000381   0.009835
    11  N   -0.011891   0.022758  -0.069607  -0.068397   0.000050   0.001267
    12  C    0.165340  -0.109609   0.016860   0.011556   0.015289  -0.009702
    13  N    6.972541   0.038173   0.013353  -0.019033   0.000237  -0.000770
    14  C    0.038173   7.524557  -0.428056  -0.056941   0.013102  -0.039383
    15  C    0.013353  -0.428056   6.623008  -0.036476  -0.002190  -0.000385
    16  N   -0.019033  -0.056941  -0.036476   6.603305  -0.000439   0.000241
    17  H    0.000237   0.013102  -0.002190  -0.000439   0.374863  -0.001476
    18  H   -0.000770  -0.039383  -0.000385   0.000241  -0.001476   0.436118
    19  H    0.000368  -0.001760  -0.000309   0.000020   0.000314   0.004545
    20  H    0.006563   0.015314  -0.000720  -0.000224  -0.000229  -0.019127
    21  H   -0.002289  -0.017667  -0.000718   0.000215  -0.000456   0.015536
    22  H    0.010400  -0.004343   0.014769  -0.004791  -0.000756  -0.005045
    23  H   -0.128278  -0.001834   0.001018   0.008862   0.001477  -0.000041
    24  H    0.338548   0.001026   0.000786  -0.001092  -0.001006  -0.000300
    25  H    0.034374   0.423281  -0.088428  -0.022859  -0.001519   0.000754
    26  H   -0.007678   0.373787  -0.059351   0.019151  -0.006553   0.002250
    27  H    0.001007  -0.054572   0.437989  -0.019209   0.000472  -0.000684
    28  H    0.000727  -0.004715   0.405786  -0.036946   0.000671   0.000392
    29  H    0.016875   0.056606  -0.104362   0.238413  -0.000631   0.001718
    30  H   -0.000451  -0.014154  -0.010929   0.310887  -0.000318   0.000485
    31  H   -0.001138  -0.036036  -0.029957   0.332466  -0.000500   0.000162
              19         20         21         22         23         24
     1  O    0.000048   0.000046  -0.001702  -0.001285   0.000457  -0.000222
     2  C   -0.002082   0.004102   0.024246  -0.030461  -0.005125   0.001364
     3  N    0.005219   0.040086  -0.040996  -0.003730   0.009536  -0.001727
     4  C   -0.217548  -0.181164   0.115030   0.059339  -0.013006  -0.008172
     5  C    0.206165   0.024947  -0.034139  -0.021174   0.000296   0.004163
     6  O    0.232757  -0.000351   0.001352   0.000596   0.000027   0.000068
     7  O   -0.010269  -0.001579   0.002100  -0.000006   0.000099   0.000065
     8  C    0.038690   0.484979   0.242552  -0.052313   0.008181   0.012197
     9  C   -0.015207  -0.022043   0.014408  -0.127247   0.023863   0.012131
    10  C   -0.003872  -0.017118  -0.058185   0.621413  -0.044772  -0.029770
    11  N    0.000144  -0.005043   0.012276  -0.105986  -0.090063   0.005200
    12  C    0.000230  -0.015317   0.005196  -0.031993   0.553587  -0.028892
    13  N    0.000368   0.006563  -0.002289   0.010400  -0.128278   0.338548
    14  C   -0.001760   0.015314  -0.017667  -0.004343  -0.001834   0.001026
    15  C   -0.000309  -0.000720  -0.000718   0.014769   0.001018   0.000786
    16  N    0.000020  -0.000224   0.000215  -0.004791   0.008862  -0.001092
    17  H    0.000314  -0.000229  -0.000456  -0.000756   0.001477  -0.001006
    18  H    0.004545  -0.019127   0.015536  -0.005045  -0.000041  -0.000300
    19  H    0.455445  -0.001472   0.000053  -0.000289   0.000000   0.000063
    20  H   -0.001472   0.452100  -0.020304   0.002805  -0.000208   0.002436
    21  H    0.000053  -0.020304   0.554409  -0.001029  -0.000353  -0.005274
    22  H   -0.000289   0.002805  -0.001029   0.507764  -0.004854   0.001050
    23  H    0.000000  -0.000208  -0.000353  -0.004854   0.523656  -0.002155
    24  H    0.000063   0.002436  -0.005274   0.001050  -0.002155   0.364549
    25  H    0.000078   0.000329   0.000321  -0.000438  -0.009767  -0.001527
    26  H   -0.000021  -0.000287   0.000961  -0.000129  -0.000361   0.000043
    27  H   -0.000002   0.000062  -0.000089   0.000616  -0.000332   0.000186
    28  H   -0.000004   0.000028  -0.000084  -0.000375  -0.000025  -0.000010
    29  H    0.000014  -0.000638   0.001045  -0.006223  -0.010874  -0.000238
    30  H   -0.000002  -0.000145   0.000056   0.001375   0.000617  -0.000109
    31  H    0.000020   0.000182  -0.000124   0.000722   0.000215  -0.000081
              25         26         27         28         29         30
     1  O    0.000785  -0.002860   0.007598  -0.016666   0.000048   0.003328
     2  C    0.041502   0.008918  -0.030482   0.010815   0.069423   0.002650
     3  N   -0.056818  -0.008187   0.009457  -0.019249  -0.022187   0.002367
     4  C    0.001977   0.033019  -0.003893  -0.006005   0.015075   0.003909
     5  C    0.012080  -0.014775   0.000752   0.000649  -0.003759  -0.000329
     6  O    0.000228   0.000086  -0.000025   0.000035   0.000046   0.000002
     7  O    0.000772  -0.001019  -0.000081   0.000166   0.000029  -0.000006
     8  C    0.042418  -0.004241   0.001534   0.002455  -0.076378   0.004722
     9  C   -0.063050   0.033234   0.008736  -0.016398  -0.045313  -0.001542
    10  C    0.010383  -0.022283  -0.001959   0.006931   0.033382   0.006185
    11  N   -0.010821   0.003938  -0.001867   0.001209   0.147800  -0.007378
    12  C   -0.035305  -0.007707  -0.006137   0.003002  -0.013099  -0.002860
    13  N    0.034374  -0.007678   0.001007   0.000727   0.016875  -0.000451
    14  C    0.423281   0.373787  -0.054572  -0.004715   0.056606  -0.014154
    15  C   -0.088428  -0.059351   0.437989   0.405786  -0.104362  -0.010929
    16  N   -0.022859   0.019151  -0.019209  -0.036946   0.238413   0.310887
    17  H   -0.001519  -0.006553   0.000472   0.000671  -0.000631  -0.000318
    18  H    0.000754   0.002250  -0.000684   0.000392   0.001718   0.000485
    19  H    0.000078  -0.000021  -0.000002  -0.000004   0.000014  -0.000002
    20  H    0.000329  -0.000287   0.000062   0.000028  -0.000638  -0.000145
    21  H    0.000321   0.000961  -0.000089  -0.000084   0.001045   0.000056
    22  H   -0.000438  -0.000129   0.000616  -0.000375  -0.006223   0.001375
    23  H   -0.009767  -0.000361  -0.000332  -0.000025  -0.010874   0.000617
    24  H   -0.001527   0.000043   0.000186  -0.000010  -0.000238  -0.000109
    25  H    0.482699  -0.012413  -0.007695   0.008405   0.003957  -0.000933
    26  H   -0.012413   0.430922  -0.009624  -0.005557   0.003674   0.001896
    27  H   -0.007695  -0.009624   0.456192  -0.019180  -0.010589  -0.000134
    28  H    0.008405  -0.005557  -0.019180   0.424018   0.004152  -0.002566
    29  H    0.003957   0.003674  -0.010589   0.004152   0.413792  -0.015957
    30  H   -0.000933   0.001896  -0.000134  -0.002566  -0.015957   0.355280
    31  H    0.000506  -0.000153   0.004625  -0.013923  -0.018361  -0.002277
              31
     1  O    0.068443
     2  C   -0.030444
     3  N    0.013724
     4  C    0.018188
     5  C    0.006076
     6  O   -0.000017
     7  O   -0.000013
     8  C    0.003660
     9  C   -0.020793
    10  C    0.033597
    11  N   -0.018429
    12  C   -0.000090
    13  N   -0.001138
    14  C   -0.036036
    15  C   -0.029957
    16  N    0.332466
    17  H   -0.000500
    18  H    0.000162
    19  H    0.000020
    20  H    0.000182
    21  H   -0.000124
    22  H    0.000722
    23  H    0.000215
    24  H   -0.000081
    25  H    0.000506
    26  H   -0.000153
    27  H    0.004625
    28  H   -0.013923
    29  H   -0.018361
    30  H   -0.002277
    31  H    0.348673
 Mulliken charges:
               1
     1  O   -0.315440
     2  C   -0.067360
     3  N    0.118575
     4  C   -0.442348
     5  C    0.123056
     6  O   -0.102844
     7  O   -0.209362
     8  C   -1.052439
     9  C    0.902253
    10  C   -0.559313
    11  N   -0.087515
    12  C   -0.096191
    13  N   -0.166392
    14  C   -0.207251
    15  C   -0.676639
    16  N   -0.255284
    17  H    0.292951
    18  H    0.311149
    19  H    0.308666
    20  H    0.251992
    21  H    0.193651
    22  H    0.181617
    23  H    0.180156
    24  H    0.336700
    25  H    0.246726
    26  H    0.251322
    27  H    0.237326
    28  H    0.272263
    29  H    0.322562
    30  H    0.366333
    31  H    0.341079
 Sum of Mulliken charges =   1.00000
 Mulliken charges with hydrogens summed into heavy atoms:
               1
     1  O   -0.315440
     2  C   -0.067360
     3  N    0.411526
     4  C   -0.131199
     5  C    0.123056
     6  O    0.205822
     7  O   -0.209362
     8  C   -0.606796
     9  C    0.902253
    10  C   -0.377696
    11  N   -0.087515
    12  C    0.083965
    13  N    0.170308
    14  C    0.290796
    15  C   -0.167050
    16  N    0.774691
 APT charges:
               1
     1  O   -0.369059
     2  C   -0.411059
     3  N    0.002660
     4  C   -0.803451
     5  C   -0.538019
     6  O   -0.673097
     7  O    0.097386
     8  C   -0.967002
     9  C    0.971489
    10  C   -1.297051
    11  N   -0.068227
    12  C   -0.666273
    13  N   -0.507778
    14  C   -0.424470
    15  C   -1.330291
    16  N   -0.657696
    17  H    0.520437
    18  H    0.425388
    19  H    1.215711
    20  H    0.608313
    21  H    0.466509
    22  H    0.472536
    23  H    0.684706
    24  H    0.649435
    25  H    0.246287
    26  H    0.586151
    27  H    0.662950
    28  H    0.598169
    29  H    0.179482
    30  H    1.031505
    31  H    0.294360
 Sum of APT charges =   1.00000
 APT charges with hydrogens summed into heavy atoms:
               1
     1  O   -0.369059
     2  C   -0.411059
     3  N    0.523097
     4  C   -0.378063
     5  C   -0.538019
     6  O    0.542614
     7  O    0.097386
     8  C    0.107820
     9  C    0.971489
    10  C   -0.824515
    11  N   -0.068227
    12  C    0.018433
    13  N    0.141657
    14  C    0.407968
    15  C   -0.069172
    16  N    0.847651
 Electronic spatial extent (au):  <R**2>=           3752.0152
 Charge=              1.0000 electrons
 Dipole moment (field-independent basis, Debye):
    X=              3.5239    Y=              0.9979    Z=             -5.0892  Tot=              6.2700
 Quadrupole moment (field-independent basis, Debye-Ang):
   XX=            -84.8208   YY=            -79.1963   ZZ=            -54.5154
   XY=             -1.0900   XZ=            -13.9246   YZ=            -18.9818
 Traceless Quadrupole moment (field-independent basis, Debye-Ang):
   XX=            -11.9767   YY=             -6.3521   ZZ=             18.3288
   XY=             -1.0900   XZ=            -13.9246   YZ=            -18.9818
 Octapole moment (field-independent basis, Debye-Ang**2):
  XXX=             46.1487  YYY=              9.5392  ZZZ=           -129.0608  XYY=             41.2299
  XXY=             12.0617  XXZ=            -53.4017  XZZ=            -15.7339  YZZ=             49.4385
  YYZ=            -62.5408  XYZ=              1.9046
 Hexadecapole moment (field-independent basis, Debye-Ang**3):
 XXXX=           -596.2881 YYYY=          -1118.8512 ZZZZ=          -2022.7091 XXXY=           -150.8587
 XXXZ=            133.6902 YYYX=           -188.1750 YYYZ=            -56.7633 ZZZX=           -132.8289
 ZZZY=           -154.8739 XXYY=           -288.0511 XXZZ=           -608.7367 YYZZ=           -594.4493
 XXYZ=            -29.1402 YYXZ=             18.0620 ZZXY=            -95.4027
 N-N= 1.193313016952D+03 E-N=-4.231025623744D+03  KE= 7.938500106650D+02
  Exact polarizability:   0.000   0.000   0.000   0.000   0.000   0.000
 Approx polarizability: 213.409 -18.888 168.342   6.365  -6.833 222.034
 Calling FoFJK, ICntrl=    100147 FMM=F ISym2X=0 I1Cent= 0 IOpClX= 0 NMat=1 NMatS=1 NMatT=0.
 -------------------------------------------------------------------
 Center     Atomic                   Forces (Hartrees/Bohr)
 Number     Number              X              Y              Z
 -------------------------------------------------------------------
      1        8           0.002022009   -0.001626460   -0.015277002
      2        6          -0.003866007   -0.000405529    0.014286613
      3        7          -0.004478285   -0.002673309   -0.012156885
      4        6          -0.001589343    0.002105224    0.004218279
      5        6          -0.007666065    0.003062946    0.007104574
      6        8           0.003865564    0.000113739   -0.006966764
      7        8           0.004297171   -0.000854917   -0.002730990
      8        6          -0.000140533   -0.003702309   -0.009606176
      9        6           0.002778250   -0.000914244    0.010190275
     10        6          -0.008684866    0.013614226   -0.003788471
     11        7          -0.006335860    0.005470816   -0.004795360
     12        6           0.011727203   -0.002962711   -0.010422250
     13        7           0.002180233    0.001196019    0.006839552
     14        6           0.000331547   -0.008252381    0.001833999
     15        6           0.021330240    0.012204903    0.008946725
     16        7          -0.007050879   -0.001258930   -0.001298514
     17        1           0.005109305   -0.001762269    0.000647873
     18        1           0.000183791    0.000291837    0.002329682
     19        1          -0.002187514   -0.000462940    0.006947876
     20        1          -0.001454498   -0.001195181    0.001881531
     21        1           0.001393421   -0.000990069    0.004641639
     22        1           0.002813612   -0.002205675   -0.000510723
     23        1          -0.000375786   -0.002366362    0.001939833
     24        1           0.001833869   -0.002344854    0.001726950
     25        1           0.000267045    0.001224484    0.001111480
     26        1           0.001616916    0.001663452   -0.003332235
     27        1          -0.003257477   -0.000826838   -0.002018230
     28        1          -0.004543687    0.000214840   -0.003709912
     29        1          -0.005478534   -0.006063099   -0.002638296
     30        1           0.000405566   -0.001405956   -0.002143016
     31        1          -0.005046405    0.001111547    0.006747945
 -------------------------------------------------------------------
 Cartesian Forces:  Max     0.021330240 RMS     0.005629316
 FormGI is forming the generalized inverse of G from B-inverse, IUseBI=4.

 GradGradGradGradGradGradGradGradGradGradGradGradGradGradGradGradGradGrad
 Berny optimization.
 Internal  Forces:  Max     0.035391824 RMS     0.006979180
 Search for a local minimum.
 Step number   1 out of a maximum of  167
 All quantities printed in internal units (Hartrees-Bohrs-Radians)
 Mixed Optimization -- RFO/linear search
 Second derivative matrix not updated -- analytic derivatives used.
 ITU=  0
     Eigenvalues ---   -0.00188   0.00185   0.00217   0.00286   0.00383
     Eigenvalues ---    0.00438   0.00674   0.00924   0.01136   0.01933
     Eigenvalues ---    0.02006   0.02085   0.02113   0.02698   0.03550
     Eigenvalues ---    0.03841   0.03937   0.04036   0.04093   0.04329
     Eigenvalues ---    0.04460   0.04730   0.05009   0.05246   0.05416
     Eigenvalues ---    0.05683   0.05787   0.06320   0.06619   0.07922
     Eigenvalues ---    0.08194   0.08484   0.10336   0.10941   0.11295
     Eigenvalues ---    0.11741   0.11911   0.12148   0.12619   0.13711
     Eigenvalues ---    0.14988   0.15345   0.15806   0.16284   0.17230
     Eigenvalues ---    0.18139   0.19875   0.21005   0.22074   0.22663
     Eigenvalues ---    0.23532   0.24028   0.24607   0.24986   0.25953
     Eigenvalues ---    0.28281   0.31778   0.32432   0.32682   0.33529
     Eigenvalues ---    0.33790   0.33839   0.33956   0.34056   0.34339
     Eigenvalues ---    0.34792   0.35047   0.35494   0.36034   0.36556
     Eigenvalues ---    0.36974   0.40431   0.41342   0.41790   0.42169
     Eigenvalues ---    0.44032   0.45316   0.45994   0.47958   0.48072
     Eigenvalues ---    0.48563   0.48895   0.52789   0.59925   0.78474
     Eigenvalues ---    0.82081   0.89097
 RFO step:  Lambda=-2.59989440D-02 EMin=-1.88214182D-03
 Linear search not attempted -- first point.
 Iteration  1 RMS(Cart)=  0.33408934 RMS(Int)=  0.04527114
 Iteration  2 RMS(Cart)=  0.17844065 RMS(Int)=  0.00987180
 Iteration  3 RMS(Cart)=  0.01498970 RMS(Int)=  0.00111049
 Iteration  4 RMS(Cart)=  0.00009195 RMS(Int)=  0.00110876
 Iteration  5 RMS(Cart)=  0.00000013 RMS(Int)=  0.00110876
 Variable       Old X    -DE/DX   Delta X   Delta X   Delta X     New X
                                 (Linear)    (Quad)   (Total)
    R1        2.32065   0.00062   0.00000  -0.00123  -0.00123   2.31942
    R2        2.57258  -0.00333   0.00000   0.01551   0.01551   2.58809
    R3        2.86751  -0.00324   0.00000   0.00892   0.00892   2.87643
    R4        2.73116  -0.00007   0.00000   0.01308   0.01308   2.74424
    R5        1.89883   0.00539   0.00000   0.00902   0.00902   1.90785
    R6        2.85672   0.00406   0.00000   0.00659   0.00659   2.86331
    R7        2.94993  -0.00446   0.00000   0.03633   0.03633   2.98626
    R8        2.05831  -0.00054   0.00000  -0.00164  -0.00164   2.05667
    R9        2.54701  -0.00139   0.00000  -0.00624  -0.00624   2.54077
   R10        2.27079   0.00274   0.00000  -0.00125  -0.00125   2.26955
   R11        1.82427   0.00599   0.00000   0.00988   0.00988   1.83415
   R12        2.83295  -0.00290   0.00000  -0.00609  -0.00609   2.82686
   R13        2.05434   0.00217   0.00000   0.00502   0.00502   2.05936
   R14        2.05716   0.00371   0.00000   0.00704   0.00704   2.06419
   R15        2.57486   0.01034   0.00000   0.00834   0.00881   2.58367
   R16        2.61963   0.00406   0.00000   0.00428   0.00482   2.62445
   R17        2.60855   0.00581   0.00000   0.02907   0.02875   2.63730
   R18        2.04837  -0.00354   0.00000  -0.01067  -0.01067   2.03770
   R19        2.47637   0.01194   0.00000   0.03084   0.03024   2.50661
   R20        2.55472   0.00881   0.00000  -0.00725  -0.00737   2.54735
   R21        2.04253  -0.00058   0.00000  -0.00573  -0.00573   2.03680
   R22        1.90131   0.00326   0.00000   0.00915   0.00915   1.91046
   R23        2.87052  -0.00121   0.00000   0.01747   0.01747   2.88799
   R24        2.07391  -0.00125   0.00000  -0.01108  -0.01108   2.06283
   R25        2.06452   0.00065   0.00000   0.00260   0.00260   2.06712
   R26        2.79275   0.01702   0.00000   0.04540   0.04540   2.83815
   R27        2.06237  -0.00108   0.00000  -0.00349  -0.00349   2.05889
   R28        2.05950   0.00018   0.00000   0.00014   0.00014   2.05965
   R29        1.94631   0.00619   0.00000   0.09440   0.09440   2.04072
   R30        1.92715   0.00153   0.00000  -0.00153  -0.00153   1.92563
   R31        1.93595   0.00800   0.00000   0.00341   0.00341   1.93935
    A1        2.11583   0.01114   0.00000   0.02156   0.02089   2.13671
    A2        2.15484  -0.02176   0.00000  -0.03947  -0.03998   2.11486
    A3        2.01212   0.01040   0.00000   0.01622   0.01564   2.02775
    A4        2.08160  -0.01536   0.00000  -0.03721  -0.04267   2.03892
    A5        2.10646   0.00542   0.00000  -0.02845  -0.03367   2.07279
    A6        2.04627   0.00770   0.00000   0.00949   0.00302   2.04929
    A7        1.89981   0.01252   0.00000   0.06011   0.06090   1.96071
    A8        1.98653  -0.02509   0.00000  -0.05279  -0.05413   1.93239
    A9        1.86428   0.00296   0.00000  -0.02783  -0.02864   1.83564
   A10        1.89167   0.01239   0.00000   0.02903   0.02969   1.92136
   A11        1.92769  -0.00561   0.00000  -0.01077  -0.01042   1.91727
   A12        1.89391   0.00248   0.00000   0.00104  -0.00023   1.89368
   A13        1.94419  -0.00042   0.00000  -0.01437  -0.01441   1.92978
   A14        2.18274  -0.00462   0.00000  -0.01067  -0.01070   2.17204
   A15        2.15572   0.00501   0.00000   0.02457   0.02453   2.18025
   A16        1.84919   0.00758   0.00000   0.03956   0.03956   1.88875
   A17        1.97278  -0.03539   0.00000  -0.09816  -0.09790   1.87488
   A18        1.87747   0.00779   0.00000   0.00542   0.00684   1.88431
   A19        1.92395   0.01032   0.00000   0.02712   0.02622   1.95017
   A20        1.92667   0.01442   0.00000   0.06740   0.06705   1.99372
   A21        1.88187   0.00934   0.00000   0.00535   0.00466   1.88653
   A22        1.87922  -0.00526   0.00000  -0.00261  -0.00348   1.87574
   A23        2.32516   0.00119   0.00000  -0.02941  -0.03232   2.29285
   A24        2.12883  -0.00339   0.00000   0.01110   0.00675   2.13559
   A25        1.82119   0.00184   0.00000   0.00186   0.00039   1.82159
   A26        1.93445  -0.00175   0.00000  -0.01263  -0.01207   1.92238
   A27        2.22240   0.00140   0.00000   0.00593   0.00506   2.22746
   A28        2.12381   0.00031   0.00000   0.00334   0.00260   2.12641
   A29        1.83984   0.00141   0.00000   0.00596   0.00565   1.84549
   A30        1.94323  -0.00243   0.00000  -0.01693  -0.01726   1.92596
   A31        2.18147   0.00321   0.00000   0.01461   0.01425   2.19572
   A32        2.15783  -0.00075   0.00000   0.00074   0.00043   2.15826
   A33        1.88419   0.00094   0.00000   0.01938   0.02017   1.90436
   A34        2.19638  -0.00062   0.00000  -0.00491  -0.00571   2.19067
   A35        2.20108  -0.00035   0.00000  -0.01227  -0.01305   2.18804
   A36        1.99179  -0.02698   0.00000  -0.01793  -0.01794   1.97385
   A37        1.87843   0.00581   0.00000  -0.01168  -0.01178   1.86665
   A38        1.89415   0.01345   0.00000   0.04527   0.04528   1.93943
   A39        1.90983   0.00717   0.00000   0.00605   0.00588   1.91571
   A40        1.92735   0.00530   0.00000  -0.02121  -0.02105   1.90630
   A41        1.85691  -0.00327   0.00000   0.00108   0.00105   1.85796
   A42        1.94804  -0.01448   0.00000   0.02193   0.02207   1.97011
   A43        1.90516   0.00615   0.00000   0.00389   0.00397   1.90913
   A44        1.90710   0.00756   0.00000   0.02402   0.02430   1.93140
   A45        1.91557   0.00430   0.00000  -0.01453  -0.01479   1.90078
   A46        1.90507  -0.00153   0.00000  -0.04174  -0.04204   1.86303
   A47        1.88169  -0.00157   0.00000   0.00615   0.00544   1.88713
   A48        1.95248   0.00799   0.00000   0.10278   0.10310   2.05558
   A49        1.96862  -0.00065   0.00000  -0.03375  -0.03443   1.93419
   A50        1.87560  -0.00265   0.00000  -0.03618  -0.03617   1.83943
   A51        1.91719  -0.00406   0.00000  -0.01209  -0.01234   1.90485
   A52        1.84677  -0.00266   0.00000  -0.03578  -0.03472   1.81205
   A53        1.89787   0.00182   0.00000   0.01212   0.01091   1.90878
    D1        0.44899   0.00060   0.00000   0.14483   0.14243   0.59142
    D2       -3.03231  -0.00551   0.00000  -0.04232  -0.04132  -3.07363
    D3       -2.66301   0.00877   0.00000   0.20714   0.20613  -2.45687
    D4        0.13888   0.00265   0.00000   0.01999   0.02239   0.16126
    D5       -0.05860   0.00160   0.00000  -0.00153  -0.00186  -0.06046
    D6       -2.18165   0.00579   0.00000   0.01084   0.01029  -2.17137
    D7        2.09863  -0.00017   0.00000  -0.00724  -0.00783   2.09080
    D8        3.05265  -0.00613   0.00000  -0.06421  -0.06356   2.98909
    D9        0.92960  -0.00194   0.00000  -0.05184  -0.05142   0.87819
   D10       -1.07330  -0.00789   0.00000  -0.06992  -0.06953  -1.14283
   D11       -2.56708  -0.00434   0.00000   0.01002   0.00957  -2.55751
   D12        1.60427  -0.01254   0.00000  -0.03537  -0.03462   1.56964
   D13       -0.48552  -0.00260   0.00000   0.01397   0.01303  -0.47249
   D14        0.90266   0.00181   0.00000   0.19773   0.19771   1.10036
   D15       -1.20918  -0.00640   0.00000   0.15234   0.15351  -1.05567
   D16        2.98422   0.00355   0.00000   0.20168   0.20117  -3.09780
   D17        2.87149   0.00795   0.00000  -0.00526  -0.00599   2.86550
   D18       -0.30441   0.00697   0.00000  -0.01957  -0.02020  -0.32461
   D19       -1.24267  -0.00711   0.00000  -0.01360  -0.01282  -1.25549
   D20        1.86461  -0.00808   0.00000  -0.02791  -0.02704   1.83758
   D21        0.82995   0.00016   0.00000  -0.00098  -0.00117   0.82878
   D22       -2.34595  -0.00081   0.00000  -0.01528  -0.01538  -2.36133
   D23       -0.73702   0.01120   0.00000   0.22475   0.22468  -0.51233
   D24       -2.86847   0.01024   0.00000   0.19884   0.19824  -2.67022
   D25        1.37033   0.00642   0.00000   0.18406   0.18362   1.55396
   D26       -2.85339   0.00282   0.00000   0.16191   0.16253  -2.69086
   D27        1.29834   0.00186   0.00000   0.13600   0.13609   1.43443
   D28       -0.74604  -0.00196   0.00000   0.12122   0.12147  -0.62457
   D29        1.33593   0.00097   0.00000   0.15747   0.15781   1.49374
   D30       -0.79552   0.00001   0.00000   0.13155   0.13137  -0.66415
   D31       -2.83991  -0.00381   0.00000   0.11678   0.11675  -2.72315
   D32        3.11858  -0.00096   0.00000  -0.01061  -0.01074   3.10784
   D33        0.01067   0.00022   0.00000   0.00424   0.00438   0.01505
   D34       -1.26951   0.00488   0.00000   0.36796   0.36870  -0.90081
   D35        1.71371   0.00138   0.00000   0.20651   0.20807   1.92178
   D36        0.83414   0.00100   0.00000   0.35598   0.35450   1.18864
   D37       -2.46583  -0.00250   0.00000   0.19453   0.19387  -2.27196
   D38        2.88257   0.00813   0.00000   0.39334   0.39285  -3.00777
   D39       -0.41740   0.00463   0.00000   0.23189   0.23222  -0.18518
   D40        2.95273  -0.00311   0.00000  -0.17191  -0.17009   2.78264
   D41       -0.11274  -0.00239   0.00000  -0.12144  -0.12028  -0.23303
   D42       -0.05032   0.00030   0.00000  -0.03186  -0.03163  -0.08195
   D43       -3.11579   0.00102   0.00000   0.01861   0.01817  -3.09762
   D44       -3.00077   0.00205   0.00000   0.13908   0.14133  -2.85944
   D45        0.19742   0.00257   0.00000   0.09862   0.10031   0.29773
   D46        0.02191  -0.00049   0.00000   0.01495   0.01482   0.03673
   D47       -3.06308   0.00004   0.00000  -0.02551  -0.02619  -3.08927
   D48        0.06000  -0.00005   0.00000   0.03742   0.03757   0.09757
   D49        3.13048  -0.00066   0.00000  -0.00954  -0.00867   3.12181
   D50       -0.04511  -0.00033   0.00000  -0.02743  -0.02769  -0.07281
   D51        3.13455  -0.00131   0.00000   0.01808   0.01851  -3.13012
   D52        0.01519   0.00047   0.00000   0.00826   0.00857   0.02376
   D53        3.09999  -0.00006   0.00000   0.04917   0.04980  -3.13339
   D54        3.11932   0.00155   0.00000  -0.03615  -0.03608   3.08324
   D55       -0.07906   0.00101   0.00000   0.00476   0.00516  -0.07391
   D56       -0.91722   0.00620   0.00000   0.06683   0.06681  -0.85040
   D57       -3.03781   0.00605   0.00000   0.06819   0.06823  -2.96958
   D58        1.19150   0.00003   0.00000   0.04471   0.04479   1.23629
   D59        1.18842   0.00070   0.00000   0.04410   0.04405   1.23247
   D60       -0.93217   0.00054   0.00000   0.04546   0.04546  -0.88671
   D61       -2.98605  -0.00547   0.00000   0.02198   0.02202  -2.96403
   D62       -3.05642   0.00408   0.00000   0.03664   0.03656  -3.01986
   D63        1.10617   0.00392   0.00000   0.03801   0.03798   1.14415
   D64       -0.94771  -0.00209   0.00000   0.01452   0.01454  -0.93317
   D65       -0.84937  -0.00059   0.00000   0.08226   0.08252  -0.76686
   D66       -3.02119  -0.00095   0.00000   0.04388   0.04408  -2.97712
   D67        1.17043  -0.00105   0.00000   0.07326   0.07255   1.24299
   D68        1.26518   0.00055   0.00000   0.09175   0.09186   1.35705
   D69       -0.90664   0.00019   0.00000   0.05336   0.05343  -0.85322
   D70       -2.99820   0.00009   0.00000   0.08275   0.08190  -2.91630
   D71       -2.95927   0.00026   0.00000   0.06605   0.06670  -2.89257
   D72        1.15209  -0.00010   0.00000   0.02767   0.02826   1.18035
   D73       -0.93947  -0.00020   0.00000   0.05705   0.05673  -0.88273
         Item               Value     Threshold  Converged?
 Maximum Force            0.035392     0.000450     NO 
 RMS     Force            0.006979     0.000300     NO 
 Maximum Displacement     2.131908     0.001800     NO 
 RMS     Displacement     0.487547     0.001200     NO 
 Predicted change in Energy=-2.404628D-02
 GradGradGradGradGradGradGradGradGradGradGradGradGradGradGradGradGradGrad

                          Input orientation:                          
 ---------------------------------------------------------------------
 Center     Atomic      Atomic             Coordinates (Angstroms)
 Number     Number       Type             X           Y           Z
 ---------------------------------------------------------------------
      1          8           0       -0.513421    2.007800    0.086718
      2          6           0        0.425809    1.235761    0.254877
      3          7           0        0.628849    0.572533    1.435803
      4          6           0       -0.555491    0.178539    2.178071
      5          6           0       -0.337115    0.222846    3.676797
      6          8           0       -1.513772    0.193449    4.326672
      7          8           0        0.740788    0.228680    4.206397
      8          6           0       -1.034909   -1.262681    1.741867
      9          6           0       -0.633560   -1.455054    0.313701
     10          6           0       -0.838890   -0.681387   -0.794708
     11          7           0        0.085046   -1.009643   -1.787827
     12          6           0        0.756467   -2.055020   -1.323258
     13          7           0        0.367979   -2.339827   -0.064265
     14          6           0        1.359350    0.869469   -0.890222
     15          6           0        0.942370    1.487040   -2.224506
     16          7           0       -0.512954    1.281676   -2.533547
     17          1           0        1.452099   -0.003552    1.534104
     18          1           0       -1.321612    0.897775    1.894794
     19          1           0       -1.333699    0.192071    5.280410
     20          1           0       -2.108524   -1.327163    1.917325
     21          1           0       -0.557842   -2.044926    2.336571
     22          1           0       -1.514119    0.152790   -0.899352
     23          1           0        1.558869   -2.565272   -1.830711
     24          1           0        0.737312   -3.087679    0.507026
     25          1           0        1.353723   -0.219228   -0.969622
     26          1           0        2.390291    1.158445   -0.666136
     27          1           0        1.538311    1.052146   -3.026235
     28          1           0        1.113632    2.563410   -2.220307
     29          1           0       -0.932443    0.303011   -2.353466
     30          1           0       -0.723700    1.564782   -3.489473
     31          1           0       -1.018742    1.889420   -1.879301
 ---------------------------------------------------------------------
                    Distance matrix (angstroms):
                    1          2          3          4          5
     1  O    0.000000
     2  C    1.227385   0.000000
     3  N    2.277017   1.369556   0.000000
     4  C    2.778799   2.404027   1.452189   0.000000
     5  C    4.013205   3.649327   2.465242   1.515200   0.000000
     6  O    4.719087   4.629029   3.618239   2.352660   1.344517
     7  O    4.659406   4.089980   2.794093   2.407687   1.200992
     8  C    3.702367   3.253775   2.495952   1.580263   2.537255
     9  C    3.472365   2.892441   2.638920   2.480040   3.770099
    10  C    2.848608   2.525183   2.949872   3.107604   4.589528
    11  N    3.602367   3.054603   3.631913   4.189321   5.617772
    12  C    4.484101   3.664572   3.812183   4.355379   5.602245
    13  N    4.438640   3.590269   3.286350   3.496146   4.589117
    14  C    2.399476   1.522143   2.456053   3.682176   4.914649
    15  C    2.780697   2.545057   3.785826   4.830989   6.169331
    16  N    2.719015   2.942565   4.190744   4.839222   6.302413
    17  H    3.162868   2.055625   1.009593   2.116192   2.800656
    18  H    2.270345   2.420133   2.029963   1.088342   2.144831
    19  H    5.562748   5.425969   4.333284   3.198483   1.888307
    20  H    4.125222   3.969277   3.366588   2.178770   2.938735
    21  H    4.635559   4.007983   3.011761   2.229108   2.643430
    22  H    2.326971   2.503675   3.197099   3.223378   4.725610
    23  H    5.374376   4.481223   4.623945   5.298052   6.457631
    24  H    5.263545   4.341976   3.777769   3.889976   4.707592
    25  H    3.092206   2.115991   2.634083   3.702876   4.964229
    26  H    3.117650   2.171045   2.804304   4.210388   5.212980
    27  H    3.848812   3.469448   4.578966   5.677323   7.009679
    28  H    2.877216   2.891762   4.191151   5.274402   6.508359
    29  H    3.006057   3.085178   4.107168   4.548891   6.060108
    30  H    3.609657   3.930620   5.203103   5.837038   7.301072
[...]
 3,-0.00015807,-0.00024170,0.00059387,-0.00040353,-0.00018308,0.0000606
 9,0.00008001,-0.00034197,-0.00040102,-0.00011165,0.00002927,0.00005306
 ,-0.00010837,0.00071247,-0.00046693,-0.00005858,-0.00014547,0.00718154
 ,-0.02297800,-0.05200498,-0.00881664,0.03307372,0.00060512,0.00057746,
 -0.00059016,0.00132127,0.00050445,-0.00021062,-0.00114434,-0.00002988,
 -0.00010470,0.00014461,0.00000357,0.00000294,0.00001058,0.00002051,0.0
 0009747,0.00001694,0.00001151,0.00006196,-0.00001279,-0.00003606,0.000
 00451,-0.00004846,-0.00003940,-0.00016317,-0.00003023,0.00014121,0.000
 19353,0.00000775,-0.00928314,0.01925393,0.05874769,-0.00153641,0.00220
 466,0.00359203,-0.02020902,-0.01332997,-0.01151420,0.00143968,0.001290
 76,0.00024036,-0.00020346,0.00042410,0.00080335,-0.00019858,-0.0000101
 6,0.00004589,0.00002713,-0.00000375,0.00003507,0.00003350,0.00003970,-
 0.00000835,0.00021466,0.00011244,-0.00004084,0.00000914,0.00000286,-0.
 00008565,-0.00003645,0.00000069,0.00000023,-0.00000595,0.00012164,0.00
 003791,0.00013292,0.00001005,0.00001312,0.00001475,0.00001214,0.000063
 24,-0.19641918,-0.10965187,-0.07653426,-0.00581875,-0.00322744,-0.0032
 9134,0.00108449,0.00064853,-0.00093729,-0.00003936,-0.00077102,0.00011
 781,0.00005490,0.00000668,-0.00002351,-0.00000992,-0.00001273,0.000015
 27,0.00001097,0.00004226,0.00000871,-0.00000260,-0.00000133,-0.0000022
 8,0.00001996,0.00001002,0.00000040,-0.00000269,-0.00003254,-0.00001310
 ,0.00001161,-0.00000741,0.00000153,0.00898598,0.00533246,0.00437740,0.
 21193070,0.00120600,-0.00136713,-0.00086283,0.00275616,0.00120209,0.00
 182832,-0.00041902,0.00071520,0.00090468,0.00017309,-0.00014381,0.0000
 9228,-0.00020194,0.00003045,-0.00007113,0.00007628,-0.00000777,-0.0000
 0812,0.00014983,-0.00003329,0.00002072,-0.00001054,-0.00003135,-0.0000
 9129,-0.00004236,0.00006652,0.00004461,0.00017538,-0.00003642,-0.00007
 816,-0.00005012,-0.00023211,-0.00002886,-0.00037726,0.00010056,-0.0000
 8131,0.00009206,0.00000118,-0.00013205,-0.10894447,-0.11885479,-0.0535
 0539,0.01039865,0.00617021,0.00414441,0.00198884,-0.00018525,0.0040166
 7,-0.00047052,-0.00035398,0.00039505,0.00004680,0.00001750,-0.00002116
 ,-0.00000757,0.00000501,0.00000535,-0.00000236,0.00000361,0.00000855,-
 0.00000304,-0.00000840,0.00001105,-0.00002228,-0.00000693,0.00001373,0
 .00000776,0.00006568,0.00003415,-0.00006218,-0.00000819,-0.00003061,-0
 .02386726,-0.01589628,-0.01167661,0.11656942,0.12794684,0.00173356,-0.
 00257548,-0.00214611,0.01409087,0.01382167,0.01285977,-0.00059836,-0.0
 0095764,-0.00236043,-0.00044481,-0.00014948,0.00007557,0.00033406,0.00
 001151,0.00018053,-0.00004565,0.00001348,-0.00013841,-0.00015419,-0.00
 004509,-0.00011415,0.00003572,-0.00006973,-0.00008978,-0.00002989,-0.0
 0007177,0.00000939,0.00004760,0.00000443,-0.00006975,0.00001396,-0.000
 32582,0.00013762,-0.00021429,0.00007250,-0.00010708,0.00008674,-0.0000
 3481,0.00013636,-0.07158144,-0.04969878,-0.08369518,-0.02250452,-0.016
 26109,-0.00971754,-0.00146948,0.00257912,-0.00649176,0.00037222,0.0003
 8227,-0.00028077,-0.00002947,-0.00002279,0.00002829,0.00001924,0.00001
 060,-0.00001294,0.00000894,0.00005183,0.00000470,0.00000997,0.00003475
 ,0.00000671,-0.00000900,-0.00000328,-0.00002159,0.00000008,0.00000918,
 0.00000428,0.00000398,-0.00000621,0.00000598,-0.00175457,-0.00163199,-
 0.00115334,0.08239880,0.05517436,0.09211523,0.00096893,-0.00023918,0.0
 0069305,-0.00178324,0.00131582,-0.00200107,0.00095072,0.00006622,-0.00
 039272,-0.00017683,0.00006133,-0.00011276,0.00006494,0.00003207,0.0000
 7334,0.00001519,-0.00000079,-0.00007681,-0.00000775,0.00000253,-0.0000
 3742,0.00002340,-0.00003182,-0.00005471,-0.00000587,-0.00003491,-0.000
 05446,-0.00004253,0.00003701,-0.00006908,-0.00000515,-0.00030222,0.000
 09315,-0.00008216,0.00001628,0.00001056,0.00011563,-0.00003882,0.00012
 477,0.00855752,-0.00190053,-0.00547971,-0.18320305,0.04614751,0.123010
 20,-0.02855685,0.00546067,0.01731276,0.00002858,-0.00002788,0.00005296
 ,0.00000214,-0.00000225,0.00000011,0.00000267,-0.00000495,-0.00000008,
 0.00000469,0.00002229,0.00000432,0.00000319,0.00001047,0.00000714,0.00
 005366,0.00002035,-0.00003682,0.00000247,-0.00004403,0.00001068,0.0000
 0508,-0.00000089,-0.00000031,0.00046012,-0.00017650,0.00011628,0.00011
 344,-0.00031851,0.00063857,0.20541798,-0.00011604,0.00082675,-0.000769
 71,0.00259771,-0.00092436,0.00279758,-0.00089763,-0.00022686,0.0004484
 4,0.00012257,-0.00014857,0.00003544,-0.00004808,-0.00003093,-0.0000034
 2,0.00000823,0.00000466,0.00001866,0.00000571,-0.00000263,0.00000155,-
 0.00004654,0.00000444,0.00005444,0.00005239,-0.00002315,-0.00002852,-0
 .00004772,0.00006239,-0.00007562,0.00006823,-0.00004455,-0.00002916,0.
 00006290,0.00000962,0.00004934,0.00002739,0.00000154,0.00007189,-0.009
 84276,0.00259149,0.01113897,0.05233953,-0.07046012,-0.04949294,-0.0148
 4185,0.00325679,0.00971390,-0.00003439,0.00005650,0.00000487,-0.000007
 70,0.00000701,-0.00000603,-0.00000416,0.00000443,0.00000682,-0.0000023
 8,-0.00002120,-0.00001216,-0.00000077,-0.00000508,-0.00000470,0.000032
 27,-0.00000032,-0.00002209,-0.00002529,-0.00008330,0.00000125,-0.00000
 778,-0.00000997,0.00001748,-0.00074978,0.00060292,-0.00027180,0.000146
 30,0.00022574,-0.00050507,-0.05005629,0.06960701,0.00036908,-0.0000790
 5,0.00091619,-0.00461149,0.00202126,-0.00326649,0.00199813,0.00038026,
 -0.00111726,-0.00049041,0.00011184,-0.00011281,0.00015215,0.00007855,0
 .00020432,0.00003183,-0.00000058,-0.00018380,-0.00003334,0.00000790,-0
 .00010904,0.00006380,-0.00003552,-0.00009862,-0.00003231,-0.00003082,-
 0.00004767,0.00002063,0.00001058,-0.00003865,-0.00004083,-0.00018374,0
 .00011456,-0.00011171,0.00005303,-0.00007048,0.00008620,-0.00003389,0.
 00009471,0.02051407,-0.00662278,-0.01887353,0.13206666,-0.04710014,-0.
 17135417,-0.01575485,0.00366042,0.01065950,0.00010664,-0.00013362,0.00
 008544,-0.00000449,0.00000098,0.00001269,0.00000605,-0.00001034,0.0000
 0572,0.00001018,0.00004929,0.00001707,0.00000449,0.00002669,0.00001359
 ,0.00000368,0.00000967,-0.00002680,0.00001475,0.00003646,0.00001103,0.
 00001214,-0.00000928,-0.00001504,0.00019508,0.00022840,0.00137763,-0.0
 0015864,-0.00042631,0.00031094,-0.13260452,0.04868771,0.18185220,0.000
 43226,0.00048646,0.00019493,-0.00054076,-0.00062088,0.00042354,0.00008
 142,0.00018437,-0.00048689,-0.00017949,-0.00006893,0.00011620,-0.00001
 597,0.00003541,0.00010381,0.00003746,0.00000622,-0.00008478,0.00001794
 ,-0.00000305,-0.00006810,0.00006019,-0.00005164,-0.00006649,0.00001288
 ,-0.00007665,0.00004701,0.00022824,-0.00010890,-0.00028681,0.00000939,
 -0.00141719,0.00054068,-0.00048516,0.00025319,-0.00017034,0.00024544,-
 0.00002214,0.00052161,-0.00122121,0.00730912,-0.00061107,-0.05356959,0
 .03814999,0.00412855,-0.00727832,-0.04157774,-0.00449103,0.00005727,0.
 00000892,0.00009555,0.00001566,-0.00000211,0.00000857,-0.00000107,-0.0
 0000455,0.00000919,0.00000830,0.00003131,0.00001179,-0.00000296,0.0000
 1696,0.00001902,-0.00000838,0.00000300,-0.00003276,-0.00002167,-0.0000
 8888,-0.00001044,-0.00002360,-0.00000960,0.00003593,0.00064295,0.00039
 384,-0.00179729,0.00040474,0.00048746,-0.00028573,-0.00011809,0.022920
 50,-0.00014700,0.06322696,-0.00038605,0.00103375,-0.00058258,0.0012479
 3,-0.00064588,0.00016683,-0.00019013,0.00014733,-0.00017750,-0.0000204
 8,0.00004195,0.00005088,0.00000005,0.00000469,0.00000285,-0.00000158,0
 .00000143,-0.00000061,0.00000068,0.00000558,-0.00000732,0.00001781,-0.
 00000797,-0.00003476,-0.00000186,-0.00001829,0.00000951,0.00004928,0.0
 0001042,-0.00003512,0.00003617,-0.00025234,0.00007668,-0.00010865,0.00
 006183,0.00000778,0.00003482,-0.00002149,0.00003644,0.00268321,-0.0093
 7173,0.00151289,0.02663007,-0.31826479,-0.00946050,-0.00320961,-0.0110
 5085,-0.00204814,-0.00002456,-0.00004849,-0.00011495,-0.00002157,0.000
 00330,0.00000301,0.00000084,-0.00000171,-0.00000032,0.00000117,0.00001
 075,0.00000527,0.00000239,0.00000780,0.00000523,-0.00000443,-0.0000019
 4,-0.00001055,0.00000335,0.00001411,0.00000624,0.00000040,0.00001225,-
 0.00000185,0.00033355,0.00095221,0.00166306,0.00006586,0.00078321,0.00
 006932,0.00129228,-0.00526334,-0.00002748,-0.02717384,0.34064765,0.001
 12133,-0.00097858,0.00043779,-0.00179604,0.00165237,0.00048797,0.00041
 029,-0.00046518,-0.00012996,0.00000358,-0.00019208,-0.00003868,-0.0000
 0602,0.00001901,-0.00003430,0.00000589,-0.00000924,-0.00000481,0.00002
 839,-0.00001828,0.00001269,-0.00001072,0.00000630,0.00002507,-0.000030
 17,-0.00001565,0.00006731,0.00004796,-0.00004138,-0.00011938,-0.000019
 25,-0.00055151,0.00018180,-0.00008492,0.00010293,-0.00019180,0.0001134
 2,-0.00000303,0.00030999,-0.00479467,0.03138656,0.00015554,0.00238430,
 -0.00780922,-0.05110031,-0.00284971,-0.01481242,-0.00105730,-0.0000057
 5,0.00010620,0.00031618,0.00004859,0.00003214,-0.00004945,0.00000139,0
 .00000593,-0.00000702,-0.00000031,-0.00000576,-0.00000195,-0.00000207,
 -0.00000664,0.00000594,0.00001472,0.00000274,-0.00000541,-0.00001809,-
 0.00003861,-0.00002454,-0.00003105,-0.00002167,0.00001982,-0.00059435,
 0.00182420,-0.00552223,0.00009112,-0.00026057,0.00156919,0.00142508,-0
 .02120380,0.00018238,0.00533236,0.01031715,0.05511701,-0.00033086,-0.0
 0083195,0.00106127,0.00067590,0.00052274,-0.00121976,-0.00013444,-0.00
 050689,0.00055947,0.00026978,0.00007965,-0.00016400,0.00010925,-0.0000
 3947,0.00007488,-0.00004846,-0.00002111,0.00003464,-0.00012120,-0.0000
 1306,-0.00001152,-0.00002798,0.00027394,0.00016910,-0.00001356,0.00026
 935,0.00067852,-0.00077120,-0.00214432,0.00275467,-0.00803758,0.004484
 89,0.00170246,0.00215587,0.00047664,-0.00273983,-0.00178872,0.00133658
 ,-0.00200125,0.00168793,0.00037461,0.00046990,0.00085833,-0.03086586,0
 .00090448,-0.06282989,-0.00883693,-0.00238141,-0.00000389,0.00006823,-
 0.00002982,-0.00001238,0.00002043,-0.00000414,0.00000036,0.00002092,0.
 00001261,-0.00001083,-0.00007808,-0.00002281,0.00000349,-0.00004654,-0
 .00006031,-0.00026518,-0.00005444,0.00029832,-0.00005041,0.00036791,-0
 .00000452,0.00003472,-0.00015770,-0.00026810,-0.00039617,0.00054331,-0
 .00044543,0.00005805,0.00012789,0.00052093,0.00039306,-0.00011431,0.00
 077801,-0.00511152,-0.00109013,-0.00171135,0.07109699,0.00186305,-0.00
 203624,0.00519867,-0.00150087,0.00437666,-0.00563135,-0.00044002,-0.00
 307006,0.00327715,0.00121459,0.00040586,-0.00135350,0.00037115,-0.0003
 6332,0.00072408,-0.00005725,-0.00009853,-0.00005824,-0.00054775,-0.000
 05414,-0.00018382,-0.00089720,0.00049388,0.00085244,-0.00190738,0.0015
 8208,-0.00317658,-0.00606228,0.00283334,0.00519795,0.00453869,0.012883
 50,-0.00189800,0.00897798,-0.00695401,0.00440290,-0.00146453,0.0003105
 4,-0.00874232,0.00016190,0.00211927,-0.00061587,-0.01014798,-0.0026413
 5,-0.00512716,-0.00535292,-0.29471881,0.00511397,-0.00002721,0.0004735
 4,0.00005024,-0.00006951,0.00005821,-0.00007713,-0.00001937,0.00012745
 ,0.00008993,-0.00001590,-0.00036802,-0.00018950,-0.00001336,-0.0002158
 4,-0.00029572,0.00147468,0.00070642,-0.00039084,0.00041198,0.00106741,
 -0.00006046,0.00042018,-0.00053884,-0.00042886,0.00035624,-0.00017506,
 0.00026921,0.00019919,-0.00057682,0.00083354,0.00098715,0.00058346,0.0
 0066501,0.00208818,0.00163590,0.00122705,0.00157085,0.29608262,-0.0002
 1360,0.00126590,-0.00149359,0.00000687,-0.00140205,-0.00024126,0.00004
 112,0.00071478,-0.00049548,-0.00011191,-0.00008842,0.00024411,-0.00008
 190,0.00009648,-0.00052099,-0.00006649,0.00002358,0.00020903,0.0001656
 0,0.00000078,0.00021234,0.00006375,-0.00005173,-0.00039293,0.00085327,
 -0.00058612,-0.00046578,0.00176162,0.00192878,-0.00467915,0.00043290,-
 0.00565120,-0.00351367,-0.00304525,0.00194345,-0.00265050,0.00091390,0
 .00012923,0.00296989,0.00022178,-0.00119376,0.00029930,0.00304419,-0.0
 1187720,0.00071931,-0.00246174,-0.00157495,-0.06632820,-0.00007241,-0.
 00011694,-0.00010005,0.00001603,-0.00002072,0.00000445,0.00001398,-0.0
 0003389,-0.00005854,-0.00000746,0.00009239,0.00008647,0.00001891,0.000
 01837,0.00002747,0.00003193,-0.00012678,0.00012886,-0.00020922,-0.0004
 3597,0.00014062,-0.00008020,0.00038072,-0.00010570,-0.00051530,0.00028
 407,-0.00008677,0.00000866,0.00033840,-0.00010624,0.00038932,0.0007569
 3,0.00004462,-0.00298960,-0.00087877,-0.00071404,0.00326068,0.00474996
 ,0.07020094,0.00137212,0.00048010,0.00345468,-0.00235276,0.00113940,0.
 00008414,0.00029208,-0.00047652,0.00040246,0.00013193,0.00000395,-0.00
 003390,0.00002731,-0.00001474,-0.00013140,-0.00003885,0.00000107,0.000
 07569,0.00000098,0.00000277,0.00006310,-0.00000299,0.00001984,-0.00000
 419,-0.00012950,0.00002605,-0.00001836,0.00008797,-0.00024910,0.000038
 06,-0.00030753,-0.00050721,0.00013659,-0.00008115,0.00004253,-0.000152
 89,0.00006865,0.00001788,0.00007990,-0.00558773,-0.00399187,-0.0008603
 4,-0.00392361,0.01266925,-0.02941079,-0.06986663,0.02269202,-0.0625669
 3,-0.00004478,-0.00009546,0.00005675,0.00002334,0.00001898,-0.00002688
 ,0.00000609,-0.00000155,-0.00001006,-0.00000501,-0.00000954,0.00000591
 ,-0.00000055,-0.00000483,0.00000193,0.00010348,0.00001907,0.00010025,-
 0.00000277,0.00001754,-0.00001832,0.00000561,0.00003294,-0.00000884,0.
 00004806,-0.00000291,0.00021601,-0.00021046,0.00081684,-0.00167411,0.0
 0019254,0.00104011,0.00042324,0.00122615,-0.00027513,0.00028651,-0.000
 46251,0.00129379,0.00166463,0.06933098,-0.00004227,-0.00036313,-0.0020
 5960,0.00034448,-0.00066341,0.00052805,0.00003811,0.00030299,-0.000340
 45,-0.00013389,-0.00000019,0.00006638,-0.00002754,0.00001509,0.0001285
 1,0.00004110,-0.00000727,-0.00008344,0.00000945,-0.00000329,-0.0000663
 6,0.00002005,-0.00000174,-0.00001867,0.00013989,-0.00002160,-0.0001146
 0,0.00008521,-0.00006833,-0.00036844,-0.00074131,-0.00252861,0.0000215
 6,-0.00045790,0.00009850,-0.00043871,0.00011695,0.00010533,0.00041276,
 -0.00203763,-0.00123607,-0.00043629,-0.00066592,0.00541354,-0.01313097
 ,0.02274849,-0.09864870,0.11159728,-0.00000146,-0.00000905,0.00004386,
 -0.00000114,-0.00000140,0.00001513,-0.00000390,0.00000530,0.00001182,0
 .00000253,0.00001791,0.00000651,-0.00000207,0.00000730,-0.00000174,-0.
 00003096,-0.00000170,0.00006383,-0.00002499,-0.00007031,0.00003492,0.0
 0001991,0.00005368,-0.00000482,-0.00014484,0.00002378,-0.00005613,-0.0
 0019028,0.00040788,-0.00059546,0.00046140,0.00043757,0.00031770,-0.000
 02024,-0.00027329,-0.00080048,0.00765413,-0.00270590,0.03437759,-0.021
 02414,0.09440147,-0.00030244,-0.00043621,-0.00143069,0.00110461,-0.000
 56496,0.00001726,-0.00017668,0.00016176,0.00012109,0.00005992,0.000014
 90,0.00004228,-0.00001230,0.00001275,-0.00018663,-0.00004191,0.0000002
 1,0.00010755,0.00002236,-0.00001007,0.00008878,0.00002776,-0.00000282,
 -0.00002925,0.00005845,-0.00004425,0.00002018,0.00002818,-0.00003001,-
 0.00016965,-0.00032085,-0.00117724,0.00020110,-0.00033812,0.00021243,-
 0.00016222,0.00012875,-0.00004789,0.00031000,-0.00062270,-0.00094103,0
 .00095419,-0.00242998,0.00117722,-0.00585541,-0.06041695,0.10851664,-0
 .36360762,-0.00004900,0.00001827,-0.00004439,-0.00000635,-0.00000759,-
 0.00000367,0.00000562,-0.00000079,-0.00002370,-0.00000106,0.00001088,0
 .00000686,0.00000538,-0.00000420,0.00001191,0.00003564,0.00001194,-0.0
 0003918,-0.00000221,-0.00000998,0.00003231,-0.00001401,0.00004955,0.00
 000064,-0.00010208,-0.00004914,0.00009343,0.00018727,0.00024827,-0.000
 07719,0.00066966,0.00022176,0.00102515,0.00041796,-0.00028659,0.000135
 31,0.00182361,0.00180675,0.00240713,0.06752283,-0.11795838,0.38271187,
 -0.00698860,0.00092271,0.00404080,0.00202257,-0.00023781,-0.00418579,-
 0.00111210,0.00038994,-0.00019189,0.00007111,-0.00008265,0.00011354,0.
 00010612,-0.00001099,0.00000668,-0.00005687,0.00000941,0.00003094,-0.0
 0007849,0.00000207,-0.00001692,0.00006197,-0.00002118,-0.00000233,-0.0
 0004386,0.00003773,0.00034681,0.00106083,-0.00074841,-0.00029243,-0.00
 060317,-0.00125778,0.00046267,-0.00073635,0.00045361,-0.00036206,-0.00
 018459,0.00013964,0.00033040,0.00008200,0.00123101,0.00021602,-0.03187
 361,0.00781626,0.01660161,-0.20216573,0.07486725,0.13338879,0.00014178
 ,0.00020128,-0.00008802,0.00005613,0.00001031,0.00001200,0.00000631,-0
 .00000063,0.00000290,-0.00000511,-0.00001045,0.00002939,-0.00001787,0.
 00000890,-0.00000585,-0.00040619,-0.00060954,0.00035125,-0.00001422,0.
 00003533,-0.00002336,-0.00001382,0.00005200,0.00004075,-0.00008654,-0.
 00010693,0.00020234,0.00014619,-0.00027305,0.00048029,-0.00339444,-0.0
 0258037,-0.00286722,0.00187053,0.00010817,0.00063952,0.00307307,0.0025
 9395,-0.00305407,0.01009954,-0.00613122,-0.00726135,0.22898342,0.00354
 682,-0.00615813,0.00165902,-0.00427873,0.00287371,0.00100545,0.0016268
 0,-0.00118298,0.00101667,0.00025759,0.00010937,-0.00034062,0.00008375,
 -0.00008519,0.00004086,-0.00002765,-0.00003226,0.00002447,-0.00008176,
 -0.00000587,0.00005177,-0.00008922,0.00016630,0.00035962,0.00045835,0.
 00017385,0.00067372,0.00029729,-0.00054165,0.00049918,-0.00095183,0.00
 068522,-0.00005048,0.00045994,-0.00011338,-0.00006742,-0.00100226,0.00
 039570,-0.00061314,0.00150235,-0.00038638,-0.00028906,-0.01088687,0.00
 572082,0.00925010,0.07742116,-0.09606123,-0.06275761,-0.00004876,-0.00
 004438,0.00032924,0.00004256,0.00005029,-0.00006559,-0.00000152,0.0000
 3233,0.00000428,-0.00002014,-0.00008611,-0.00004485,-0.00000875,-0.000
 04979,-0.00006677,-0.00083294,-0.00031624,0.00033331,-0.00000990,0.000
 07427,-0.00002856,0.00002223,-0.00003145,0.00007123,0.00028612,-0.0000
 5617,0.00003171,-0.00000126,0.00000085,-0.00011402,-0.00275380,-0.0010
 3795,-0.00165220,-0.00112859,-0.00015204,0.00055153,0.02660872,-0.0112
 2320,-0.02306289,-0.01368114,0.00531363,0.00910784,-0.07680856,0.10196
 803,0.01655752,-0.00440916,0.00730644,-0.02148950,0.01286168,-0.007578
 16,0.00440798,-0.00587650,0.00567047,0.00161439,0.00026559,-0.00131263
 ,0.00022288,-0.00024268,-0.00139010,-0.00037012,-0.00002727,0.00085867
 ,-0.00000739,-0.00002329,0.00081926,-0.00050969,0.00041769,0.00061501,
 -0.00007304,0.00038595,-0.00021519,-0.00086299,0.00035048,0.00062979,0
 .00027212,0.00303738,-0.00136502,0.00167665,-0.00095527,0.00089832,-0.
 00045316,0.00003254,-0.00151704,0.00122736,-0.00034161,0.00046632,-0.0
 0401381,0.00615031,0.01331822,0.12773858,-0.05636929,-0.17126883,-0.00
 066286,-0.00044559,0.00041050,0.00009146,0.00014267,-0.00029997,0.0000
 3190,0.00002645,-0.00012626,-0.00008352,-0.00027533,-0.00010213,0.0000
 2185,-0.00014841,-0.00008316,0.00051188,0.00044657,0.00032470,0.000005
 46,0.00002204,0.00003958,0.00002666,0.00010415,-0.00001856,0.00041836,
 -0.00001711,-0.00046673,0.00057129,-0.00000620,-0.00086230,-0.00371148
 ,-0.00160202,-0.00161338,-0.00047837,-0.00026612,-0.00002281,-0.004039
 30,-0.00622952,0.00425833,0.02030432,-0.01115137,-0.01665745,-0.138945
 39,0.06414323,0.16928410\\-0.00000134,0.00000017,0.00000184,-0.0000033
 8,-0.00000227,0.00000339,0.00000579,0.00000553,0.00000243,0.00000283,-
 0.00000319,-0.00000464,0.00000125,0.00000028,0.00000019,0.00000014,-0.
 00000025,0.00000015,-0.00000055,-0.00000130,-0.00000066,-0.00000346,0.
 00000120,0.00000034,0.00000023,-0.00000147,-0.00000008,0.00000155,0.00
 000005,-0.00000007,0.00000320,0.00000436,-0.00000261,-0.00000101,0.000
 00135,-0.00000006,-0.00000067,-0.00000082,0.00000025,-0.00000169,0.000
 00090,-0.00000049,0.00000288,0.00000103,0.00000194,0.00000225,-0.00000
 532,-0.00000067,-0.00000138,0.00000021,-0.00000120,-0.00000077,-0.0000
 0052,0.00000044,0.,-0.00000070,-0.00000041,-0.00000021,-0.00000078,-0.
 00000084,0.00000084,0.00000123,0.00000070,-0.00000012,-0.00000099,-0.0
 0000009,0.00000029,0.00000015,-0.00000040,-0.00000008,-0.00000003,-0.0
 0000073,-0.00000010,-0.00000054,-0.00000066,0.00000003,0.00000016,0.00
 000033,-0.00000059,0.00000068,-0.00000040,-0.00000039,0.00000047,-0.00
 000006,-0.00000389,0.00000064,0.00000094,-0.00000050,0.,0.00000029,-0.
 00000113,-0.00000026,0.00000085\\\@


 LOGIC IS A SYSTEMATIC METHOD OF COMING TO THE
 WRONG CONCLUSION WITH CONFIDENCE.
 Job cpu time:       0 days  5 hours 44 minutes  4.6 seconds.
 File lengths (MBytes):  RWF=    608 Int=      0 D2E=      0 Chk=     18 Scr=      1
 Normal termination of Gaussian 09 at Sat Jul 24 05:48:02 2021.
