 Entering Gaussian System, Link 0=g09
 Input=opt_freq-conf-599.com
 Output=opt_freq-conf-599.log
 Initial command:
 /aerosol/software/g09/l1.exe "/scratch/nicole/10580/Gau-124137.inp" -scrdir="/scratch/nicole/10580/"
 Entering Link 1 = /aerosol/software/g09/l1.exe PID=    124144.
  
 Copyright (c) 1988,1990,1992,1993,1995,1998,2003,2009,2013,
            Gaussian, Inc.  All Rights Reserved.
  
 This is part of the Gaussian(R) 09 program.  It is based on
 the Gaussian(R) 03 system (copyright 2003, Gaussian, Inc.),
 the Gaussian(R) 98 system (copyright 1998, Gaussian, Inc.),
 the Gaussian(R) 94 system (copyright 1995, Gaussian, Inc.),
 the Gaussian 92(TM) system (copyright 1992, Gaussian, Inc.),
 the Gaussian 90(TM) system (copyright 1990, Gaussian, Inc.),
 the Gaussian 88(TM) system (copyright 1988, Gaussian, Inc.),
 the Gaussian 86(TM) system (copyright 1986, Carnegie Mellon
 University), and the Gaussian 82(TM) system (copyright 1983,
 Carnegie Mellon University). Gaussian is a federally registered
 trademark of Gaussian, Inc.
  
 This software contains proprietary and confidential information,
 including trade secrets, belonging to Gaussian, Inc.
  
 This software is provided under written license and may be
 used, copied, transmitted, or stored only in accord with that
 written license.
  
 The following legend is applicable only to US Government
 contracts under FAR:
  
                    RESTRICTED RIGHTS LEGEND
  
 Use, reproduction and disclosure by the US Government is
 subject to restrictions as set forth in subparagraphs (a)
 and (c) of the Commercial Computer Software - Restricted
 Rights clause in FAR 52.227-19.
  
 Gaussian, Inc.
 340 Quinnipiac St., Bldg. 40, Wallingford CT 06492
  
  
 ---------------------------------------------------------------
 Warning -- This program may not be used in any manner that
 competes with the business of Gaussian, Inc. or will provide
 assistance to any competitor of Gaussian, Inc.  The licensee
 of this program is prohibited from giving any competitor of
 Gaussian, Inc. access to this program.  By using this program,
 the user acknowledges that Gaussian, Inc. is engaged in the
 business of creating and licensing software in the field of
 computational chemistry and represents and warrants to the
 licensee that it is not a competitor of Gaussian, Inc. and that
 it will not use this program in any manner prohibited above.
 ---------------------------------------------------------------
  

 Cite this work as:
 Gaussian 09, Revision D.01,
 M. J. Frisch, G. W. Trucks, H. B. Schlegel, G. E. Scuseria, 
 M. A. Robb, J. R. Cheeseman, G. Scalmani, V. Barone, B. Mennucci, 
 G. A. Petersson, H. Nakatsuji, M. Caricato, X. Li, H. P. Hratchian, 
 A. F. Izmaylov, J. Bloino, G. Zheng, J. L. Sonnenberg, M. Hada, 
 M. Ehara, K. Toyota, R. Fukuda, J. Hasegawa, M. Ishida, T. Nakajima, 
 Y. Honda, O. Kitao, H. Nakai, T. Vreven, J. A. Montgomery, Jr., 
 J. E. Peralta, F. Ogliaro, M. Bearpark, J. J. Heyd, E. Brothers, 
 K. N. Kudin, V. N. Staroverov, T. Keith, R. Kobayashi, J. Normand, 
 K. Raghavachari, A. Rendell, J. C. Burant, S. S. Iyengar, J. Tomasi, 
 M. Cossi, N. Rega, J. M. Millam, M. Klene, J. E. Knox, J. B. Cross, 
 V. Bakken, C. Adamo, J. Jaramillo, R. Gomperts, R. E. Stratmann, 
 O. Yazyev, A. J. Austin, R. Cammi, C. Pomelli, J. W. Ochterski, 
 R. L. Martin, K. Morokuma, V. G. Zakrzewski, G. A. Voth, 
 P. Salvador, J. J. Dannenberg, S. Dapprich, A. D. Daniels, 
 O. Farkas, J. B. Foresman, J. V. Ortiz, J. Cioslowski, 
 and D. J. Fox, Gaussian, Inc., Wallingford CT, 2013.
 
 ******************************************
 Gaussian 09:  ES64L-G09RevD.01 24-Apr-2013
                28-Jul-2021 
 ******************************************
 %mem=2gb
 %nproc=4
 Will use up to    4 processors via shared memory.
 %chk=conf-599.chk
 ----------------------------------------------------------------------
 # B3LYP/6-31+G(d,p) opt=calcfc freq=noraman nosymm integral(ultrafineg
 rid)
 ----------------------------------------------------------------------
 1/10=4,14=-1,18=20,19=15,26=4,38=1/1,3;
 2/9=110,12=2,15=1,17=6,18=5,40=1/2;
 3/5=1,6=6,7=111,11=2,16=1,25=1,30=1,71=2,74=-5,75=-5,140=1/1,2,3;
 4//1;
 5/5=2,38=5/2;
 8/6=4,10=90,11=11/1;
 11/6=1,8=1,9=11,15=111,16=1,31=1/1,2,10;
 10/6=1,13=1,31=1/2;
 6/7=2,8=2,9=2,10=2,28=1/1;
 7/10=1,18=20,25=1,30=1/1,2,3,16;
 1/10=4,14=-1,18=20,19=15,26=4/3(2);
 2/9=110,15=1/2;
 99//99;
 2/9=110,15=1/2;
 3/5=1,6=6,7=111,11=2,16=1,25=1,30=1,71=1,74=-5,75=-5/1,2,3;
 4/5=5,16=3,69=1/1;
 5/5=2,38=5/2;
 7/30=1/1,2,3,16;
 1/14=-1,18=20,19=15,26=4/3(-5);
 2/9=110,15=1/2;
 6/7=2,8=2,9=2,10=2,19=2,28=1/1;
 99/9=1/99;
 ------------------------------------------------------------
 Candidate Structure: Conf:599 OPT and FREQ calc in gas phase
 ------------------------------------------------------------
 Symbolic Z-matrix:
 Charge =  0 Multiplicity = 1
 O                     2.72597   1.58442   0.80496 
 C                     1.89025   0.7942    0.39654 
 N                     1.01823   1.17937  -0.59685 
 C                    -0.22342   0.51242  -0.94559 
 C                    -0.35346   0.36518  -2.47029 
 O                     0.79938   0.38118  -3.14534 
 O                    -1.40833   0.21685  -3.03333 
 C                    -1.43812   1.22132  -0.31345 
 C                    -2.59983   0.32156  -0.04955 
 C                    -3.27608   0.03772   1.09941 
 N                    -4.28908  -0.87107   0.85532 
 C                    -4.21717  -1.12742  -0.42721 
 N                    -3.2084   -0.43415  -1.01823 
 C                     1.79286  -0.63724   0.89213 
 C                     2.89167  -0.97889   1.89448 
 N                     4.25342  -0.88716   1.38912 
 H                     1.0638    2.17973  -0.7571 
 H                    -0.16805  -0.50709  -0.56088 
 H                     1.5207    0.5465   -2.51517 
 H                    -1.72582   2.06197  -0.94728 
 H                    -1.14041   1.63792   0.64684 
 H                    -3.10629   0.4317    2.08936 
 H                    -4.85382  -1.7908   -0.98585 
 H                    -2.91886  -0.4383   -1.98574 
 H                     0.81068  -0.78591   1.35308 
 H                     1.8427   -1.31413   0.03058 
 H                     2.81273  -0.30246   2.7475 
 H                     2.7276   -1.99298   2.26837 
 H                     4.36042  -1.47269   0.5682 
 H                     4.41663   0.06831   1.08825 
 

 GradGradGradGradGradGradGradGradGradGradGradGradGradGradGradGradGradGrad
 Berny optimization.
 Initialization pass.
                           ----------------------------
                           !    Initial Parameters    !
                           ! (Angstroms and Degrees)  !
 --------------------------                            --------------------------
 ! Name  Definition              Value          Derivative Info.                !
 --------------------------------------------------------------------------------
 ! R1    R(1,2)                  1.2205         calculate D2E/DX2 analytically  !
 ! R2    R(2,3)                  1.3768         calculate D2E/DX2 analytically  !
 ! R3    R(2,14)                 1.5179         calculate D2E/DX2 analytically  !
 ! R4    R(3,4)                  1.4519         calculate D2E/DX2 analytically  !
 ! R5    R(3,17)                 1.0141         calculate D2E/DX2 analytically  !
 ! R6    R(4,5)                  1.5373         calculate D2E/DX2 analytically  !
 ! R7    R(4,8)                  1.542          calculate D2E/DX2 analytically  !
 ! R8    R(4,18)                 1.0911         calculate D2E/DX2 analytically  !
 ! R9    R(5,6)                  1.336          calculate D2E/DX2 analytically  !
 ! R10   R(5,7)                  1.2049         calculate D2E/DX2 analytically  !
 ! R11   R(6,19)                 0.972          calculate D2E/DX2 analytically  !
 ! R12   R(8,9)                  1.4929         calculate D2E/DX2 analytically  !
 ! R13   R(8,20)                 1.0914         calculate D2E/DX2 analytically  !
 ! R14   R(8,21)                 1.0883         calculate D2E/DX2 analytically  !
 ! R15   R(9,10)                 1.3631         calculate D2E/DX2 analytically  !
 ! R16   R(9,13)                 1.3711         calculate D2E/DX2 analytically  !
 ! R17   R(10,11)                1.3826         calculate D2E/DX2 analytically  !
 ! R18   R(10,22)                1.0789         calculate D2E/DX2 analytically  !
 ! R19   R(11,12)                1.3099         calculate D2E/DX2 analytically  !
 ! R20   R(12,13)                1.3592         calculate D2E/DX2 analytically  !
 ! R21   R(12,23)                1.0759         calculate D2E/DX2 analytically  !
 ! R22   R(13,24)                1.0099         calculate D2E/DX2 analytically  !
 ! R23   R(14,15)                1.526          calculate D2E/DX2 analytically  !
 ! R24   R(14,25)                1.0951         calculate D2E/DX2 analytically  !
 ! R25   R(14,26)                1.0968         calculate D2E/DX2 analytically  !
 ! R26   R(15,16)                1.4554         calculate D2E/DX2 analytically  !
 ! R27   R(15,27)                1.0915         calculate D2E/DX2 analytically  !
 ! R28   R(15,28)                1.0932         calculate D2E/DX2 analytically  !
 ! R29   R(16,29)                1.014          calculate D2E/DX2 analytically  !
 ! R30   R(16,30)                1.0149         calculate D2E/DX2 analytically  !
 ! A1    A(1,2,3)              119.6035         calculate D2E/DX2 analytically  !
 ! A2    A(1,2,14)             123.04           calculate D2E/DX2 analytically  !
 ! A3    A(3,2,14)             117.3065         calculate D2E/DX2 analytically  !
 ! A4    A(2,3,4)              125.904          calculate D2E/DX2 analytically  !
 ! A5    A(2,3,17)             111.1928         calculate D2E/DX2 analytically  !
 ! A6    A(4,3,17)             116.9738         calculate D2E/DX2 analytically  !
 ! A7    A(3,4,5)              110.7664         calculate D2E/DX2 analytically  !
 ! A8    A(3,4,8)              111.347          calculate D2E/DX2 analytically  !
 ! A9    A(3,4,18)             107.5253         calculate D2E/DX2 analytically  !
 ! A10   A(5,4,8)              112.5815         calculate D2E/DX2 analytically  !
 ! A11   A(5,4,18)             105.3371         calculate D2E/DX2 analytically  !
 ! A12   A(8,4,18)             108.9662         calculate D2E/DX2 analytically  !
 ! A13   A(4,5,6)              115.2759         calculate D2E/DX2 analytically  !
 ! A14   A(4,5,7)              123.32           calculate D2E/DX2 analytically  !
 ! A15   A(6,5,7)              121.3869         calculate D2E/DX2 analytically  !
 ! A16   A(5,6,19)             108.3499         calculate D2E/DX2 analytically  !
 ! A17   A(4,8,9)              114.1036         calculate D2E/DX2 analytically  !
 ! A18   A(4,8,20)             108.8859         calculate D2E/DX2 analytically  !
 ! A19   A(4,8,21)             108.7983         calculate D2E/DX2 analytically  !
 ! A20   A(9,8,20)             111.2071         calculate D2E/DX2 analytically  !
 ! A21   A(9,8,21)             106.7145         calculate D2E/DX2 analytically  !
 ! A22   A(20,8,21)            106.8403         calculate D2E/DX2 analytically  !
 ! A23   A(8,9,10)             131.3425         calculate D2E/DX2 analytically  !
 ! A24   A(8,9,13)             123.5522         calculate D2E/DX2 analytically  !
 ! A25   A(10,9,13)            105.1028         calculate D2E/DX2 analytically  !
 ! A26   A(9,10,11)            110.5822         calculate D2E/DX2 analytically  !
 ! A27   A(9,10,22)            128.2644         calculate D2E/DX2 analytically  !
 ! A28   A(11,10,22)           121.1521         calculate D2E/DX2 analytically  !
 ! A29   A(10,11,12)           105.1456         calculate D2E/DX2 analytically  !
 ! A30   A(11,12,13)           111.5099         calculate D2E/DX2 analytically  !
 ! A31   A(11,12,23)           126.6264         calculate D2E/DX2 analytically  !
 ! A32   A(13,12,23)           121.8634         calculate D2E/DX2 analytically  !
 ! A33   A(9,13,12)            107.6581         calculate D2E/DX2 analytically  !
 ! A34   A(9,13,24)            123.4952         calculate D2E/DX2 analytically  !
 ! A35   A(12,13,24)           128.8467         calculate D2E/DX2 analytically  !
 ! A36   A(2,14,15)            112.2951         calculate D2E/DX2 analytically  !
 ! A37   A(2,14,25)            108.844          calculate D2E/DX2 analytically  !
 ! A38   A(2,14,26)            108.8205         calculate D2E/DX2 analytically  !
 ! A39   A(15,14,25)           109.8114         calculate D2E/DX2 analytically  !
 ! A40   A(15,14,26)           110.1863         calculate D2E/DX2 analytically  !
 ! A41   A(25,14,26)           106.7147         calculate D2E/DX2 analytically  !
 ! A42   A(14,15,16)           115.5643         calculate D2E/DX2 analytically  !
 ! A43   A(14,15,27)           108.8135         calculate D2E/DX2 analytically  !
 ! A44   A(14,15,28)           108.9203         calculate D2E/DX2 analytically  !
 ! A45   A(16,15,27)           107.4558         calculate D2E/DX2 analytically  !
 ! A46   A(16,15,28)           108.521          calculate D2E/DX2 analytically  !
 ! A47   A(27,15,28)           107.2617         calculate D2E/DX2 analytically  !
 ! A48   A(15,16,29)           110.0871         calculate D2E/DX2 analytically  !
 ! A49   A(15,16,30)           108.224          calculate D2E/DX2 analytically  !
 ! A50   A(29,16,30)           106.6573         calculate D2E/DX2 analytically  !
 ! D1    D(1,2,3,4)           -163.0385         calculate D2E/DX2 analytically  !
 ! D2    D(1,2,3,17)           -11.2382         calculate D2E/DX2 analytically  !
 ! D3    D(14,2,3,4)            19.4548         calculate D2E/DX2 analytically  !
 ! D4    D(14,2,3,17)          171.2551         calculate D2E/DX2 analytically  !
 ! D5    D(1,2,14,15)           -2.7675         calculate D2E/DX2 analytically  !
 ! D6    D(1,2,14,25)          119.0351         calculate D2E/DX2 analytically  !
 ! D7    D(1,2,14,26)         -125.0281         calculate D2E/DX2 analytically  !
 ! D8    D(3,2,14,15)          174.6464         calculate D2E/DX2 analytically  !
 ! D9    D(3,2,14,25)          -63.5511         calculate D2E/DX2 analytically  !
 ! D10   D(3,2,14,26)           52.3857         calculate D2E/DX2 analytically  !
 ! D11   D(2,3,4,5)           -134.8834         calculate D2E/DX2 analytically  !
 ! D12   D(2,3,4,8)             99.0215         calculate D2E/DX2 analytically  !
 ! D13   D(2,3,4,18)           -20.2766         calculate D2E/DX2 analytically  !
 ! D14   D(17,3,4,5)            74.7447         calculate D2E/DX2 analytically  !
 ! D15   D(17,3,4,8)           -51.3504         calculate D2E/DX2 analytically  !
 ! D16   D(17,3,4,18)         -170.6486         calculate D2E/DX2 analytically  !
 ! D17   D(3,4,5,6)             23.8293         calculate D2E/DX2 analytically  !
 ! D18   D(3,4,5,7)           -157.6646         calculate D2E/DX2 analytically  !
 ! D19   D(8,4,5,6)            149.2328         calculate D2E/DX2 analytically  !
 ! D20   D(8,4,5,7)            -32.2611         calculate D2E/DX2 analytically  !
 ! D21   D(18,4,5,6)           -92.1433         calculate D2E/DX2 analytically  !
 ! D22   D(18,4,5,7)            86.3628         calculate D2E/DX2 analytically  !
 ! D23   D(3,4,8,9)           -152.0728         calculate D2E/DX2 analytically  !
 ! D24   D(3,4,8,20)            83.0445         calculate D2E/DX2 analytically  !
 ! D25   D(3,4,8,21)           -33.0524         calculate D2E/DX2 analytically  !
 ! D26   D(5,4,8,9)             82.84           calculate D2E/DX2 analytically  !
 ! D27   D(5,4,8,20)           -42.0426         calculate D2E/DX2 analytically  !
 ! D28   D(5,4,8,21)          -158.1396         calculate D2E/DX2 analytically  !
 ! D29   D(18,4,8,9)           -33.6364         calculate D2E/DX2 analytically  !
 ! D30   D(18,4,8,20)         -158.519          calculate D2E/DX2 analytically  !
 ! D31   D(18,4,8,21)           85.384          calculate D2E/DX2 analytically  !
 ! D32   D(4,5,6,19)            -3.6863         calculate D2E/DX2 analytically  !
 ! D33   D(7,5,6,19)           177.776          calculate D2E/DX2 analytically  !
 ! D34   D(4,8,9,10)           122.7649         calculate D2E/DX2 analytically  !
 ! D35   D(4,8,9,13)           -56.5688         calculate D2E/DX2 analytically  !
 ! D36   D(20,8,9,10)         -113.596          calculate D2E/DX2 analytically  !
 ! D37   D(20,8,9,13)           67.0704         calculate D2E/DX2 analytically  !
 ! D38   D(21,8,9,10)            2.5702         calculate D2E/DX2 analytically  !
 ! D39   D(21,8,9,13)         -176.7635         calculate D2E/DX2 analytically  !
 ! D40   D(8,9,10,11)         -179.668          calculate D2E/DX2 analytically  !
 ! D41   D(8,9,10,22)            0.7448         calculate D2E/DX2 analytically  !
 ! D42   D(13,9,10,11)          -0.2431         calculate D2E/DX2 analytically  !
 ! D43   D(13,9,10,22)        -179.8304         calculate D2E/DX2 analytically  !
 ! D44   D(8,9,13,12)          179.8357         calculate D2E/DX2 analytically  !
 ! D45   D(8,9,13,24)           -0.1672         calculate D2E/DX2 analytically  !
 ! D46   D(10,9,13,12)           0.3539         calculate D2E/DX2 analytically  !
 ! D47   D(10,9,13,24)        -179.6491         calculate D2E/DX2 analytically  !
 ! D48   D(9,10,11,12)           0.0335         calculate D2E/DX2 analytically  !
 ! D49   D(22,10,11,12)        179.6548         calculate D2E/DX2 analytically  !
 ! D50   D(10,11,12,13)          0.1996         calculate D2E/DX2 analytically  !
 ! D51   D(10,11,12,23)       -179.6095         calculate D2E/DX2 analytically  !
 ! D52   D(11,12,13,9)          -0.3581         calculate D2E/DX2 analytically  !
 ! D53   D(11,12,13,24)        179.6451         calculate D2E/DX2 analytically  !
 ! D54   D(23,12,13,9)         179.4615         calculate D2E/DX2 analytically  !
 ! D55   D(23,12,13,24)         -0.5354         calculate D2E/DX2 analytically  !
 ! D56   D(2,14,15,16)         -61.6341         calculate D2E/DX2 analytically  !
 ! D57   D(2,14,15,27)          59.314          calculate D2E/DX2 analytically  !
 ! D58   D(2,14,15,28)         175.9403         calculate D2E/DX2 analytically  !
 ! D59   D(25,14,15,16)        177.1165         calculate D2E/DX2 analytically  !
 ! D60   D(25,14,15,27)        -61.9354         calculate D2E/DX2 analytically  !
 ! D61   D(25,14,15,28)         54.6909         calculate D2E/DX2 analytically  !
 ! D62   D(26,14,15,16)         59.8484         calculate D2E/DX2 analytically  !
 ! D63   D(26,14,15,27)       -179.2034         calculate D2E/DX2 analytically  !
 ! D64   D(26,14,15,28)        -62.5771         calculate D2E/DX2 analytically  !
 ! D65   D(14,15,16,29)        -55.923          calculate D2E/DX2 analytically  !
 ! D66   D(14,15,16,30)         60.2916         calculate D2E/DX2 analytically  !
 ! D67   D(27,15,16,29)       -177.6021         calculate D2E/DX2 analytically  !
 ! D68   D(27,15,16,30)        -61.3876         calculate D2E/DX2 analytically  !
 ! D69   D(28,15,16,29)         66.7147         calculate D2E/DX2 analytically  !
 ! D70   D(28,15,16,30)       -177.0708         calculate D2E/DX2 analytically  !
 --------------------------------------------------------------------------------
 Trust Radius=3.00D-01 FncErr=1.00D-07 GrdErr=1.00D-06
 Number of steps in this run=    160 maximum allowed number of steps=    180.
 GradGradGradGradGradGradGradGradGradGradGradGradGradGradGradGradGradGrad

                          Input orientation:                          
 ---------------------------------------------------------------------
 Center     Atomic      Atomic             Coordinates (Angstroms)
 Number     Number       Type             X           Y           Z
 ---------------------------------------------------------------------
      1          8           0        2.725971    1.584423    0.804964
      2          6           0        1.890253    0.794201    0.396535
      3          7           0        1.018228    1.179373   -0.596848
      4          6           0       -0.223423    0.512422   -0.945592
      5          6           0       -0.353465    0.365177   -2.470292
      6          8           0        0.799382    0.381175   -3.145336
      7          8           0       -1.408327    0.216853   -3.033330
      8          6           0       -1.438118    1.221322   -0.313451
      9          6           0       -2.599832    0.321563   -0.049549
     10          6           0       -3.276084    0.037720    1.099414
     11          7           0       -4.289075   -0.871068    0.855325
     12          6           0       -4.217169   -1.127420   -0.427213
     13          7           0       -3.208396   -0.434153   -1.018235
     14          6           0        1.792865   -0.637241    0.892133
     15          6           0        2.891674   -0.978892    1.894484
     16          7           0        4.253425   -0.887160    1.389122
     17          1           0        1.063800    2.179732   -0.757100
     18          1           0       -0.168050   -0.507092   -0.560880
     19          1           0        1.520703    0.546501   -2.515168
     20          1           0       -1.725825    2.061974   -0.947285
     21          1           0       -1.140410    1.637918    0.646836
     22          1           0       -3.106286    0.431698    2.089360
     23          1           0       -4.853822   -1.790798   -0.985847
     24          1           0       -2.918858   -0.438301   -1.985735
     25          1           0        0.810684   -0.785913    1.353080
     26          1           0        1.842697   -1.314126    0.030580
     27          1           0        2.812732   -0.302459    2.747501
     28          1           0        2.727601   -1.992983    2.268367
     29          1           0        4.360421   -1.472691    0.568202
     30          1           0        4.416630    0.068305    1.088249
 ---------------------------------------------------------------------
                    Distance matrix (angstroms):
                    1          2          3          4          5
     1  O    0.000000
     2  C    1.220528   0.000000
     3  N    2.246225   1.376806   0.000000
     4  C    3.593404   2.519590   1.451945   0.000000
     5  C    4.657981   3.665655   2.460538   1.537303   0.000000
     6  O    4.556799   3.729000   2.679516   2.429450   1.336037
     7  O    5.804754   4.793531   3.570863   2.418679   1.204885
     8  C    4.326931   3.429952   2.472997   1.541956   2.561527
     9  C    5.539781   4.536875   3.758421   2.546888   3.302736
    10  C    6.205131   5.268523   4.756237   3.704879   4.625119
    11  N    7.432553   6.416207   5.872017   4.656917   5.298779
    12  C    7.555100   6.455369   5.723588   4.348311   4.618466
    13  N    6.528048   5.432002   4.543719   3.132306   3.301217
    14  C    2.411239   1.517936   2.473300   2.960469   4.113086
    15  C    2.790178   2.527955   3.791391   4.471452   5.602564
    16  N    2.963626   3.065418   4.322167   5.239455   6.138962
    17  H    2.357381   1.983328   1.014138   2.114804   2.869891
    18  H    3.822999   2.616605   2.062211   1.091090   2.107388
    19  H    3.681471   2.945495   2.081576   2.346637   1.883453
    20  H    4.808005   4.060680   2.903725   2.158316   2.661211
    21  H    3.869982   3.155856   2.533126   2.154862   3.457692
    22  H    6.082241   5.287955   4.978589   4.186687   5.326619
    23  H    8.488367   7.353622   6.591981   5.171754   5.206248
    24  H    6.613888   5.506526   4.477335   3.041569   2.731596
    25  H    3.096328   2.139441   2.776264   2.835303   4.159138
    26  H    3.127527   2.140381   2.700176   2.925413   3.727942
    27  H    2.709483   2.753302   4.074401   4.849867   6.139699
    28  H    3.865150   3.460246   4.603830   5.031415   6.124441
    29  H    3.474684   3.357083   4.422786   5.219567   5.901773
    30  H    2.288491   2.718083   3.952614   5.085651   5.958620
                    6          7          8          9         10
     6  O    0.000000
     7  O    2.216648   0.000000
     8  C    3.705648   2.899585   0.000000
     9  C    4.598055   3.214592   1.492913   0.000000
    10  C    5.894513   4.538742   2.602925   1.363084   0.000000
    11  N    6.592859   4.960234   3.724525   2.257146   1.382616
    12  C    5.901681   4.060605   3.640420   2.204078   2.138640
    13  N    4.609946   2.779328   2.524124   1.371061   2.170640
    14  C    4.280810   5.136767   3.917518   4.593675   5.117888
    15  C    5.623812   6.648547   5.335075   5.968843   6.301339
    16  N    5.839554   7.268587   6.303817   7.106188   7.591629
    17  H    3.001399   3.891726   2.715690   4.168407   5.183575
    18  H    2.899026   2.859264   2.159099   2.619482   3.565567
    19  H    0.971981   2.992721   3.749342   4.807149   6.027704
    20  H    3.746089   2.803010   1.091429   2.144493   3.269539
    21  H    4.441031   3.954090   1.088270   2.085103   2.706763
    22  H    6.531373   5.401035   3.029816   2.200808   1.078908
    23  H    6.429586   4.482665   4.603479   3.227877   3.190775
    24  H    3.980141   1.951509   2.782710   2.104279   3.142030
    25  H    4.647362   5.016986   3.444333   3.850388   4.176648
    26  H    3.748199   4.722352   4.160602   4.734761   5.401093
    27  H    6.264700   7.176701   5.455371   6.124438   6.317088
    28  H    6.217945   7.077943   5.860952   6.253911   6.444722
    29  H    5.468838   7.007429   6.454307   7.214297   7.802547
    30  H    5.577241   7.137199   6.129624   7.112627   7.692783
                   11         12         13         14         15
    11  N    0.000000
    12  C    1.309881   0.000000
    13  N    2.206578   1.359246   0.000000
    14  C    6.086545   6.172638   5.357551   0.000000
    15  C    7.256352   7.479839   6.781705   1.526046   0.000000
    16  N    8.559176   8.666473   7.853620   2.522659   1.455393
    17  H    6.368718   6.239769   5.015201   3.344674   4.510978
    18  H    4.372752   4.098541   3.075417   2.444049   3.951370
    19  H    6.864637   6.331251   5.056369   3.617322   4.863273
    20  H    4.292131   4.080381   2.904084   4.801083   6.216415
    21  H    4.031448   4.274006   3.367863   3.720299   4.966088
    22  H    2.149194   3.161969   3.227579   5.155353   6.164679
    23  H    2.134187   1.075857   2.132829   7.002568   8.303506
    24  H    3.183772   2.142309   1.009904   5.524675   7.007898
    25  H    5.124700   5.344659   4.679730   1.095105   2.158908
    26  H    6.202833   6.080001   5.233345   1.096781   2.164919
    27  H    7.371521   7.757505   7.102964   2.143502   1.091527
    28  H    7.244938   7.499679   6.961879   2.146110   1.093201
    29  H    8.675147   8.642055   7.802713   2.719421   2.039627
    30  H    8.759337   8.846970   7.926586   2.724042   2.017951
                   16         17         18         19         20
    16  N    0.000000
    17  H    4.917906   0.000000
    18  H    4.847309   2.962259   0.000000
    19  H    4.976609   2.442745   2.789478   0.000000
    20  H    7.064532   2.798579   3.029203   3.910864   0.000000
    21  H    6.001704   2.668921   2.646720   4.274456   1.750358
    22  H    7.509664   5.342993   4.066734   6.528697   3.712773
    23  H    9.455104   7.129915   4.876982   6.959624   4.962832
    24  H    7.939318   4.921911   3.098691   4.578191   2.958561
    25  H    3.444418   3.648558   2.167696   4.152445   4.453764
    26  H    2.799918   3.665264   2.245938   3.169613   5.008854
    27  H    2.064622   4.637053   4.457839   5.485049   6.311932
    28  H    2.079436   5.416016   4.312460   5.548675   6.827599
    29  H    1.014004   5.095520   4.765949   4.652775   7.199511
    30  H    1.014926   4.370915   4.906119   4.647546   6.771105
                   21         22         23         24         25
    21  H    0.000000
    22  H    2.720388   0.000000
    23  H    5.311419   4.177351   0.000000
    24  H    3.795259   4.171142   2.563808   0.000000
    25  H    3.190690   4.167413   6.210234   5.017769   0.000000
    26  H    4.241846   5.637278   6.789972   5.244522   1.758712
    27  H    4.879056   6.000576   8.656160   7.434589   2.487235
    28  H    5.547460   6.320234   8.252804   7.238572   2.443224
    29  H    6.319906   7.854447   9.349788   7.783346   3.699775
    30  H    5.791306   7.597930   9.679847   7.969656   3.715195
                   26         27         28         29         30
    26  H    0.000000
    27  H    3.057139   0.000000
    28  H    2.500318   1.759173   0.000000
    29  H    2.579363   2.917898   2.413994   0.000000
    30  H    3.107235   2.337322   2.914517   1.627353   0.000000
 Symmetry turned off by external request.
 Stoichiometry    C9H14N4O3
 Framework group  C1[X(C9H14N4O3)]
 Deg. of freedom    84
 Full point group                 C1      NOp   1
 Rotational constants (GHZ):      0.7676288      0.2889335      0.2376474
 Standard basis: 6-31+G(d,p) (6D, 7F)
   374 basis functions,   610 primitive gaussians,   374 cartesian basis functions
    60 alpha electrons       60 beta electrons
       nuclear repulsion energy      1119.2355079682 Hartrees.
 NAtoms=   30 NActive=   30 NUniq=   30 SFac= 1.00D+00 NAtFMM=   60 NAOKFM=F Big=F
 Integral buffers will be    131072 words long.
 Raffenetti 2 integral format.
 Two-electron integral symmetry is turned off.
 One-electron integrals computed using PRISM.
 NBasis=   374 RedAO= T EigKep=  6.10D-06  NBF=   374
 NBsUse=   374 1.00D-06 EigRej= -1.00D+00 NBFU=   374
 ExpMin= 4.38D-02 ExpMax= 5.48D+03 ExpMxC= 8.25D+02 IAcc=3 IRadAn=         5 AccDes= 0.00D+00
 Harris functional with IExCor=  402 and IRadAn=       5 diagonalized for initial guess.
 HarFok:  IExCor=  402 AccDes= 0.00D+00 IRadAn=         5 IDoV= 1 UseB2=F ITyADJ=14
 ICtDFT=  3500011 ScaDFX=  1.000000  1.000000  1.000000  1.000000
 FoFCou: FMM=F IPFlag=           0 FMFlag=      100000 FMFlg1=           0
         NFxFlg=           0 DoJE=T BraDBF=F KetDBF=T FulRan=T
         wScrn=  0.000000 ICntrl=     500 IOpCl=  0 I1Cent=   200000004 NGrid=           0
         NMat0=    1 NMatS0=      1 NMatT0=    0 NMatD0=    1 NMtDS0=    0 NMtDT0=    0
 Symmetry not used in FoFCou.
 Requested convergence on RMS density matrix=1.00D-08 within 128 cycles.
 Requested convergence on MAX density matrix=1.00D-06.
 Requested convergence on             energy=1.00D-06.
 No special actions if energy rises.
 SCF Done:  E(RB3LYP) =  -796.141121999     A.U. after   15 cycles
            NFock= 15  Conv=0.29D-08     -V/T= 2.0088
 DoSCS=F DFT=T ScalE2(SS,OS)=  1.000000  1.000000
 Range of M.O.s used for correlation:     1   374
 NBasis=   374 NAE=    60 NBE=    60 NFC=     0 NFV=     0
 NROrb=    374 NOA=    60 NOB=    60 NVA=   314 NVB=   314

 **** Warning!!: The largest alpha MO coefficient is  0.92764730D+02

 Symmetrizing basis deriv contribution to polar:
 IMax=3 JMax=2 DiffMx= 0.00D+00
 G2DrvN: will do    31 centers at a time, making    1 passes.
 Calling FoFCou, ICntrl=  3107 FMM=F I1Cent=   0 AccDes= 0.00D+00.
 End of G2Drv F.D. properties file   721 does not exist.
 End of G2Drv F.D. properties file   722 does not exist.
 End of G2Drv F.D. properties file   788 does not exist.
          IDoAtm=111111111111111111111111111111
          Differentiating once with respect to nuclear coordinates.
          There are    93 degrees of freedom in the 1st order CPHF.  IDoFFX=6 NUNeed=     0.
     87 vectors produced by pass  0 Test12= 2.03D-14 1.08D-09 XBig12= 2.08D-01 9.29D-02.
 AX will form    87 AO Fock derivatives at one time.
     87 vectors produced by pass  1 Test12= 2.03D-14 1.08D-09 XBig12= 1.98D-02 3.34D-02.
     87 vectors produced by pass  2 Test12= 2.03D-14 1.08D-09 XBig12= 2.76D-04 1.67D-03.
     87 vectors produced by pass  3 Test12= 2.03D-14 1.08D-09 XBig12= 1.05D-06 1.23D-04.
     87 vectors produced by pass  4 Test12= 2.03D-14 1.08D-09 XBig12= 2.30D-09 5.89D-06.
     80 vectors produced by pass  5 Test12= 2.03D-14 1.08D-09 XBig12= 2.93D-12 1.67D-07.
     23 vectors produced by pass  6 Test12= 2.03D-14 1.08D-09 XBig12= 3.16D-15 5.13D-09.
      9 vectors produced by pass  7 Test12= 2.03D-14 1.08D-09 XBig12= 4.43D-16 2.36D-09.
      9 vectors produced by pass  8 Test12= 2.03D-14 1.08D-09 XBig12= 2.52D-15 5.14D-09.
      2 vectors produced by pass  9 Test12= 2.03D-14 1.08D-09 XBig12= 4.49D-16 1.91D-09.
 InvSVY:  IOpt=1 It=  1 EMax= 5.55D-16
 Solved reduced A of dimension   558 with    93 vectors.
 End of Minotr F.D. properties file   721 does not exist.
 End of Minotr F.D. properties file   722 does not exist.
 End of Minotr F.D. properties file   788 does not exist.

 **********************************************************************

            Population analysis using the SCF density.

 **********************************************************************

 Alpha  occ. eigenvalues --  -19.24352 -19.18945 -19.16527 -14.41262 -14.39298
 Alpha  occ. eigenvalues --  -14.32720 -14.32311 -10.36819 -10.33425 -10.29280
 Alpha  occ. eigenvalues --  -10.24568 -10.23881 -10.23290 -10.22917 -10.22878
 Alpha  occ. eigenvalues --  -10.20717  -1.15584  -1.08726  -1.07405  -1.02714
 Alpha  occ. eigenvalues --   -0.98087  -0.90118  -0.88025  -0.83120  -0.79053
 Alpha  occ. eigenvalues --   -0.76427  -0.70323  -0.67369  -0.65987  -0.62012
 Alpha  occ. eigenvalues --   -0.60993  -0.60237  -0.59006  -0.55818  -0.54849
 Alpha  occ. eigenvalues --   -0.52577  -0.50367  -0.49941  -0.49494  -0.48606
 Alpha  occ. eigenvalues --   -0.47069  -0.45480  -0.45016  -0.44586  -0.44223
 Alpha  occ. eigenvalues --   -0.43063  -0.41948  -0.41746  -0.41266  -0.40191
 Alpha  occ. eigenvalues --   -0.39255  -0.37495  -0.36662  -0.33815  -0.31305
 Alpha  occ. eigenvalues --   -0.29644  -0.28917  -0.27572  -0.25351  -0.23984
 Alpha virt. eigenvalues --   -0.04710  -0.03559  -0.02330  -0.01148  -0.00241
 Alpha virt. eigenvalues --    0.00353   0.01141   0.01926   0.02279   0.02819
 Alpha virt. eigenvalues --    0.03119   0.04066   0.04266   0.04855   0.05122
 Alpha virt. eigenvalues --    0.06054   0.06091   0.06349   0.07030   0.07675
 Alpha virt. eigenvalues --    0.07946   0.08649   0.08957   0.09577   0.10304
 Alpha virt. eigenvalues --    0.10553   0.10905   0.11199   0.11648   0.12887
 Alpha virt. eigenvalues --    0.12964   0.13461   0.14134   0.14391   0.15112
 Alpha virt. eigenvalues --    0.15513   0.16292   0.16419   0.16932   0.17408
 Alpha virt. eigenvalues --    0.17686   0.18089   0.18447   0.18858   0.19562
 Alpha virt. eigenvalues --    0.19922   0.20300   0.20429   0.20968   0.21617
 Alpha virt. eigenvalues --    0.21691   0.22419   0.22676   0.22813   0.23049
 Alpha virt. eigenvalues --    0.23871   0.24195   0.24730   0.25020   0.25415
 Alpha virt. eigenvalues --    0.25837   0.25996   0.26254   0.26622   0.26932
 Alpha virt. eigenvalues --    0.27652   0.28069   0.28318   0.28932   0.29613
 Alpha virt. eigenvalues --    0.29742   0.30150   0.30656   0.30884   0.31189
 Alpha virt. eigenvalues --    0.31843   0.33183   0.33367   0.33710   0.34276
 Alpha virt. eigenvalues --    0.35022   0.35594   0.36327   0.36896   0.37541
 Alpha virt. eigenvalues --    0.38535   0.39089   0.40144   0.41473   0.42224
 Alpha virt. eigenvalues --    0.43419   0.43575   0.45093   0.46270   0.48511
 Alpha virt. eigenvalues --    0.48855   0.50038   0.52887   0.62481   0.63186
 Alpha virt. eigenvalues --    0.64135   0.67470   0.68303   0.68975   0.69526
 Alpha virt. eigenvalues --    0.70609   0.71626   0.72604   0.73909   0.74923
 Alpha virt. eigenvalues --    0.75948   0.77037   0.78676   0.79181   0.81144
 Alpha virt. eigenvalues --    0.82297   0.83155   0.84343   0.84618   0.85803
 Alpha virt. eigenvalues --    0.86742   0.88481   0.89439   0.90300   0.90608
 Alpha virt. eigenvalues --    0.91467   0.92468   0.94072   0.95920   0.96244
 Alpha virt. eigenvalues --    0.97348   0.99233   0.99726   1.01057   1.02449
 Alpha virt. eigenvalues --    1.03345   1.04644   1.05371   1.06237   1.06360
 Alpha virt. eigenvalues --    1.07432   1.08298   1.09383   1.11128   1.11776
 Alpha virt. eigenvalues --    1.12926   1.13977   1.16255   1.16646   1.17360
 Alpha virt. eigenvalues --    1.18372   1.19722   1.21833   1.23245   1.23278
 Alpha virt. eigenvalues --    1.25645   1.26545   1.27762   1.28263   1.29251
 Alpha virt. eigenvalues --    1.30638   1.31438   1.31668   1.33007   1.33697
 Alpha virt. eigenvalues --    1.34455   1.35121   1.36233   1.39873   1.40024
 Alpha virt. eigenvalues --    1.40663   1.42897   1.43722   1.45230   1.45947
 Alpha virt. eigenvalues --    1.48654   1.49825   1.50421   1.53032   1.53258
 Alpha virt. eigenvalues --    1.55392   1.56974   1.58889   1.60790   1.64062
 Alpha virt. eigenvalues --    1.66845   1.68511   1.70362   1.72721   1.73290
 Alpha virt. eigenvalues --    1.75064   1.75786   1.76464   1.77453   1.79207
 Alpha virt. eigenvalues --    1.81628   1.82272   1.83695   1.85724   1.87087
 Alpha virt. eigenvalues --    1.89195   1.90391   1.91093   1.92079   1.92759
 Alpha virt. eigenvalues --    1.96011   1.97159   1.98798   2.00532   2.01854
 Alpha virt. eigenvalues --    2.03053   2.04176   2.05222   2.06760   2.08036
 Alpha virt. eigenvalues --    2.09894   2.10495   2.11752   2.13933   2.14391
 Alpha virt. eigenvalues --    2.16090   2.18419   2.18762   2.20639   2.22776
 Alpha virt. eigenvalues --    2.24428   2.25018   2.25916   2.27518   2.29851
 Alpha virt. eigenvalues --    2.31115   2.31945   2.34733   2.35264   2.37444
 Alpha virt. eigenvalues --    2.38879   2.41149   2.42310   2.43366   2.45197
 Alpha virt. eigenvalues --    2.45469   2.47314   2.48137   2.50808   2.51922
 Alpha virt. eigenvalues --    2.53203   2.53743   2.55092   2.55723   2.57341
 Alpha virt. eigenvalues --    2.58037   2.60168   2.61719   2.63716   2.64224
 Alpha virt. eigenvalues --    2.65737   2.66769   2.68106   2.69685   2.71622
 Alpha virt. eigenvalues --    2.72298   2.75081   2.76555   2.77293   2.80731
 Alpha virt. eigenvalues --    2.81931   2.83920   2.86379   2.87284   2.88547
 Alpha virt. eigenvalues --    2.89176   2.91602   2.93372   2.94049   2.98996
 Alpha virt. eigenvalues --    3.00747   3.01729   3.04276   3.06004   3.10568
 Alpha virt. eigenvalues --    3.17319   3.20008   3.21081   3.25462   3.31107
 Alpha virt. eigenvalues --    3.32847   3.33048   3.36476   3.38867   3.40336
 Alpha virt. eigenvalues --    3.43061   3.49093   3.49873   3.50674   3.55309
 Alpha virt. eigenvalues --    3.59602   3.60821   3.75979   4.14502   4.20224
 Alpha virt. eigenvalues --    4.21274   4.28607   4.30548   4.33471   4.39568
 Alpha virt. eigenvalues --    4.41569   4.44297   4.53832   4.59861   4.61619
 Alpha virt. eigenvalues --    4.67764   4.72486   4.78527   4.82465
          Condensed to atoms (all electrons):
               1          2          3          4          5          6
     1  O    8.222410   0.392184  -0.098019   0.028759   0.011807   0.001410
     2  C    0.392184   5.912429   0.213417  -0.630692   0.139870  -0.020603
     3  N   -0.098019   0.213417   8.165751  -1.539992   0.470201   0.065292
     4  C    0.028759  -0.630692  -1.539992  12.757484  -2.666556  -0.256410
     5  C    0.011807   0.139870   0.470201  -2.666556   7.904758   0.251179
     6  O    0.001410  -0.020603   0.065292  -0.256410   0.251179   8.219558
     7  O    0.000098  -0.004926  -0.001665  -0.050273   0.438231  -0.114338
     8  C   -0.020245  -0.120647  -0.297652   0.791502  -1.184051  -0.042408
     9  C    0.003366   0.161189   0.398659  -1.840006   0.113185   0.057710
    10  C   -0.000717  -0.034218  -0.003348   0.380170   0.117268   0.005257
    11  N   -0.000012   0.002633   0.003691  -0.019819   0.000766  -0.000028
    12  C    0.000017   0.006537   0.022864  -0.051886   0.042801   0.002162
    13  N    0.000175   0.004928   0.018684  -0.084188   0.123122  -0.003247
    14  C   -0.098963  -0.363203  -0.291693   0.277796  -0.191233   0.022804
    15  C    0.030128  -0.048164   0.176541  -0.777014  -0.148609   0.005221
    16  N   -0.024304  -0.003719  -0.035973   0.073904   0.013437  -0.000134
    17  H    0.012428   0.001958   0.223893   0.105238  -0.055244  -0.003472
    18  H    0.001791  -0.019147  -0.026507   0.247261  -0.002525   0.002007
    19  H   -0.001676   0.005823   0.020446   0.009801  -0.000866   0.188656
    20  H    0.000580  -0.003713   0.004865  -0.162869   0.067181   0.000487
    21  H   -0.001287  -0.000862   0.002412  -0.038156  -0.007665  -0.000405
    22  H    0.000000  -0.000465  -0.000210   0.010161  -0.000759   0.000000
    23  H    0.000000  -0.000025  -0.000026   0.003626  -0.001278   0.000000
    24  H    0.000000  -0.000181  -0.000107   0.008129  -0.004434   0.000765
    25  H    0.003870  -0.022274  -0.022213   0.064739   0.026406  -0.000135
    26  H    0.001512  -0.019935   0.021966  -0.093577  -0.014336   0.000322
    27  H   -0.001386  -0.013730  -0.001099  -0.017541  -0.000402   0.000006
    28  H    0.000494   0.027637  -0.002084   0.008561   0.000713  -0.000011
    29  H   -0.001232  -0.005807  -0.000477  -0.005950   0.000004   0.000016
    30  H    0.008806   0.022395   0.000249   0.008559  -0.000109  -0.000026
               7          8          9         10         11         12
     1  O    0.000098  -0.020245   0.003366  -0.000717  -0.000012   0.000017
     2  C   -0.004926  -0.120647   0.161189  -0.034218   0.002633   0.006537
     3  N   -0.001665  -0.297652   0.398659  -0.003348   0.003691   0.022864
     4  C   -0.050273   0.791502  -1.840006   0.380170  -0.019819  -0.051886
     5  C    0.438231  -1.184051   0.113185   0.117268   0.000766   0.042801
     6  O   -0.114338  -0.042408   0.057710   0.005257  -0.000028   0.002162
     7  O    8.225637  -0.091033   0.010041   0.021553   0.000619   0.014572
     8  C   -0.091033   9.733291  -2.138011  -0.598700  -0.060555  -0.231028
     9  C    0.010041  -2.138011   9.751170  -0.831958  -0.091506  -0.122134
    10  C    0.021553  -0.598700  -0.831958   6.881687   0.389011  -0.312528
    11  N    0.000619  -0.060555  -0.091506   0.389011   6.787290   0.421520
    12  C    0.014572  -0.231028  -0.122134  -0.312528   0.421520   5.377571
    13  N    0.000898  -0.197579   0.318683  -0.165453  -0.026039   0.114149
    14  C   -0.004532  -0.046726  -0.026379  -0.010434   0.002203   0.012750
    15  C   -0.001880   0.090789   0.081976  -0.016693   0.001353   0.002915
    16  N    0.000052  -0.013423  -0.005599   0.000697  -0.000008   0.000118
    17  H    0.000468  -0.000198  -0.014249  -0.001743  -0.000024  -0.000228
    18  H   -0.003213   0.013107   0.035954  -0.021501  -0.000291  -0.001672
    19  H    0.013710   0.024519  -0.004430  -0.001671  -0.000005  -0.000354
    20  H   -0.000918   0.540082  -0.098627  -0.022856  -0.002383  -0.009017
    21  H    0.000304   0.468395  -0.137066   0.016427   0.000195   0.000411
    22  H   -0.000030   0.032021  -0.106502   0.398728  -0.062715   0.027385
    23  H   -0.000428   0.016034   0.028961  -0.025966  -0.053770   0.445496
    24  H    0.015550  -0.065336   0.085293   0.001069   0.008664  -0.027183
    25  H    0.000095  -0.004798  -0.036222   0.004288  -0.000052   0.000372
    26  H    0.000027   0.008067   0.016456  -0.001309   0.000025  -0.000021
    27  H    0.000000  -0.000401   0.001686  -0.000142   0.000001   0.000006
    28  H    0.000000  -0.001529   0.000371   0.000166   0.000000   0.000021
    29  H   -0.000001   0.000059   0.000142  -0.000008   0.000000  -0.000001
    30  H    0.000000   0.000102   0.000133   0.000010   0.000000   0.000000
              13         14         15         16         17         18
     1  O    0.000175  -0.098963   0.030128  -0.024304   0.012428   0.001791
     2  C    0.004928  -0.363203  -0.048164  -0.003719   0.001958  -0.019147
     3  N    0.018684  -0.291693   0.176541  -0.035973   0.223893  -0.026507
     4  C   -0.084188   0.277796  -0.777014   0.073904   0.105238   0.247261
     5  C    0.123122  -0.191233  -0.148609   0.013437  -0.055244  -0.002525
     6  O   -0.003247   0.022804   0.005221  -0.000134  -0.003472   0.002007
     7  O    0.000898  -0.004532  -0.001880   0.000052   0.000468  -0.003213
     8  C   -0.197579  -0.046726   0.090789  -0.013423  -0.000198   0.013107
     9  C    0.318683  -0.026379   0.081976  -0.005599  -0.014249   0.035954
    10  C   -0.165453  -0.010434  -0.016693   0.000697  -0.001743  -0.021501
    11  N   -0.026039   0.002203   0.001353  -0.000008  -0.000024  -0.000291
    12  C    0.114149   0.012750   0.002915   0.000118  -0.000228  -0.001672
    13  N    7.040546   0.001122   0.000035   0.000153  -0.000274   0.001654
    14  C    0.001122   7.947879  -1.979826   0.190915   0.012003   0.033604
    15  C    0.000035  -1.979826   8.347671  -0.143912  -0.001879   0.013927
    16  N    0.000153   0.190915  -0.143912   6.915835   0.000421   0.000420
    17  H   -0.000274   0.012003  -0.001879   0.000421   0.381655   0.003513
    18  H    0.001654   0.033604   0.013927   0.000420   0.003513   0.527934
    19  H   -0.000278  -0.013309  -0.002909   0.000232  -0.000634  -0.000149
    20  H   -0.005489  -0.006604  -0.000808  -0.000002   0.001391   0.004385
    21  H    0.013398   0.004723  -0.000380   0.000023  -0.000759  -0.001460
    22  H    0.002734   0.001182   0.000161   0.000000   0.000000  -0.000024
    23  H   -0.109372  -0.000015  -0.000004   0.000000   0.000000  -0.000001
    24  H    0.265139   0.000007  -0.000023   0.000000   0.000000   0.000306
    25  H    0.001562   0.347457  -0.066281   0.021365  -0.000306  -0.000698
    26  H   -0.000249   0.280782   0.134427  -0.027363  -0.000110   0.001380
    27  H   -0.000003  -0.155384   0.564327  -0.056319   0.000003   0.000012
    28  H    0.000008  -0.000884   0.313418  -0.032255   0.000003   0.000004
    29  H   -0.000001   0.012190  -0.026297   0.334653  -0.000001   0.000001
    30  H    0.000000   0.027066  -0.111640   0.372897   0.000003  -0.000002
              19         20         21         22         23         24
     1  O   -0.001676   0.000580  -0.001287   0.000000   0.000000   0.000000
     2  C    0.005823  -0.003713  -0.000862  -0.000465  -0.000025  -0.000181
     3  N    0.020446   0.004865   0.002412  -0.000210  -0.000026  -0.000107
     4  C    0.009801  -0.162869  -0.038156   0.010161   0.003626   0.008129
     5  C   -0.000866   0.067181  -0.007665  -0.000759  -0.001278  -0.004434
     6  O    0.188656   0.000487  -0.000405   0.000000   0.000000   0.000765
     7  O    0.013710  -0.000918   0.000304  -0.000030  -0.000428   0.015550
     8  C    0.024519   0.540082   0.468395   0.032021   0.016034  -0.065336
     9  C   -0.004430  -0.098627  -0.137066  -0.106502   0.028961   0.085293
    10  C   -0.001671  -0.022856   0.016427   0.398728  -0.025966   0.001069
    11  N   -0.000005  -0.002383   0.000195  -0.062715  -0.053770   0.008664
    12  C   -0.000354  -0.009017   0.000411   0.027385   0.445496  -0.027183
    13  N   -0.000278  -0.005489   0.013398   0.002734  -0.109372   0.265139
    14  C   -0.013309  -0.006604   0.004723   0.001182  -0.000015   0.000007
    15  C   -0.002909  -0.000808  -0.000380   0.000161  -0.000004  -0.000023
    16  N    0.000232  -0.000002   0.000023   0.000000   0.000000   0.000000
    17  H   -0.000634   0.001391  -0.000759   0.000000   0.000000   0.000000
    18  H   -0.000149   0.004385  -0.001460  -0.000024  -0.000001   0.000306
    19  H    0.375044   0.000016  -0.000025   0.000000   0.000000  -0.000021
    20  H    0.000016   0.545578  -0.031847  -0.000063  -0.000003   0.000631
    21  H   -0.000025  -0.031847   0.545356   0.001888   0.000004  -0.000050
    22  H    0.000000  -0.000063   0.001888   0.572580  -0.000045  -0.000090
    23  H    0.000000  -0.000003   0.000004  -0.000045   0.562360   0.000349
    24  H   -0.000021   0.000631  -0.000050  -0.000090   0.000349   0.367516
    25  H    0.000047  -0.000003   0.000216  -0.000019   0.000000   0.000000
    26  H   -0.000471   0.000000   0.000005   0.000000   0.000000   0.000000
    27  H    0.000000   0.000000   0.000003   0.000000   0.000000   0.000000
    28  H    0.000000   0.000000   0.000000   0.000000   0.000000   0.000000
    29  H   -0.000002   0.000000   0.000000   0.000000   0.000000   0.000000
    30  H    0.000004   0.000000   0.000000   0.000000   0.000000   0.000000
              25         26         27         28         29         30
     1  O    0.003870   0.001512  -0.001386   0.000494  -0.001232   0.008806
     2  C   -0.022274  -0.019935  -0.013730   0.027637  -0.005807   0.022395
     3  N   -0.022213   0.021966  -0.001099  -0.002084  -0.000477   0.000249
     4  C    0.064739  -0.093577  -0.017541   0.008561  -0.005950   0.008559
     5  C    0.026406  -0.014336  -0.000402   0.000713   0.000004  -0.000109
     6  O   -0.000135   0.000322   0.000006  -0.000011   0.000016  -0.000026
     7  O    0.000095   0.000027   0.000000   0.000000  -0.000001   0.000000
     8  C   -0.004798   0.008067  -0.000401  -0.001529   0.000059   0.000102
     9  C   -0.036222   0.016456   0.001686   0.000371   0.000142   0.000133
    10  C    0.004288  -0.001309  -0.000142   0.000166  -0.000008   0.000010
    11  N   -0.000052   0.000025   0.000001   0.000000   0.000000   0.000000
    12  C    0.000372  -0.000021   0.000006   0.000021  -0.000001   0.000000
    13  N    0.001562  -0.000249  -0.000003   0.000008  -0.000001   0.000000
    14  C    0.347457   0.280782  -0.155384  -0.000884   0.012190   0.027066
    15  C   -0.066281   0.134427   0.564327   0.313418  -0.026297  -0.111640
    16  N    0.021365  -0.027363  -0.056319  -0.032255   0.334653   0.372897
    17  H   -0.000306  -0.000110   0.000003   0.000003  -0.000001   0.000003
    18  H   -0.000698   0.001380   0.000012   0.000004   0.000001  -0.000002
    19  H    0.000047  -0.000471   0.000000   0.000000  -0.000002   0.000004
    20  H   -0.000003   0.000000   0.000000   0.000000   0.000000   0.000000
    21  H    0.000216   0.000005   0.000003   0.000000   0.000000   0.000000
    22  H   -0.000019   0.000000   0.000000   0.000000   0.000000   0.000000
    23  H    0.000000   0.000000   0.000000   0.000000   0.000000   0.000000
    24  H    0.000000   0.000000   0.000000   0.000000   0.000000   0.000000
    25  H    0.542216  -0.031449  -0.002265  -0.001618  -0.000152  -0.000159
    26  H   -0.031449   0.553323   0.004068  -0.004616   0.003778  -0.000036
    27  H   -0.002265   0.004068   0.545455  -0.029780   0.006260  -0.006041
    28  H   -0.001618  -0.004616  -0.029780   0.581158  -0.006797   0.005589
    29  H   -0.000152   0.003778   0.006260  -0.006797   0.453456  -0.041581
    30  H   -0.000159  -0.000036  -0.006041   0.005589  -0.041581   0.391322
 Mulliken charges:
               1
     1  O   -0.471995
     2  C    0.421312
     3  N   -0.487866
     4  C   -0.540761
     5  C    0.557133
     6  O   -0.381635
     7  O   -0.468619
     8  C   -0.603647
     9  C    0.387716
    10  C   -0.167085
    11  N   -0.300762
    12  C    0.264385
    13  N   -0.314818
    14  C    0.014702
    15  C   -0.436571
    16  N   -0.582110
    17  H    0.336146
    18  H    0.189930
    19  H    0.388503
    20  H    0.180006
    21  H    0.166202
    22  H    0.124080
    23  H    0.134103
    24  H    0.344008
    25  H    0.176014
    26  H    0.167329
    27  H    0.162667
    28  H    0.141429
    29  H    0.277746
    30  H    0.322459
 Sum of Mulliken charges =   0.00000
 Mulliken charges with hydrogens summed into heavy atoms:
               1
     1  O   -0.471995
     2  C    0.421312
     3  N   -0.151720
     4  C   -0.350832
     5  C    0.557133
     6  O    0.006868
     7  O   -0.468619
     8  C   -0.257439
     9  C    0.387716
    10  C   -0.043005
    11  N   -0.300762
    12  C    0.398488
    13  N    0.029189
    14  C    0.358045
    15  C   -0.132475
    16  N    0.018094
 APT charges:
               1
     1  O   -0.066683
     2  C   -0.006561
     3  N   -0.845312
     4  C   -0.307994
     5  C   -0.021946
     6  O   -0.210596
     7  O   -0.005365
     8  C   -1.357210
     9  C   -0.206258
    10  C   -0.031253
    11  N   -0.364938
    12  C   -0.319688
    13  N   -0.483542
    14  C    0.303667
    15  C   -1.760862
    16  N   -0.458251
    17  H    0.712368
    18  H    0.244423
    19  H    0.370763
    20  H    0.570063
    21  H    0.317996
    22  H    0.437609
    23  H    0.951334
    24  H    0.473373
    25  H    0.193840
    26  H    0.313209
    27  H    0.450858
    28  H    0.505008
    29  H    0.339030
    30  H    0.262919
 Sum of APT charges =   0.00000
 APT charges with hydrogens summed into heavy atoms:
               1
     1  O   -0.066683
     2  C   -0.006561
     3  N   -0.132944
     4  C   -0.063571
     5  C   -0.021946
     6  O    0.160167
     7  O   -0.005365
     8  C   -0.469152
     9  C   -0.206258
    10  C    0.406356
    11  N   -0.364938
    12  C    0.631646
    13  N   -0.010168
    14  C    0.810716
    15  C   -0.804996
    16  N    0.143698
 Electronic spatial extent (au):  <R**2>=           4660.1409
 Charge=              0.0000 electrons
 Dipole moment (field-independent basis, Debye):
    X=              1.2623    Y=              0.3592    Z=             -2.0481  Tot=              2.4325
 Quadrupole moment (field-independent basis, Debye-Ang):
   XX=           -126.9482   YY=            -93.5709   ZZ=           -108.9782
   XY=             -5.5695   XZ=             -3.2107   YZ=              2.2606
 Traceless Quadrupole moment (field-independent basis, Debye-Ang):
   XX=            -17.1158   YY=             16.2615   ZZ=              0.8543
   XY=             -5.5695   XZ=             -3.2107   YZ=              2.2606
 Octapole moment (field-independent basis, Debye-Ang**2):
  XXX=             85.4086  YYY=            -20.1103  ZZZ=            119.6937  XYY=             17.7937
  XXY=             -3.4813  XXZ=            -81.2988  XZZ=             21.8674  YZZ=             -3.9760
  YYZ=              5.4911  XYZ=            -17.5412
 Hexadecapole moment (field-independent basis, Debye-Ang**3):
 XXXX=          -4973.2256 YYYY=           -542.1306 ZZZZ=          -1660.1555 XXXY=            -53.1112
 XXXZ=           -315.1527 YYYX=           -111.4908 YYYZ=            100.2449 ZZZX=           -366.8630
 ZZZY=            142.7752 XXYY=           -825.3282 XXZZ=          -1046.0422 YYZZ=           -332.3699
 XXYZ=            161.5560 YYXZ=           -101.4427 ZZXY=            -11.8601
 N-N= 1.119235507968D+03 E-N=-4.092428364384D+03  KE= 7.891581418990D+02
  Exact polarizability:   0.000   0.000   0.000   0.000   0.000   0.000
 Approx polarizability: 221.866  31.091 180.026   8.370   6.801 210.475
 Calling FoFJK, ICntrl=    100147 FMM=F ISym2X=0 I1Cent= 0 IOpClX= 0 NMat=1 NMatS=1 NMatT=0.
 -------------------------------------------------------------------
 Center     Atomic                   Forces (Hartrees/Bohr)
 Number     Number              X              Y              Z
 -------------------------------------------------------------------
      1        8           0.004283986    0.006214266    0.003206174
      2        6           0.001381434   -0.005594790    0.002692388
      3        7           0.002776480    0.001495234   -0.007941289
      4        6          -0.000917843    0.002950224    0.003179488
      5        6           0.008885913    0.002020774    0.005318577
      6        8           0.000956612   -0.001600721   -0.005519547
      7        8          -0.009819164   -0.001921168   -0.008256514
      8        6          -0.007097251   -0.003243489   -0.000139294
      9        6           0.007743254    0.005421014   -0.005692083
     10        6          -0.009719697   -0.006175835    0.010348908
     11        7          -0.001555867    0.002007053    0.010358543
     12        6           0.000512827   -0.000574421   -0.003068064
     13        7          -0.002119961   -0.001714418   -0.006743951
     14        6          -0.001986308    0.000094098   -0.000445276
     15        6           0.003690904   -0.000651010    0.003955978
     16        7           0.000941561    0.000830481   -0.002067166
     17        1          -0.000976808    0.002849646   -0.001134770
     18        1          -0.001029935   -0.001515496    0.000294031
     19        1           0.003252763    0.001991573    0.001994360
     20        1          -0.001358906    0.003678240   -0.002584771
     21        1           0.003174589    0.001001000    0.002549543
     22        1           0.000499113    0.000870025    0.001740775
     23        1          -0.002838683   -0.003039788   -0.000787918
     24        1          -0.000063341    0.000568371   -0.004220210
     25        1          -0.002427962   -0.001092803    0.001014772
     26        1          -0.000446342   -0.001838810   -0.000789095
     27        1          -0.000498712    0.000337855    0.002311944
     28        1          -0.001293094   -0.001278762    0.000661844
     29        1           0.002841331   -0.004144793   -0.001618238
     30        1           0.003209108    0.002056450    0.001380864
 -------------------------------------------------------------------
 Cartesian Forces:  Max     0.010358543 RMS     0.003845343
 FormGI is forming the generalized inverse of G from B-inverse, IUseBI=4.
 GSVD:  received Info=                   1 from GESDD.

 GradGradGradGradGradGradGradGradGradGradGradGradGradGradGradGradGradGrad
 Berny optimization.
 Internal  Forces:  Max     0.016275494 RMS     0.003931671
 Search for a local minimum.
 Step number   1 out of a maximum of  160
 All quantities printed in internal units (Hartrees-Bohrs-Radians)
 Mixed Optimization -- RFO/linear search
 Second derivative matrix not updated -- analytic derivatives used.
 ITU=  0
     Eigenvalues ---    0.00065   0.00224   0.00321   0.00368   0.00434
     Eigenvalues ---    0.00518   0.00691   0.00916   0.00960   0.01594
     Eigenvalues ---    0.01623   0.02091   0.02641   0.03017   0.03555
     Eigenvalues ---    0.03642   0.04133   0.04265   0.04309   0.04436
     Eigenvalues ---    0.04478   0.04832   0.05060   0.05092   0.05458
     Eigenvalues ---    0.05676   0.06190   0.06348   0.07679   0.08130
     Eigenvalues ---    0.08711   0.10546   0.10897   0.11012   0.11687
     Eigenvalues ---    0.11825   0.12638   0.12787   0.15073   0.16483
     Eigenvalues ---    0.16662   0.18668   0.18756   0.19202   0.20101
     Eigenvalues ---    0.21803   0.22336   0.22581   0.23514   0.23648
     Eigenvalues ---    0.24949   0.25320   0.27699   0.28251   0.31474
     Eigenvalues ---    0.32427   0.33183   0.33647   0.33812   0.34089
     Eigenvalues ---    0.34101   0.34824   0.35080   0.35282   0.35488
     Eigenvalues ---    0.37673   0.37967   0.38464   0.38495   0.40095
     Eigenvalues ---    0.42621   0.43545   0.45487   0.45640   0.45801
     Eigenvalues ---    0.46150   0.47248   0.48645   0.49203   0.51052
     Eigenvalues ---    0.60125   0.67544   0.84694   0.92061
 RFO step:  Lambda=-6.03928179D-03 EMin= 6.45573674D-04
 Linear search not attempted -- first point.
 Iteration  1 RMS(Cart)=  0.07693885 RMS(Int)=  0.00107180
 Iteration  2 RMS(Cart)=  0.00154077 RMS(Int)=  0.00022928
 Iteration  3 RMS(Cart)=  0.00000138 RMS(Int)=  0.00022928
 Iteration  4 RMS(Cart)=  0.00000000 RMS(Int)=  0.00022928
 Variable       Old X    -DE/DX   Delta X   Delta X   Delta X     New X
                                 (Linear)    (Quad)   (Total)
    R1        2.30646   0.00803   0.00000   0.00601   0.00601   2.31247
    R2        2.60179   0.01499   0.00000   0.03265   0.03265   2.63444
    R3        2.86848   0.00654   0.00000   0.00901   0.00901   2.87749
    R4        2.74378   0.00979   0.00000   0.02245   0.02245   2.76623
    R5        1.91644   0.00295   0.00000   0.00654   0.00654   1.92299
    R6        2.90508   0.00609   0.00000   0.01513   0.01513   2.92021
    R7        2.91387   0.01027   0.00000   0.02490   0.02490   2.93877
    R8        2.06186   0.00147   0.00000   0.00609   0.00609   2.06795
    R9        2.52474   0.00542   0.00000   0.00819   0.00819   2.53293
   R10        2.27690   0.01269   0.00000   0.01436   0.01436   2.29126
   R11        1.83678   0.00405   0.00000   0.00965   0.00965   1.84642
   R12        2.82120   0.00780   0.00000   0.00836   0.00836   2.82956
   R13        2.06250   0.00469   0.00000   0.01276   0.01276   2.07526
   R14        2.05653   0.00350   0.00000   0.01051   0.01051   2.06704
   R15        2.57586   0.01628   0.00000   0.02966   0.02968   2.60553
   R16        2.59093   0.00960   0.00000   0.01857   0.01861   2.60954
   R17        2.61277  -0.00193   0.00000  -0.01131  -0.01135   2.60141
   R18        2.03884   0.00199   0.00000   0.00563   0.00563   2.04447
   R19        2.47532   0.00900   0.00000   0.01618   0.01615   2.49146
   R20        2.56860   0.00738   0.00000   0.01027   0.01028   2.57888
   R21        2.03308   0.00396   0.00000   0.00960   0.00960   2.04268
   R22        1.90844   0.00402   0.00000   0.00893   0.00893   1.91737
   R23        2.88381   0.01008   0.00000   0.02952   0.02952   2.91332
   R24        2.06945   0.00275   0.00000   0.00833   0.00833   2.07778
   R25        2.07262   0.00173   0.00000   0.00434   0.00434   2.07695
   R26        2.75029   0.00726   0.00000   0.00470   0.00470   2.75499
   R27        2.06269   0.00205   0.00000   0.00479   0.00479   2.06748
   R28        2.06585   0.00161   0.00000   0.00467   0.00467   2.07052
   R29        1.91619   0.00400   0.00000   0.00477   0.00477   1.92096
   R30        1.91793   0.00204   0.00000   0.00209   0.00209   1.92003
    A1        2.08747  -0.00380   0.00000  -0.00901  -0.00901   2.07846
    A2        2.14745  -0.00189   0.00000  -0.00323  -0.00324   2.14421
    A3        2.04738   0.00571   0.00000   0.01248   0.01247   2.05986
    A4        2.19744   0.00625   0.00000   0.01134   0.01127   2.20871
    A5        1.94068  -0.00173   0.00000  -0.00517  -0.00527   1.93541
    A6        2.04158  -0.00399   0.00000  -0.01725  -0.01731   2.02427
    A7        1.93324  -0.00619   0.00000  -0.01524  -0.01533   1.91791
    A8        1.94337   0.00346   0.00000   0.02426   0.02428   1.96765
    A9        1.87667   0.00040   0.00000   0.00132   0.00130   1.87797
   A10        1.96492   0.00394   0.00000   0.00244   0.00248   1.96740
   A11        1.83848   0.00054   0.00000  -0.00401  -0.00405   1.83443
   A12        1.90182  -0.00244   0.00000  -0.01055  -0.01058   1.89124
   A13        2.01194   0.00018   0.00000   0.00476   0.00476   2.01670
   A14        2.15234   0.00293   0.00000   0.00034   0.00034   2.15268
   A15        2.11860  -0.00311   0.00000  -0.00521  -0.00522   2.11339
   A16        1.89106   0.00106   0.00000  -0.00506  -0.00506   1.88601
   A17        1.99148   0.01105   0.00000   0.02518   0.02517   2.01665
   A18        1.90042  -0.00160   0.00000   0.00090   0.00071   1.90112
   A19        1.89889  -0.00619   0.00000  -0.03194  -0.03195   1.86694
   A20        1.94093  -0.00322   0.00000  -0.00226  -0.00241   1.93852
   A21        1.86252  -0.00234   0.00000   0.00515   0.00540   1.86792
   A22        1.86471   0.00164   0.00000   0.00060   0.00047   1.86519
   A23        2.29236  -0.00434   0.00000  -0.00612  -0.00626   2.28610
   A24        2.15639   0.00667   0.00000   0.01266   0.01251   2.16890
   A25        1.83439  -0.00232   0.00000  -0.00631  -0.00631   1.82807
   A26        1.93002   0.00201   0.00000   0.00608   0.00609   1.93611
   A27        2.23864  -0.00126   0.00000  -0.01053  -0.01054   2.22809
   A28        2.11450  -0.00075   0.00000   0.00443   0.00442   2.11892
   A29        1.83514  -0.00026   0.00000  -0.00081  -0.00086   1.83428
   A30        1.94622   0.00274   0.00000   0.00582   0.00583   1.95204
   A31        2.21005  -0.00283   0.00000  -0.01487  -0.01488   2.19517
   A32        2.12692   0.00009   0.00000   0.00907   0.00906   2.13597
   A33        1.87899  -0.00217   0.00000  -0.00472  -0.00472   1.87427
   A34        2.15540   0.00163   0.00000   0.00236   0.00222   2.15761
   A35        2.24880   0.00054   0.00000   0.00237   0.00223   2.25103
   A36        1.95992   0.00500   0.00000   0.00719   0.00717   1.96709
   A37        1.89969  -0.00191   0.00000  -0.00143  -0.00141   1.89827
   A38        1.89928  -0.00038   0.00000   0.00927   0.00926   1.90854
   A39        1.91657  -0.00122   0.00000  -0.00479  -0.00480   1.91177
   A40        1.92311  -0.00199   0.00000  -0.00313  -0.00320   1.91991
   A41        1.86252   0.00027   0.00000  -0.00775  -0.00777   1.85475
   A42        2.01698   0.00662   0.00000   0.02056   0.02051   2.03749
   A43        1.89915  -0.00134   0.00000  -0.00062  -0.00082   1.89834
   A44        1.90102  -0.00282   0.00000  -0.01871  -0.01870   1.88231
   A45        1.87546  -0.00121   0.00000   0.00467   0.00455   1.88001
   A46        1.89405  -0.00197   0.00000  -0.00188  -0.00175   1.89230
   A47        1.87207   0.00041   0.00000  -0.00539  -0.00546   1.86661
   A48        1.92138   0.00311   0.00000   0.03120   0.03020   1.95158
   A49        1.88886   0.00394   0.00000   0.03496   0.03394   1.92280
   A50        1.86152  -0.00026   0.00000   0.03096   0.02905   1.89057
    D1       -2.84556   0.00060   0.00000   0.02163   0.02166  -2.82390
    D2       -0.19614   0.00029   0.00000  -0.00849  -0.00852  -0.20467
    D3        0.33955  -0.00002   0.00000   0.01581   0.01585   0.35540
    D4        2.98897  -0.00032   0.00000  -0.01431  -0.01433   2.97463
    D5       -0.04830  -0.00065   0.00000  -0.02639  -0.02637  -0.07468
    D6        2.07755  -0.00024   0.00000  -0.02873  -0.02873   2.04883
    D7       -2.18215  -0.00117   0.00000  -0.03367  -0.03371  -2.21586
    D8        3.04815  -0.00006   0.00000  -0.02049  -0.02047   3.02769
    D9       -1.10918   0.00035   0.00000  -0.02283  -0.02282  -1.13199
   D10        0.91430  -0.00057   0.00000  -0.02777  -0.02780   0.88651
   D11       -2.35416   0.00190   0.00000  -0.00125  -0.00126  -2.35542
   D12        1.72825  -0.00118   0.00000  -0.01117  -0.01106   1.71719
   D13       -0.35389  -0.00046   0.00000  -0.01322  -0.01322  -0.36712
   D14        1.30454   0.00145   0.00000   0.02684   0.02677   1.33131
   D15       -0.89623  -0.00163   0.00000   0.01693   0.01697  -0.87926
   D16       -2.97838  -0.00091   0.00000   0.01487   0.01481  -2.96357
   D17        0.41590  -0.00218   0.00000  -0.03599  -0.03593   0.37997
   D18       -2.75177  -0.00221   0.00000  -0.04080  -0.04075  -2.79252
   D19        2.60460   0.00058   0.00000  -0.01391  -0.01392   2.59068
   D20       -0.56306   0.00054   0.00000  -0.01872  -0.01874  -0.58180
   D21       -1.60820   0.00009   0.00000  -0.02785  -0.02789  -1.63609
   D22        1.50731   0.00005   0.00000  -0.03267  -0.03270   1.47461
   D23       -2.65417   0.00029   0.00000  -0.01218  -0.01200  -2.66617
   D24        1.44940  -0.00227   0.00000  -0.02827  -0.02819   1.42121
   D25       -0.57687   0.00003   0.00000  -0.01197  -0.01203  -0.58891
   D26        1.44583   0.00277   0.00000  -0.01280  -0.01272   1.43311
   D27       -0.73378   0.00020   0.00000  -0.02889  -0.02891  -0.76269
   D28       -2.76006   0.00251   0.00000  -0.01259  -0.01275  -2.77281
   D29       -0.58707   0.00132   0.00000  -0.00258  -0.00250  -0.58957
   D30       -2.76668  -0.00124   0.00000  -0.01868  -0.01869  -2.78537
   D31        1.49023   0.00107   0.00000  -0.00238  -0.00253   1.48770
   D32       -0.06434  -0.00115   0.00000  -0.02821  -0.02820  -0.09254
   D33        3.10278  -0.00121   0.00000  -0.02358  -0.02359   3.07919
   D34        2.14265  -0.00290   0.00000  -0.05044  -0.05040   2.09226
   D35       -0.98731  -0.00362   0.00000  -0.08062  -0.08062  -1.06793
   D36       -1.98262   0.00084   0.00000  -0.03180  -0.03175  -2.01437
   D37        1.17060   0.00012   0.00000  -0.06198  -0.06197   1.10863
   D38        0.04486  -0.00024   0.00000  -0.02929  -0.02932   0.01553
   D39       -3.08511  -0.00096   0.00000  -0.05947  -0.05955   3.13853
   D40       -3.13580  -0.00031   0.00000  -0.02216  -0.02196   3.12543
   D41        0.01300  -0.00036   0.00000  -0.01758  -0.01745  -0.00445
   D42       -0.00424   0.00036   0.00000   0.00398   0.00397  -0.00027
   D43       -3.13863   0.00032   0.00000   0.00856   0.00847  -3.13016
   D44        3.13873   0.00002   0.00000   0.01680   0.01695  -3.12751
   D45       -0.00292  -0.00016   0.00000   0.03988   0.04000   0.03708
   D46        0.00618  -0.00051   0.00000  -0.00664  -0.00660  -0.00043
   D47       -3.13547  -0.00069   0.00000   0.01644   0.01644  -3.11903
   D48        0.00058  -0.00008   0.00000   0.00028   0.00029   0.00088
   D49        3.13557  -0.00005   0.00000  -0.00400  -0.00395   3.13161
   D50        0.00348  -0.00023   0.00000  -0.00460  -0.00465  -0.00116
   D51       -3.13478   0.00001   0.00000  -0.01074  -0.01067   3.13774
   D52       -0.00625   0.00047   0.00000   0.00725   0.00728   0.00103
   D53        3.13540   0.00067   0.00000  -0.01746  -0.01740   3.11800
   D54        3.13219   0.00023   0.00000   0.01300   0.01302  -3.13798
   D55       -0.00934   0.00043   0.00000  -0.01171  -0.01166  -0.02101
   D56       -1.07572  -0.00164   0.00000  -0.02756  -0.02761  -1.10332
   D57        1.03523   0.00028   0.00000  -0.00788  -0.00790   1.02733
   D58        3.07074  -0.00153   0.00000  -0.02500  -0.02494   3.04580
   D59        3.09127  -0.00171   0.00000  -0.02721  -0.02724   3.06402
   D60       -1.08098   0.00022   0.00000  -0.00753  -0.00753  -1.08851
   D61        0.95454  -0.00160   0.00000  -0.02465  -0.02458   0.92996
   D62        1.04455  -0.00012   0.00000  -0.01302  -0.01308   1.03147
   D63       -3.12769   0.00180   0.00000   0.00666   0.00663  -3.12106
   D64       -1.09218  -0.00002   0.00000  -0.01046  -0.01041  -1.10259
   D65       -0.97604  -0.00109   0.00000  -0.04257  -0.04303  -1.01907
   D66        1.05229   0.00254   0.00000   0.03149   0.03203   1.08431
   D67       -3.09974  -0.00284   0.00000  -0.05896  -0.05952   3.12392
   D68       -1.07142   0.00079   0.00000   0.01509   0.01554  -1.05588
   D69        1.16439  -0.00168   0.00000  -0.05413  -0.05461   1.10978
   D70       -3.09047   0.00196   0.00000   0.01992   0.02045  -3.07002
         Item               Value     Threshold  Converged?
 Maximum Force            0.016275     0.000450     NO 
 RMS     Force            0.003932     0.000300     NO 
 Maximum Displacement     0.333473     0.001800     NO 
 RMS     Displacement     0.076825     0.001200     NO 
 Predicted change in Energy=-3.219158D-03
 GradGradGradGradGradGradGradGradGradGradGradGradGradGradGradGradGradGrad

                          Input orientation:                          
 ---------------------------------------------------------------------
 Center     Atomic      Atomic             Coordinates (Angstroms)
 Number     Number       Type             X           Y           Z
 ---------------------------------------------------------------------
      1          8           0        2.728687    1.616535    0.806016
      2          6           0        1.910366    0.799725    0.405222
      3          7           0        1.022288    1.169256   -0.603857
      4          6           0       -0.231585    0.498097   -0.950459
      5          6           0       -0.338947    0.344243   -2.484338
      6          8           0        0.821488    0.396127   -3.153137
      7          8           0       -1.387353    0.155272   -3.063348
      8          6           0       -1.476556    1.191342   -0.327649
      9          6           0       -2.653704    0.300568   -0.076923
     10          6           0       -3.316850   -0.014631    1.090101
     11          7           0       -4.367837   -0.868756    0.843227
     12          6           0       -4.345540   -1.073208   -0.459059
     13          7           0       -3.330420   -0.389756   -1.063038
     14          6           0        1.847250   -0.629935    0.925522
     15          6           0        2.981239   -0.952275    1.918950
     16          7           0        4.342936   -0.893938    1.401468
     17          1           0        1.047558    2.174606   -0.759239
     18          1           0       -0.177265   -0.524418   -0.564409
     19          1           0        1.529373    0.612102   -2.515211
     20          1           0       -1.756822    2.049212   -0.953361
     21          1           0       -1.166799    1.593079    0.641436
     22          1           0       -3.098362    0.336145    2.089951
     23          1           0       -5.030289   -1.700750   -1.011996
     24          1           0       -3.065186   -0.374786   -2.042273
     25          1           0        0.874807   -0.785768    1.414399
     26          1           0        1.880817   -1.328008    0.077269
     27          1           0        2.916244   -0.260299    2.763887
     28          1           0        2.804389   -1.958210    2.315583
     29          1           0        4.477575   -1.529647    0.619755
     30          1           0        4.558426    0.048136    1.087803
 ---------------------------------------------------------------------
                    Distance matrix (angstroms):
                    1          2          3          4          5
     1  O    0.000000
     2  C    1.223709   0.000000
     3  N    2.258229   1.394086   0.000000
     4  C    3.619298   2.552803   1.463825   0.000000
     5  C    4.674990   3.690044   2.463699   1.545309   0.000000
     6  O    4.560888   3.743056   2.671494   2.443594   1.340371
     7  O    5.835156   4.829207   3.589377   2.432617   1.212484
     8  C    4.376077   3.487363   2.514159   1.555131   2.581285
     9  C    5.610835   4.616530   3.813815   2.582391   3.340008
    10  C    6.268167   5.334418   4.806162   3.734386   4.666188
    11  N    7.519222   6.510876   5.941463   4.711070   5.364327
    12  C    7.673318   6.587201   5.819208   4.431151   4.707835
    13  N    6.650664   5.571040   4.646227   3.225482   3.392309
    14  C    2.416161   1.522702   2.501329   3.018828   4.166008
    15  C    2.810905   2.551008   3.834440   4.545253   5.665115
    16  N    3.043490   3.127042   4.393722   5.328749   6.209074
    17  H    2.363824   1.997675   1.017601   2.117416   2.872035
    18  H    3.860868   2.655512   2.075816   1.094314   2.113490
    19  H    3.671211   2.951151   2.054467   2.358479   1.887677
    20  H    4.837603   4.105512   2.935971   2.175387   2.694657
    21  H    3.899031   3.186557   2.553915   2.146565   3.466323
    22  H    6.102654   5.304769   4.993038   4.181953   5.342149
    23  H    8.631989   7.512228   6.710975   5.278852   5.325268
    24  H    6.756261   5.667965   4.600059   3.159632   2.853910
    25  H    3.094844   2.145835   2.813756   2.909462   4.236776
    26  H    3.149649   2.153062   2.727147   2.975421   3.779630
    27  H    2.718628   2.774660   4.119756   4.927510   6.205288
    28  H    3.881149   3.472025   4.634657   5.090934   6.182320
    29  H    3.604409   3.473120   4.551956   5.362230   6.028742
    30  H    2.426360   2.836022   4.077118   5.225053   6.068948
                    6          7          8          9         10
     6  O    0.000000
     7  O    2.223747   0.000000
     8  C    3.727835   2.926678   0.000000
     9  C    4.642110   3.247073   1.497337   0.000000
    10  C    5.941350   4.582899   2.617455   1.378789   0.000000
    11  N    6.670829   5.019287   3.738243   2.269857   1.376608
    12  C    6.009591   4.128238   3.657393   2.212600   2.139786
    13  N    4.714283   2.841444   2.545089   1.380911   2.185615
    14  C    4.329025   5.195218   3.991888   4.704181   5.203231
    15  C    5.675278   6.718224   5.432700   6.107839   6.421221
    16  N    5.899940   7.339729   6.419090   7.250203   7.716375
    17  H    2.990793   3.913491   2.743032   4.204391   5.221195
    18  H    2.923427   2.858493   2.165189   2.655371   3.585286
    19  H    0.977085   3.002738   3.762520   4.851849   6.072640
    20  H    3.770860   2.859294   1.098183   2.151812   3.296797
    21  H    4.448007   3.980120   1.093832   2.097024   2.721902
    22  H    6.546663   5.432932   3.034206   2.212313   1.081888
    23  H    6.574547   4.574259   4.632661   3.244656   3.193381
    24  H    4.115163   2.034375   2.813616   2.118495   3.163038
    25  H    4.718274   5.104227   3.531657   3.981778   4.274319
    26  H    3.811869   4.769122   4.216994   4.820573   5.455872
    27  H    6.311107   7.256053   5.564310   6.277666   6.458589
    28  H    6.275484   7.139355   5.935725   6.373142   6.538262
    29  H    5.595560   7.127522   6.614607   7.395281   7.954216
    30  H    5.663159   7.252297   6.303287   7.309933   7.875526
                   11         12         13         14         15
    11  N    0.000000
    12  C    1.318426   0.000000
    13  N    2.222503   1.364685   0.000000
    14  C    6.220219   6.361148   5.551606   0.000000
    15  C    7.427858   7.703975   7.003264   1.541665   0.000000
    16  N    8.728679   8.887255   8.075170   2.554343   1.457878
    17  H    6.415329   6.302690   5.082808   3.367993   4.548539
    18  H    4.434062   4.205566   3.195176   2.515888   4.040579
    19  H    6.946160   6.448460   5.170118   3.671832   4.921074
    20  H    4.308093   4.085988   2.904618   4.867994   6.301453
    21  H    4.043266   4.292385   3.393836   3.755927   5.031608
    22  H    2.148878   3.168467   3.243782   5.171875   6.216978
    23  H    2.138435   1.080939   2.147292   7.225037   8.563599
    24  H    3.204218   2.152595   1.014630   5.744992   7.251484
    25  H    5.274319   5.553781   4.896780   1.099514   2.172407
    26  H    6.312154   6.254606   5.416420   1.099076   2.178048
    27  H    7.557578   7.986345   7.326863   2.158463   1.094063
    28  H    7.402403   7.720320   7.177116   2.147719   1.095672
    29  H    8.872882   8.900535   8.068204   2.796709   2.064046
    30  H    8.976563   9.106635   8.188513   2.799390   2.044296
                   16         17         18         19         20
    16  N    0.000000
    17  H    4.994410   0.000000
    18  H    4.943018   2.970333   0.000000
    19  H    5.052194   2.399376   2.830181   0.000000
    20  H    7.170382   2.813885   3.044643   3.912000   0.000000
    21  H    6.092624   2.683923   2.630025   4.265687   1.760558
    22  H    7.573640   5.355976   4.039679   6.534494   3.741133
    23  H    9.712522   7.212662   5.013574   7.116046   4.978076
    24  H    8.185911   5.006020   3.247546   4.723092   2.961977
    25  H    3.469839   3.676732   2.256289   4.221888   4.535291
    26  H    2.829125   3.696265   2.300698   3.257068   5.069540
    27  H    2.071988   4.672597   4.551605   5.527510   6.402289
    28  H    2.082164   5.442532   4.386385   5.618606   6.895655
    29  H    1.016528   5.233367   4.907165   4.806973   7.358710
    30  H    1.016034   4.501070   5.048207   4.740773   6.932027
                   21         22         23         24         25
    21  H    0.000000
    22  H    2.721950   0.000000
    23  H    5.339448   4.183701   0.000000
    24  H    3.831274   4.193065   2.584817   0.000000
    25  H    3.228705   4.183435   6.449398   5.257474   0.000000
    26  H    4.258990   5.622502   7.006341   5.464800   1.758977
    27  H    4.960951   6.081564   8.915131   7.673968   2.502938
    28  H    5.584330   6.336990   8.515940   7.479976   2.431057
    29  H    6.450646   7.939614   9.648386   8.081666   3.763609
    30  H    5.946788   7.727461   9.970517   8.252011   3.790925
                   26         27         28         29         30
    26  H    0.000000
    27  H    3.070835   0.000000
    28  H    2.502037   1.759656   0.000000
[...]
 490,-0.00055498,-0.00084108,0.00005863,0.00023633,-0.00013411,0.000215
 56,-0.00037216,0.00154946,-0.00069605,0.00049628,-0.00097544,-0.000285
 45,0.01731749,0.03505675,-0.00017029,-0.00002448,-0.00012143,0.0002945
 5,-0.00020192,0.00025166,0.00028964,-0.00007494,-0.00115076,-0.0008657
 1,0.00021567,0.00025666,0.00412376,0.00063648,0.00448032,-0.00322349,-
 0.00040873,-0.00050705,-0.00081836,-0.00052168,-0.00833071,-0.00072478
 ,0.00000250,0.00073089,0.00627313,0.00312490,-0.01241387,-0.00212444,-
 0.00246882,-0.00081035,0.00067998,-0.00046662,0.00469955,0.00041049,0.
 00207603,-0.00198006,0.09434867,-0.01394574,-0.41834138,-0.00007714,0.
 00005600,0.00005118,-0.00002092,-0.00000538,0.00000642,0.00003008,0.00
 001405,-0.00003435,-0.00012036,0.00004594,0.00019344,-0.00031691,-0.00
 009721,-0.00018664,0.00001713,0.00014764,0.00070906,0.00003032,0.00012
 911,-0.00000710,0.00041411,0.00022178,-0.00005942,0.00045288,0.0000706
 1,0.00002976,-0.00022655,0.00019779,0.00003934,-0.09866993,0.01129745,
 0.43252392,0.00067728,0.00010419,0.00077744,-0.00044055,-0.00241788,-0
 .00104751,-0.00048491,0.00019214,-0.00039875,-0.00016123,-0.00015673,-
 0.00080727,-0.00000645,0.00012815,0.00030491,0.00006969,-0.00009412,-0
 .00019762,-0.00003778,-0.00003641,-0.00011072,0.00018620,0.00007429,-0
 .00005359,-0.00004145,-0.00003245,-0.00003511,-0.00000411,0.00002601,0
 .00001408,-0.00002693,-0.00002733,-0.00001923,-0.00001566,-0.00000695,
 0.00001526,0.00000644,0.00002194,0.00001489,-0.23064259,-0.03028551,0.
 10817623,-0.01875813,-0.00373983,0.01517241,-0.00581966,0.00148046,-0.
 00466460,-0.00024552,-0.00001332,0.00050961,-0.00021745,0.00059466,-0.
 00091184,-0.00007818,0.00006012,0.00011444,0.00000603,0.00002061,0.000
 02434,0.00001718,0.00000958,0.00004549,-0.00001187,0.00000541,-0.00000
 099,-0.00000076,-0.00000155,-0.00000005,0.00002409,0.00000315,-0.00000
 177,0.25378013,0.00268161,-0.00596761,-0.00177008,-0.03126444,-0.00174
 030,0.01595661,0.00167213,-0.00039762,-0.00043073,0.00042092,-0.000011
 10,0.00020841,0.00007367,0.00007477,0.00005142,0.00005764,0.00003007,-
 0.00003614,0.00001634,-0.00002403,0.00000564,0.00017525,0.00019465,0.0
 0032564,0.00009778,0.00001584,-0.00001546,0.00001863,0.00003248,0.0000
 6974,-0.00001472,-0.00001578,-0.00001257,-0.00002614,-0.00003249,-0.00
 005509,-0.00002969,-0.00003785,-0.00002306,-0.03402396,-0.05071635,0.0
 2229265,0.00537039,0.00052691,-0.00467551,0.00212948,0.00057043,0.0015
 3104,0.00050941,-0.00043000,-0.00060049,0.00020858,0.00009277,0.000541
 55,-0.00001436,-0.00007517,-0.00015205,-0.00005404,-0.00005976,-0.0000
 8850,0.00005326,-0.00019283,-0.00007571,0.00003764,-0.00000787,-0.0000
 3387,-0.00000587,0.00000042,-0.00000470,-0.00001570,0.00001266,0.00000
 563,0.03393881,0.05427123,-0.00088293,0.00063132,-0.00016438,0.0096224
 7,-0.00122747,-0.00512273,-0.00115715,0.00142003,-0.00041622,0.0004460
 3,0.00087403,0.00032229,0.00041478,-0.00045334,-0.00078557,-0.00053215
 ,0.00009246,0.00028059,-0.00008116,0.00006950,0.00017857,-0.00029381,-
 0.00010633,-0.00000827,0.00004810,-0.00002954,-0.00006137,-0.00000639,
 -0.00006207,0.00014437,0.00004650,-0.00000328,-0.00001851,0.00001186,0
 .00004243,0.00000844,-0.00003103,-0.00006328,-0.00006255,0.10800848,0.
 01986768,-0.10726876,-0.01660593,-0.00327937,0.01127296,-0.00359352,0.
 00078461,-0.00143134,-0.00048151,0.00016802,0.00033951,-0.00063929,-0.
 00009465,-0.00140228,0.00017915,-0.00004583,0.00024959,0.00009344,-0.0
 0003599,-0.00000145,-0.00000513,0.00008157,0.00000610,-0.00000830,0.00
 001671,0.00001408,-0.00000281,0.00000382,-0.00000113,-0.00001942,0.000
 01346,-0.00003250,-0.11655846,-0.02255774,0.11550834,0.00012627,-0.001
 18048,0.00038906,-0.00212525,-0.00389154,-0.00000255,-0.00013866,0.000
 61753,-0.00151551,0.00013218,0.00095225,0.00033840,0.00021021,-0.00000
 758,-0.00056405,-0.00032256,-0.00008790,0.00010707,-0.00004682,-0.0000
 1882,0.00008648,-0.00019686,-0.00013912,0.00023428,0.00002752,0.000035
 62,0.00002431,-0.00000893,0.00001173,0.00005733,0.00001809,0.00000411,
 -0.00002200,-0.00002659,-0.00001816,-0.00001155,-0.00001307,-0.0000480
 5,-0.00006490,-0.04361303,0.00249117,-0.00074121,-0.00054954,-0.016203
 02,-0.02098455,0.00311955,-0.00063812,0.00074548,-0.00007882,-0.000123
 34,0.00009933,-0.00136127,0.00067057,-0.00033368,0.00017957,0.00010153
 ,0.00017294,0.00007667,-0.00007229,-0.00007325,0.00006391,-0.00007479,
 -0.00003875,0.00001542,-0.00000992,-0.00001617,-0.00000399,0.00000162,
 -0.00000352,-0.00004315,0.00001970,-0.00000345,-0.00013064,0.01832055,
 0.02121237,0.04846793,-0.00194682,-0.00527288,0.00467007,-0.00016008,-
 0.01690054,-0.02967357,-0.00072519,0.00094225,0.00296509,0.00004470,-0
 .00035197,-0.00006155,0.00051002,0.00004067,0.00025210,-0.00011952,0.0
 0035631,0.00017534,-0.00016948,-0.00005044,-0.00003067,0.00012954,0.00
 025917,-0.00019410,0.00004594,-0.00000183,-0.00002736,0.00000196,-0.00
 000709,-0.00001187,-0.00002449,-0.00001651,0.00003103,0.00001913,0.000
 01087,-0.00001738,-0.00001493,0.00000902,0.00005677,0.00357840,-0.1506
 9578,-0.12564613,0.00089357,0.00530907,0.00629117,-0.00099090,0.000155
 04,0.00089072,-0.00059232,0.00025279,0.00014589,0.00103391,0.00009798,
 -0.00005604,0.00010365,-0.00064596,0.00002925,-0.00010151,0.00003552,0
 .00006532,-0.00006272,0.00003416,0.00004695,-0.00000249,0.00000178,0.0
 0000399,-0.00000151,0.00000083,0.00000007,0.00005590,0.00000627,-0.000
 02372,0.00016118,0.00367800,0.00405496,-0.00238707,0.16206728,0.002359
 02,0.00185350,-0.00113553,-0.00267920,0.00693225,0.01039000,0.00034539
 ,-0.00000881,-0.00101826,-0.00060693,-0.00005445,0.00003913,-0.0001849
 4,0.00026970,0.00026385,0.00012374,-0.00014323,-0.00017313,-0.00002638
 ,-0.00006222,-0.00012578,-0.00004171,0.00003553,-0.00005690,0.00000308
 ,0.00003433,-0.00003049,-0.00000038,-0.00001455,-0.00005500,-0.0000246
 2,-0.00001411,0.00002317,0.00001133,0.00000723,0.00001142,0.00000305,0
 .00003391,0.00006327,0.00052927,-0.12480385,-0.19781821,0.00089088,-0.
 01321762,-0.01782627,0.00127786,0.00115213,0.00254141,0.00032156,-0.00
 035898,0.00013488,-0.00047974,0.00066605,-0.00028432,-0.00005433,0.000
 23546,0.00009492,-0.00004241,0.00003582,0.00004114,-0.00000607,0.00003
 561,0.00001318,-0.00001346,0.00001193,0.00001119,0.00000383,-0.0000032
 4,0.00000405,0.00002996,-0.00000888,-0.00000008,-0.00013995,-0.0104468
 7,-0.01249267,0.00263331,0.13560546,0.21808809,0.00060718,0.00062376,0
 .00053251,-0.00016022,-0.00166041,-0.00016490,-0.00004677,0.00009294,0
 .00009814,-0.00003347,-0.00009753,-0.00006596,0.00007077,0.00005035,0.
 00021017,0.00001394,0.00002563,-0.00006243,-0.00008040,-0.00002422,-0.
 00008529,0.00004767,0.00002962,-0.00007622,-0.00000592,0.00001273,-0.0
 0001485,0.00000157,-0.00000456,-0.00003918,-0.00002217,-0.00001616,0.0
 0002028,0.00000600,0.00000265,-0.00000074,-0.00000294,0.00001744,0.000
 05052,-0.00120548,-0.01483573,-0.02059650,-0.04650538,-0.00336849,-0.0
 0269663,-0.00904490,0.02468607,0.02829641,-0.00002630,0.00004752,0.000
 02037,0.00017693,0.00004526,-0.00002996,-0.00004880,-0.00005744,0.0000
 6084,-0.00003369,0.00001720,0.00002624,-0.00001191,0.00001401,0.000003
 52,-0.00000638,0.00000485,0.00000326,0.00000044,-0.00000085,0.00000171
 ,0.00003210,0.00000076,-0.00000790,0.00064531,-0.00044971,0.00060793,-
 0.00359527,0.00163306,-0.00344816,0.06322761,0.00028577,-0.00064956,0.
 00049946,-0.00011280,0.00010538,0.00116389,-0.00020176,0.00007286,-0.0
 0048357,0.00013336,0.00011617,0.00005973,0.00004703,-0.00000842,-0.000
 03585,-0.00007385,-0.00002945,-0.00002357,-0.00005463,-0.00001315,-0.0
 0003311,-0.00001810,-0.00003170,-0.00001595,-0.00000616,0.00001539,-0.
 00001774,0.00000494,-0.00000734,-0.00002118,-0.00001377,-0.00001596,0.
 00001441,-0.00000213,-0.00000048,-0.00000377,-0.00000310,0.00000140,0.
 00003898,0.00049224,0.00553061,0.00685116,0.00113581,-0.15970033,-0.13
 292691,0.00133308,0.00250284,0.00141800,-0.00001237,-0.00002147,-0.000
 02758,-0.00005395,0.00001335,0.00000793,0.00001133,0.00004809,0.000059
 18,0.00000085,-0.00000307,0.00000182,0.00001527,-0.00000023,-0.0000095
 3,-0.00000498,0.00001008,0.00000003,-0.00000005,-0.00000023,0.00000134
 ,0.00001515,0.00000440,-0.00000896,-0.00067073,0.00026558,-0.00051948,
 0.00112786,0.00023213,0.00191066,-0.00326356,0.16694127,0.00135433,0.0
 0097054,0.00187525,-0.00147536,-0.00306301,-0.00113675,0.00049375,0.00
 022575,0.00076843,-0.00010038,-0.00022682,-0.00014568,0.00007868,0.000
 06112,0.00008095,0.00001406,0.00006835,0.00004729,-0.00003042,-0.00000
 801,0.00000446,0.00006618,0.00007880,-0.00005305,0.00000280,-0.0000136
 1,-0.00000603,-0.00000383,-0.00000252,-0.00002140,-0.00000192,0.000006
 77,0.00001524,0.00001259,0.00000608,-0.00000429,-0.00000264,0.00001570
 ,0.00002364,-0.00368205,-0.01236251,-0.01766447,0.00178884,-0.12747290
 ,-0.20349779,0.00655797,-0.01049342,-0.01084986,-0.00005077,0.00008247
 ,-0.00006061,0.00015813,0.00009266,0.00000043,0.00001427,-0.00012198,-
 0.00007475,-0.00002840,0.00001371,0.00001791,-0.00002223,0.00000823,0.
 00001524,-0.00000266,-0.00000142,0.00000358,0.00000214,-0.00000040,0.0
 0000090,0.00001728,-0.00000528,-0.00000734,-0.00016871,0.00005522,0.00
 038091,-0.00325998,0.00107325,-0.00142461,-0.00325164,0.14262306,0.221
 72177,0.00069869,0.00015089,0.00017946,-0.00433670,-0.00100227,-0.0036
 7851,0.00008511,0.00192259,-0.00066370,0.00036099,0.00023104,0.0001231
 8,0.00004704,0.00003160,0.00017496,-0.00002323,-0.00006083,-0.00012635
 ,-0.00009357,-0.00003210,-0.00011991,-0.00000863,-0.00003367,-0.000026
 62,0.00000098,0.00003047,-0.00001577,0.00001296,-0.00000114,-0.0000166
 8,-0.00003118,-0.00003851,0.00000992,-0.00001203,-0.00000815,-0.000004
 06,-0.00000282,-0.00000132,0.00004310,0.00164575,0.02325220,-0.0092715
 8,-0.05014978,-0.02803934,0.01133632,-0.01424747,-0.03363984,0.0124223
 7,-0.00034011,0.00017586,-0.00041167,0.00003152,-0.00003304,0.00002749
 ,-0.00005916,0.00006903,0.00015290,-0.00000734,-0.00000634,0.00001025,
 0.00001692,-0.00000514,-0.00001963,-0.00000231,0.00000966,-0.00000130,
 -0.00000372,0.00000024,0.00000054,0.00002423,0.00001213,-0.00000748,0.
 00085801,0.00019815,0.00061877,0.00078398,-0.00052157,0.00030357,0.000
 09479,0.00024845,-0.00052902,0.06859212,0.00097231,0.00025360,0.000953
 44,-0.00029523,0.00042045,-0.00044095,0.00023038,-0.00033812,0.0004337
 5,-0.00019679,-0.00018754,-0.00005386,-0.00016112,-0.00004681,-0.00013
 387,0.00010390,0.00004320,0.00006774,0.00015547,0.00004790,0.00011959,
 -0.00000887,0.00003083,0.00002965,0.00000139,-0.00003793,0.00002918,-0
 .00001832,0.00000334,0.00002386,0.00003826,0.00005265,-0.00002383,0.00
 000857,0.00000735,0.00001476,0.00000835,0.00000109,-0.00007083,-0.0007
 3695,-0.00551709,0.00094156,-0.03218338,-0.27221469,0.08478576,-0.0029
 5247,0.00165669,0.00005750,0.00006057,0.00009826,0.00006098,-0.0000476
 3,-0.00001005,-0.00001548,-0.00001109,-0.00003675,-0.00013417,0.000018
 66,0.00000304,-0.00001357,-0.00001483,0.00000288,0.00001487,0.00000425
 ,-0.00001707,0.00000271,0.00000464,-0.00000150,-0.00000035,-0.00003801
 ,-0.00001758,0.00001807,0.00062472,-0.00004922,0.00004236,0.00005245,0
 .00056743,0.00040813,-0.00238464,-0.01751774,0.00739912,0.03664178,0.2
 9026764,0.00086587,-0.00010809,0.00104712,-0.00471631,-0.00216313,-0.0
 0208377,0.00006930,0.00151982,-0.00060407,0.00033004,0.00025875,0.0000
 6136,0.00008890,0.00005310,0.00013252,-0.00004829,-0.00006766,-0.00007
 988,-0.00010350,-0.00004181,-0.00010319,-0.00000608,-0.00002000,-0.000
 01496,0.00000132,0.00002423,-0.00000544,0.00000942,0.00000436,-0.00000
 745,-0.00002431,-0.00003109,0.00000359,-0.00001152,-0.00000923,-0.0000
 0264,-0.00000058,-0.00000597,0.00002423,-0.00112087,0.02200969,-0.0091
 2251,0.01247588,0.08157372,-0.08240336,0.00804733,0.01428893,-0.004249
 83,-0.00020426,0.00013677,-0.00036970,0.00005095,-0.00002235,0.0000709
 7,-0.00000475,0.00006476,0.00011423,-0.00000618,-0.00000775,0.00000873
 ,0.00001167,-0.00000964,-0.00001671,0.00000100,0.00000217,-0.00000238,
 -0.00000498,0.00000138,-0.00000070,0.00001834,0.00001542,-0.00000666,0
 .00033306,-0.00030902,0.00088271,0.00099129,-0.00009772,0.00027447,-0.
 00382386,-0.02234381,0.01090631,-0.01519949,-0.09489244,0.08723492,-0.
 00004385,-0.00034058,-0.00001636,-0.00036773,0.00101836,-0.00057385,0.
 00016220,-0.00011470,0.00023171,-0.00013751,-0.00006261,-0.00001358,-0
 .00024585,-0.00004437,-0.00018884,0.00013575,-0.00002959,0.00007622,0.
 00020197,0.00004536,0.00016039,-0.00003467,0.00002477,0.00002435,0.000
 02393,-0.00004470,0.00000774,-0.00000572,-0.00001881,0.00003125,0.0000
 5320,0.00003161,-0.00001472,-0.00000133,0.00000507,0.00001098,0.000017
 24,-0.00000542,-0.00005075,0.00187211,0.00114022,0.00143302,-0.0071320
 2,0.02545130,0.02841830,-0.03810396,-0.00583319,0.03262038,0.00002760,
 0.00002324,-0.00001579,-0.00006453,-0.00001060,-0.00000910,-0.00004922
 ,0.00007723,-0.00016650,0.00002482,-0.00000569,-0.00000771,-0.00000967
 ,0.00001441,0.00001123,-0.00001019,0.00000575,0.00000726,-0.00000002,0
 .00000372,0.00000032,-0.00005156,-0.00000557,0.00000483,0.00053815,-0.
 00054412,-0.00032100,-0.00074369,-0.00039624,-0.00094686,-0.00518174,-
 0.00080107,0.00238372,0.00102877,-0.00048914,-0.00053756,0.04888957,0.
 00068898,0.00005234,0.00029356,0.00004414,-0.00109098,-0.00026392,-0.0
 0000836,0.00013686,0.00019016,0.00008651,0.00004677,0.00003892,0.00034
 610,0.00006415,0.00002897,-0.00022426,0.00002781,0.00006334,-0.0002102
 0,-0.00005616,-0.00008827,0.00002506,-0.00000377,-0.00001099,-0.000009
 06,0.00002637,-0.00001033,0.00000866,0.00001365,-0.00001410,-0.0000371
 7,-0.00003077,0.00001552,0.00000163,-0.00000381,-0.00001477,-0.0000140
 7,-0.00000305,0.00004184,-0.00076490,-0.00012478,0.00050258,-0.0004192
 6,0.00313354,0.00225311,0.01257632,-0.20650571,-0.17485756,0.00000790,
 -0.00000748,-0.00004713,0.00003920,0.00001715,0.00001557,0.00017526,-0
 .00009053,0.00006568,-0.00001598,-0.00000178,0.00000445,0.00000438,-0.
 00001173,-0.00000719,0.00000778,-0.00000267,-0.00000578,-0.00000287,-0
 .00000010,-0.00000134,0.00004178,0.00001349,-0.00001351,-0.00034068,0.
 00024822,0.00019962,0.00059943,0.00003283,-0.00002195,-0.00124328,0.00
 172362,0.00115798,0.00015888,0.00038348,0.00036280,-0.01549707,0.22164
 066,-0.00049792,0.00000021,0.00002285,-0.00008696,0.00068436,-0.000104
 32,0.00008130,-0.00012819,-0.00003139,-0.00004748,-0.00004571,-0.00001
 282,-0.00019747,-0.00003612,-0.00004962,0.00012562,-0.00002170,-0.0000
 1429,0.00012962,0.00003359,0.00006987,-0.00001822,0.00000111,0.0000055
 7,0.00000676,-0.00001978,0.00000587,-0.00000645,-0.00001197,0.00000528
 ,0.00002799,0.00002288,-0.00000744,-0.00000045,0.00000269,0.00001051,0
 .00001046,0.00000343,-0.00002451,-0.00066316,0.00097005,0.00238782,-0.
 00644762,-0.00849040,-0.01360052,0.05944001,-0.20918697,-0.26018962,0.
 00002426,-0.00000087,0.00001232,-0.00004494,-0.00001455,-0.00000047,-0
 .00006736,0.00005528,-0.00004489,0.00001297,-0.00000004,-0.00000434,-0
 .00000326,0.00000717,0.00000395,-0.00000643,0.00000208,0.00000457,0.00
 000179,0.00000045,0.00000128,-0.00002828,-0.00000789,0.00000693,-0.000
 26872,0.00002953,-0.00019453,0.00059761,-0.00037778,0.00051363,0.00448
 266,0.00128264,-0.00071490,-0.00002690,0.00017645,-0.00023295,-0.05270
 806,0.20205484,0.26442492,0.00318095,0.00022007,0.00051324,-0.00480188
 ,-0.00133299,-0.00296764,0.00094220,0.00018360,0.00175647,-0.00039943,
 -0.00035605,-0.00006603,-0.00028764,-0.00003995,-0.00033711,0.00020770
 ,0.00007208,0.00023631,0.00032739,0.00007237,0.00030674,0.00001083,0.0
 0011184,0.00004657,0.00003805,-0.00008718,0.00001448,-0.00001297,-0.00
 002672,0.00004883,0.00008805,0.00006908,-0.00001960,0.00001284,0.00001
 518,0.00001081,0.00001918,-0.00000245,-0.00008724,0.00075055,-0.001209
 59,-0.00002714,-0.01219628,-0.03519566,0.01236239,-0.04801024,-0.05531
 681,0.04026767,0.00002960,0.00013299,-0.00014963,-0.00001370,0.0000182
 3,-0.00001205,-0.00003424,-0.00005819,-0.00039524,0.00002873,-0.000002
 58,-0.00000846,-0.00003426,0.00001958,0.00003050,-0.00001244,0.0000023
 4,0.00000923,0.00000330,0.00000437,-0.00000006,-0.00007740,-0.00001673
 ,0.00000991,0.00031535,0.00046250,-0.00008988,-0.00022318,0.00000590,-
 0.00014070,0.00108742,0.00044188,-0.00033473,-0.00496383,0.00061277,0.
 00251820,-0.00079206,0.00397514,-0.00382135,0.06481743,-0.00065721,-0.
 00226025,-0.00047720,0.00201226,0.00205334,0.00082266,-0.00063162,-0.0
 0021345,-0.00079537,0.00013184,0.00016292,0.00001456,-0.00009582,-0.00
 001358,0.00009754,0.00004091,-0.00007401,-0.00012065,-0.00001157,-0.00
 001362,-0.00007899,-0.00003609,-0.00006124,-0.00001243,-0.00000557,0.0
 0002398,-0.00000092,0.00000617,-0.00000094,-0.00000608,-0.00001484,-0.
 00002189,-0.00000260,-0.00001024,-0.00000514,0.00000487,0.00000202,-0.
 00000305,0.00001065,0.00086391,0.00004142,-0.00046439,0.00265967,0.000
 99755,0.00203167,-0.08838991,-0.38388669,0.09163201,-0.00003566,-0.000
 06101,0.00012781,-0.00003893,-0.00002364,-0.00002123,-0.00009492,0.000
 12469,0.00012605,0.00000253,-0.00000126,0.00000563,0.00001190,0.000005
 14,-0.00001156,-0.00000225,0.00000544,-0.00000062,-0.00000250,0.000000
 29,0.00000023,0.00000341,0.00000748,0.00000207,0.00037806,-0.00025605,
 0.00011575,-0.00010592,-0.00014638,-0.00006898,0.00010272,0.00041595,-
 0.00016693,0.00029029,0.00215227,-0.00018620,-0.00359761,-0.01962762,0
 .01301518,0.08722499,0.40067935,-0.00082726,-0.00021297,-0.00112188,-0
 .00001340,0.00136173,0.00077771,-0.00011335,-0.00043377,-0.00018629,-0
 .00012439,-0.00004973,-0.00006689,-0.00028769,-0.00005122,-0.00001268,
 0.00018712,-0.00000805,-0.00006110,0.00017603,0.00003432,0.00006710,-0
 .00001312,0.00000749,0.00002065,0.00001806,-0.00002279,0.00000824,0.00
 000111,-0.00001136,0.00002305,0.00003183,0.00001433,-0.00001468,-0.000
 00391,-0.00000114,0.00000768,0.00001100,-0.00000062,-0.00003708,-0.000
 51085,-0.00157594,0.00103189,-0.00205452,0.01612038,-0.00619052,0.0587
 6070,0.12150434,-0.07885439,0.00003331,-0.00001253,0.00011334,-0.00003
 514,-0.00000393,-0.00001497,-0.00016608,0.00003751,-0.00005917,0.00001
 252,-0.00000091,-0.00000271,-0.00000298,0.00001018,0.00000360,-0.00000
 771,0.00000750,0.00000272,-0.00000083,0.00000246,0.00000003,-0.0000389
 8,-0.00000415,0.00001056,-0.00011728,0.00021449,-0.00012418,-0.0000541
 6,-0.00013955,-0.00006655,-0.00005034,0.00053871,-0.00020077,0.0047158
 3,0.00019985,-0.00145495,-0.00985102,-0.03193209,0.00775125,-0.0496745
 0,-0.10559253,0.07865098\\-0.00000180,-0.00000209,-0.00000376,0.000004
 11,-0.00000424,0.00000777,-0.00000494,0.00001002,-0.00000430,-0.000005
 27,-0.00000652,-0.00000326,-0.00000172,-0.00000246,-0.00000139,-0.0000
 0080,0.00000457,0.00000526,0.00000834,0.00000157,0.00000503,0.00000382
 ,0.00000039,0.00000133,-0.00000692,-0.00000337,0.00000005,0.00000149,0
 .00000022,-0.00000456,0.00000411,0.00000138,-0.00000648,0.00000279,0.0
 0000083,0.00000212,0.00000190,0.00000102,0.00000219,-0.00000407,-0.000
 00101,-0.00000063,-0.00000184,-0.00000535,0.00001086,-0.00001593,0.000
 00336,-0.00001284,0.00000211,-0.00000064,-0.00000011,0.00000132,0.0000
 0029,-0.00000426,-0.00000050,-0.00000226,-0.00000024,0.00000029,-0.000
 00285,0.00000158,-0.00000256,-0.00000036,-0.00000189,-0.00000148,-0.00
 000083,-0.00000187,0.00000256,0.00000222,-0.00000070,-0.00000378,0.000
 00117,0.00000248,0.00000758,0.00000167,0.00000215,0.00000104,0.0000014
 8,-0.00000022,-0.00000264,0.00000005,-0.00000026,0.00000018,0.00000076
 ,0.00000004,0.00000571,0.00000099,0.00000336,0.00000690,-0.00000002,0.
 00000259\\\@


 ON INDUCTION, OR "WHY DO YOU BELIEVE THE SUN WILL RISE TOMORROW?":

 ... THE FARMER WHO HAS FED THE CHICKEN EVERY DAY THROUGHOUT ITS
 LIFE AT LAST WRINGS ITS NECK INSTEAD, SHOWING THAT MORE REFINED VIEWS
 AS TO THE UNIFORMITY OF NATURE WOULD HAVE BEEN USEFUL TO THE CHICKEN.

                               -- BERTRAND RUSSELL
 Job cpu time:       0 days  2 hours 38 minutes 56.8 seconds.
 File lengths (MBytes):  RWF=    417 Int=      0 D2E=      0 Chk=     13 Scr=      1
 Normal termination of Gaussian 09 at Wed Jul 28 23:41:40 2021.
