 Entering Gaussian System, Link 0=g09
 Input=opt_freq-conf-640.com
 Output=opt_freq-conf-640.log
 Initial command:
 /aerosol/software/g09/l1.exe "/scratch/nicole/10575/Gau-27846.inp" -scrdir="/scratch/nicole/10575/"
 Entering Link 1 = /aerosol/software/g09/l1.exe PID=     27849.
  
 Copyright (c) 1988,1990,1992,1993,1995,1998,2003,2009,2013,
            Gaussian, Inc.  All Rights Reserved.
  
 This is part of the Gaussian(R) 09 program.  It is based on
 the Gaussian(R) 03 system (copyright 2003, Gaussian, Inc.),
 the Gaussian(R) 98 system (copyright 1998, Gaussian, Inc.),
 the Gaussian(R) 94 system (copyright 1995, Gaussian, Inc.),
 the Gaussian 92(TM) system (copyright 1992, Gaussian, Inc.),
 the Gaussian 90(TM) system (copyright 1990, Gaussian, Inc.),
 the Gaussian 88(TM) system (copyright 1988, Gaussian, Inc.),
 the Gaussian 86(TM) system (copyright 1986, Carnegie Mellon
 University), and the Gaussian 82(TM) system (copyright 1983,
 Carnegie Mellon University). Gaussian is a federally registered
 trademark of Gaussian, Inc.
  
 This software contains proprietary and confidential information,
 including trade secrets, belonging to Gaussian, Inc.
  
 This software is provided under written license and may be
 used, copied, transmitted, or stored only in accord with that
 written license.
  
 The following legend is applicable only to US Government
 contracts under FAR:
  
                    RESTRICTED RIGHTS LEGEND
  
 Use, reproduction and disclosure by the US Government is
 subject to restrictions as set forth in subparagraphs (a)
 and (c) of the Commercial Computer Software - Restricted
 Rights clause in FAR 52.227-19.
  
 Gaussian, Inc.
 340 Quinnipiac St., Bldg. 40, Wallingford CT 06492
  
  
 ---------------------------------------------------------------
 Warning -- This program may not be used in any manner that
 competes with the business of Gaussian, Inc. or will provide
 assistance to any competitor of Gaussian, Inc.  The licensee
 of this program is prohibited from giving any competitor of
 Gaussian, Inc. access to this program.  By using this program,
 the user acknowledges that Gaussian, Inc. is engaged in the
 business of creating and licensing software in the field of
 computational chemistry and represents and warrants to the
 licensee that it is not a competitor of Gaussian, Inc. and that
 it will not use this program in any manner prohibited above.
 ---------------------------------------------------------------
  

 Cite this work as:
 Gaussian 09, Revision D.01,
 M. J. Frisch, G. W. Trucks, H. B. Schlegel, G. E. Scuseria, 
 M. A. Robb, J. R. Cheeseman, G. Scalmani, V. Barone, B. Mennucci, 
 G. A. Petersson, H. Nakatsuji, M. Caricato, X. Li, H. P. Hratchian, 
 A. F. Izmaylov, J. Bloino, G. Zheng, J. L. Sonnenberg, M. Hada, 
 M. Ehara, K. Toyota, R. Fukuda, J. Hasegawa, M. Ishida, T. Nakajima, 
 Y. Honda, O. Kitao, H. Nakai, T. Vreven, J. A. Montgomery, Jr., 
 J. E. Peralta, F. Ogliaro, M. Bearpark, J. J. Heyd, E. Brothers, 
 K. N. Kudin, V. N. Staroverov, T. Keith, R. Kobayashi, J. Normand, 
 K. Raghavachari, A. Rendell, J. C. Burant, S. S. Iyengar, J. Tomasi, 
 M. Cossi, N. Rega, J. M. Millam, M. Klene, J. E. Knox, J. B. Cross, 
 V. Bakken, C. Adamo, J. Jaramillo, R. Gomperts, R. E. Stratmann, 
 O. Yazyev, A. J. Austin, R. Cammi, C. Pomelli, J. W. Ochterski, 
 R. L. Martin, K. Morokuma, V. G. Zakrzewski, G. A. Voth, 
 P. Salvador, J. J. Dannenberg, S. Dapprich, A. D. Daniels, 
 O. Farkas, J. B. Foresman, J. V. Ortiz, J. Cioslowski, 
 and D. J. Fox, Gaussian, Inc., Wallingford CT, 2013.
 
 ******************************************
 Gaussian 09:  ES64L-G09RevD.01 24-Apr-2013
                28-Jul-2021 
 ******************************************
 %mem=2gb
 %nproc=4
 Will use up to    4 processors via shared memory.
 %chk=conf-640.chk
 ----------------------------------------------------------------------
 # B3LYP/6-31+G(d,p) opt=calcfc freq=noraman nosymm integral(ultrafineg
 rid)
 ----------------------------------------------------------------------
 1/10=4,14=-1,18=20,19=15,26=4,38=1/1,3;
 2/9=110,12=2,15=1,17=6,18=5,40=1/2;
 3/5=1,6=6,7=111,11=2,16=1,25=1,30=1,71=2,74=-5,75=-5,140=1/1,2,3;
 4//1;
 5/5=2,38=5/2;
 8/6=4,10=90,11=11/1;
 11/6=1,8=1,9=11,15=111,16=1,31=1/1,2,10;
 10/6=1,13=1,31=1/2;
 6/7=2,8=2,9=2,10=2,28=1/1;
 7/10=1,18=20,25=1,30=1/1,2,3,16;
 1/10=4,14=-1,18=20,19=15,26=4/3(2);
 2/9=110,15=1/2;
 99//99;
 2/9=110,15=1/2;
 3/5=1,6=6,7=111,11=2,16=1,25=1,30=1,71=1,74=-5,75=-5/1,2,3;
 4/5=5,16=3,69=1/1;
 5/5=2,38=5/2;
 7/30=1/1,2,3,16;
 1/14=-1,18=20,19=15,26=4/3(-5);
 2/9=110,15=1/2;
 6/7=2,8=2,9=2,10=2,19=2,28=1/1;
 99/9=1/99;
 ------------------------------------------------------------
 Candidate Structure: Conf:640 OPT and FREQ calc in gas phase
 ------------------------------------------------------------
 Symbolic Z-matrix:
 Charge =  0 Multiplicity = 1
 O                     0.92904  -1.24196  -0.873 
 C                     1.14845  -0.10723  -0.44526 
 N                     0.2273    0.87891  -0.54866 
 C                    -0.97462   0.70331  -1.33263 
 C                    -1.08429   1.83216  -2.33354 
 O                    -1.97773   1.54387  -3.30167 
 O                    -0.49299   2.87836  -2.27439 
 C                    -2.26049   0.68855  -0.4937 
 C                    -2.33041  -0.37329   0.56466 
 C                    -3.14952  -0.49021   1.64953 
 N                    -2.89099  -1.66012   2.3362 
 C                    -1.92679  -2.23652   1.662 
 N                    -1.55644  -1.50578   0.58175 
 C                     2.45641   0.27932   0.21253 
 C                     3.08644  -0.86428   1.00797 
 N                     4.40372  -0.56311   1.56443 
 H                     0.49677   1.83106  -0.35097 
 H                    -0.88867  -0.23908  -1.87118 
 H                    -2.00681   2.31839  -3.87722 
 H                    -3.09639   0.5662   -1.18687 
 H                    -2.4066    1.65964  -0.01709 
 H                    -3.91554   0.19426   1.98446 
 H                    -1.45505  -3.17397   1.89963 
 H                    -0.77922  -1.70241  -0.03841 
 H                     2.29431   1.15407   0.84898 
 H                     3.14994   0.58266  -0.5804 
 H                     2.43604  -1.14432   1.83845 
 H                     3.16991  -1.73687   0.3616 
 H                     4.3486    0.23292   2.18976 
 H                     5.04569  -0.30467   0.82302 
 

 GradGradGradGradGradGradGradGradGradGradGradGradGradGradGradGradGradGrad
 Berny optimization.
 Initialization pass.
                           ----------------------------
                           !    Initial Parameters    !
                           ! (Angstroms and Degrees)  !
 --------------------------                            --------------------------
 ! Name  Definition              Value          Derivative Info.                !
 --------------------------------------------------------------------------------
 ! R1    R(1,2)                  1.2324         calculate D2E/DX2 analytically  !
 ! R2    R(2,3)                  1.3534         calculate D2E/DX2 analytically  !
 ! R3    R(2,14)                 1.5142         calculate D2E/DX2 analytically  !
 ! R4    R(3,4)                  1.4457         calculate D2E/DX2 analytically  !
 ! R5    R(3,17)                 1.0091         calculate D2E/DX2 analytically  !
 ! R6    R(4,5)                  1.5127         calculate D2E/DX2 analytically  !
 ! R7    R(4,8)                  1.5354         calculate D2E/DX2 analytically  !
 ! R8    R(4,18)                 1.0888         calculate D2E/DX2 analytically  !
 ! R9    R(5,6)                  1.3486         calculate D2E/DX2 analytically  !
 ! R10   R(5,7)                  1.2032         calculate D2E/DX2 analytically  !
 ! R11   R(6,19)                 0.9654         calculate D2E/DX2 analytically  !
 ! R12   R(8,9)                  1.5008         calculate D2E/DX2 analytically  !
 ! R13   R(8,20)                 1.0928         calculate D2E/DX2 analytically  !
 ! R14   R(8,21)                 1.0916         calculate D2E/DX2 analytically  !
 ! R15   R(9,10)                 1.3644         calculate D2E/DX2 analytically  !
 ! R16   R(9,13)                 1.3718         calculate D2E/DX2 analytically  !
 ! R17   R(10,11)                1.381          calculate D2E/DX2 analytically  !
 ! R18   R(10,22)                1.0805         calculate D2E/DX2 analytically  !
 ! R19   R(11,12)                1.3101         calculate D2E/DX2 analytically  !
 ! R20   R(12,13)                1.3558         calculate D2E/DX2 analytically  !
 ! R21   R(12,23)                1.076          calculate D2E/DX2 analytically  !
 ! R22   R(13,24)                1.0136         calculate D2E/DX2 analytically  !
 ! R23   R(14,15)                1.5289         calculate D2E/DX2 analytically  !
 ! R24   R(14,25)                1.0939         calculate D2E/DX2 analytically  !
 ! R25   R(14,26)                1.0962         calculate D2E/DX2 analytically  !
 ! R26   R(15,16)                1.4614         calculate D2E/DX2 analytically  !
 ! R27   R(15,27)                1.0914         calculate D2E/DX2 analytically  !
 ! R28   R(15,28)                1.0891         calculate D2E/DX2 analytically  !
 ! R29   R(16,29)                1.0138         calculate D2E/DX2 analytically  !
 ! R30   R(16,30)                1.0142         calculate D2E/DX2 analytically  !
 ! A1    A(1,2,3)              121.5484         calculate D2E/DX2 analytically  !
 ! A2    A(1,2,14)             122.6579         calculate D2E/DX2 analytically  !
 ! A3    A(3,2,14)             115.7913         calculate D2E/DX2 analytically  !
 ! A4    A(2,3,4)              121.2506         calculate D2E/DX2 analytically  !
 ! A5    A(2,3,17)             119.3924         calculate D2E/DX2 analytically  !
 ! A6    A(4,3,17)             116.2863         calculate D2E/DX2 analytically  !
 ! A7    A(3,4,5)              109.175          calculate D2E/DX2 analytically  !
 ! A8    A(3,4,8)              113.6491         calculate D2E/DX2 analytically  !
 ! A9    A(3,4,18)             107.922          calculate D2E/DX2 analytically  !
 ! A10   A(5,4,8)              107.9384         calculate D2E/DX2 analytically  !
 ! A11   A(5,4,18)             108.9258         calculate D2E/DX2 analytically  !
 ! A12   A(8,4,18)             109.1496         calculate D2E/DX2 analytically  !
 ! A13   A(4,5,6)              111.317          calculate D2E/DX2 analytically  !
 ! A14   A(4,5,7)              125.5017         calculate D2E/DX2 analytically  !
 ! A15   A(6,5,7)              123.1454         calculate D2E/DX2 analytically  !
 ! A16   A(5,6,19)             106.0485         calculate D2E/DX2 analytically  !
 ! A17   A(4,8,9)              115.5387         calculate D2E/DX2 analytically  !
 ! A18   A(4,8,20)             107.1636         calculate D2E/DX2 analytically  !
 ! A19   A(4,8,21)             110.0055         calculate D2E/DX2 analytically  !
 ! A20   A(9,8,20)             109.4183         calculate D2E/DX2 analytically  !
 ! A21   A(9,8,21)             108.3769         calculate D2E/DX2 analytically  !
 ! A22   A(20,8,21)            105.9131         calculate D2E/DX2 analytically  !
 ! A23   A(8,9,10)             130.4895         calculate D2E/DX2 analytically  !
 ! A24   A(8,9,13)             124.5113         calculate D2E/DX2 analytically  !
 ! A25   A(10,9,13)            104.9555         calculate D2E/DX2 analytically  !
 ! A26   A(9,10,11)            110.8288         calculate D2E/DX2 analytically  !
 ! A27   A(9,10,22)            128.1563         calculate D2E/DX2 analytically  !
 ! A28   A(11,10,22)           121.0148         calculate D2E/DX2 analytically  !
 ! A29   A(10,11,12)           104.7504         calculate D2E/DX2 analytically  !
 ! A30   A(11,12,13)           111.9587         calculate D2E/DX2 analytically  !
 ! A31   A(11,12,23)           126.3198         calculate D2E/DX2 analytically  !
 ! A32   A(13,12,23)           121.7214         calculate D2E/DX2 analytically  !
 ! A33   A(9,13,12)            107.5037         calculate D2E/DX2 analytically  !
 ! A34   A(9,13,24)            125.8148         calculate D2E/DX2 analytically  !
 ! A35   A(12,13,24)           126.3288         calculate D2E/DX2 analytically  !
 ! A36   A(2,14,15)            113.0179         calculate D2E/DX2 analytically  !
 ! A37   A(2,14,25)            109.2018         calculate D2E/DX2 analytically  !
 ! A38   A(2,14,26)            107.6311         calculate D2E/DX2 analytically  !
 ! A39   A(15,14,25)           110.8868         calculate D2E/DX2 analytically  !
 ! A40   A(15,14,26)           108.8199         calculate D2E/DX2 analytically  !
 ! A41   A(25,14,26)           107.0571         calculate D2E/DX2 analytically  !
 ! A42   A(14,15,16)           114.5457         calculate D2E/DX2 analytically  !
 ! A43   A(14,15,27)           110.0138         calculate D2E/DX2 analytically  !
 ! A44   A(14,15,28)           108.7903         calculate D2E/DX2 analytically  !
 ! A45   A(16,15,27)           107.476          calculate D2E/DX2 analytically  !
 ! A46   A(16,15,28)           108.7849         calculate D2E/DX2 analytically  !
 ! A47   A(27,15,28)           106.9591         calculate D2E/DX2 analytically  !
 ! A48   A(15,16,29)           110.346          calculate D2E/DX2 analytically  !
 ! A49   A(15,16,30)           110.1652         calculate D2E/DX2 analytically  !
 ! A50   A(29,16,30)           106.5732         calculate D2E/DX2 analytically  !
 ! D1    D(1,2,3,4)             -9.0351         calculate D2E/DX2 analytically  !
 ! D2    D(1,2,3,17)          -168.4865         calculate D2E/DX2 analytically  !
 ! D3    D(14,2,3,4)           170.4087         calculate D2E/DX2 analytically  !
 ! D4    D(14,2,3,17)           10.9574         calculate D2E/DX2 analytically  !
 ! D5    D(1,2,14,15)          -33.549          calculate D2E/DX2 analytically  !
 ! D6    D(1,2,14,25)         -157.4765         calculate D2E/DX2 analytically  !
 ! D7    D(1,2,14,26)           86.6363         calculate D2E/DX2 analytically  !
 ! D8    D(3,2,14,15)          147.014          calculate D2E/DX2 analytically  !
 ! D9    D(3,2,14,25)           23.0865         calculate D2E/DX2 analytically  !
 ! D10   D(3,2,14,26)          -92.8008         calculate D2E/DX2 analytically  !
 ! D11   D(2,3,4,5)           -125.8807         calculate D2E/DX2 analytically  !
 ! D12   D(2,3,4,8)            113.5711         calculate D2E/DX2 analytically  !
 ! D13   D(2,3,4,18)            -7.6271         calculate D2E/DX2 analytically  !
 ! D14   D(17,3,4,5)            34.1759         calculate D2E/DX2 analytically  !
 ! D15   D(17,3,4,8)           -86.3724         calculate D2E/DX2 analytically  !
 ! D16   D(17,3,4,18)          152.4295         calculate D2E/DX2 analytically  !
 ! D17   D(3,4,5,6)            164.2008         calculate D2E/DX2 analytically  !
 ! D18   D(3,4,5,7)            -17.9287         calculate D2E/DX2 analytically  !
 ! D19   D(8,4,5,6)            -71.8144         calculate D2E/DX2 analytically  !
 ! D20   D(8,4,5,7)            106.0562         calculate D2E/DX2 analytically  !
 ! D21   D(18,4,5,6)            46.5777         calculate D2E/DX2 analytically  !
 ! D22   D(18,4,5,7)          -135.5517         calculate D2E/DX2 analytically  !
 ! D23   D(3,4,8,9)            -58.5958         calculate D2E/DX2 analytically  !
 ! D24   D(3,4,8,20)           179.1816         calculate D2E/DX2 analytically  !
 ! D25   D(3,4,8,21)            64.4837         calculate D2E/DX2 analytically  !
 ! D26   D(5,4,8,9)           -179.8379         calculate D2E/DX2 analytically  !
 ! D27   D(5,4,8,20)            57.9396         calculate D2E/DX2 analytically  !
 ! D28   D(5,4,8,21)           -56.7584         calculate D2E/DX2 analytically  !
 ! D29   D(18,4,8,9)            61.9133         calculate D2E/DX2 analytically  !
 ! D30   D(18,4,8,20)          -60.3092         calculate D2E/DX2 analytically  !
 ! D31   D(18,4,8,21)         -175.0072         calculate D2E/DX2 analytically  !
 ! D32   D(4,5,6,19)           178.314          calculate D2E/DX2 analytically  !
 ! D33   D(7,5,6,19)             0.3845         calculate D2E/DX2 analytically  !
 ! D34   D(4,8,9,10)           163.5485         calculate D2E/DX2 analytically  !
 ! D35   D(4,8,9,13)           -19.2303         calculate D2E/DX2 analytically  !
 ! D36   D(20,8,9,10)          -75.4396         calculate D2E/DX2 analytically  !
 ! D37   D(20,8,9,13)          101.7816         calculate D2E/DX2 analytically  !
 ! D38   D(21,8,9,10)           39.6128         calculate D2E/DX2 analytically  !
 ! D39   D(21,8,9,13)         -143.166          calculate D2E/DX2 analytically  !
 ! D40   D(8,9,10,11)          178.0604         calculate D2E/DX2 analytically  !
 ! D41   D(8,9,10,22)           -1.8368         calculate D2E/DX2 analytically  !
 ! D42   D(13,9,10,11)           0.4303         calculate D2E/DX2 analytically  !
 ! D43   D(13,9,10,22)        -179.4669         calculate D2E/DX2 analytically  !
 ! D44   D(8,9,13,12)         -178.3463         calculate D2E/DX2 analytically  !
 ! D45   D(8,9,13,24)            8.1382         calculate D2E/DX2 analytically  !
 ! D46   D(10,9,13,12)          -0.5334         calculate D2E/DX2 analytically  !
 ! D47   D(10,9,13,24)        -174.049          calculate D2E/DX2 analytically  !
 ! D48   D(9,10,11,12)          -0.1528         calculate D2E/DX2 analytically  !
 ! D49   D(22,10,11,12)        179.7528         calculate D2E/DX2 analytically  !
 ! D50   D(10,11,12,13)         -0.201          calculate D2E/DX2 analytically  !
 ! D51   D(10,11,12,23)        179.7219         calculate D2E/DX2 analytically  !
 ! D52   D(11,12,13,9)           0.4761         calculate D2E/DX2 analytically  !
 ! D53   D(11,12,13,24)        173.949          calculate D2E/DX2 analytically  !
 ! D54   D(23,12,13,9)        -179.4508         calculate D2E/DX2 analytically  !
 ! D55   D(23,12,13,24)         -5.978          calculate D2E/DX2 analytically  !
 ! D56   D(2,14,15,16)         175.1479         calculate D2E/DX2 analytically  !
 ! D57   D(2,14,15,27)         -63.6736         calculate D2E/DX2 analytically  !
 ! D58   D(2,14,15,28)          53.1883         calculate D2E/DX2 analytically  !
 ! D59   D(25,14,15,16)        -61.8547         calculate D2E/DX2 analytically  !
 ! D60   D(25,14,15,27)         59.3238         calculate D2E/DX2 analytically  !
 ! D61   D(25,14,15,28)        176.1857         calculate D2E/DX2 analytically  !
 ! D62   D(26,14,15,16)         55.645          calculate D2E/DX2 analytically  !
 ! D63   D(26,14,15,27)        176.8234         calculate D2E/DX2 analytically  !
 ! D64   D(26,14,15,28)        -66.3147         calculate D2E/DX2 analytically  !
 ! D65   D(14,15,16,29)         59.4691         calculate D2E/DX2 analytically  !
 ! D66   D(14,15,16,30)        -57.9352         calculate D2E/DX2 analytically  !
 ! D67   D(27,15,16,29)        -63.0946         calculate D2E/DX2 analytically  !
 ! D68   D(27,15,16,30)        179.5011         calculate D2E/DX2 analytically  !
 ! D69   D(28,15,16,29)       -178.5683         calculate D2E/DX2 analytically  !
 ! D70   D(28,15,16,30)         64.0274         calculate D2E/DX2 analytically  !
 --------------------------------------------------------------------------------
 Trust Radius=3.00D-01 FncErr=1.00D-07 GrdErr=1.00D-06
 Number of steps in this run=    160 maximum allowed number of steps=    180.
 GradGradGradGradGradGradGradGradGradGradGradGradGradGradGradGradGradGrad

                          Input orientation:                          
 ---------------------------------------------------------------------
 Center     Atomic      Atomic             Coordinates (Angstroms)
 Number     Number       Type             X           Y           Z
 ---------------------------------------------------------------------
      1          8           0        0.929043   -1.241963   -0.873004
      2          6           0        1.148453   -0.107229   -0.445265
      3          7           0        0.227295    0.878910   -0.548664
      4          6           0       -0.974618    0.703315   -1.332629
      5          6           0       -1.084293    1.832158   -2.333541
      6          8           0       -1.977728    1.543869   -3.301668
      7          8           0       -0.492986    2.878356   -2.274390
      8          6           0       -2.260494    0.688548   -0.493701
      9          6           0       -2.330413   -0.373288    0.564662
     10          6           0       -3.149524   -0.490207    1.649530
     11          7           0       -2.890995   -1.660122    2.336198
     12          6           0       -1.926786   -2.236516    1.661995
     13          7           0       -1.556443   -1.505777    0.581748
     14          6           0        2.456413    0.279321    0.212533
     15          6           0        3.086444   -0.864276    1.007965
     16          7           0        4.403718   -0.563113    1.564429
     17          1           0        0.496774    1.831061   -0.350975
     18          1           0       -0.888672   -0.239080   -1.871181
     19          1           0       -2.006809    2.318387   -3.877224
     20          1           0       -3.096390    0.566200   -1.186873
     21          1           0       -2.406602    1.659641   -0.017086
     22          1           0       -3.915536    0.194263    1.984460
     23          1           0       -1.455054   -3.173967    1.899627
     24          1           0       -0.779216   -1.702408   -0.038411
     25          1           0        2.294314    1.154066    0.848976
     26          1           0        3.149944    0.582658   -0.580398
     27          1           0        2.436040   -1.144321    1.838451
     28          1           0        3.169914   -1.736868    0.361604
     29          1           0        4.348596    0.232922    2.189758
     30          1           0        5.045691   -0.304669    0.823024
 ---------------------------------------------------------------------
                    Distance matrix (angstroms):
                    1          2          3          4          5
     1  O    0.000000
     2  C    1.232365   0.000000
     3  N    2.257377   1.353401   0.000000
     4  C    2.760306   2.439637   1.445694   0.000000
     5  C    3.954354   3.508841   2.411375   1.512660   0.000000
     6  O    4.701977   4.545126   3.589335   2.364291   1.348557
     7  O    4.578546   3.867007   2.737648   2.418612   1.203193
     8  C    3.747518   3.500932   2.495667   1.535413   2.465016
     9  C    3.666815   3.632251   3.057673   2.568456   3.849206
    10  C    4.854176   4.796607   4.255520   3.879173   5.052070
    11  N    5.006648   5.144429   4.949025   4.766406   6.104642
    12  C    3.946025   4.293192   4.385540   4.303139   5.764391
    13  N    2.891979   3.213588   3.185324   2.980511   4.456865
    14  C    2.413619   1.514225   2.430616   3.786723   4.629298
    15  C    2.887053   2.537875   3.692767   4.942464   5.985940
    16  N    4.298288   3.852720   4.897663   6.238853   7.144912
    17  H    3.146880   2.047082   1.009104   2.097726   2.535812
    18  H    2.303523   2.490080   2.060178   1.088821   2.131213
    19  H    5.506419   5.255248   4.259416   3.185724   1.862904
    20  H    4.424034   4.361442   3.398820   2.131187   2.639323
    21  H    4.503158   3.992941   2.798130   2.166978   2.672869
    22  H    5.804979   5.624805   4.903928   4.462198   5.416989
    23  H    4.135703   4.656355   5.024962   5.070662   6.566465
    24  H    1.956197   2.534963   2.817203   2.738739   4.225382
    25  H    3.251175   2.139842   2.510314   3.955818   4.690758
    26  H    2.889163   2.121361   2.937796   4.194332   4.750108
    27  H    3.103637   2.819361   3.830188   5.010200   6.217531
    28  H    2.605895   2.719019   4.041025   5.099222   6.172522
    29  H    4.821737   4.159323   4.990128   6.400398   7.248040
    30  H    4.549926   4.103170   5.147749   6.473561   7.218493
                    6          7          8          9         10
     6  O    0.000000
     7  O    2.245131   0.000000
     8  C    2.948933   3.330194   0.000000
     9  C    4.329940   4.691432   1.500838   0.000000
    10  C    5.479500   5.813911   2.602552   1.364387   0.000000
    11  N    6.548675   6.899692   3.731235   2.260207   1.380960
    12  C    6.239539   6.611567   3.648888   2.199698   2.131862
    13  N    4.955677   5.339390   2.543097   1.371806   2.170126
    14  C    5.797439   4.651745   4.787007   4.843923   5.838121
    15  C    7.072336   6.131352   5.766802   5.457099   6.280034
    16  N    8.297055   7.110412   7.086203   6.810586   7.554073
    17  H    3.861636   2.403327   2.988015   3.700072   4.762961
    18  H    2.532043   3.168209   2.154028   2.833718   4.191649
    19  H    0.965395   2.274709   3.764167   5.203862   6.303888
    20  H    2.584491   3.647803   1.092785   2.130078   3.027210
    21  H    3.314486   3.200408   1.091573   2.115901   2.819821
    22  H    5.789618   6.087364   3.020722   2.202397   1.080487
    23  H    7.041635   7.414756   4.614734   3.223692   3.183762
    24  H    4.756426   5.105383   2.849236   2.129899   3.152290
    25  H    5.969098   4.527432   4.771348   4.878703   5.742811
    26  H    5.884068   4.627178   5.412168   5.679727   6.768080
    27  H    7.288932   6.455741   5.554797   4.993606   5.626906
    28  H    7.119060   6.454889   6.008620   5.670465   6.568730
    29  H    8.479193   7.097032   7.147630   6.900550   7.552256
    30  H    8.352161   7.099476   7.490032   7.380946   8.238876
                   11         12         13         14         15
    11  N    0.000000
    12  C    1.310143   0.000000
    13  N    2.209738   1.355753   0.000000
    14  C    6.071751   5.257642   4.407482   0.000000
    15  C    6.174735   5.238633   4.706334   1.528877   0.000000
    16  N    7.417000   6.548670   6.113738   2.515813   1.461356
    17  H    5.557539   5.144986   4.027426   2.562347   3.977179
    18  H    4.871416   4.189363   2.840299   3.974946   4.947919
    19  H    7.430809   7.171923   5.891476   6.387821   7.741812
    20  H    4.172617   4.164041   3.129305   5.733607   6.714984
    21  H    4.097976   4.269610   3.331853   5.060328   6.131431
    22  H    2.147591   3.157181   3.228475   6.614278   7.148550
    23  H    2.131724   1.076018   2.128366   5.483707   5.172517
    24  H    3.178075   2.119804   1.013579   3.802567   4.091540
    25  H    6.084316   5.474918   4.687696   1.093853   2.174041
    26  H    7.073156   6.224890   5.278467   1.096239   2.149546
    27  H    5.375044   4.500919   4.201175   2.161199   1.091402
    28  H    6.374914   5.283656   4.737121   2.143903   1.089113
    29  H    7.484433   6.764398   6.362252   2.737139   2.047805
    30  H    8.192553   7.283635   6.714837   2.723620   2.045974
                   16         17         18         19         20
    16  N    0.000000
    17  H    4.966392   0.000000
    18  H    6.318054   2.918214   0.000000
    19  H    8.888728   4.351994   3.437306   0.000000
    20  H    8.068248   3.899926   2.447605   3.390476   0.000000
    21  H    7.336367   2.927535   3.057273   3.936299   1.743509
    22  H    8.364211   5.253745   4.920940   6.520312   3.296466
    23  H    6.422937   5.824530   4.811792   7.990143   5.119504
    24  H    5.543455   3.769782   2.347841   5.693001   3.440181
    25  H    2.812501   2.264808   4.412653   6.495558   5.792232
    26  H    2.735877   2.941166   4.318772   6.361912   6.275728
    27  H    2.069939   4.172198   5.063056   8.024848   6.533471
    28  H    2.084889   4.514816   4.868348   7.823759   6.853354
    29  H    1.013779   4.883227   6.644019   9.030427   8.181719
    30  H    1.014201   5.160645   6.517646   8.871894   8.431582
                   21         22         23         24         25
    21  H    0.000000
    22  H    2.903515   0.000000
    23  H    5.286114   4.172067   0.000000
    24  H    3.735267   4.186390   2.525516   0.000000
    25  H    4.806691   6.385356   5.821811   4.288763   0.000000
    26  H    5.687918   7.526642   6.439624   4.577508   1.761170
    27  H    5.895456   6.492737   4.389056   3.764564   2.506338
    28  H    6.540429   7.521072   5.081446   3.969487   3.059690
    29  H    7.248337   8.266772   6.735980   5.916477   2.620358
    30  H    7.752481   9.049942   7.186906   6.051883   3.114266
                   26         27         28         29         30
    26  H    0.000000
    27  H    3.056623   0.000000
    28  H    2.503591   1.752359   0.000000
    29  H    3.038559   2.382874   2.934538   0.000000
    30  H    2.520079   2.923421   2.404713   1.625701   0.000000
 Symmetry turned off by external request.
 Stoichiometry    C9H14N4O3
 Framework group  C1[X(C9H14N4O3)]
 Deg. of freedom    84
 Full point group                 C1      NOp   1
 Rotational constants (GHZ):      0.5050640      0.4053310      0.2477507
 Standard basis: 6-31+G(d,p) (6D, 7F)
   374 basis functions,   610 primitive gaussians,   374 cartesian basis functions
    60 alpha electrons       60 beta electrons
       nuclear repulsion energy      1124.8072977319 Hartrees.
 NAtoms=   30 NActive=   30 NUniq=   30 SFac= 1.00D+00 NAtFMM=   60 NAOKFM=F Big=F
 Integral buffers will be    131072 words long.
 Raffenetti 2 integral format.
 Two-electron integral symmetry is turned off.
 One-electron integrals computed using PRISM.
 NBasis=   374 RedAO= T EigKep=  2.12D-06  NBF=   374
 NBsUse=   374 1.00D-06 EigRej= -1.00D+00 NBFU=   374
 ExpMin= 4.38D-02 ExpMax= 5.48D+03 ExpMxC= 8.25D+02 IAcc=3 IRadAn=         5 AccDes= 0.00D+00
 Harris functional with IExCor=  402 and IRadAn=       5 diagonalized for initial guess.
 HarFok:  IExCor=  402 AccDes= 0.00D+00 IRadAn=         5 IDoV= 1 UseB2=F ITyADJ=14
 ICtDFT=  3500011 ScaDFX=  1.000000  1.000000  1.000000  1.000000
 FoFCou: FMM=F IPFlag=           0 FMFlag=      100000 FMFlg1=           0
         NFxFlg=           0 DoJE=T BraDBF=F KetDBF=T FulRan=T
         wScrn=  0.000000 ICntrl=     500 IOpCl=  0 I1Cent=   200000004 NGrid=           0
         NMat0=    1 NMatS0=      1 NMatT0=    0 NMatD0=    1 NMtDS0=    0 NMtDT0=    0
 Symmetry not used in FoFCou.
 Requested convergence on RMS density matrix=1.00D-08 within 128 cycles.
 Requested convergence on MAX density matrix=1.00D-06.
 Requested convergence on             energy=1.00D-06.
 No special actions if energy rises.
 SCF Done:  E(RB3LYP) =  -796.151144108     A.U. after   15 cycles
            NFock= 15  Conv=0.40D-08     -V/T= 2.0089
 DoSCS=F DFT=T ScalE2(SS,OS)=  1.000000  1.000000
 Range of M.O.s used for correlation:     1   374
 NBasis=   374 NAE=    60 NBE=    60 NFC=     0 NFV=     0
 NROrb=    374 NOA=    60 NOB=    60 NVA=   314 NVB=   314

 **** Warning!!: The largest alpha MO coefficient is  0.17211484D+03

 Symmetrizing basis deriv contribution to polar:
 IMax=3 JMax=2 DiffMx= 0.00D+00
 G2DrvN: will do    31 centers at a time, making    1 passes.
 Calling FoFCou, ICntrl=  3107 FMM=F I1Cent=   0 AccDes= 0.00D+00.
 End of G2Drv F.D. properties file   721 does not exist.
 End of G2Drv F.D. properties file   722 does not exist.
 End of G2Drv F.D. properties file   788 does not exist.
          IDoAtm=111111111111111111111111111111
          Differentiating once with respect to nuclear coordinates.
          There are    93 degrees of freedom in the 1st order CPHF.  IDoFFX=6 NUNeed=     0.
     87 vectors produced by pass  0 Test12= 2.03D-14 1.08D-09 XBig12= 2.00D-01 7.91D-02.
 AX will form    87 AO Fock derivatives at one time.
     87 vectors produced by pass  1 Test12= 2.03D-14 1.08D-09 XBig12= 2.30D-02 3.25D-02.
     87 vectors produced by pass  2 Test12= 2.03D-14 1.08D-09 XBig12= 3.00D-04 1.57D-03.
     87 vectors produced by pass  3 Test12= 2.03D-14 1.08D-09 XBig12= 1.18D-06 1.02D-04.
     87 vectors produced by pass  4 Test12= 2.03D-14 1.08D-09 XBig12= 2.42D-09 5.23D-06.
     77 vectors produced by pass  5 Test12= 2.03D-14 1.08D-09 XBig12= 3.07D-12 1.41D-07.
     29 vectors produced by pass  6 Test12= 2.03D-14 1.08D-09 XBig12= 4.15D-15 6.13D-09.
      7 vectors produced by pass  7 Test12= 2.03D-14 1.08D-09 XBig12= 3.31D-16 2.30D-09.
      2 vectors produced by pass  8 Test12= 2.03D-14 1.08D-09 XBig12= 3.43D-16 2.06D-09.
 InvSVY:  IOpt=1 It=  1 EMax= 6.38D-16
 Solved reduced A of dimension   550 with    93 vectors.
 End of Minotr F.D. properties file   721 does not exist.
 End of Minotr F.D. properties file   722 does not exist.
 End of Minotr F.D. properties file   788 does not exist.

 **********************************************************************

            Population analysis using the SCF density.

 **********************************************************************

 Alpha  occ. eigenvalues --  -19.24131 -19.18980 -19.15425 -14.39777 -14.38432
 Alpha  occ. eigenvalues --  -14.33446 -14.31279 -10.36294 -10.32248 -10.27473
 Alpha  occ. eigenvalues --  -10.23312 -10.22751 -10.22514 -10.22331 -10.21807
 Alpha  occ. eigenvalues --  -10.19398  -1.15573  -1.07602  -1.06637  -1.01712
 Alpha  occ. eigenvalues --   -0.96691  -0.90237  -0.87043  -0.83155  -0.78150
 Alpha  occ. eigenvalues --   -0.75629  -0.69321  -0.67008  -0.63122  -0.62507
 Alpha  occ. eigenvalues --   -0.60731  -0.59091  -0.55972  -0.53512  -0.53250
 Alpha  occ. eigenvalues --   -0.52284  -0.51229  -0.50353  -0.49379  -0.47594
 Alpha  occ. eigenvalues --   -0.45912  -0.45453  -0.44584  -0.43446  -0.43279
 Alpha  occ. eigenvalues --   -0.42513  -0.41232  -0.40622  -0.40317  -0.39671
 Alpha  occ. eigenvalues --   -0.38580  -0.36528  -0.36172  -0.32663  -0.30091
 Alpha  occ. eigenvalues --   -0.29378  -0.27955  -0.26664  -0.25523  -0.22570
 Alpha virt. eigenvalues --   -0.03662  -0.02198  -0.01916  -0.00811   0.00692
 Alpha virt. eigenvalues --    0.01223   0.01761   0.02271   0.02476   0.03541
 Alpha virt. eigenvalues --    0.03926   0.04508   0.04768   0.05703   0.05938
 Alpha virt. eigenvalues --    0.06080   0.06829   0.07123   0.07622   0.08135
 Alpha virt. eigenvalues --    0.08908   0.09404   0.09778   0.10434   0.10830
 Alpha virt. eigenvalues --    0.11170   0.11512   0.12146   0.13386   0.13826
 Alpha virt. eigenvalues --    0.14086   0.14655   0.15050   0.15299   0.15865
 Alpha virt. eigenvalues --    0.15958   0.16783   0.17047   0.17508   0.17848
 Alpha virt. eigenvalues --    0.18179   0.18363   0.19232   0.19490   0.19874
 Alpha virt. eigenvalues --    0.20467   0.20949   0.21564   0.21864   0.22113
 Alpha virt. eigenvalues --    0.22527   0.23423   0.23591   0.24208   0.24355
 Alpha virt. eigenvalues --    0.24678   0.24867   0.25659   0.25936   0.26335
 Alpha virt. eigenvalues --    0.26720   0.26792   0.27237   0.27596   0.28475
 Alpha virt. eigenvalues --    0.28895   0.29083   0.29506   0.29577   0.30049
 Alpha virt. eigenvalues --    0.30465   0.31324   0.31550   0.31903   0.32356
 Alpha virt. eigenvalues --    0.32751   0.33355   0.34035   0.34850   0.35619
 Alpha virt. eigenvalues --    0.36217   0.36634   0.37314   0.37709   0.38971
 Alpha virt. eigenvalues --    0.39399   0.39771   0.40421   0.41214   0.42218
 Alpha virt. eigenvalues --    0.43030   0.43547   0.46147   0.47499   0.48278
 Alpha virt. eigenvalues --    0.50430   0.52568   0.53076   0.62777   0.63574
 Alpha virt. eigenvalues --    0.65773   0.66249   0.66827   0.68504   0.69411
 Alpha virt. eigenvalues --    0.70647   0.73445   0.73613   0.75417   0.75613
 Alpha virt. eigenvalues --    0.76764   0.78837   0.79504   0.80509   0.80573
 Alpha virt. eigenvalues --    0.82451   0.83919   0.85166   0.86562   0.87481
 Alpha virt. eigenvalues --    0.87846   0.88693   0.89009   0.89279   0.92183
 Alpha virt. eigenvalues --    0.92606   0.93176   0.94488   0.94781   0.97383
 Alpha virt. eigenvalues --    0.97972   0.98263   1.01575   1.01591   1.02735
 Alpha virt. eigenvalues --    1.03078   1.03875   1.05552   1.06934   1.07384
 Alpha virt. eigenvalues --    1.07881   1.08848   1.09759   1.10510   1.11420
 Alpha virt. eigenvalues --    1.12856   1.14236   1.15278   1.15887   1.17208
 Alpha virt. eigenvalues --    1.19537   1.21981   1.22365   1.24556   1.25375
 Alpha virt. eigenvalues --    1.26481   1.27223   1.28483   1.29580   1.30074
 Alpha virt. eigenvalues --    1.32128   1.32765   1.34425   1.35228   1.36107
 Alpha virt. eigenvalues --    1.37203   1.37624   1.38370   1.39960   1.40813
 Alpha virt. eigenvalues --    1.41533   1.42933   1.44473   1.45435   1.47825
 Alpha virt. eigenvalues --    1.48937   1.50128   1.52905   1.54108   1.55536
 Alpha virt. eigenvalues --    1.58108   1.59805   1.60598   1.62921   1.65088
 Alpha virt. eigenvalues --    1.66531   1.67969   1.70229   1.71456   1.73351
 Alpha virt. eigenvalues --    1.74157   1.75742   1.76598   1.78050   1.79410
 Alpha virt. eigenvalues --    1.80997   1.82807   1.85083   1.86810   1.88859
 Alpha virt. eigenvalues --    1.90134   1.90783   1.91620   1.93713   1.94422
 Alpha virt. eigenvalues --    1.96450   1.97916   1.99560   2.01905   2.03526
 Alpha virt. eigenvalues --    2.04816   2.05344   2.07982   2.09931   2.10862
 Alpha virt. eigenvalues --    2.12427   2.12978   2.14229   2.14710   2.16684
 Alpha virt. eigenvalues --    2.17279   2.18391   2.20986   2.21516   2.22852
 Alpha virt. eigenvalues --    2.23588   2.24651   2.26753   2.28423   2.29788
 Alpha virt. eigenvalues --    2.30508   2.32874   2.33335   2.34486   2.37518
 Alpha virt. eigenvalues --    2.39116   2.41709   2.42410   2.43544   2.46039
 Alpha virt. eigenvalues --    2.47634   2.49401   2.50717   2.51321   2.52862
 Alpha virt. eigenvalues --    2.54621   2.55404   2.57363   2.57761   2.59656
 Alpha virt. eigenvalues --    2.60225   2.63069   2.64994   2.65420   2.67148
 Alpha virt. eigenvalues --    2.68086   2.69313   2.69629   2.71621   2.72162
 Alpha virt. eigenvalues --    2.74010   2.74637   2.77559   2.78930   2.80612
 Alpha virt. eigenvalues --    2.81380   2.82641   2.87445   2.87899   2.89238
 Alpha virt. eigenvalues --    2.90457   2.91979   2.93409   2.94524   2.98880
 Alpha virt. eigenvalues --    3.01180   3.02066   3.05392   3.08019   3.08212
 Alpha virt. eigenvalues --    3.13741   3.17046   3.22147   3.26696   3.31125
 Alpha virt. eigenvalues --    3.34497   3.34923   3.36621   3.37175   3.39406
 Alpha virt. eigenvalues --    3.43588   3.47188   3.49416   3.54377   3.57353
 Alpha virt. eigenvalues --    3.59975   3.60275   3.75828   4.16281   4.22049
 Alpha virt. eigenvalues --    4.25581   4.31430   4.32181   4.35891   4.40314
 Alpha virt. eigenvalues --    4.41975   4.46430   4.53194   4.58509   4.60737
 Alpha virt. eigenvalues --    4.63616   4.70131   4.75321   4.85221
          Condensed to atoms (all electrons):
               1          2          3          4          5          6
     1  O    8.275769   0.396613  -0.157497  -0.081140   0.066075   0.000476
     2  C    0.396613   7.769681   0.058311   0.305600  -0.306055   0.009515
     3  N   -0.157497   0.058311   7.519651  -0.242946   0.048386   0.031022
     4  C   -0.081140   0.305600  -0.242946  14.625450  -4.605864  -0.110577
     5  C    0.066075  -0.306055   0.048386  -4.605864   8.175626   0.180720
     6  O    0.000476   0.009515   0.031022  -0.110577   0.180720   8.265220
     7  O    0.000641   0.035459   0.013803  -0.097144   0.565840  -0.155411
     8  C    0.069687  -1.018260  -0.073245  -6.907114   3.411909   0.013317
     9  C   -0.086076   0.282654   0.213884   3.449949  -1.808208  -0.035301
    10  C    0.008206   0.058387  -0.016775  -0.149890  -0.008957   0.001877
    11  N   -0.003256   0.004373   0.001573   0.025397  -0.014933  -0.000180
    12  C   -0.001856   0.108422  -0.031550   0.021543  -0.055897  -0.000853
    13  N   -0.030264   0.055623  -0.000528   0.089900  -0.044787  -0.001244
    14  C   -0.006837  -1.316702  -0.303758  -0.303988  -0.025720   0.002225
    15  C    0.021006  -0.811660   0.049609  -0.087803   0.004657   0.000160
    16  N   -0.000669   0.151716  -0.007403   0.009752   0.001996   0.000005
    17  H    0.007664  -0.005358   0.285740  -0.013810  -0.015335   0.000674
    18  H    0.002944   0.047352  -0.089308   0.507782  -0.102842  -0.003000
    19  H   -0.000033  -0.001381  -0.002989   0.000980   0.048853   0.200183
    20  H    0.000769  -0.012177   0.007802  -0.105062   0.014741   0.006006
    21  H   -0.000441   0.022659   0.003919   0.022353  -0.073449  -0.001701
    22  H   -0.000006  -0.000312   0.000339  -0.007919   0.003272   0.000015
    23  H   -0.000465   0.001834   0.000171  -0.004631  -0.000374   0.000000
    24  H    0.028704   0.012918  -0.012810   0.019917   0.015166   0.000098
    25  H    0.006722  -0.118081   0.018278   0.027326  -0.005599  -0.000005
    26  H   -0.000251  -0.085288  -0.004819  -0.009403  -0.002774  -0.000013
    27  H   -0.003495   0.060193  -0.003015  -0.002710  -0.000541   0.000000
    28  H    0.000180   0.078009   0.003524   0.009557  -0.000042   0.000000
    29  H   -0.000133   0.040688   0.000329   0.001557   0.000099   0.000000
    30  H   -0.000049   0.004036  -0.000504  -0.000377  -0.000061   0.000000
               7          8          9         10         11         12
     1  O    0.000641   0.069687  -0.086076   0.008206  -0.003256  -0.001856
     2  C    0.035459  -1.018260   0.282654   0.058387   0.004373   0.108422
     3  N    0.013803  -0.073245   0.213884  -0.016775   0.001573  -0.031550
     4  C   -0.097144  -6.907114   3.449949  -0.149890   0.025397   0.021543
     5  C    0.565840   3.411909  -1.808208  -0.008957  -0.014933  -0.055897
     6  O   -0.155411   0.013317  -0.035301   0.001877  -0.000180  -0.000853
     7  O    8.157650  -0.103630  -0.002772  -0.002147  -0.000014   0.000078
     8  C   -0.103630  21.063167  -8.765966  -0.398521  -0.208387  -0.411976
     9  C   -0.002772  -8.765966  13.109326  -1.406926  -0.070226   0.325526
    10  C   -0.002147  -0.398521  -1.406926   7.786513   0.471826  -0.617089
    11  N   -0.000014  -0.208387  -0.070226   0.471826   6.787979   0.436273
    12  C    0.000078  -0.411976   0.325526  -0.617089   0.436273   5.480498
    13  N    0.000493  -0.207294   0.304417  -0.044824  -0.028607   0.094497
    14  C   -0.002041  -0.360239   0.054381   0.028358   0.000898   0.007159
    15  C    0.000145   0.009499  -0.011147   0.018445  -0.001361  -0.026191
    16  N   -0.000030   0.003931  -0.001810  -0.001225  -0.000066   0.001417
    17  H    0.005851  -0.056398   0.017831   0.004519   0.000012   0.001341
    18  H    0.004845  -0.122986   0.019876   0.000049   0.000479   0.005433
    19  H    0.004448   0.000815  -0.009036  -0.000017   0.000000  -0.000042
    20  H    0.000989   0.587557  -0.149913  -0.028543  -0.001537  -0.008451
    21  H    0.001257   0.361881  -0.058893   0.018258   0.000586   0.002513
    22  H    0.000003   0.157450  -0.144164   0.354045  -0.069330   0.010057
    23  H    0.000000   0.016464   0.052274  -0.044965  -0.055223   0.450611
    24  H   -0.000032  -0.102819   0.047666   0.005410   0.008340  -0.003614
    25  H   -0.000060  -0.006857   0.003553  -0.000959   0.000010  -0.000819
    26  H    0.000083  -0.004504   0.001163   0.000299  -0.000001   0.000178
    27  H    0.000000  -0.003102  -0.000949   0.000712   0.000017   0.001713
    28  H   -0.000001   0.000303   0.000831  -0.000590  -0.000006  -0.000583
    29  H    0.000000   0.000191   0.000010  -0.000055   0.000000  -0.000089
    30  H    0.000000  -0.000001  -0.000018   0.000006   0.000000   0.000040
              13         14         15         16         17         18
     1  O   -0.030264  -0.006837   0.021006  -0.000669   0.007664   0.002944
     2  C    0.055623  -1.316702  -0.811660   0.151716  -0.005358   0.047352
     3  N   -0.000528  -0.303758   0.049609  -0.007403   0.285740  -0.089308
     4  C    0.089900  -0.303988  -0.087803   0.009752  -0.013810   0.507782
     5  C   -0.044787  -0.025720   0.004657   0.001996  -0.015335  -0.102842
     6  O   -0.001244   0.002225   0.000160   0.000005   0.000674  -0.003000
     7  O    0.000493  -0.002041   0.000145  -0.000030   0.005851   0.004845
     8  C   -0.207294  -0.360239   0.009499   0.003931  -0.056398  -0.122986
     9  C    0.304417   0.054381  -0.011147  -0.001810   0.017831   0.019876
    10  C   -0.044824   0.028358   0.018445  -0.001225   0.004519   0.000049
    11  N   -0.028607   0.000898  -0.001361  -0.000066   0.000012   0.000479
    12  C    0.094497   0.007159  -0.026191   0.001417   0.001341   0.005433
    13  N    7.004935  -0.023111  -0.007341   0.000426   0.000758   0.017782
    14  C   -0.023111   7.375423   0.513516  -0.146153   0.054706   0.001206
    15  C   -0.007341   0.513516   5.755302   0.135263   0.004348  -0.001374
    16  N    0.000426  -0.146153   0.135263   6.845484   0.000019   0.000016
    17  H    0.000758   0.054706   0.004348   0.000019   0.368655   0.003756
    18  H    0.017782   0.001206  -0.001374   0.000016   0.003756   0.505860
    19  H   -0.000040  -0.000029   0.000011   0.000000  -0.000001  -0.000217
    20  H   -0.002465  -0.000772   0.000133   0.000000  -0.000074  -0.004751
    21  H    0.012919   0.000637  -0.000540   0.000002   0.000595   0.005072
    22  H   -0.000502  -0.000200   0.000027   0.000000   0.000001  -0.000005
    23  H   -0.112038  -0.001519   0.000223   0.000010   0.000000   0.000003
    24  H    0.262263   0.008574  -0.000829   0.000073   0.000056  -0.000647
    25  H    0.000092   0.405152  -0.006582  -0.007820   0.001789  -0.000021
    26  H   -0.000120   0.437804   0.001380  -0.019080   0.000254   0.000011
    27  H   -0.000417  -0.085794   0.401404  -0.050430  -0.000009   0.000002
    28  H    0.000530  -0.140689   0.405881  -0.038614  -0.000004  -0.000002
    29  H    0.000011  -0.038733  -0.048044   0.364537   0.000000   0.000000
    30  H   -0.000011   0.016166  -0.056246   0.355065  -0.000001   0.000000
              19         20         21         22         23         24
     1  O   -0.000033   0.000769  -0.000441  -0.000006  -0.000465   0.028704
     2  C   -0.001381  -0.012177   0.022659  -0.000312   0.001834   0.012918
     3  N   -0.002989   0.007802   0.003919   0.000339   0.000171  -0.012810
     4  C    0.000980  -0.105062   0.022353  -0.007919  -0.004631   0.019917
     5  C    0.048853   0.014741  -0.073449   0.003272  -0.000374   0.015166
     6  O    0.200183   0.006006  -0.001701   0.000015   0.000000   0.000098
     7  O    0.004448   0.000989   0.001257   0.000003   0.000000  -0.000032
     8  C    0.000815   0.587557   0.361881   0.157450   0.016464  -0.102819
     9  C   -0.009036  -0.149913  -0.058893  -0.144164   0.052274   0.047666
    10  C   -0.000017  -0.028543   0.018258   0.354045  -0.044965   0.005410
    11  N    0.000000  -0.001537   0.000586  -0.069330  -0.055223   0.008340
    12  C   -0.000042  -0.008451   0.002513   0.010057   0.450611  -0.003614
    13  N   -0.000040  -0.002465   0.012919  -0.000502  -0.112038   0.262263
    14  C   -0.000029  -0.000772   0.000637  -0.000200  -0.001519   0.008574
    15  C    0.000011   0.000133  -0.000540   0.000027   0.000223  -0.000829
    16  N    0.000000   0.000000   0.000002   0.000000   0.000010   0.000073
    17  H   -0.000001  -0.000074   0.000595   0.000001   0.000000   0.000056
    18  H   -0.000217  -0.004751   0.005072  -0.000005   0.000003  -0.000647
    19  H    0.381532  -0.000058  -0.000093   0.000000   0.000000   0.000000
    20  H   -0.000058   0.538763  -0.035516   0.000089   0.000003   0.000054
    21  H   -0.000093  -0.035516   0.552862   0.000765   0.000004  -0.000016
    22  H    0.000000   0.000089   0.000765   0.577305  -0.000057  -0.000088
    23  H    0.000000   0.000003   0.000004  -0.000057   0.565605   0.000375
    24  H    0.000000   0.000054  -0.000016  -0.000088   0.000375   0.376558
    25  H    0.000000   0.000000  -0.000001   0.000000   0.000000  -0.000049
    26  H    0.000000   0.000000   0.000000   0.000000   0.000000   0.000003
    27  H    0.000000   0.000000   0.000000   0.000000  -0.000003   0.000003
    28  H    0.000000   0.000000   0.000000   0.000000   0.000000  -0.000035
    29  H    0.000000   0.000000   0.000000   0.000000   0.000000   0.000000
    30  H    0.000000   0.000000   0.000000   0.000000   0.000000   0.000000
              25         26         27         28         29         30
     1  O    0.006722  -0.000251  -0.003495   0.000180  -0.000133  -0.000049
     2  C   -0.118081  -0.085288   0.060193   0.078009   0.040688   0.004036
     3  N    0.018278  -0.004819  -0.003015   0.003524   0.000329  -0.000504
     4  C    0.027326  -0.009403  -0.002710   0.009557   0.001557  -0.000377
     5  C   -0.005599  -0.002774  -0.000541  -0.000042   0.000099  -0.000061
     6  O   -0.000005  -0.000013   0.000000   0.000000   0.000000   0.000000
     7  O   -0.000060   0.000083   0.000000  -0.000001   0.000000   0.000000
     8  C   -0.006857  -0.004504  -0.003102   0.000303   0.000191  -0.000001
     9  C    0.003553   0.001163  -0.000949   0.000831   0.000010  -0.000018
    10  C   -0.000959   0.000299   0.000712  -0.000590  -0.000055   0.000006
    11  N    0.000010  -0.000001   0.000017  -0.000006   0.000000   0.000000
    12  C   -0.000819   0.000178   0.001713  -0.000583  -0.000089   0.000040
    13  N    0.000092  -0.000120  -0.000417   0.000530   0.000011  -0.000011
    14  C    0.405152   0.437804  -0.085794  -0.140689  -0.038733   0.016166
    15  C   -0.006582   0.001380   0.401404   0.405881  -0.048044  -0.056246
    16  N   -0.007820  -0.019080  -0.050430  -0.038614   0.364537   0.355065
    17  H    0.001789   0.000254  -0.000009  -0.000004   0.000000  -0.000001
    18  H   -0.000021   0.000011   0.000002  -0.000002   0.000000   0.000000
    19  H    0.000000   0.000000   0.000000   0.000000   0.000000   0.000000
    20  H    0.000000   0.000000   0.000000   0.000000   0.000000   0.000000
    21  H   -0.000001   0.000000   0.000000   0.000000   0.000000   0.000000
    22  H    0.000000   0.000000   0.000000   0.000000   0.000000   0.000000
    23  H    0.000000   0.000000  -0.000003   0.000000   0.000000   0.000000
    24  H   -0.000049   0.000003   0.000003  -0.000035   0.000000   0.000000
    25  H    0.570830  -0.031232  -0.005447   0.004521   0.003068  -0.000697
    26  H   -0.031232   0.539397   0.004456  -0.005327  -0.000801   0.003861
    27  H   -0.005447   0.004456   0.559888  -0.025418  -0.006514   0.006184
    28  H    0.004521  -0.005327  -0.025418   0.532947   0.005720  -0.006365
    29  H    0.003068  -0.000801  -0.006514   0.005720   0.438561  -0.045875
    30  H   -0.000697   0.003861   0.006184  -0.006365  -0.045875   0.442057
 Mulliken charges:
               1
     1  O   -0.512988
     2  C    0.171233
     3  N   -0.309195
     4  C   -0.386684
     5  C    0.534099
     6  O   -0.403228
     7  O   -0.428303
     8  C   -0.944872
     9  C    0.668065
    10  C   -0.035428
    11  N   -0.284636
    12  C    0.211710
    13  N   -0.341055
    14  C   -0.149920
    15  C   -0.261890
    16  N   -0.596413
    17  H    0.332422
    18  H    0.202687
    19  H    0.377115
    20  H    0.192415
    21  H    0.164365
    22  H    0.119216
    23  H    0.131701
    24  H    0.334760
    25  H    0.142886
    26  H    0.174724
    27  H    0.153273
    28  H    0.175674
    29  H    0.285472
    30  H    0.282791
 Sum of Mulliken charges =   0.00000
 Mulliken charges with hydrogens summed into heavy atoms:
               1
     1  O   -0.512988
     2  C    0.171233
     3  N    0.023228
     4  C   -0.183997
     5  C    0.534099
     6  O   -0.026112
     7  O   -0.428303
     8  C   -0.588092
     9  C    0.668065
    10  C    0.083789
    11  N   -0.284636
    12  C    0.343411
    13  N   -0.006295
    14  C    0.167690
    15  C    0.067058
    16  N   -0.028150
 APT charges:
               1
     1  O   -0.494931
     2  C    0.246239
     3  N   -0.489114
     4  C   -0.826255
     5  C   -0.108374
     6  O   -0.821795
     7  O   -0.085296
     8  C   -1.446160
     9  C    0.646620
    10  C   -0.483927
    11  N   -0.136915
    12  C   -0.200756
    13  N   -0.637478
    14  C   -0.568957
    15  C   -0.862064
    16  N   -1.148969
    17  H    0.620791
    18  H    0.372299
    19  H    1.160514
    20  H    0.630650
    21  H    0.439885
    22  H    0.754252
    23  H    0.611041
    24  H    0.222429
    25  H    0.311424
    26  H    0.559417
    27  H    0.230475
    28  H    0.404072
    29  H    0.458461
    30  H    0.642423
 Sum of APT charges =   0.00000
 APT charges with hydrogens summed into heavy atoms:
               1
     1  O   -0.494931
     2  C    0.246239
     3  N    0.131676
     4  C   -0.453956
     5  C   -0.108374
     6  O    0.338718
     7  O   -0.085296
     8  C   -0.375625
     9  C    0.646620
    10  C    0.270324
    11  N   -0.136915
    12  C    0.410285
    13  N   -0.415048
    14  C    0.301884
    15  C   -0.227517
    16  N   -0.048085
 Electronic spatial extent (au):  <R**2>=           4434.1831
 Charge=              0.0000 electrons
 Dipole moment (field-independent basis, Debye):
    X=              1.6466    Y=              4.2880    Z=             -3.7203  Tot=              5.9109
 Quadrupole moment (field-independent basis, Debye-Ang):
   XX=           -101.1264   YY=           -100.2731   ZZ=           -100.3060
   XY=             -3.0520   XZ=             11.1695   YZ=              4.2284
 Traceless Quadrupole moment (field-independent basis, Debye-Ang):
   XX=             -0.5579   YY=              0.2954   ZZ=              0.2625
   XY=             -3.0520   XZ=             11.1695   YZ=              4.2284
 Octapole moment (field-independent basis, Debye-Ang**2):
  XXX=            112.9192  YYY=            -13.0533  ZZZ=            -46.0411  XYY=             20.7303
  XXY=             79.4187  XXZ=            -55.8556  XZZ=             32.5544  YZZ=             48.1629
  YYZ=              5.2221  XYZ=              8.9430
 Hexadecapole moment (field-independent basis, Debye-Ang**3):
 XXXX=          -3242.8530 YYYY=          -1210.2496 ZZZZ=          -1468.9269 XXXY=             39.6844
 XXXZ=           -144.9026 YYYX=             -6.1008 YYYZ=            500.5507 ZZZX=             65.0948
 ZZZY=            433.3356 XXYY=           -779.0546 XXZZ=           -890.1070 YYZZ=           -439.2438
 XXYZ=            285.3276 YYXZ=             31.7734 ZZXY=            -88.5132
 N-N= 1.124807297732D+03 E-N=-4.104548159903D+03  KE= 7.891564611580D+02
  Exact polarizability:   0.000   0.000   0.000   0.000   0.000   0.000
 Approx polarizability: 195.226  -8.052 219.154  -7.239 -10.121 191.110
 Calling FoFJK, ICntrl=    100147 FMM=F ISym2X=0 I1Cent= 0 IOpClX= 0 NMat=1 NMatS=1 NMatT=0.
 -------------------------------------------------------------------
 Center     Atomic                   Forces (Hartrees/Bohr)
 Number     Number              X              Y              Z
 -------------------------------------------------------------------
      1        8          -0.000274441   -0.009077020    0.000032585
      2        6           0.007322672    0.001989677   -0.001207988
      3        7          -0.003603195    0.003365695   -0.001628792
      4        6          -0.000884613    0.002387764    0.001730224
      5        6          -0.007276430   -0.012278992   -0.004115018
      6        8           0.000910944   -0.003066838    0.001990846
      7        8           0.009520530    0.014408702    0.001780976
      8        6          -0.008840612   -0.004080593    0.004025276
      9        6           0.003857731    0.007659668   -0.008616951
     10        6          -0.007463333   -0.001685069    0.012535384
     11        7          -0.007149838    0.003539067    0.003697829
     12        6           0.002307368   -0.006142598    0.002540746
     13        7           0.004449209   -0.002014639   -0.007094453
     14        6          -0.002386417    0.001824645   -0.001112629
     15        6           0.003277514   -0.001532332    0.003152204
     16        7          -0.000887646   -0.000222948   -0.000987601
     17        1           0.000923145    0.002781619    0.001839875
     18        1           0.001234846   -0.002082009   -0.002108030
     19        1          -0.002740866    0.005235665   -0.006523833
     20        1          -0.001751399   -0.000322858   -0.002563725
     21        1           0.001145629    0.003556815    0.001206045
     22        1          -0.000436430    0.000888200    0.000109689
     23        1           0.001263718   -0.003410182    0.001818079
     24        1           0.003447788   -0.002071690   -0.002386073
     25        1           0.001535684    0.001970135    0.001645860
     26        1           0.000393380    0.000918203   -0.002033261
     27        1          -0.002622122   -0.001196009    0.001253933
     28        1           0.000138293   -0.002495669   -0.000979325
     29        1           0.000891961    0.001739372    0.003466522
     30        1           0.003696929   -0.000585781   -0.001468391
 -------------------------------------------------------------------
 Cartesian Forces:  Max     0.014408702 RMS     0.004284759
 FormGI is forming the generalized inverse of G from B-inverse, IUseBI=4.
 GSVD:  received Info=                   1 from GESDD.

 GradGradGradGradGradGradGradGradGradGradGradGradGradGradGradGradGradGrad
 Berny optimization.
 Internal  Forces:  Max     0.017295548 RMS     0.003584870
 Search for a local minimum.
 Step number   1 out of a maximum of  160
 All quantities printed in internal units (Hartrees-Bohrs-Radians)
 Mixed Optimization -- RFO/linear search
 Second derivative matrix not updated -- analytic derivatives used.
 ITU=  0
     Eigenvalues ---    0.00022   0.00029   0.00254   0.00262   0.00294
     Eigenvalues ---    0.00530   0.00576   0.00901   0.01057   0.01583
     Eigenvalues ---    0.01994   0.02073   0.02354   0.02973   0.03098
     Eigenvalues ---    0.03644   0.03919   0.04211   0.04312   0.04463
     Eigenvalues ---    0.04486   0.04703   0.04896   0.05361   0.05432
     Eigenvalues ---    0.05852   0.06143   0.06214   0.07810   0.08456
     Eigenvalues ---    0.08609   0.10784   0.10894   0.11561   0.11844
     Eigenvalues ---    0.12039   0.12960   0.13674   0.14743   0.15607
     Eigenvalues ---    0.16397   0.17698   0.18327   0.18556   0.19042
     Eigenvalues ---    0.21240   0.21914   0.22657   0.23487   0.23761
     Eigenvalues ---    0.24896   0.25029   0.25852   0.28092   0.28891
     Eigenvalues ---    0.31129   0.33271   0.33663   0.33882   0.34055
     Eigenvalues ---    0.34354   0.34587   0.34728   0.34999   0.35364
     Eigenvalues ---    0.36430   0.37329   0.37859   0.38253   0.38441
     Eigenvalues ---    0.42342   0.42840   0.44262   0.45664   0.45894
     Eigenvalues ---    0.46442   0.47537   0.48559   0.49339   0.53748
     Eigenvalues ---    0.60062   0.68661   0.81090   0.92682
 RFO step:  Lambda=-5.04249596D-03 EMin= 2.21437331D-04
 Linear search not attempted -- first point.
 Iteration  1 RMS(Cart)=  0.07232712 RMS(Int)=  0.00250360
 Iteration  2 RMS(Cart)=  0.00365565 RMS(Int)=  0.00015555
 Iteration  3 RMS(Cart)=  0.00001046 RMS(Int)=  0.00015549
 Iteration  4 RMS(Cart)=  0.00000000 RMS(Int)=  0.00015549
 Variable       Old X    -DE/DX   Delta X   Delta X   Delta X     New X
                                 (Linear)    (Quad)   (Total)
    R1        2.32883   0.00840   0.00000   0.00881   0.00881   2.33764
    R2        2.55756   0.01254   0.00000   0.01933   0.01933   2.57688
    R3        2.86147   0.00487   0.00000   0.01121   0.01121   2.87268
    R4        2.73197   0.00800   0.00000   0.01383   0.01383   2.74579
    R5        1.90693   0.00323   0.00000   0.00670   0.00670   1.91363
    R6        2.85851   0.00772   0.00000   0.02346   0.02346   2.88198
    R7        2.90151   0.01060   0.00000   0.03163   0.03163   2.93314
    R8        2.05757   0.00294   0.00000   0.00992   0.00992   2.06750
    R9        2.54840   0.00400   0.00000  -0.00141  -0.00141   2.54699
   R10        2.27370   0.01730   0.00000   0.01885   0.01885   2.29255
   R11        1.82433   0.00817   0.00000   0.01411   0.01411   1.83845
   R12        2.83617   0.00411   0.00000   0.00373   0.00373   2.83990
   R13        2.06506   0.00300   0.00000   0.00833   0.00833   2.07340
   R14        2.06277   0.00354   0.00000   0.00935   0.00935   2.07212
   R15        2.57832   0.01455   0.00000   0.02689   0.02688   2.60519
   R16        2.59234   0.01057   0.00000   0.01936   0.01946   2.61180
   R17        2.60964  -0.00001   0.00000  -0.00745  -0.00755   2.60209
   R18        2.04182   0.00091   0.00000   0.00255   0.00255   2.04437
   R19        2.47581   0.00904   0.00000   0.01433   0.01429   2.49010
   R20        2.56200   0.01085   0.00000   0.01994   0.02000   2.58200
   R21        2.03338   0.00393   0.00000   0.00923   0.00923   2.04261
   R22        1.91539   0.00451   0.00000   0.01101   0.01101   1.92640
   R23        2.88916   0.00737   0.00000   0.02689   0.02689   2.91605
   R24        2.06708   0.00231   0.00000   0.00616   0.00616   2.07325
   R25        2.07159   0.00197   0.00000   0.00537   0.00537   2.07696
   R26        2.76156   0.00391   0.00000  -0.00109  -0.00109   2.76047
   R27        2.06245   0.00282   0.00000   0.00802   0.00802   2.07047
   R28        2.05813   0.00259   0.00000   0.00701   0.00701   2.06513
   R29        1.91576   0.00346   0.00000   0.00501   0.00501   1.92078
   R30        1.91656   0.00326   0.00000   0.00439   0.00439   1.92095
    A1        2.12142   0.00266   0.00000   0.00519   0.00517   2.12659
    A2        2.14078  -0.00290   0.00000  -0.00945  -0.00947   2.13132
    A3        2.02094   0.00025   0.00000   0.00436   0.00434   2.02528
    A4        2.11622   0.00747   0.00000   0.02041   0.02034   2.13656
    A5        2.08379  -0.00376   0.00000  -0.01019  -0.01027   2.07352
    A6        2.02958  -0.00334   0.00000  -0.00393  -0.00399   2.02559
    A7        1.90546  -0.00368   0.00000  -0.01659  -0.01679   1.88868
    A8        1.98355   0.00202   0.00000   0.01414   0.01421   1.99776
    A9        1.88359   0.00040   0.00000  -0.00681  -0.00696   1.87664
   A10        1.88388   0.00226   0.00000   0.01610   0.01616   1.90004
   A11        1.90111  -0.00038   0.00000  -0.00804  -0.00818   1.89294
   A12        1.90502  -0.00073   0.00000   0.00025   0.00030   1.90532
   A13        1.94285   0.00314   0.00000   0.01120   0.01119   1.95404
   A14        2.19042  -0.00320   0.00000  -0.01477  -0.01478   2.17564
   A15        2.14929   0.00006   0.00000   0.00379   0.00378   2.15307
   A16        1.85090   0.00592   0.00000   0.02925   0.02925   1.88015
   A17        2.01653   0.00408   0.00000   0.00375   0.00375   2.02028
   A18        1.87036  -0.00063   0.00000  -0.00854  -0.00858   1.86177
   A19        1.91996  -0.00342   0.00000  -0.01998  -0.02001   1.89995
   A20        1.90971  -0.00144   0.00000   0.01197   0.01196   1.92167
   A21        1.89153   0.00015   0.00000   0.00277   0.00272   1.89425
   A22        1.84853   0.00103   0.00000   0.01096   0.01082   1.85935
   A23        2.27747  -0.00204   0.00000  -0.00658  -0.00674   2.27073
   A24        2.17313   0.00317   0.00000   0.00911   0.00892   2.18206
   A25        1.83182  -0.00115   0.00000  -0.00345  -0.00338   1.82844
   A26        1.93433   0.00094   0.00000   0.00314   0.00312   1.93745
   A27        2.23675  -0.00084   0.00000  -0.00861  -0.00861   2.22814
   A28        2.11211  -0.00010   0.00000   0.00546   0.00546   2.11757
   A29        1.82824   0.00191   0.00000   0.00473   0.00466   1.83290
   A30        1.95405   0.00025   0.00000   0.00018   0.00027   1.95432
   A31        2.20470  -0.00117   0.00000  -0.00754  -0.00760   2.19710
   A32        2.12444   0.00092   0.00000   0.00735   0.00730   2.13174
   A33        1.87629  -0.00195   0.00000  -0.00462  -0.00474   1.87155
   A34        2.19588   0.00208   0.00000   0.00298   0.00248   2.19836
   A35        2.20485  -0.00012   0.00000  -0.00352  -0.00397   2.20088
   A36        1.97253   0.00039   0.00000  -0.00328  -0.00329   1.96925
   A37        1.90593   0.00140   0.00000   0.01963   0.01965   1.92558
   A38        1.87852  -0.00122   0.00000  -0.00948  -0.00946   1.86906
   A39        1.93534  -0.00141   0.00000  -0.01084  -0.01084   1.92450
   A40        1.89926   0.00107   0.00000   0.00816   0.00815   1.90741
   A41        1.86850  -0.00027   0.00000  -0.00437  -0.00433   1.86417
   A42        1.99920   0.00289   0.00000   0.01436   0.01435   2.01355
   A43        1.92010  -0.00159   0.00000  -0.01345  -0.01351   1.90660
   A44        1.89875  -0.00019   0.00000  -0.00021  -0.00027   1.89848
   A45        1.87581  -0.00002   0.00000   0.00729   0.00734   1.88315
   A46        1.89866  -0.00122   0.00000  -0.00249  -0.00251   1.89614
   A47        1.86679  -0.00005   0.00000  -0.00678  -0.00682   1.85996
   A48        1.92590   0.00228   0.00000   0.02610   0.02547   1.95137
   A49        1.92274   0.00278   0.00000   0.02637   0.02574   1.94849
   A50        1.86005  -0.00068   0.00000   0.01920   0.01805   1.87811
    D1       -0.15769  -0.00172   0.00000  -0.03601  -0.03607  -0.19376
    D2       -2.94064  -0.00216   0.00000  -0.05541  -0.05541  -2.99606
    D3        2.97419  -0.00060   0.00000  -0.02443  -0.02442   2.94977
    D4        0.19124  -0.00103   0.00000  -0.04382  -0.04377   0.14747
    D5       -0.58554  -0.00005   0.00000  -0.04179  -0.04182  -0.62736
    D6       -2.74848   0.00045   0.00000  -0.04008  -0.04012  -2.78860
    D7        1.51209   0.00070   0.00000  -0.04004  -0.04003   1.47206
    D8        2.56588  -0.00122   0.00000  -0.05360  -0.05359   2.51229
    D9        0.40293  -0.00072   0.00000  -0.05189  -0.05189   0.35105
   D10       -1.61968  -0.00047   0.00000  -0.05185  -0.05180  -1.67148
   D11       -2.19703   0.00094   0.00000  -0.02588  -0.02600  -2.22303
   D12        1.98219  -0.00066   0.00000  -0.04397  -0.04396   1.93823
   D13       -0.13312  -0.00132   0.00000  -0.04856  -0.04853  -0.18165
   D14        0.59648   0.00119   0.00000  -0.00849  -0.00855   0.58793
   D15       -1.50748  -0.00041   0.00000  -0.02657  -0.02651  -1.53399
   D16        2.66040  -0.00107   0.00000  -0.03116  -0.03108   2.62931
   D17        2.86584  -0.00128   0.00000  -0.00903  -0.00893   2.85692
   D18       -0.31291  -0.00097   0.00000  -0.00261  -0.00253  -0.31545
   D19       -1.25340   0.00035   0.00000   0.00826   0.00824  -1.24516
   D20        1.85103   0.00065   0.00000   0.01467   0.01463   1.86566
   D21        0.81293   0.00055   0.00000   0.01319   0.01314   0.82608
   D22       -2.36582   0.00085   0.00000   0.01961   0.01954  -2.34628
   D23       -1.02269  -0.00169   0.00000   0.00167   0.00171  -1.02098
   D24        3.12731  -0.00206   0.00000  -0.00982  -0.00973   3.11758
   D25        1.12545  -0.00120   0.00000  -0.00797  -0.00793   1.11752
   D26       -3.13876   0.00007   0.00000   0.00218   0.00210  -3.13666
   D27        1.01124  -0.00031   0.00000  -0.00931  -0.00934   1.00190
   D28       -0.99062   0.00056   0.00000  -0.00746  -0.00754  -0.99816
   D29        1.08059  -0.00036   0.00000   0.00250   0.00248   1.08307
   D30       -1.05259  -0.00073   0.00000  -0.00899  -0.00896  -1.06155
   D31       -3.05445   0.00013   0.00000  -0.00714  -0.00716  -3.06161
   D32        3.11217  -0.00023   0.00000  -0.00962  -0.00958   3.10258
   D33        0.00671  -0.00045   0.00000  -0.01539  -0.01542  -0.00871
   D34        2.85446  -0.00147   0.00000  -0.03170  -0.03172   2.82274
   D35       -0.33563  -0.00211   0.00000  -0.06093  -0.06095  -0.39658
   D36       -1.31667  -0.00056   0.00000  -0.03106  -0.03107  -1.34774
   D37        1.77642  -0.00120   0.00000  -0.06029  -0.06030   1.71612
   D38        0.69137  -0.00002   0.00000  -0.01019  -0.01015   0.68123
   D39       -2.49872  -0.00066   0.00000  -0.03942  -0.03938  -2.53810
   D40        3.10774  -0.00063   0.00000  -0.02771  -0.02754   3.08020
   D41       -0.03206  -0.00036   0.00000  -0.02063  -0.02054  -0.05260
   D42        0.00751  -0.00018   0.00000  -0.00309  -0.00309   0.00442
   D43       -3.13229   0.00009   0.00000   0.00399   0.00391  -3.12838
   D44       -3.11273   0.00058   0.00000   0.02122   0.02133  -3.09140
   D45        0.14204   0.00045   0.00000   0.06875   0.06891   0.21095
   D46       -0.00931   0.00001   0.00000  -0.00196  -0.00196  -0.01127
   D47       -3.03773  -0.00011   0.00000   0.04558   0.04562  -2.99211
   D48       -0.00267   0.00030   0.00000   0.00706   0.00707   0.00440
   D49        3.13728   0.00005   0.00000   0.00055   0.00056   3.13784
   D50       -0.00351  -0.00031   0.00000  -0.00841  -0.00843  -0.01194
   D51        3.13674  -0.00009   0.00000  -0.01487  -0.01480   3.12194
   D52        0.00831   0.00020   0.00000   0.00678   0.00676   0.01507
   D53        3.03598   0.00051   0.00000  -0.04052  -0.04037   2.99561
   D54       -3.13201  -0.00001   0.00000   0.01292   0.01287  -3.11914
   D55       -0.10434   0.00030   0.00000  -0.03438  -0.03426  -0.13860
   D56        3.05691  -0.00064   0.00000   0.00270   0.00273   3.05963
   D57       -1.11131   0.00017   0.00000   0.01214   0.01210  -1.09922
   D58        0.92831  -0.00090   0.00000  -0.00376  -0.00376   0.92456
   D59       -1.07957   0.00042   0.00000   0.01783   0.01786  -1.06171
   D60        1.03539   0.00123   0.00000   0.02727   0.02723   1.06262
   D61        3.07502   0.00016   0.00000   0.01136   0.01138   3.08640
   D62        0.97119  -0.00007   0.00000   0.01113   0.01117   0.98236
   D63        3.08615   0.00073   0.00000   0.02058   0.02054   3.10669
   D64       -1.15741  -0.00034   0.00000   0.00467   0.00469  -1.15272
   D65        1.03793   0.00072   0.00000   0.01437   0.01470   1.05263
   D66       -1.01116  -0.00152   0.00000  -0.04103  -0.04130  -1.05246
   D67       -1.10121   0.00085   0.00000   0.01669   0.01694  -1.08427
   D68        3.13288  -0.00139   0.00000  -0.03872  -0.03906   3.09383
   D69       -3.11660   0.00154   0.00000   0.02207   0.02238  -3.09422
   D70        1.11749  -0.00070   0.00000  -0.03333  -0.03362   1.08387
         Item               Value     Threshold  Converged?
 Maximum Force            0.017296     0.000450     NO 
 RMS     Force            0.003585     0.000300     NO 
 Maximum Displacement     0.301427     0.001800     NO 
 RMS     Displacement     0.073951     0.001200     NO 
 Predicted change in Energy=-2.701449D-03
 GradGradGradGradGradGradGradGradGradGradGradGradGradGradGradGradGradGrad

                          Input orientation:                          
 ---------------------------------------------------------------------
 Center     Atomic      Atomic             Coordinates (Angstroms)
 Number     Number       Type             X           Y           Z
 ---------------------------------------------------------------------
      1          8           0        0.924814   -1.275333   -0.795769
      2          6           0        1.160928   -0.113879   -0.441502
      3          7           0        0.235864    0.879698   -0.570114
      4          6           0       -0.987507    0.710600   -1.335630
      5          6           0       -1.086819    1.858172   -2.335166
      6          8           0       -1.982613    1.602118   -3.309115
      7          8           0       -0.465248    2.897052   -2.256735
      8          6           0       -2.281894    0.677153   -0.479698
      9          6           0       -2.344789   -0.399139    0.567243
     10          6           0       -3.149432   -0.508396    1.681324
     11          7           0       -2.931068   -1.701651    2.332855
     12          6           0       -1.999731   -2.310593    1.627062
     13          7           0       -1.616853   -1.573736    0.542015
     14          6           0        2.495110    0.290837    0.164341
     15          6           0        3.101710   -0.806508    1.063817
     16          7           0        4.434146   -0.519361    1.589210
     17          1           0        0.517116    1.834977   -0.386262
     18          1           0       -0.900725   -0.227186   -1.892427
     19          1           0       -2.022390    2.383186   -3.887746
     20          1           0       -3.119781    0.571377   -1.180119
     21          1           0       -2.406960    1.649290    0.011897
     22          1           0       -3.878009    0.204845    2.043027
     23          1           0       -1.562019   -3.272949    1.852072
     24          1           0       -0.834866   -1.780099   -0.078549
     25          1           0        2.390251    1.227518    0.725850
     26          1           0        3.180043    0.495675   -0.670457
     27          1           0        2.435355   -0.984813    1.915065
     28          1           0        3.142852   -1.741230    0.499141
     29          1           0        4.441311    0.320396    2.161826
     30          1           0        5.111283   -0.388149    0.842492
 ---------------------------------------------------------------------
                    Distance matrix (angstroms):
                    1          2          3          4          5
     1  O    0.000000
     2  C    1.237025   0.000000
     3  N    2.273705   1.363628   0.000000
     4  C    2.809333   2.468806   1.453012   0.000000
     5  C    4.029301   3.539395   2.412946   1.525076   0.000000
     6  O    4.801017   4.587996   3.598007   2.383208   1.347809
     7  O    4.634165   3.873658   2.721390   2.429353   1.213166
     8  C    3.767635   3.532734   2.527509   1.552153   2.503152
     9  C    3.649085   3.659097   3.096575   2.587405   3.886119
    10  C    4.829458   4.820917   4.296046   3.906647   5.097766
    11  N    4.983759   5.192543   5.011991   4.801476   6.153374
    12  C    3.936348   4.369700   4.472519   4.350834   5.823338
    13  N    2.887695   3.288549   3.269363   3.023214   4.509668
    14  C    2.416719   1.520159   2.447525   3.815067   4.640505
    15  C    2.901161   2.551931   3.704875   4.978017   6.016426
    16  N    4.309876   3.873263   4.923985   6.281864   7.178750
    17  H    3.163533   2.053190   1.012651   2.104617   2.524157
    18  H    2.373576   2.523576   2.065318   1.094073   2.139945
    19  H    5.624152   5.314645   4.285658   3.222083   1.887177
    20  H    4.462826   4.397682   3.424547   2.142466   2.668878
    21  H    4.506269   4.005516   2.813454   2.170672   2.700946
    22  H    5.772070   5.627198   4.920151   4.475055   5.449111
    23  H    4.145584   4.759689   5.132626   5.134216   6.639818
    24  H    1.966130   2.625113   2.909059   2.794125   4.288685
    25  H    3.275225   2.161780   2.538088   3.990759   4.675207
    26  H    2.870232   2.121509   2.970813   4.225768   4.778468
    27  H    3.116851   2.817108   3.806610   5.015718   6.209085
    28  H    2.610277   2.731502   4.057481   5.141762   6.235311
    29  H    4.864101   4.210324   5.045999   6.469662   7.290261
    30  H    4.582305   4.162832   5.231884   6.568615   7.318466
                    6          7          8          9         10
     6  O    0.000000
     7  O    2.255383   0.000000
     8  C    2.991777   3.374316   0.000000
     9  C    4.377482   4.729947   1.502812   0.000000
    10  C    5.542583   5.857494   2.613076   1.378610   0.000000
    11  N    6.606533   6.949293   3.740399   2.271045   1.376965
    12  C    6.298845   6.675184   3.666699   2.212677   2.138380
    13  N    5.005101   5.398809   2.559820   1.382103   2.186726
    14  C    5.816731   4.627925   4.835679   4.905408   5.899227
    15  C    7.125613   6.120916   5.793692   5.484240   6.288637
    16  N    8.346800   7.104029   7.128620   6.856591   7.584146
    17  H    3.853043   2.364680   3.030469   3.753791   4.817664
    18  H    2.554181   3.175409   2.172846   2.857423   4.231721
    19  H    0.972863   2.312779   3.820037   5.262338   6.375423
    20  H    2.624538   3.689771   1.097194   2.143779   3.058537
    21  H    3.348345   3.236332   1.096520   2.123284   2.827342
    22  H    5.847249   6.114153   3.022383   2.212125   1.081834
    23  H    7.112034   7.493605   4.643132   3.243810   3.192458
    24  H    4.815940   5.172703   2.879739   2.145686   3.173578
    25  H    5.961813   4.453878   4.856458   5.009170   5.883403
    26  H    5.902520   4.644462   5.468278   5.732047   6.826514
    27  H    7.314555   6.394239   5.545219   5.000942   5.609943
    28  H    7.207717   6.490523   6.019515   5.649784   6.519991
    29  H    8.534683   7.087817   7.232317   7.007966   7.650958
    30  H    8.456972   7.176034   7.585652   7.461160   8.304067
                   11         12         13         14         15
    11  N    0.000000
    12  C    1.317703   0.000000
    13  N    2.225001   1.366338   0.000000
    14  C    6.173805   5.395424   4.530730   0.000000
    15  C    6.229458   5.348291   4.808924   1.543109   0.000000
    16  N    7.496479   6.678677   6.230804   2.539002   1.460780
    17  H    5.638378   5.251071   4.127330   2.569046   3.969924
    18  H    4.914198   4.234997   2.872725   4.003791   5.009439
    19  H    7.497164   7.241905   5.953527   6.419123   7.806954
    20  H    4.188467   4.176186   3.134654   5.780423   6.755795
    21  H    4.109786   4.295959   3.360535   5.089099   6.122329
    22  H    2.148353   3.166762   3.244875   6.644810   7.120264
    23  H    2.138790   1.080903   2.146294   5.657677   5.334327
    24  H    3.196105   2.132474   1.019407   3.928933   4.213017
    25  H    6.283226   5.709848   4.892618   1.097114   2.181205
    26  H    7.154984   6.323274   5.363093   1.099081   2.170144
    27  H    5.430184   4.637956   4.318853   2.167000   1.095647
    28  H    6.344807   5.295521   4.762844   2.158925   1.092821
    29  H    7.646561   6.978188   6.550792   2.788999   2.066414
    30  H    8.284074   7.407960   6.838401   2.786624   2.064557
                   16         17         18         19         20
    16  N    0.000000
    17  H    4.978808   0.000000
    18  H    6.377148   2.920842   0.000000
    19  H    8.950346   4.360047   3.471811   0.000000
    20  H    8.119158   3.931147   2.463594   3.437755   0.000000
    21  H    7.347904   2.956895   3.068607   3.986692   1.758100
    22  H    8.355977   5.279763   4.953652   6.585026   3.331355
    23  H    6.603434   5.951794   4.871884   8.071513   5.138059
    24  H    5.668631   3.871863   2.388730   5.766553   3.458863
    25  H    2.823913   2.261512   4.449951   6.487853   5.867172
    26  H    2.776539   2.994274   4.320695   6.401480   6.320860
    27  H    2.077978   4.114239   5.118635   8.055279   6.546865
    28  H    2.085344   4.524123   4.935832   7.933177   6.883941
    29  H    1.016432   4.917928   6.728608   9.090207   8.270533
    30  H    1.016523   5.249620   6.606810   8.996930   8.530069
                   21         22         23         24         25
    21  H    0.000000
    22  H    2.894114   0.000000
    23  H    5.322462   4.182741   0.000000
    24  H    3.773641   4.207351   2.546498   0.000000
    25  H    4.868352   6.486286   6.094507   4.482656   0.000000
    26  H    5.745522   7.567276   6.561465   4.652848   1.763247
    27  H    5.831686   6.425747   4.606358   3.911691   2.512106
    28  H    6.521767   7.447367   5.129561   4.019636   3.071038
    29  H    7.299792   8.320970   7.003431   6.104868   2.663033
    30  H    7.833583   9.088471   7.339910   6.175964   3.166702
                   26         27         28         29         30
    26  H    0.000000
    27  H    3.071047   0.000000
    28  H    2.524498   1.754298   0.000000
    29  H    3.105374   2.405893   2.949716   0.000000
[...]
 7089645,-0.08034420,-0.03409533,0.00013622,-0.00007705,0.00050606,-0.0
 0016364,0.00039938,-0.00024654,0.00023616,-0.00018982,0.00024886,0.000
 04722,-0.00008153,-0.00023176,-0.00002952,-0.00033853,0.00103892,0.000
 02752,-0.00001092,0.00002414,-0.00012601,0.00016939,-0.00000129,-0.000
 18063,0.00009109,0.00002598,0.00068009,0.00065749,-0.00109764,-0.00001
 085,-0.00057330,-0.00040696,-0.07388141,0.07701339,-0.00198708,-0.0054
 9700,-0.00336617,-0.00167566,0.00699011,0.00210048,0.00178221,-0.00258
 914,-0.00052932,-0.00063359,0.00056239,0.00075696,0.00000697,0.0001508
 9,-0.00061219,0.00020628,-0.00014761,0.00014582,0.00001712,-0.00025921
 ,0.00026574,-0.00130001,-0.00084590,0.00032901,-0.00415715,-0.00539777
 ,0.00170345,-0.00046290,0.00186803,0.00377423,0.00180050,0.00618569,-0
 .00158711,0.01147949,-0.01239606,-0.01254547,0.18884577,-0.03679928,-0
 .21502849,-0.00015979,-0.00084135,-0.00066948,-0.00015286,-0.00044841,
 0.00065307,-0.00008484,0.00021914,-0.00043876,0.00002641,-0.00006570,0
 .00019625,-0.00001870,0.00118401,-0.00099282,-0.00003947,0.00003036,0.
 00001612,0.00000589,0.00048350,-0.00036303,0.00013015,0.00008207,-0.00
 018166,0.00073406,0.00039268,0.00098054,-0.00115882,-0.00014320,-0.000
 15113,-0.19299450,0.04752078,0.22579993,-0.00710974,-0.00320279,-0.004
 17653,0.00378517,-0.02965449,-0.00531416,-0.00010469,0.00087808,0.0005
 6153,0.00032720,0.00017449,0.00024914,-0.00005426,-0.00006678,-0.00007
 019,0.00006662,0.00000639,0.00008964,0.00007529,0.00006375,0.00005747,
 0.00004945,-0.00001281,0.00003848,0.00008785,-0.00014149,-0.00001360,-
 0.00002489,0.00000893,0.00007821,-0.00005941,0.00006815,0.00009639,0.0
 0001386,0.00010946,-0.00016778,-0.00018920,-0.00004384,0.00022584,-0.0
 5198807,-0.00739122,-0.00173159,-0.00003920,0.00658858,0.00124235,0.00
 067657,0.00004692,0.00114422,-0.00169867,0.00041503,-0.00114523,0.0002
 8452,-0.00021962,0.00010385,-0.00000331,-0.00000218,-0.00000437,0.0000
 2770,0.00000593,-0.00002182,-0.00002162,0.00001621,-0.00000176,-0.0000
 1386,0.00000023,0.00000822,-0.00000409,-0.00000262,-0.00000374,0.00037
 660,0.00008179,-0.00034329,0.05354530,-0.00245739,0.00133807,-0.000991
 68,0.00444823,-0.00863255,-0.00001929,0.00094550,0.00092076,0.00118992
 ,-0.00049268,0.00060687,-0.00018802,-0.00020953,-0.00028851,-0.0000031
 0,0.00006757,0.00007363,0.00003875,0.00013904,0.00019039,0.00000601,0.
 00001266,-0.00002387,-0.00002094,0.00009373,-0.00010377,-0.00000851,-0
 .00000684,0.00001420,0.00005514,-0.00006051,0.00005335,0.00006737,0.00
 001601,0.00006148,-0.00014880,-0.00014826,-0.00004098,0.00013461,-0.01
 212308,-0.28642024,-0.06788337,-0.00154627,-0.01948181,-0.00545867,-0.
 00008652,0.00271473,-0.00039532,-0.00021014,0.00112292,-0.00029737,0.0
 0018039,0.00008538,0.00015098,-0.00001224,-0.00000640,-0.00001237,-0.0
 0000289,0.00000132,-0.00001470,-0.00002521,0.00001795,0.00000065,-0.00
 001707,0.00000447,0.00000589,0.00001881,0.00002070,-0.00000220,0.00026
 748,0.00004659,-0.00013366,0.01034513,0.31252304,-0.00513861,-0.001631
 01,0.00036610,0.00479888,-0.01300449,-0.00495752,0.00000202,0.00087400
 ,0.00001445,0.00017007,0.00023096,-0.00000630,-0.00022504,-0.00036342,
 0.00001634,0.00008394,0.00009722,0.00005869,0.00021630,0.00023110,-0.0
 0004352,0.00003271,0.00002292,0.00002802,0.00006409,-0.00014452,-0.000
 01188,-0.00002752,-0.00000580,0.00004174,-0.00006188,0.00004771,0.0000
 9550,0.00000786,0.00011315,-0.00014439,-0.00022068,-0.00003496,0.00020
 468,-0.00393075,-0.06517513,-0.06533868,0.00048223,0.02787546,0.006256
 42,0.00209501,-0.00084037,0.00193689,-0.00123762,0.00023881,0.00031153
 ,0.00013328,-0.00006580,0.00006269,-0.00002056,0.00000007,-0.00000871,
 0.00000276,-0.00000555,-0.00001284,-0.00000997,0.00000405,0.00000977,0
 .00000014,0.00000199,0.00001002,-0.00000889,-0.00000885,-0.00000180,0.
 00038171,0.00012813,-0.00028193,0.00629834,0.07039097,0.07002900,0.003
 07367,0.00027483,-0.00288990,-0.02275884,0.00700980,0.02290997,-0.0033
 5318,-0.00134065,-0.00299552,0.00044834,0.00115111,-0.00089668,-0.0004
 2146,-0.00066698,0.00014145,-0.00010677,0.00025485,-0.00028620,0.00010
 377,0.00022726,-0.00015210,0.00015374,0.00004262,0.00003494,-0.0000349
 9,0.00001519,-0.00002074,0.00001727,-0.00000688,-0.00004401,0.00000482
 ,-0.00005508,0.00002782,0.00001323,-0.00001598,0.00001101,0.00004836,0
 .00005390,-0.00006328,-0.17413058,0.02983671,0.12813555,0.00384018,-0.
 00105915,-0.00490852,0.00220119,-0.00046389,-0.00038367,-0.00025724,-0
 .00034196,0.00049875,-0.00010046,0.00002338,-0.00003947,-0.00004561,0.
 00000082,-0.00001906,-0.00002544,-0.00001325,0.00001836,-0.00001187,-0
 .00000302,0.00002536,0.00000214,0.00000126,-0.00000262,-0.00000123,-0.
 00000283,0.00000330,-0.00010305,0.00000811,0.00010921,0.00191444,-0.00
 036038,-0.00204541,0.18890394,-0.00022608,-0.00051736,-0.00140701,-0.0
 0323198,0.00043112,0.00597091,0.00014571,0.00007353,0.00037140,-0.0000
 6431,0.00032403,0.00022796,0.00002991,0.00006962,-0.00005887,-0.000007
 01,-0.00001336,0.00000611,-0.00005767,-0.00003431,0.00007625,-0.000005
 35,-0.00003466,-0.00001628,0.00002598,-0.00004763,-0.00000457,0.000004
 29,0.00000096,0.00002197,-0.00001294,0.00001356,0.00002063,-0.00000366
 ,0.00004298,-0.00005886,-0.00006040,-0.00002712,0.00001976,0.03008024,
 -0.05455806,-0.03580002,-0.01360118,0.00216871,0.01731376,-0.00134577,
 0.00022549,-0.00197649,-0.00021407,0.00033430,-0.00076474,0.00014290,-
 0.00002191,0.00007879,0.00001066,-0.00000514,-0.00000685,0.00000183,0.
 00000868,-0.00000348,-0.00001170,0.00000970,-0.00000693,-0.00000665,0.
 00000037,0.00000251,0.00000278,0.00000592,0.00000425,0.00009119,0.0000
 3880,0.00001599,0.02213058,-0.00477081,-0.02075054,-0.03511352,0.05668
 405,0.00051655,0.00075961,-0.00050355,-0.01130712,0.00128323,0.0106647
 5,-0.00118914,0.00002447,-0.00138690,0.00009106,0.00063646,-0.00080490
 ,-0.00026189,-0.00025117,-0.00001566,-0.00002297,0.00010647,-0.0000948
 9,0.00006307,0.00007756,-0.00001879,0.00013152,0.00001465,0.00005964,0
 .00000324,-0.00001683,-0.00002226,-0.00000043,0.00000765,0.00001202,0.
 00000695,0.00000477,0.00004750,0.00001128,-0.00001061,-0.00002473,0.00
 000285,0.00001200,0.00001667,0.12723215,-0.03568113,-0.16823343,0.0193
 0900,-0.00277684,-0.02244753,0.00068627,-0.00108685,0.00367370,-0.0002
 8724,0.00004872,0.00015591,0.00001993,-0.00000786,0.00001334,-0.000020
 59,0.00000490,-0.00002735,0.00001567,-0.00000070,-0.00000089,-0.000014
 35,0.00000208,0.00000630,-0.00000691,-0.00000270,-0.00000224,-0.000012
 54,-0.00001510,-0.00000618,0.00002901,0.00002897,-0.00000794,0.0050104
 9,-0.00099972,-0.00545028,-0.13650719,0.03397611,0.18693766,0.00004886
 ,0.00002515,0.00027748,0.00059011,-0.00021470,-0.00018167,0.00037664,-
 0.00009357,0.00015859,-0.00004156,-0.00002692,-0.00004301,0.00001341,0
 .00004518,-0.00000932,0.00000843,-0.00001639,0.00001317,0.00000042,-0.
 00002317,0.00000703,-0.00000219,-0.00000846,0.00003098,-0.00000590,0.0
 0000888,0.00000991,0.00000079,-0.00000505,0.00000257,-0.00001039,0.000
 01101,-0.00003748,-0.00001000,-0.00002595,0.00001787,-0.00000521,-0.00
 001084,-0.00003692,0.00548146,-0.00081790,-0.00418475,-0.16580924,0.02
 854397,0.12321970,-0.03123719,0.00840850,0.01770681,0.00002424,0.00002
 733,0.00005346,0.00000597,-0.00000533,0.00000269,0.00000076,0.00000096
 ,0.00000297,0.00001299,0.00000390,-0.00001186,0.00000507,-0.00000091,-
 0.00000051,0.00000782,0.00000251,0.00000295,0.00000974,0.00001218,0.00
 000596,-0.00004043,-0.00001670,0.00002100,0.00005924,-0.00029465,0.000
 30289,0.00038293,0.00103720,-0.00185547,0.19205532,-0.00017536,0.00029
 457,0.00003464,-0.00146849,0.00030452,-0.00030770,0.00018843,-0.000148
 33,-0.00037166,0.00001861,-0.00006344,0.00004905,0.00000160,0.00006164
 ,0.00000109,-0.00000514,-0.00001385,0.00000398,-0.00000556,-0.00004807
 ,-0.00001372,0.00002068,0.00004713,-0.00002500,-0.00005507,0.00000484,
 -0.00002061,-0.00003850,-0.00002876,-0.00001522,0.00004482,0.00003664,
 0.00004235,0.00004298,-0.00004024,0.00007720,0.00011371,0.00008802,-0.
 00001051,-0.01159047,0.00236281,0.01740304,0.03120108,-0.06011547,-0.0
 3437436,-0.00486526,0.00251158,0.00318607,0.00000104,-0.00002485,0.000
 17797,-0.00001981,0.00000303,-0.00001469,-0.00000218,0.00000300,-0.000
 00158,-0.00000776,-0.00001326,0.00002302,0.00000840,-0.00001739,0.0000
 0802,0.00001651,-0.00001027,-0.00000148,-0.00005799,-0.00007248,-0.000
 02674,-0.00003884,-0.00000716,-0.00014348,-0.00067394,0.00089238,-0.00
 080106,0.00072858,-0.00153699,0.00379693,-0.03348901,0.05816852,-0.001
 06970,-0.00075057,0.00004489,0.00324736,0.00057673,0.00007250,-0.00108
 255,0.00029580,0.00032196,0.00001931,0.00007586,-0.00005352,0.00002423
 ,0.00007150,-0.00002712,-0.00002579,-0.00000644,-0.00000348,-0.0000593
 9,-0.00005037,0.00002674,0.00001083,0.00003207,-0.00009220,-0.00002707
 ,0.00013392,-0.00006376,-0.00001215,-0.00000585,0.00005259,0.00003513,
 0.00000816,0.00003297,-0.00003237,-0.00010219,0.00010272,0.00014213,0.
 00003970,0.00006718,0.01463467,-0.00365105,-0.02066798,0.12957633,-0.0
 3408225,-0.18111941,-0.01409123,0.00396461,0.01191951,0.00012872,0.000
 03723,-0.00022698,0.00002133,0.00000133,-0.00000368,0.00000976,-0.0000
 0375,-0.00001061,-0.00001608,-0.00001331,0.00003427,-0.00001506,-0.000
 00299,0.00000573,-0.00000599,-0.00000783,-0.00000742,-0.00003040,-0.00
 004126,-0.00000942,0.00001580,-0.00002964,-0.00024825,-0.00015333,0.00
 015550,0.00126466,-0.00158917,0.00341170,-0.00320019,-0.13192422,0.031
 63219,0.19643052,-0.00042050,-0.00108707,0.00018749,0.00032124,0.00226
 795,0.00058393,0.00016305,-0.00047133,-0.00032945,0.00002553,-0.000052
 68,-0.00000258,0.00001929,0.00009308,-0.00003869,-0.00000827,-0.000019
 36,0.00000671,-0.00003012,-0.00007032,0.00001499,0.00001733,0.00002215
 ,-0.00000657,-0.00006245,0.00006559,-0.00000044,0.00000213,-0.00004890
 ,-0.00003482,0.00005448,-0.00002117,-0.00003757,-0.00004802,-0.0000165
 1,0.00014489,0.00012517,0.00003593,-0.00005519,0.00107604,0.00464152,0
 .00174737,-0.05039362,-0.00904381,0.00131454,-0.00745072,-0.03291291,-
 0.01646259,0.00014237,-0.00004633,0.00009852,-0.00004507,0.00002290,-0
 .00002667,0.00000156,0.00000088,-0.00000353,-0.00000175,-0.00000618,0.
 00001088,0.00000841,-0.00001251,0.00000393,0.00001233,-0.00000748,-0.0
 0000266,-0.00004481,-0.00005210,0.00000458,-0.00018640,0.00002186,-0.0
 0009974,0.00010997,0.00045250,-0.00151887,0.00030473,-0.00056618,-0.00
 031948,0.00248125,0.02182978,0.00565466,0.05899903,-0.00046318,0.00265
 134,-0.00060327,-0.00157877,-0.00351813,-0.00127098,0.00018116,0.00047
 265,0.00023506,-0.00001311,0.00006146,-0.00013438,-0.00008082,-0.00009
 891,-0.00000953,0.00004440,0.00002160,0.00004110,0.00007108,0.00008285
 ,0.00000300,0.00001385,-0.00002255,0.00004077,0.00005340,-0.00005807,0
 .00001171,-0.00000363,0.00002527,0.00002409,-0.00003407,0.00002455,0.0
 0001295,0.00001541,0.00002904,-0.00009940,-0.00008500,-0.00003386,0.00
 003701,0.00175919,-0.01987569,-0.00229305,-0.01440673,-0.29464057,-0.0
 7099466,-0.00276489,-0.00148712,-0.00294418,-0.00018198,0.00017105,0.0
 0002007,0.00005434,-0.00000221,0.00003625,-0.00000532,-0.00000118,-0.0
 0000405,0.00001621,0.00000760,-0.00002109,-0.00000813,0.00000867,-0.00
 000177,-0.00000832,0.00000512,0.00000360,0.00002192,0.00003480,0.00000
 072,0.00012349,-0.00000295,0.00004950,0.00046949,-0.00082250,0.0032953
 1,-0.00034784,0.00098429,-0.00017912,0.00030696,-0.00345347,-0.0010741
 0,0.01777358,0.31773886,0.00036148,-0.00126848,-0.00044002,0.00063834,
 0.00229921,0.00134791,-0.00021994,-0.00047075,-0.00000117,-0.00000745,
 -0.00009633,0.00006582,0.00007720,0.00006133,0.00002897,-0.00003693,-0
 .00001458,-0.00004153,-0.00005419,-0.00003891,-0.00000515,-0.00004398,
 -0.00002830,-0.00002429,-0.00000873,0.00006006,0.00000249,0.00002317,0
 .00003175,-0.00001380,-0.00000178,-0.00002267,-0.00003779,-0.00001649,
 -0.00006698,0.00001261,0.00000267,-0.00002015,-0.00002383,-0.00031802,
 0.02772984,0.00421143,-0.00108028,-0.07070577,-0.06836096,-0.00408990,
 -0.01465823,-0.00651356,0.00036712,-0.00012696,-0.00001228,-0.00006325
 ,0.00001120,-0.00002514,0.00000503,-0.00000024,0.00000731,-0.00001216,
 0.00000343,-0.00000034,0.00000520,0.00000541,-0.00000815,-0.00000700,0
 .00000638,-0.00000333,0.00004447,0.00004373,0.00001697,-0.00009755,-0.
 00002942,0.00012463,-0.00162792,0.00364195,-0.00404188,0.00053047,-0.0
 0050469,0.00149197,-0.00162275,-0.02132177,-0.00555397,0.01009540,0.07
 502805,0.07687672,0.00010504,0.00079061,-0.00010062,-0.00039441,-0.000
 74660,-0.00006007,0.00000010,0.00014632,0.00013670,-0.00004063,0.00000
 892,-0.00003596,-0.00003643,-0.00000384,-0.00004580,0.00003045,-0.0000
 0172,0.00003870,0.00002083,0.00000905,0.00002978,0.00000202,-0.0000123
 8,0.00000042,0.00002274,-0.00001096,-0.00000645,0.00000436,0.00002133,
 0.00001790,-0.00000011,0.00001463,0.00001653,0.00001403,-0.00000931,-0
 .00003580,-0.00001873,-0.00000131,0.00001609,0.00093537,-0.00106125,0.
 00069151,-0.00305152,-0.03583820,-0.01252001,-0.06679832,-0.03561928,-
 0.00736017,-0.00003005,0.00003254,-0.00009662,0.00001587,0.00000400,0.
 00001037,-0.00000281,0.00000104,-0.00000822,0.00000593,0.00000499,-0.0
 0000174,-0.00000866,0.00000550,-0.00000436,-0.00001276,-0.00000045,-0.
 00000247,0.00000655,0.00000958,-0.00000385,0.00002313,-0.00002078,0.00
 002098,-0.00008632,0.00097155,-0.00049050,-0.00000210,0.00022242,0.000
 02523,0.00067550,0.00005029,0.00067743,-0.00620140,-0.00059121,-0.0029
 3661,0.07037935,-0.00000163,0.00010536,-0.00002164,0.00032436,-0.00034
 831,0.00031019,-0.00010467,0.00010612,0.00001991,0.00007405,0.00000674
 ,0.00003247,0.00004089,-0.00000432,0.00004992,-0.00003686,0.00000801,-
 0.00004213,-0.00003036,0.00000302,-0.00002631,0.00000311,0.00000248,-0
 .00001824,0.00000739,-0.00002234,-0.00001125,-0.00000354,0.00001208,-0
 .00000095,-0.00000982,0.00000106,0.00003761,0.00001932,-0.00000285,-0.
 00004466,-0.00004355,0.00000415,0.00003816,0.00112679,0.00247271,0.000
 40243,0.00328631,-0.00583681,0.00505936,-0.03946781,-0.37990614,-0.155
 27725,0.00004133,-0.00001901,-0.00000028,-0.00000163,-0.00000488,-0.00
 000364,0.00000600,-0.00000278,0.00000541,-0.00000985,-0.00000362,0.000
 00600,0.00000110,0.00000104,0.00000191,-0.00000217,0.00000237,-0.00000
 121,0.00000723,0.00000580,-0.00000348,0.00005328,0.00000561,-0.0000063
 2,-0.00018517,0.00010607,-0.00070852,-0.00002657,-0.00009328,-0.000042
 91,-0.00035046,0.00010250,0.00009635,-0.00227943,0.00172430,-0.0000274
 4,0.04138261,0.38992637,0.00073509,0.00091716,0.00026690,-0.00177245,-
 0.00032888,-0.00016341,0.00080749,-0.00020912,0.00000213,-0.00021453,-
 0.00007990,-0.00017471,-0.00012508,0.00003698,-0.00017681,0.00012796,-
 0.00003429,0.00014319,0.00011115,-0.00002348,0.00007497,-0.00000223,-0
 .00001840,0.00010902,-0.00001739,0.00006643,0.00005890,0.00000486,-0.0
 0001434,0.00000019,0.00001961,0.00000688,-0.00013552,-0.00004274,-0.00
 002474,0.00011470,0.00013469,-0.00002912,-0.00014932,0.00188108,-0.002
 05271,0.00102333,-0.00497099,-0.01400151,-0.00839202,-0.00370397,-0.10
 745648,-0.05844118,-0.00013040,0.00010522,0.00005496,-0.00000381,0.000
 03022,0.00001050,-0.00002289,0.00001067,-0.00001056,0.00004767,0.00001
 892,-0.00003781,-0.00000070,-0.00000197,-0.00000990,0.00000935,-0.0000
 0265,0.00000495,0.00000360,0.00000623,0.00000860,-0.00018144,-0.000065
 47,0.00011785,-0.00054266,0.00070958,-0.00031259,0.00000173,0.00001679
 ,-0.00039346,0.00052986,0.00085169,0.00051237,-0.00167901,0.00067127,0
 .00055019,0.01256026,0.14565844,0.07577828,0.00032486,0.00029386,0.000
 01291,-0.00021367,-0.00065975,-0.00013941,0.00057008,-0.00002681,0.000
 11841,-0.00008300,-0.00009800,-0.00002504,-0.00003647,0.00002732,-0.00
 007357,0.00005717,-0.00001994,0.00006839,0.00004446,-0.00000798,0.0000
 3392,-0.00000820,-0.00001887,0.00004756,0.00000822,0.00000190,0.000033
 94,0.00000527,-0.00000237,-0.00000734,0.00000181,0.00000138,-0.0000501
 7,-0.00001022,0.00001233,0.00001701,0.00001655,-0.00002011,-0.00005399
 ,0.00169479,0.00044995,0.00116367,-0.02573497,0.00613516,0.02533732,-0
 .25435093,0.05544474,0.17047799,-0.00004781,0.00003024,0.00002042,-0.0
 0000399,0.00000875,0.00000512,-0.00000884,0.00000478,-0.00000358,0.000
 01925,0.00001020,-0.00001927,0.00000122,0.00000158,-0.00000625,0.00000
 032,0.00000055,0.00000137,0.00000743,0.00001179,0.00000481,-0.00006817
 ,-0.00002199,0.00008240,-0.00000245,0.00009505,-0.00013592,-0.00005993
 ,0.00060278,-0.00134895,-0.00507884,-0.00177315,-0.00406319,0.00102920
 ,-0.00033146,0.00009440,0.00444297,-0.00382025,-0.00356411,0.27748389,
 -0.00027291,-0.00058498,-0.00024139,0.00062013,0.00072994,0.00056027,-
 0.00044900,-0.00009539,-0.00014229,0.00011232,0.00009634,0.00007472,0.
 00009632,-0.00002315,0.00013247,-0.00009691,0.00002178,-0.00011980,-0.
 00007926,0.00000359,-0.00005619,0.00001234,0.00001153,-0.00004132,-0.0
 0000491,-0.00005216,-0.00002027,0.00000078,-0.00001207,-0.00001403,-0.
 00002126,-0.00003421,0.00004799,0.00000313,0.00006495,-0.00005528,-0.0
 0009060,-0.00000603,0.00004675,-0.00010797,-0.00032877,-0.00131081,-0.
 00206911,0.00118029,0.00751155,0.03145250,-0.05310973,-0.05831856,0.00
 006795,-0.00007434,-0.00000133,-0.00000415,-0.00000885,-0.00000666,0.0
 0001445,-0.00000443,0.00001225,-0.00002646,-0.00000878,0.00001634,0.00
 000363,-0.00000198,0.00000804,0.00000571,0.00000225,0.00000161,-0.0000
 0224,0.00000255,0.00000384,0.00009506,0.00007593,-0.00002105,0.0001877
 8,-0.00020288,-0.00001185,0.00018956,0.00024454,0.00028693,-0.00303372
 ,0.00071289,-0.00071102,-0.00051343,-0.00002624,0.00047933,0.03024193,
 -0.00835144,-0.02476343,-0.05633166,0.05977882,0.00029021,0.00023557,0
 .00006689,-0.00059482,-0.00026514,-0.00054410,0.00038325,-0.00004361,0
 .00009629,-0.00011028,-0.00007224,-0.00000963,-0.00005482,0.00004274,-
 0.00009418,0.00006829,-0.00002524,0.00008305,0.00005018,-0.00002275,0.
 00004514,-0.00001042,-0.00001191,0.00002616,-0.00000126,0.00002634,0.0
 0001538,0.00000402,0.00000629,0.00000631,0.00001792,0.00001556,-0.0000
 3733,-0.00000217,-0.00002419,0.00003727,0.00005166,-0.00000114,-0.0000
 4348,-0.00147043,-0.00016460,0.00223390,-0.01833106,0.00697463,0.00700
 395,0.19958887,-0.08800432,-0.19745740,-0.00004142,0.00004775,-0.00000
 510,-0.00000202,0.00000648,0.00000374,-0.00001135,0.00000621,-0.000007
 82,0.00001647,0.00000697,-0.00001041,-0.00000113,0.00000108,-0.0000078
 5,-0.00000440,-0.00000215,-0.00000148,-0.00000090,-0.00000088,-0.00000
 039,-0.00007443,-0.00003902,0.00003967,0.00011383,0.00003039,-0.000094
 17,0.00039565,-0.00017555,-0.00043829,-0.00245793,0.00016235,0.0003993
 9,0.00074999,0.00011914,0.00037015,0.00946735,0.00451806,-0.01043376,-
 0.18802887,0.07665318,0.19875810\\-0.00000050,0.00000009,0.00000056,0.
 00000063,-0.00000060,0.00000038,-0.00000054,0.00000048,-0.00000109,0.0
 0000012,0.00000042,-0.00000076,0.00000005,-0.00000031,-0.00000027,0.00
 000064,-0.00000002,-0.00000017,0.00000083,0.00000038,-0.00000011,-0.00
 000075,-0.00000042,0.00000023,0.00000004,-0.00000014,-0.00000011,-0.00
 000019,-0.00000076,0.00000096,-0.00000074,0.00000156,-0.00000058,-0.00
 000044,0.00000096,0.00000020,0.00000055,0.00000022,-0.00000149,-0.0000
 0089,-0.00000080,0.00000124,0.00000025,-0.00000037,0.00000039,-0.00000
 029,0.00000002,-0.00000021,0.00000024,-0.00000031,0.00000034,0.0000005
 2,0.00000008,-0.00000003,0.00000040,0.00000024,-0.00000037,-0.00000007
 ,0.00000062,0.00000012,0.00000061,0.00000034,-0.00000008,-0.00000016,0
 .00000048,-0.00000027,-0.00000050,0.00000030,0.00000011,-0.00000074,-0
 .00000024,0.00000037,0.00000086,-0.00000025,-0.00000025,0.00000067,-0.
 00000037,0.00000005,-0.00000035,-0.00000027,-0.00000021,-0.00000013,-0
 .00000014,0.00000033,-0.00000006,-0.00000046,0.00000035,-0.00000009,-0
 .00000071,0.00000038\\\@


 THERE IS NO SCIENCE WITHOUT FANCY, NOR ART WITHOUT FACTS.
     -- VLADIMIR NABAKOV
 Job cpu time:       0 days  2 hours 43 minutes 15.1 seconds.
 File lengths (MBytes):  RWF=    417 Int=      0 D2E=      0 Chk=     13 Scr=      1
 Normal termination of Gaussian 09 at Wed Jul 28 23:52:35 2021.
