 Entering Gaussian System, Link 0=g09
 Input=opt_freq-conf-340.com
 Output=opt_freq-conf-340.log
 Initial command:
 /aerosol/software/g09/l1.exe "/scratch/nicole/10582/Gau-84161.inp" -scrdir="/scratch/nicole/10582/"
 Entering Link 1 = /aerosol/software/g09/l1.exe PID=     84168.
  
 Copyright (c) 1988,1990,1992,1993,1995,1998,2003,2009,2013,
            Gaussian, Inc.  All Rights Reserved.
  
 This is part of the Gaussian(R) 09 program.  It is based on
 the Gaussian(R) 03 system (copyright 2003, Gaussian, Inc.),
 the Gaussian(R) 98 system (copyright 1998, Gaussian, Inc.),
 the Gaussian(R) 94 system (copyright 1995, Gaussian, Inc.),
 the Gaussian 92(TM) system (copyright 1992, Gaussian, Inc.),
 the Gaussian 90(TM) system (copyright 1990, Gaussian, Inc.),
 the Gaussian 88(TM) system (copyright 1988, Gaussian, Inc.),
 the Gaussian 86(TM) system (copyright 1986, Carnegie Mellon
 University), and the Gaussian 82(TM) system (copyright 1983,
 Carnegie Mellon University). Gaussian is a federally registered
 trademark of Gaussian, Inc.
  
 This software contains proprietary and confidential information,
 including trade secrets, belonging to Gaussian, Inc.
  
 This software is provided under written license and may be
 used, copied, transmitted, or stored only in accord with that
 written license.
  
 The following legend is applicable only to US Government
 contracts under FAR:
  
                    RESTRICTED RIGHTS LEGEND
  
 Use, reproduction and disclosure by the US Government is
 subject to restrictions as set forth in subparagraphs (a)
 and (c) of the Commercial Computer Software - Restricted
 Rights clause in FAR 52.227-19.
  
 Gaussian, Inc.
 340 Quinnipiac St., Bldg. 40, Wallingford CT 06492
  
  
 ---------------------------------------------------------------
 Warning -- This program may not be used in any manner that
 competes with the business of Gaussian, Inc. or will provide
 assistance to any competitor of Gaussian, Inc.  The licensee
 of this program is prohibited from giving any competitor of
 Gaussian, Inc. access to this program.  By using this program,
 the user acknowledges that Gaussian, Inc. is engaged in the
 business of creating and licensing software in the field of
 computational chemistry and represents and warrants to the
 licensee that it is not a competitor of Gaussian, Inc. and that
 it will not use this program in any manner prohibited above.
 ---------------------------------------------------------------
  

 Cite this work as:
 Gaussian 09, Revision D.01,
 M. J. Frisch, G. W. Trucks, H. B. Schlegel, G. E. Scuseria, 
 M. A. Robb, J. R. Cheeseman, G. Scalmani, V. Barone, B. Mennucci, 
 G. A. Petersson, H. Nakatsuji, M. Caricato, X. Li, H. P. Hratchian, 
 A. F. Izmaylov, J. Bloino, G. Zheng, J. L. Sonnenberg, M. Hada, 
 M. Ehara, K. Toyota, R. Fukuda, J. Hasegawa, M. Ishida, T. Nakajima, 
 Y. Honda, O. Kitao, H. Nakai, T. Vreven, J. A. Montgomery, Jr., 
 J. E. Peralta, F. Ogliaro, M. Bearpark, J. J. Heyd, E. Brothers, 
 K. N. Kudin, V. N. Staroverov, T. Keith, R. Kobayashi, J. Normand, 
 K. Raghavachari, A. Rendell, J. C. Burant, S. S. Iyengar, J. Tomasi, 
 M. Cossi, N. Rega, J. M. Millam, M. Klene, J. E. Knox, J. B. Cross, 
 V. Bakken, C. Adamo, J. Jaramillo, R. Gomperts, R. E. Stratmann, 
 O. Yazyev, A. J. Austin, R. Cammi, C. Pomelli, J. W. Ochterski, 
 R. L. Martin, K. Morokuma, V. G. Zakrzewski, G. A. Voth, 
 P. Salvador, J. J. Dannenberg, S. Dapprich, A. D. Daniels, 
 O. Farkas, J. B. Foresman, J. V. Ortiz, J. Cioslowski, 
 and D. J. Fox, Gaussian, Inc., Wallingford CT, 2013.
 
 ******************************************
 Gaussian 09:  ES64L-G09RevD.01 24-Apr-2013
                28-Jul-2021 
 ******************************************
 %mem=2gb
 %nproc=4
 Will use up to    4 processors via shared memory.
 %chk=conf-340.chk
 ----------------------------------------------------------------------
 # B3LYP/6-31+G(d,p) opt=calcfc freq=noraman nosymm integral(ultrafineg
 rid)
 ----------------------------------------------------------------------
 1/10=4,14=-1,18=20,19=15,26=4,38=1/1,3;
 2/9=110,12=2,15=1,17=6,18=5,40=1/2;
 3/5=1,6=6,7=111,11=2,16=1,25=1,30=1,71=2,74=-5,75=-5,140=1/1,2,3;
 4//1;
 5/5=2,38=5/2;
 8/6=4,10=90,11=11/1;
 11/6=1,8=1,9=11,15=111,16=1,31=1/1,2,10;
 10/6=1,13=1,31=1/2;
 6/7=2,8=2,9=2,10=2,28=1/1;
 7/10=1,18=20,25=1,30=1/1,2,3,16;
 1/10=4,14=-1,18=20,19=15,26=4/3(2);
 2/9=110,15=1/2;
 99//99;
 2/9=110,15=1/2;
 3/5=1,6=6,7=111,11=2,16=1,25=1,30=1,71=1,74=-5,75=-5/1,2,3;
 4/5=5,16=3,69=1/1;
 5/5=2,38=5/2;
 7/30=1/1,2,3,16;
 1/14=-1,18=20,19=15,26=4/3(-5);
 2/9=110,15=1/2;
 6/7=2,8=2,9=2,10=2,19=2,28=1/1;
 99/9=1/99;
 ------------------------------------------------------------
 Candidate Structure: Conf:340 OPT and FREQ calc in gas phase
 ------------------------------------------------------------
 Symbolic Z-matrix:
 Charge =  0 Multiplicity = 1
 O                     0.53975  -0.91334  -0.72521 
 C                     1.32329  -0.14277  -0.16646 
 N                     0.90022   1.0439    0.32044 
 C                    -0.47302   1.46462   0.14573 
 C                    -0.52293   2.96145   0.41751 
 O                    -1.72483   3.53748   0.21191 
 O                     0.41862   3.60154   0.79264 
 C                    -1.45177   0.66823   1.06386 
 C                    -2.56332   0.02503   0.29898 
 C                    -3.9155    0.18992   0.32055 
 N                    -4.52123  -0.63339  -0.61352 
 C                    -3.53362  -1.2782   -1.18624 
 N                    -2.33141  -0.91703  -0.67339 
 C                     2.79836  -0.44774  -0.00578 
 C                     3.07488  -1.94092  -0.00476 
 N                     4.52098  -2.16624   0.07919 
 H                     1.54257   1.7551    0.63533 
 H                    -0.74614   1.31578  -0.90546 
 H                    -2.34852   2.88034  -0.11888 
 H                    -0.87898  -0.09287   1.5902 
 H                    -1.88211   1.31584   1.82798 
 H                    -4.49613   0.84975   0.94934 
 H                    -3.61864  -2.01285  -1.96748 
 H                    -1.41483  -1.25013  -0.93327 
 H                     3.33808   0.01406  -0.83728 
 H                     3.1737    0.01382   0.91119 
 H                     2.7014   -2.35938  -0.94072 
 H                     2.51041  -2.41337   0.80872 
 H                     4.72481  -3.15255  -0.02997 
 H                     4.85582  -1.91595   1.00272 
 

 GradGradGradGradGradGradGradGradGradGradGradGradGradGradGradGradGradGrad
 Berny optimization.
 Initialization pass.
                           ----------------------------
                           !    Initial Parameters    !
                           ! (Angstroms and Degrees)  !
 --------------------------                            --------------------------
 ! Name  Definition              Value          Derivative Info.                !
 --------------------------------------------------------------------------------
 ! R1    R(1,2)                  1.2329         calculate D2E/DX2 analytically  !
 ! R2    R(2,3)                  1.3506         calculate D2E/DX2 analytically  !
 ! R3    R(2,14)                 1.5148         calculate D2E/DX2 analytically  !
 ! R4    R(3,4)                  1.4468         calculate D2E/DX2 analytically  !
 ! R5    R(3,17)                 1.0088         calculate D2E/DX2 analytically  !
 ! R6    R(4,5)                  1.5221         calculate D2E/DX2 analytically  !
 ! R7    R(4,8)                  1.5605         calculate D2E/DX2 analytically  !
 ! R8    R(4,18)                 1.0962         calculate D2E/DX2 analytically  !
 ! R9    R(5,6)                  1.3486         calculate D2E/DX2 analytically  !
 ! R10   R(5,7)                  1.1987         calculate D2E/DX2 analytically  !
 ! R11   R(6,19)                 0.9645         calculate D2E/DX2 analytically  !
 ! R12   R(8,9)                  1.4948         calculate D2E/DX2 analytically  !
 ! R13   R(8,20)                 1.0883         calculate D2E/DX2 analytically  !
 ! R14   R(8,21)                 1.0902         calculate D2E/DX2 analytically  !
 ! R15   R(9,10)                 1.3624         calculate D2E/DX2 analytically  !
 ! R16   R(9,13)                 1.3736         calculate D2E/DX2 analytically  !
 ! R17   R(10,11)                1.3847         calculate D2E/DX2 analytically  !
 ! R18   R(10,22)                1.0807         calculate D2E/DX2 analytically  !
 ! R19   R(11,12)                1.3112         calculate D2E/DX2 analytically  !
 ! R20   R(12,13)                1.356          calculate D2E/DX2 analytically  !
 ! R21   R(12,23)                1.0758         calculate D2E/DX2 analytically  !
 ! R22   R(13,24)                1.0093         calculate D2E/DX2 analytically  !
 ! R23   R(14,15)                1.5186         calculate D2E/DX2 analytically  !
 ! R24   R(14,25)                1.0936         calculate D2E/DX2 analytically  !
 ! R25   R(14,26)                1.093          calculate D2E/DX2 analytically  !
 ! R26   R(15,16)                1.466          calculate D2E/DX2 analytically  !
 ! R27   R(15,27)                1.0912         calculate D2E/DX2 analytically  !
 ! R28   R(15,28)                1.0971         calculate D2E/DX2 analytically  !
 ! R29   R(16,29)                1.0131         calculate D2E/DX2 analytically  !
 ! R30   R(16,30)                1.0137         calculate D2E/DX2 analytically  !
 ! A1    A(1,2,3)              120.8944         calculate D2E/DX2 analytically  !
 ! A2    A(1,2,14)             122.7596         calculate D2E/DX2 analytically  !
 ! A3    A(3,2,14)             116.3378         calculate D2E/DX2 analytically  !
 ! A4    A(2,3,4)              120.6145         calculate D2E/DX2 analytically  !
 ! A5    A(2,3,17)             122.1749         calculate D2E/DX2 analytically  !
 ! A6    A(4,3,17)             115.9169         calculate D2E/DX2 analytically  !
 ! A7    A(3,4,5)              107.1887         calculate D2E/DX2 analytically  !
 ! A8    A(3,4,8)              112.0772         calculate D2E/DX2 analytically  !
 ! A9    A(3,4,18)             108.2266         calculate D2E/DX2 analytically  !
 ! A10   A(5,4,8)              112.1015         calculate D2E/DX2 analytically  !
 ! A11   A(5,4,18)             107.251          calculate D2E/DX2 analytically  !
 ! A12   A(8,4,18)             109.7931         calculate D2E/DX2 analytically  !
 ! A13   A(4,5,6)              114.9635         calculate D2E/DX2 analytically  !
 ! A14   A(4,5,7)              123.7259         calculate D2E/DX2 analytically  !
 ! A15   A(6,5,7)              121.3096         calculate D2E/DX2 analytically  !
 ! A16   A(5,6,19)             109.73           calculate D2E/DX2 analytically  !
 ! A17   A(4,8,9)              112.6404         calculate D2E/DX2 analytically  !
 ! A18   A(4,8,20)             108.1405         calculate D2E/DX2 analytically  !
 ! A19   A(4,8,21)             110.9046         calculate D2E/DX2 analytically  !
 ! A20   A(9,8,20)             109.7506         calculate D2E/DX2 analytically  !
 ! A21   A(9,8,21)             108.7075         calculate D2E/DX2 analytically  !
 ! A22   A(20,8,21)            106.5126         calculate D2E/DX2 analytically  !
 ! A23   A(8,9,10)             132.6785         calculate D2E/DX2 analytically  !
 ! A24   A(8,9,13)             122.128          calculate D2E/DX2 analytically  !
 ! A25   A(10,9,13)            105.1765         calculate D2E/DX2 analytically  !
 ! A26   A(9,10,11)            110.5815         calculate D2E/DX2 analytically  !
 ! A27   A(9,10,22)            128.0522         calculate D2E/DX2 analytically  !
 ! A28   A(11,10,22)           121.3662         calculate D2E/DX2 analytically  !
 ! A29   A(10,11,12)           104.9255         calculate D2E/DX2 analytically  !
 ! A30   A(11,12,13)           111.8153         calculate D2E/DX2 analytically  !
 ! A31   A(11,12,23)           126.4071         calculate D2E/DX2 analytically  !
 ! A32   A(13,12,23)           121.7774         calculate D2E/DX2 analytically  !
 ! A33   A(9,13,12)            107.5007         calculate D2E/DX2 analytically  !
 ! A34   A(9,13,24)            124.192          calculate D2E/DX2 analytically  !
 ! A35   A(12,13,24)           128.3064         calculate D2E/DX2 analytically  !
 ! A36   A(2,14,15)            112.0458         calculate D2E/DX2 analytically  !
 ! A37   A(2,14,25)            108.3555         calculate D2E/DX2 analytically  !
 ! A38   A(2,14,26)            109.7767         calculate D2E/DX2 analytically  !
 ! A39   A(15,14,25)           109.0179         calculate D2E/DX2 analytically  !
 ! A40   A(15,14,26)           110.6169         calculate D2E/DX2 analytically  !
 ! A41   A(25,14,26)           106.8616         calculate D2E/DX2 analytically  !
 ! A42   A(14,15,16)           109.3172         calculate D2E/DX2 analytically  !
 ! A43   A(14,15,27)           108.3115         calculate D2E/DX2 analytically  !
 ! A44   A(14,15,28)           109.2843         calculate D2E/DX2 analytically  !
 ! A45   A(16,15,27)           109.1365         calculate D2E/DX2 analytically  !
 ! A46   A(16,15,28)           113.5091         calculate D2E/DX2 analytically  !
 ! A47   A(27,15,28)           107.144          calculate D2E/DX2 analytically  !
 ! A48   A(15,16,29)           109.9962         calculate D2E/DX2 analytically  !
 ! A49   A(15,16,30)           109.8801         calculate D2E/DX2 analytically  !
 ! A50   A(29,16,30)           105.7886         calculate D2E/DX2 analytically  !
 ! D1    D(1,2,3,4)             -2.7082         calculate D2E/DX2 analytically  !
 ! D2    D(1,2,3,17)          -169.1854         calculate D2E/DX2 analytically  !
 ! D3    D(14,2,3,4)           176.2764         calculate D2E/DX2 analytically  !
 ! D4    D(14,2,3,17)            9.7993         calculate D2E/DX2 analytically  !
 ! D5    D(1,2,14,15)          -25.8181         calculate D2E/DX2 analytically  !
 ! D6    D(1,2,14,25)           94.4984         calculate D2E/DX2 analytically  !
 ! D7    D(1,2,14,26)         -149.1379         calculate D2E/DX2 analytically  !
 ! D8    D(3,2,14,15)          155.218          calculate D2E/DX2 analytically  !
 ! D9    D(3,2,14,25)          -84.4654         calculate D2E/DX2 analytically  !
 ! D10   D(3,2,14,26)           31.8982         calculate D2E/DX2 analytically  !
 ! D11   D(2,3,4,5)           -163.4554         calculate D2E/DX2 analytically  !
 ! D12   D(2,3,4,8)             73.1457         calculate D2E/DX2 analytically  !
 ! D13   D(2,3,4,18)           -48.0713         calculate D2E/DX2 analytically  !
 ! D14   D(17,3,4,5)             3.8324         calculate D2E/DX2 analytically  !
 ! D15   D(17,3,4,8)          -119.5665         calculate D2E/DX2 analytically  !
 ! D16   D(17,3,4,18)          119.2165         calculate D2E/DX2 analytically  !
 ! D17   D(3,4,5,6)            175.8405         calculate D2E/DX2 analytically  !
 ! D18   D(3,4,5,7)             -4.5076         calculate D2E/DX2 analytically  !
 ! D19   D(8,4,5,6)            -60.7756         calculate D2E/DX2 analytically  !
 ! D20   D(8,4,5,7)            118.8764         calculate D2E/DX2 analytically  !
 ! D21   D(18,4,5,6)            59.8082         calculate D2E/DX2 analytically  !
 ! D22   D(18,4,5,7)          -120.5399         calculate D2E/DX2 analytically  !
 ! D23   D(3,4,8,9)           -125.5927         calculate D2E/DX2 analytically  !
 ! D24   D(3,4,8,20)            -4.1299         calculate D2E/DX2 analytically  !
 ! D25   D(3,4,8,21)           112.3131         calculate D2E/DX2 analytically  !
 ! D26   D(5,4,8,9)            113.8167         calculate D2E/DX2 analytically  !
 ! D27   D(5,4,8,20)          -124.7205         calculate D2E/DX2 analytically  !
 ! D28   D(5,4,8,21)            -8.2775         calculate D2E/DX2 analytically  !
 ! D29   D(18,4,8,9)            -5.2823         calculate D2E/DX2 analytically  !
 ! D30   D(18,4,8,20)          116.1805         calculate D2E/DX2 analytically  !
 ! D31   D(18,4,8,21)         -127.3765         calculate D2E/DX2 analytically  !
 ! D32   D(4,5,6,19)            -2.5315         calculate D2E/DX2 analytically  !
 ! D33   D(7,5,6,19)           177.8073         calculate D2E/DX2 analytically  !
 ! D34   D(4,8,9,10)          -117.1018         calculate D2E/DX2 analytically  !
 ! D35   D(4,8,9,13)            61.1534         calculate D2E/DX2 analytically  !
 ! D36   D(20,8,9,10)          122.3553         calculate D2E/DX2 analytically  !
 ! D37   D(20,8,9,13)          -59.3895         calculate D2E/DX2 analytically  !
 ! D38   D(21,8,9,10)            6.2246         calculate D2E/DX2 analytically  !
 ! D39   D(21,8,9,13)         -175.5202         calculate D2E/DX2 analytically  !
 ! D40   D(8,9,10,11)          178.6908         calculate D2E/DX2 analytically  !
 ! D41   D(8,9,10,22)           -1.3063         calculate D2E/DX2 analytically  !
 ! D42   D(13,9,10,11)           0.2218         calculate D2E/DX2 analytically  !
 ! D43   D(13,9,10,22)        -179.7754         calculate D2E/DX2 analytically  !
 ! D44   D(8,9,13,12)         -178.8602         calculate D2E/DX2 analytically  !
 ! D45   D(8,9,13,24)            0.8295         calculate D2E/DX2 analytically  !
 ! D46   D(10,9,13,12)          -0.1892         calculate D2E/DX2 analytically  !
 ! D47   D(10,9,13,24)         179.5005         calculate D2E/DX2 analytically  !
 ! D48   D(9,10,11,12)          -0.167          calculate D2E/DX2 analytically  !
 ! D49   D(22,10,11,12)        179.8303         calculate D2E/DX2 analytically  !
 ! D50   D(10,11,12,13)          0.0422         calculate D2E/DX2 analytically  !
 ! D51   D(10,11,12,23)        179.8749         calculate D2E/DX2 analytically  !
 ! D52   D(11,12,13,9)           0.094          calculate D2E/DX2 analytically  !
 ! D53   D(11,12,13,24)       -179.5789         calculate D2E/DX2 analytically  !
 ! D54   D(23,12,13,9)        -179.7476         calculate D2E/DX2 analytically  !
 ! D55   D(23,12,13,24)          0.5795         calculate D2E/DX2 analytically  !
 ! D56   D(2,14,15,16)         176.9097         calculate D2E/DX2 analytically  !
 ! D57   D(2,14,15,27)          58.0994         calculate D2E/DX2 analytically  !
 ! D58   D(2,14,15,28)         -58.3077         calculate D2E/DX2 analytically  !
 ! D59   D(25,14,15,16)         56.9793         calculate D2E/DX2 analytically  !
 ! D60   D(25,14,15,27)        -61.831          calculate D2E/DX2 analytically  !
 ! D61   D(25,14,15,28)       -178.2382         calculate D2E/DX2 analytically  !
 ! D62   D(26,14,15,16)        -60.2449         calculate D2E/DX2 analytically  !
 ! D63   D(26,14,15,27)       -179.0552         calculate D2E/DX2 analytically  !
 ! D64   D(26,14,15,28)         64.5376         calculate D2E/DX2 analytically  !
 ! D65   D(14,15,16,29)       -173.3102         calculate D2E/DX2 analytically  !
 ! D66   D(14,15,16,30)         70.6192         calculate D2E/DX2 analytically  !
 ! D67   D(27,15,16,29)        -55.0138         calculate D2E/DX2 analytically  !
 ! D68   D(27,15,16,30)       -171.0844         calculate D2E/DX2 analytically  !
 ! D69   D(28,15,16,29)         64.4059         calculate D2E/DX2 analytically  !
 ! D70   D(28,15,16,30)        -51.6647         calculate D2E/DX2 analytically  !
 --------------------------------------------------------------------------------
 Trust Radius=3.00D-01 FncErr=1.00D-07 GrdErr=1.00D-06
 Number of steps in this run=    160 maximum allowed number of steps=    180.
 GradGradGradGradGradGradGradGradGradGradGradGradGradGradGradGradGradGrad

                          Input orientation:                          
 ---------------------------------------------------------------------
 Center     Atomic      Atomic             Coordinates (Angstroms)
 Number     Number       Type             X           Y           Z
 ---------------------------------------------------------------------
      1          8           0        0.539746   -0.913344   -0.725215
      2          6           0        1.323288   -0.142770   -0.166465
      3          7           0        0.900219    1.043898    0.320439
      4          6           0       -0.473021    1.464623    0.145735
      5          6           0       -0.522928    2.961453    0.417511
      6          8           0       -1.724833    3.537480    0.211911
      7          8           0        0.418621    3.601539    0.792635
      8          6           0       -1.451768    0.668235    1.063860
      9          6           0       -2.563316    0.025027    0.298978
     10          6           0       -3.915500    0.189923    0.320554
     11          7           0       -4.521234   -0.633394   -0.613522
     12          6           0       -3.533620   -1.278201   -1.186237
     13          7           0       -2.331408   -0.917032   -0.673387
     14          6           0        2.798357   -0.447744   -0.005781
     15          6           0        3.074876   -1.940922   -0.004758
     16          7           0        4.520976   -2.166242    0.079192
     17          1           0        1.542571    1.755100    0.635326
     18          1           0       -0.746143    1.315785   -0.905462
     19          1           0       -2.348524    2.880339   -0.118880
     20          1           0       -0.878975   -0.092871    1.590195
     21          1           0       -1.882115    1.315841    1.827977
     22          1           0       -4.496132    0.849747    0.949339
     23          1           0       -3.618644   -2.012851   -1.967478
     24          1           0       -1.414834   -1.250131   -0.933270
     25          1           0        3.338079    0.014060   -0.837281
     26          1           0        3.173701    0.013820    0.911188
     27          1           0        2.701397   -2.359378   -0.940718
     28          1           0        2.510410   -2.413374    0.808723
     29          1           0        4.724810   -3.152553   -0.029971
     30          1           0        4.855820   -1.915950    1.002723
 ---------------------------------------------------------------------
                    Distance matrix (angstroms):
                    1          2          3          4          5
     1  O    0.000000
     2  C    1.232852   0.000000
     3  N    2.248139   1.350645   0.000000
     4  C    2.727449   2.430618   1.446831   0.000000
     5  C    4.177218   3.658653   2.389935   1.522121   0.000000
     6  O    5.080980   4.793584   3.622240   2.422426   1.348574
     7  O    4.764736   3.969652   2.645077   2.404146   1.198726
     8  C    3.109391   3.142032   2.495123   1.560491   2.557217
     9  C    3.399780   3.917969   3.610350   2.542685   3.577684
    10  C    4.707446   5.271885   4.890851   3.675062   4.381817
    11  N    5.069947   5.882092   5.751325   4.622355   5.474705
    12  C    4.115577   5.091040   5.226963   4.320242   5.441593
    13  N    2.871624   3.770047   3.908496   3.129990   4.416254
    14  C    2.415717   1.514812   2.436050   3.792363   4.778361
    15  C    2.828756   2.515465   3.707295   4.920158   6.095555
    16  N    4.250531   3.792096   4.844903   6.174756   7.200603
    17  H    3.158690   2.071922   1.008751   2.094442   2.401878
    18  H    2.579732   2.637432   2.070571   1.096250   2.123277
    19  H    4.806431   4.756433   3.757638   2.364695   1.904493
    20  H    2.836736   2.817500   2.463748   2.162649   3.291026
    21  H    4.165749   4.047215   3.176162   2.199459   2.558289
    22  H    5.592199   6.007974   5.436341   4.148406   4.530837
    23  H    4.477091   5.582432   5.915944   5.143290   6.325767
    24  H    1.994266   3.051484   3.491966   3.069389   4.511933
    25  H    2.950136   2.129313   2.888606   4.194632   5.016872
    26  H    3.236535   2.147063   2.564910   3.998666   4.753664
    27  H    2.609634   2.722500   4.051796   5.087268   6.368069
    28  H    2.913172   2.741513   3.844980   4.937537   6.184089
    29  H    4.797101   4.543983   5.688628   6.954613   8.069701
    30  H    4.755994   4.121886   4.987283   6.368614   7.284399
                    6          7          8          9         10
     6  O    0.000000
     7  O    2.221652   0.000000
     8  C    3.005487   3.489440   0.000000
     9  C    3.612195   4.682636   1.494757   0.000000
    10  C    4.002120   5.535936   2.617492   1.362373   0.000000
    11  N    5.088947   6.656883   3.732220   2.258233   1.384652
    12  C    5.330789   6.583920   3.631206   2.201308   2.138139
    13  N    4.581960   5.489021   2.510949   1.373590   2.173158
    14  C    6.032299   4.764168   4.522510   5.391096   6.751961
    15  C    7.286772   6.197613   5.332931   5.978831   7.315168
    16  N    8.459325   7.113762   6.684123   7.418703   8.762642
    17  H    3.745943   2.167336   3.214185   4.468175   5.686774
    18  H    2.672505   3.076505   2.189853   2.533544   3.579874
    19  H    0.964493   3.001347   2.663917   2.893708   3.144337
    20  H    3.974241   3.996063   1.088302   2.125593   3.303399
    21  H    2.751743   3.404370   1.090168   2.113782   2.770320
    22  H    3.930369   5.634865   3.051919   2.199752   1.080681
    23  H    6.256391   7.445744   4.590488   3.225444   3.189895
    24  H    4.932418   5.466169   2.769480   2.112693   3.146293
    25  H    6.256866   4.904067   5.194701   6.009797   7.347511
    26  H    6.074603   4.525069   4.674027   5.769600   7.115942
    27  H    7.462774   6.614236   5.516662   5.910959   7.202296
    28  H    7.328447   6.368282   5.025959   5.652286   6.950381
    29  H    9.295856   8.052186   7.344726   7.957512   9.270921
    30  H    8.583139   7.083470   6.816701   7.701053   9.046331
                   11         12         13         14         15
    11  N    0.000000
    12  C    1.311168   0.000000
    13  N    2.208930   1.356013   0.000000
    14  C    7.347123   6.494387   5.194267   0.000000
    15  C    7.731824   6.745910   5.542862   1.518567   0.000000
    16  N    9.197338   8.201612   7.005859   2.434723   1.465954
    17  H    6.635831   6.187626   4.884744   2.615441   4.051943
    18  H    4.258619   3.818065   2.748161   4.059918   5.100745
    19  H    4.160728   4.453892   3.837681   6.130196   7.257469
    20  H    4.291221   4.020040   2.812935   4.024406   4.646731
    21  H    4.089668   4.306043   3.382958   5.327261   6.207832
    22  H    2.154732   3.164692   3.231219   7.470294   8.125164
    23  H    2.133253   1.075768   2.128960   6.890262   6.975719
    24  H    3.183131   2.134018   1.009258   4.388056   4.636467
    25  H    7.889110   7.000853   5.747771   1.093597   2.141104
    26  H    7.871190   7.145394   5.803756   1.093049   2.160958
    27  H    7.433201   6.332824   5.242228   2.130224   1.091152
    28  H    7.391558   6.465198   5.280047   2.147099   1.097079
    29  H    9.600834   8.547035   7.429788   3.320814   2.047185
    30  H    9.601371   8.693731   7.447377   2.721372   2.046314
                   16         17         18         19         20
    16  N    0.000000
    17  H    4.955512   0.000000
    18  H    6.390352   2.793786   0.000000
    19  H    8.526268   4.120147   2.373639   0.000000
    20  H    5.978417   3.192281   2.868843   3.731018   0.000000
    21  H    7.495513   3.652922   2.960088   2.540757   1.745651
    22  H    9.547857   6.114262   4.209500   3.142708   3.792499
    23  H    8.394390   6.900013   4.523157   5.382734   4.883559
    24  H    6.090827   4.498683   2.651762   4.312283   2.827414
    25  H    2.644406   2.902351   4.287191   6.408518   4.866993
    26  H    2.694446   2.401820   4.512262   6.306579   4.110549
    27  H    2.094847   4.555845   5.039207   7.323371   4.935751
    28  H    2.153059   4.282867   5.239294   7.245211   4.181312
    29  H    1.013052   5.886792   7.117855   9.297083   6.587033
    30  H    1.013744   4.958750   6.742942   8.727253   6.046206
                   21         22         23         24         25
    21  H    0.000000
    22  H    2.796843   0.000000
    23  H    5.338652   4.179985   0.000000
    24  H    3.798295   4.177092   2.551099   0.000000
    25  H    6.004053   8.078690   7.333601   4.919103   0.000000
    26  H    5.300663   7.715345   7.650494   5.104336   1.756179
    27  H    6.494728   8.104025   6.412272   4.263080   2.459526
    28  H    5.851512   7.730418   6.740402   4.449182   3.047425
    29  H    8.189626  10.099664   8.640953   6.490793   3.549959
    30  H    7.518329   9.752483   8.980424   6.596399   3.068239
                   26         27         28         29         30
    26  H    0.000000
    27  H    3.047079   0.000000
    28  H    2.518278   1.760663   0.000000
    29  H    3.649334   2.356435   2.480597   0.000000
    30  H    2.561623   2.935153   2.405413   1.616418   0.000000
 Symmetry turned off by external request.
 Stoichiometry    C9H14N4O3
 Framework group  C1[X(C9H14N4O3)]
 Deg. of freedom    84
 Full point group                 C1      NOp   1
 Rotational constants (GHZ):      0.6612253      0.3164135      0.2232211
 Standard basis: 6-31+G(d,p) (6D, 7F)
   374 basis functions,   610 primitive gaussians,   374 cartesian basis functions
    60 alpha electrons       60 beta electrons
       nuclear repulsion energy      1115.7720187121 Hartrees.
 NAtoms=   30 NActive=   30 NUniq=   30 SFac= 1.00D+00 NAtFMM=   60 NAOKFM=F Big=F
 Integral buffers will be    131072 words long.
 Raffenetti 2 integral format.
 Two-electron integral symmetry is turned off.
 One-electron integrals computed using PRISM.
 NBasis=   374 RedAO= T EigKep=  6.50D-06  NBF=   374
 NBsUse=   374 1.00D-06 EigRej= -1.00D+00 NBFU=   374
 ExpMin= 4.38D-02 ExpMax= 5.48D+03 ExpMxC= 8.25D+02 IAcc=3 IRadAn=         5 AccDes= 0.00D+00
 Harris functional with IExCor=  402 and IRadAn=       5 diagonalized for initial guess.
 HarFok:  IExCor=  402 AccDes= 0.00D+00 IRadAn=         5 IDoV= 1 UseB2=F ITyADJ=14
 ICtDFT=  3500011 ScaDFX=  1.000000  1.000000  1.000000  1.000000
 FoFCou: FMM=F IPFlag=           0 FMFlag=      100000 FMFlg1=           0
         NFxFlg=           0 DoJE=T BraDBF=F KetDBF=T FulRan=T
         wScrn=  0.000000 ICntrl=     500 IOpCl=  0 I1Cent=   200000004 NGrid=           0
         NMat0=    1 NMatS0=      1 NMatT0=    0 NMatD0=    1 NMtDS0=    0 NMtDT0=    0
 Symmetry not used in FoFCou.
 Requested convergence on RMS density matrix=1.00D-08 within 128 cycles.
 Requested convergence on MAX density matrix=1.00D-06.
 Requested convergence on             energy=1.00D-06.
 No special actions if energy rises.
 SCF Done:  E(RB3LYP) =  -796.148140008     A.U. after   14 cycles
            NFock= 14  Conv=0.58D-08     -V/T= 2.0089
 DoSCS=F DFT=T ScalE2(SS,OS)=  1.000000  1.000000
 Range of M.O.s used for correlation:     1   374
 NBasis=   374 NAE=    60 NBE=    60 NFC=     0 NFV=     0
 NROrb=    374 NOA=    60 NOB=    60 NVA=   314 NVB=   314

 **** Warning!!: The largest alpha MO coefficient is  0.90437355D+02

 Symmetrizing basis deriv contribution to polar:
 IMax=3 JMax=2 DiffMx= 0.00D+00
 G2DrvN: will do    31 centers at a time, making    1 passes.
 Calling FoFCou, ICntrl=  3107 FMM=F I1Cent=   0 AccDes= 0.00D+00.
 End of G2Drv F.D. properties file   721 does not exist.
 End of G2Drv F.D. properties file   722 does not exist.
 End of G2Drv F.D. properties file   788 does not exist.
          IDoAtm=111111111111111111111111111111
          Differentiating once with respect to nuclear coordinates.
          There are    93 degrees of freedom in the 1st order CPHF.  IDoFFX=6 NUNeed=     0.
     87 vectors produced by pass  0 Test12= 2.03D-14 1.08D-09 XBig12= 2.07D-01 7.93D-02.
 AX will form    87 AO Fock derivatives at one time.
     87 vectors produced by pass  1 Test12= 2.03D-14 1.08D-09 XBig12= 1.98D-02 5.15D-02.
     87 vectors produced by pass  2 Test12= 2.03D-14 1.08D-09 XBig12= 2.07D-04 1.71D-03.
     87 vectors produced by pass  3 Test12= 2.03D-14 1.08D-09 XBig12= 1.34D-06 1.42D-04.
     87 vectors produced by pass  4 Test12= 2.03D-14 1.08D-09 XBig12= 2.95D-09 5.47D-06.
     78 vectors produced by pass  5 Test12= 2.03D-14 1.08D-09 XBig12= 3.46D-12 1.47D-07.
     21 vectors produced by pass  6 Test12= 2.03D-14 1.08D-09 XBig12= 3.74D-15 4.78D-09.
      6 vectors produced by pass  7 Test12= 2.03D-14 1.08D-09 XBig12= 6.54D-16 3.70D-09.
      6 vectors produced by pass  8 Test12= 2.03D-14 1.08D-09 XBig12= 2.19D-15 6.51D-09.
      4 vectors produced by pass  9 Test12= 2.03D-14 1.08D-09 XBig12= 1.03D-15 2.84D-09.
      4 vectors produced by pass 10 Test12= 2.03D-14 1.08D-09 XBig12= 2.10D-15 4.64D-09.
      4 vectors produced by pass 11 Test12= 2.03D-14 1.08D-09 XBig12= 4.34D-15 5.87D-09.
      4 vectors produced by pass 12 Test12= 2.03D-14 1.08D-09 XBig12= 1.93D-15 3.95D-09.
      4 vectors produced by pass 13 Test12= 2.03D-14 1.08D-09 XBig12= 6.96D-16 2.81D-09.
      4 vectors produced by pass 14 Test12= 2.03D-14 1.08D-09 XBig12= 9.06D-16 2.94D-09.
      4 vectors produced by pass 15 Test12= 2.03D-14 1.08D-09 XBig12= 4.16D-15 7.18D-09.
      4 vectors produced by pass 16 Test12= 2.03D-14 1.08D-09 XBig12= 3.41D-15 6.32D-09.
      4 vectors produced by pass 17 Test12= 2.03D-14 1.08D-09 XBig12= 2.62D-15 4.34D-09.
      4 vectors produced by pass 18 Test12= 2.03D-14 1.08D-09 XBig12= 1.02D-15 2.54D-09.
      4 vectors produced by pass 19 Test12= 2.03D-14 1.08D-09 XBig12= 3.46D-15 5.43D-09.
      2 vectors produced by pass 20 Test12= 2.03D-14 1.08D-09 XBig12= 4.14D-16 1.76D-09.
 InvSVY:  IOpt=1 It=  1 EMax= 5.00D-16
 Solved reduced A of dimension   592 with    93 vectors.
 End of Minotr F.D. properties file   721 does not exist.
 End of Minotr F.D. properties file   722 does not exist.
 End of Minotr F.D. properties file   788 does not exist.

 **********************************************************************

            Population analysis using the SCF density.

 **********************************************************************

 Alpha  occ. eigenvalues --  -19.23463 -19.18033 -19.15522 -14.39390 -14.39106
 Alpha  occ. eigenvalues --  -14.33746 -14.32279 -10.35727 -10.32177 -10.27801
 Alpha  occ. eigenvalues --  -10.24555 -10.23348 -10.23229 -10.22783 -10.21588
 Alpha  occ. eigenvalues --  -10.20865  -1.14424  -1.07562  -1.06532  -1.02631
 Alpha  occ. eigenvalues --   -0.96352  -0.90424  -0.87913  -0.82857  -0.78602
 Alpha  occ. eigenvalues --   -0.75458  -0.69899  -0.66138  -0.63874  -0.62166
 Alpha  occ. eigenvalues --   -0.61667  -0.60114  -0.57479  -0.55965  -0.52403
 Alpha  occ. eigenvalues --   -0.51543  -0.50882  -0.49763  -0.48518  -0.47577
 Alpha  occ. eigenvalues --   -0.46798  -0.45123  -0.44901  -0.43799  -0.43108
 Alpha  occ. eigenvalues --   -0.41835  -0.41638  -0.41414  -0.40845  -0.40675
 Alpha  occ. eigenvalues --   -0.37907  -0.36832  -0.35757  -0.31857  -0.29877
 Alpha  occ. eigenvalues --   -0.29302  -0.28685  -0.27556  -0.26048  -0.24140
 Alpha virt. eigenvalues --   -0.03279  -0.01708  -0.01469  -0.00894   0.00154
 Alpha virt. eigenvalues --    0.00707   0.01138   0.01422   0.02756   0.03007
 Alpha virt. eigenvalues --    0.03707   0.04066   0.04733   0.05143   0.05504
 Alpha virt. eigenvalues --    0.05941   0.06024   0.07037   0.07538   0.08013
 Alpha virt. eigenvalues --    0.08158   0.08397   0.09439   0.09843   0.09950
 Alpha virt. eigenvalues --    0.10926   0.11570   0.12264   0.12860   0.13195
 Alpha virt. eigenvalues --    0.13840   0.13999   0.14717   0.15203   0.15321
 Alpha virt. eigenvalues --    0.16036   0.16509   0.16998   0.17614   0.17751
 Alpha virt. eigenvalues --    0.18471   0.18484   0.18653   0.19362   0.19622
 Alpha virt. eigenvalues --    0.20085   0.20528   0.20930   0.21234   0.21677
 Alpha virt. eigenvalues --    0.21822   0.22316   0.23436   0.23681   0.23983
 Alpha virt. eigenvalues --    0.24322   0.24642   0.25002   0.25450   0.25868
 Alpha virt. eigenvalues --    0.26283   0.26589   0.26889   0.27677   0.27947
 Alpha virt. eigenvalues --    0.28498   0.28674   0.28874   0.29779   0.30001
 Alpha virt. eigenvalues --    0.30761   0.31014   0.31458   0.31555   0.32065
 Alpha virt. eigenvalues --    0.32673   0.33395   0.33824   0.35012   0.35063
 Alpha virt. eigenvalues --    0.35364   0.36994   0.37203   0.37442   0.38209
 Alpha virt. eigenvalues --    0.38579   0.40192   0.40698   0.41355   0.42533
 Alpha virt. eigenvalues --    0.43873   0.46075   0.46683   0.47847   0.48623
 Alpha virt. eigenvalues --    0.49588   0.52825   0.53787   0.62922   0.63434
 Alpha virt. eigenvalues --    0.65048   0.65353   0.67795   0.68654   0.69809
 Alpha virt. eigenvalues --    0.70349   0.71466   0.72328   0.73570   0.74157
 Alpha virt. eigenvalues --    0.75629   0.77992   0.79822   0.80434   0.81993
 Alpha virt. eigenvalues --    0.82470   0.83092   0.83583   0.84310   0.86201
 Alpha virt. eigenvalues --    0.87388   0.87581   0.89055   0.89699   0.90366
 Alpha virt. eigenvalues --    0.91744   0.92949   0.94099   0.95152   0.96681
 Alpha virt. eigenvalues --    0.97490   0.99023   1.00211   1.01285   1.02436
 Alpha virt. eigenvalues --    1.02993   1.03748   1.04966   1.06000   1.06433
 Alpha virt. eigenvalues --    1.07608   1.08762   1.10025   1.10925   1.11488
 Alpha virt. eigenvalues --    1.12737   1.13748   1.15903   1.16204   1.17685
 Alpha virt. eigenvalues --    1.19455   1.21872   1.22669   1.24507   1.25358
 Alpha virt. eigenvalues --    1.25918   1.27385   1.27492   1.29379   1.30014
 Alpha virt. eigenvalues --    1.31528   1.33366   1.33765   1.34665   1.35468
 Alpha virt. eigenvalues --    1.36859   1.37218   1.37953   1.40273   1.40476
 Alpha virt. eigenvalues --    1.41591   1.42512   1.43051   1.45566   1.46487
 Alpha virt. eigenvalues --    1.48857   1.49483   1.50602   1.53461   1.56300
 Alpha virt. eigenvalues --    1.57726   1.59569   1.61692   1.63949   1.65256
 Alpha virt. eigenvalues --    1.67238   1.69856   1.70458   1.71864   1.74230
 Alpha virt. eigenvalues --    1.74883   1.76218   1.76358   1.77299   1.80083
 Alpha virt. eigenvalues --    1.80486   1.81787   1.83403   1.85453   1.87006
 Alpha virt. eigenvalues --    1.89216   1.89590   1.92211   1.92578   1.93251
 Alpha virt. eigenvalues --    1.94487   1.96306   1.98570   1.99650   2.02332
 Alpha virt. eigenvalues --    2.03489   2.04857   2.07998   2.08608   2.08742
 Alpha virt. eigenvalues --    2.10031   2.10579   2.13397   2.14815   2.16150
 Alpha virt. eigenvalues --    2.16763   2.19037   2.20620   2.20905   2.22967
 Alpha virt. eigenvalues --    2.24377   2.25956   2.27853   2.28948   2.30440
 Alpha virt. eigenvalues --    2.31419   2.32259   2.34212   2.36477   2.37960
 Alpha virt. eigenvalues --    2.41042   2.41923   2.44346   2.44712   2.45377
 Alpha virt. eigenvalues --    2.46051   2.48493   2.50982   2.51734   2.53100
 Alpha virt. eigenvalues --    2.55011   2.55867   2.57157   2.58181   2.59425
 Alpha virt. eigenvalues --    2.59936   2.61080   2.63059   2.63521   2.64885
 Alpha virt. eigenvalues --    2.66766   2.67120   2.68279   2.71129   2.71816
 Alpha virt. eigenvalues --    2.72477   2.75169   2.77049   2.78618   2.80386
 Alpha virt. eigenvalues --    2.83098   2.83361   2.85356   2.85819   2.87990
 Alpha virt. eigenvalues --    2.89527   2.91846   2.94653   2.95885   2.96218
 Alpha virt. eigenvalues --    3.01202   3.01783   3.04700   3.07320   3.09704
 Alpha virt. eigenvalues --    3.11836   3.17451   3.25229   3.26176   3.31200
 Alpha virt. eigenvalues --    3.33426   3.34285   3.36154   3.37589   3.41396
 Alpha virt. eigenvalues --    3.42182   3.50292   3.51448   3.54165   3.56676
 Alpha virt. eigenvalues --    3.58426   3.61048   3.77772   4.17467   4.21490
 Alpha virt. eigenvalues --    4.26235   4.29135   4.32911   4.34605   4.38699
 Alpha virt. eigenvalues --    4.39524   4.46252   4.56065   4.59048   4.60709
 Alpha virt. eigenvalues --    4.62810   4.71948   4.78242   4.80971
          Condensed to atoms (all electrons):
               1          2          3          4          5          6
     1  O    8.316062   0.308024  -0.195623   0.069403   0.016512   0.000101
     2  C    0.308024   7.660701  -0.039829  -0.030596  -0.018309  -0.025370
     3  N   -0.195623  -0.039829   7.368717  -0.192555  -0.015466   0.002660
     4  C    0.069403  -0.030596  -0.192555  10.062082  -1.860316  -0.382525
     5  C    0.016512  -0.018309  -0.015466  -1.860316   6.761068   0.397623
     6  O    0.000101  -0.025370   0.002660  -0.382525   0.397623   8.267082
     7  O    0.000108   0.034563   0.018009  -0.191787   0.543649  -0.123173
     8  C   -0.040765  -0.150804  -0.108009  -0.305388   0.513655   0.035198
     9  C   -0.066979  -0.078806   0.191895  -1.146248  -0.093625   0.069009
    10  C    0.018652  -0.000406   0.005931   0.202706  -0.117569  -0.046355
    11  N   -0.001363  -0.003386   0.001093  -0.012585   0.004489   0.000610
    12  C    0.006148  -0.006682   0.003903   0.000378   0.007683   0.000317
    13  N    0.007092   0.026691  -0.004499   0.059586  -0.048807  -0.004253
    14  C    0.075872  -2.038198   0.027725  -0.219211  -0.308393  -0.005955
    15  C    0.015106  -0.136685  -0.001583  -0.054634  -0.010877  -0.000056
    16  N   -0.001240   0.120188  -0.003331   0.008459   0.000861   0.000005
    17  H    0.010705  -0.023818   0.287365   0.028229  -0.010052   0.001897
    18  H    0.005064   0.041472  -0.068442   0.495282  -0.173844   0.001252
    19  H    0.000089   0.016031   0.001227   0.118535  -0.104593   0.194815
    20  H   -0.002946   0.013995  -0.004179  -0.069967  -0.040354  -0.000982
    21  H    0.000482   0.002446   0.004804  -0.049690  -0.037009   0.004398
    22  H   -0.000021  -0.000953   0.000002   0.004935   0.006319   0.000080
    23  H   -0.000556  -0.001539  -0.000088   0.004126   0.000645   0.000003
    24  H    0.023156  -0.009800   0.001969   0.006549   0.000349   0.000028
    25  H   -0.002018  -0.043289  -0.001753  -0.008745  -0.000897  -0.000004
    26  H    0.007157  -0.121324   0.004457   0.004535  -0.005609   0.000002
    27  H    0.001138   0.036081   0.001380   0.002083  -0.000201   0.000000
    28  H   -0.002801  -0.057575   0.003645  -0.011252  -0.000595  -0.000001
    29  H    0.000164  -0.021898   0.000004   0.000002  -0.000010   0.000000
    30  H   -0.000023   0.023941  -0.000007   0.000059   0.000054   0.000000
               7          8          9         10         11         12
     1  O    0.000108  -0.040765  -0.066979   0.018652  -0.001363   0.006148
     2  C    0.034563  -0.150804  -0.078806  -0.000406  -0.003386  -0.006682
     3  N    0.018009  -0.108009   0.191895   0.005931   0.001093   0.003903
     4  C   -0.191787  -0.305388  -1.146248   0.202706  -0.012585   0.000378
     5  C    0.543649   0.513655  -0.093625  -0.117569   0.004489   0.007683
     6  O   -0.123173   0.035198   0.069009  -0.046355   0.000610   0.000317
     7  O    8.160105  -0.020439  -0.008491   0.001958  -0.000058   0.000457
     8  C   -0.020439   8.553241  -1.819705  -0.649766  -0.043460  -0.003302
     9  C   -0.008491  -1.819705  10.009796  -1.177109  -0.192261  -0.070661
    10  C    0.001958  -0.649766  -1.177109   7.598792   0.499119  -0.402352
    11  N   -0.000058  -0.043460  -0.192261   0.499119   6.768216   0.411017
    12  C    0.000457  -0.003302  -0.070661  -0.402352   0.411017   5.239983
    13  N    0.000031  -0.200408   0.210003  -0.032186  -0.026592   0.093380
    14  C   -0.013554  -0.122935   0.100669  -0.021661  -0.000689  -0.004490
    15  C    0.000388  -0.008505  -0.011259  -0.000073  -0.000041   0.001447
    16  N    0.000032  -0.002224   0.000960   0.000084   0.000003   0.000145
    17  H    0.017568   0.011747  -0.017999  -0.001872  -0.000002  -0.000184
    18  H    0.004244  -0.014519  -0.047965  -0.017463  -0.000806  -0.001651
    19  H    0.010549  -0.044121   0.016679   0.030143  -0.000613   0.001372
    20  H   -0.000127   0.529787  -0.100918  -0.018870  -0.001879  -0.006668
    21  H    0.003686   0.469790  -0.101401   0.002448  -0.000473  -0.001390
    22  H   -0.000009   0.033285  -0.111315   0.405863  -0.061072   0.024505
    23  H    0.000000   0.019954   0.048849  -0.039437  -0.052374   0.439068
    24  H    0.000038  -0.061809   0.089935  -0.009041   0.008037  -0.026461
    25  H    0.000059  -0.000171  -0.000463  -0.000043   0.000000   0.000035
    26  H   -0.000051   0.000794  -0.001412  -0.000273   0.000001  -0.000034
    27  H    0.000000  -0.000161  -0.000009  -0.000004   0.000000   0.000044
    28  H    0.000005   0.002576  -0.001755  -0.000086  -0.000002  -0.000053
    29  H    0.000000  -0.000024  -0.000016  -0.000001   0.000000  -0.000002
    30  H    0.000000  -0.000046   0.000034   0.000001   0.000000   0.000001
              13         14         15         16         17         18
     1  O    0.007092   0.075872   0.015106  -0.001240   0.010705   0.005064
     2  C    0.026691  -2.038198  -0.136685   0.120188  -0.023818   0.041472
     3  N   -0.004499   0.027725  -0.001583  -0.003331   0.287365  -0.068442
     4  C    0.059586  -0.219211  -0.054634   0.008459   0.028229   0.495282
     5  C   -0.048807  -0.308393  -0.010877   0.000861  -0.010052  -0.173844
     6  O   -0.004253  -0.005955  -0.000056   0.000005   0.001897   0.001252
     7  O    0.000031  -0.013554   0.000388   0.000032   0.017568   0.004244
     8  C   -0.200408  -0.122935  -0.008505  -0.002224   0.011747  -0.014519
     9  C    0.210003   0.100669  -0.011259   0.000960  -0.017999  -0.047965
    10  C   -0.032186  -0.021661  -0.000073   0.000084  -0.001872  -0.017463
    11  N   -0.026592  -0.000689  -0.000041   0.000003  -0.000002  -0.000806
    12  C    0.093380  -0.004490   0.001447   0.000145  -0.000184  -0.001651
    13  N    7.050177  -0.003339   0.002751   0.000175   0.000188   0.020388
    14  C   -0.003339   8.167055   0.142490  -0.179585  -0.008697   0.015732
    15  C    0.002751   0.142490   5.230653   0.230540   0.004621   0.001618
    16  N    0.000175  -0.179585   0.230540   6.879960  -0.000012  -0.000006
    17  H    0.000188  -0.008697   0.004621  -0.000012   0.361153   0.002872
    18  H    0.020388   0.015732   0.001618  -0.000006   0.002872   0.541008
    19  H    0.000320   0.001034   0.000055   0.000000  -0.000048  -0.001005
    20  H   -0.003582   0.025480  -0.000845  -0.000029   0.000173   0.001860
    21  H    0.010309  -0.000976   0.000086   0.000001  -0.000121   0.004056
    22  H    0.000191  -0.000164   0.000004   0.000000   0.000000   0.000010
    23  H   -0.116144  -0.000300   0.000036   0.000000   0.000000   0.000004
    24  H    0.259743   0.003931  -0.000917   0.000025  -0.000007   0.000493
    25  H    0.000088   0.392435  -0.010076   0.003890   0.000294   0.000061
    26  H    0.000075   0.443108  -0.008330  -0.008161   0.000467  -0.000008
    27  H    0.000104  -0.111697   0.456064  -0.050718  -0.000003  -0.000002
    28  H   -0.000059  -0.001364   0.447435  -0.100241   0.000002   0.000002
    29  H   -0.000001   0.058741  -0.064121   0.354817   0.000000   0.000000
    30  H    0.000001  -0.043405  -0.015895   0.353392   0.000001   0.000000
              19         20         21         22         23         24
     1  O    0.000089  -0.002946   0.000482  -0.000021  -0.000556   0.023156
     2  C    0.016031   0.013995   0.002446  -0.000953  -0.001539  -0.009800
     3  N    0.001227  -0.004179   0.004804   0.000002  -0.000088   0.001969
     4  C    0.118535  -0.069967  -0.049690   0.004935   0.004126   0.006549
     5  C   -0.104593  -0.040354  -0.037009   0.006319   0.000645   0.000349
     6  O    0.194815  -0.000982   0.004398   0.000080   0.000003   0.000028
     7  O    0.010549  -0.000127   0.003686  -0.000009   0.000000   0.000038
     8  C   -0.044121   0.529787   0.469790   0.033285   0.019954  -0.061809
     9  C    0.016679  -0.100918  -0.101401  -0.111315   0.048849   0.089935
    10  C    0.030143  -0.018870   0.002448   0.405863  -0.039437  -0.009041
    11  N   -0.000613  -0.001879  -0.000473  -0.061072  -0.052374   0.008037
    12  C    0.001372  -0.006668  -0.001390   0.024505   0.439068  -0.026461
    13  N    0.000320  -0.003582   0.010309   0.000191  -0.116144   0.259743
    14  C    0.001034   0.025480  -0.000976  -0.000164  -0.000300   0.003931
    15  C    0.000055  -0.000845   0.000086   0.000004   0.000036  -0.000917
    16  N    0.000000  -0.000029   0.000001   0.000000   0.000000   0.000025
    17  H   -0.000048   0.000173  -0.000121   0.000000   0.000000  -0.000007
    18  H   -0.001005   0.001860   0.004056   0.000010   0.000004   0.000493
    19  H    0.393560   0.000194  -0.001504  -0.000102   0.000000   0.000002
    20  H    0.000194   0.516635  -0.024417  -0.000082  -0.000005   0.000808
    21  H   -0.001504  -0.024417   0.539164   0.001722   0.000004  -0.000001
    22  H   -0.000102  -0.000082   0.001722   0.568047  -0.000042  -0.000083
    23  H    0.000000  -0.000005   0.000004  -0.000042   0.562985   0.000359
    24  H    0.000002   0.000808  -0.000001  -0.000083   0.000359   0.354075
    25  H    0.000000  -0.000003   0.000000   0.000000   0.000000  -0.000005
    26  H    0.000000   0.000011  -0.000002   0.000000   0.000000  -0.000003
    27  H    0.000000   0.000002   0.000000   0.000000   0.000000  -0.000003
    28  H    0.000000  -0.000006   0.000000   0.000000   0.000000  -0.000018
    29  H    0.000000   0.000000   0.000000   0.000000   0.000000   0.000000
    30  H    0.000000   0.000000   0.000000   0.000000   0.000000   0.000000
              25         26         27         28         29         30
     1  O   -0.002018   0.007157   0.001138  -0.002801   0.000164  -0.000023
     2  C   -0.043289  -0.121324   0.036081  -0.057575  -0.021898   0.023941
     3  N   -0.001753   0.004457   0.001380   0.003645   0.000004  -0.000007
     4  C   -0.008745   0.004535   0.002083  -0.011252   0.000002   0.000059
     5  C   -0.000897  -0.005609  -0.000201  -0.000595  -0.000010   0.000054
     6  O   -0.000004   0.000002   0.000000  -0.000001   0.000000   0.000000
     7  O    0.000059  -0.000051   0.000000   0.000005   0.000000   0.000000
     8  C   -0.000171   0.000794  -0.000161   0.002576  -0.000024  -0.000046
     9  C   -0.000463  -0.001412  -0.000009  -0.001755  -0.000016   0.000034
    10  C   -0.000043  -0.000273  -0.000004  -0.000086  -0.000001   0.000001
    11  N    0.000000   0.000001   0.000000  -0.000002   0.000000   0.000000
    12  C    0.000035  -0.000034   0.000044  -0.000053  -0.000002   0.000001
    13  N    0.000088   0.000075   0.000104  -0.000059  -0.000001   0.000001
    14  C    0.392435   0.443108  -0.111697  -0.001364   0.058741  -0.043405
    15  C   -0.010076  -0.008330   0.456064   0.447435  -0.064121  -0.015895
    16  N    0.003890  -0.008161  -0.050718  -0.100241   0.354817   0.353392
    17  H    0.000294   0.000467  -0.000003   0.000002   0.000000   0.000001
    18  H    0.000061  -0.000008  -0.000002   0.000002   0.000000   0.000000
    19  H    0.000000   0.000000   0.000000   0.000000   0.000000   0.000000
    20  H   -0.000003   0.000011   0.000002  -0.000006   0.000000   0.000000
    21  H    0.000000  -0.000002   0.000000   0.000000   0.000000   0.000000
    22  H    0.000000   0.000000   0.000000   0.000000   0.000000   0.000000
    23  H    0.000000   0.000000   0.000000   0.000000   0.000000   0.000000
    24  H   -0.000005  -0.000003  -0.000003  -0.000018   0.000000   0.000000
    25  H    0.504592  -0.029146  -0.005809   0.004941  -0.000009  -0.000397
    26  H   -0.029146   0.567451   0.004869  -0.007077  -0.000037   0.004227
    27  H   -0.005809   0.004869   0.540640  -0.039111  -0.005117   0.005522
    28  H    0.004941  -0.007077  -0.039111   0.637480  -0.000397  -0.005275
    29  H   -0.000009  -0.000037  -0.005117  -0.000397   0.430526  -0.041368
    30  H   -0.000397   0.004227   0.005522  -0.005275  -0.041368   0.444493
 Mulliken charges:
               1
     1  O   -0.566699
     2  C    0.525135
     3  N   -0.289421
     4  C   -0.531451
     5  C    0.593618
     6  O   -0.386403
     7  O   -0.437758
     8  C   -0.573464
     9  C    0.310567
    10  C   -0.231132
    11  N   -0.294929
    12  C    0.294045
    13  N   -0.301422
    14  C   -0.369659
    15  C   -0.209397
    16  N   -0.607988
    17  H    0.335533
    18  H    0.190292
    19  H    0.367382
    20  H    0.186913
    21  H    0.173586
    22  H    0.128878
    23  H    0.134450
    24  H    0.358651
    25  H    0.196433
    26  H    0.144312
    27  H    0.164908
    28  H    0.131582
    29  H    0.288749
    30  H    0.274690
 Sum of Mulliken charges =   0.00000
 Mulliken charges with hydrogens summed into heavy atoms:
               1
     1  O   -0.566699
     2  C    0.525135
     3  N    0.046111
     4  C   -0.341158
     5  C    0.593618
     6  O   -0.019021
     7  O   -0.437758
     8  C   -0.212965
     9  C    0.310567
    10  C   -0.102254
    11  N   -0.294929
    12  C    0.428495
    13  N    0.057229
    14  C   -0.028914
    15  C    0.087093
    16  N   -0.044549
 APT charges:
               1
     1  O   -0.636375
     2  C    0.553994
     3  N   -0.578323
     4  C   -0.354350
     5  C   -0.149308
     6  O   -0.137627
     7  O   -0.026696
     8  C   -1.204969
     9  C    0.087552
    10  C   -0.432747
    11  N   -0.096723
    12  C   -0.305395
    13  N   -0.457993
    14  C   -1.070752
    15  C   -0.377579
    16  N   -1.769474
    17  H    0.738253
    18  H    0.324115
    19  H    0.368811
    20  H    0.249743
    21  H    0.592298
    22  H    0.765909
    23  H    0.715856
    24  H    0.158631
    25  H    0.529891
    26  H    0.413777
    27  H    0.279220
    28  H    0.276384
    29  H    0.941416
    30  H    0.602460
 Sum of APT charges =   0.00000
 APT charges with hydrogens summed into heavy atoms:
               1
     1  O   -0.636375
     2  C    0.553994
     3  N    0.159930
     4  C   -0.030234
     5  C   -0.149308
     6  O    0.231184
     7  O   -0.026696
     8  C   -0.362929
     9  C    0.087552
    10  C    0.333162
    11  N   -0.096723
    12  C    0.410461
    13  N   -0.299362
    14  C   -0.127085
    15  C    0.178025
    16  N   -0.225597
 Electronic spatial extent (au):  <R**2>=           4807.9474
 Charge=              0.0000 electrons
 Dipole moment (field-independent basis, Debye):
    X=              3.4287    Y=             -2.0106    Z=              1.2635  Tot=              4.1707
 Quadrupole moment (field-independent basis, Debye-Ang):
   XX=           -115.3134   YY=           -105.4495   ZZ=            -92.4935
   XY=             -9.1059   XZ=              3.5730   YZ=             -3.6594
 Traceless Quadrupole moment (field-independent basis, Debye-Ang):
   XX=            -10.8946   YY=             -1.0307   ZZ=             11.9253
   XY=             -9.1059   XZ=              3.5730   YZ=             -3.6594
 Octapole moment (field-independent basis, Debye-Ang**2):
  XXX=            230.4161  YYY=           -180.4715  ZZZ=             -8.2007  XYY=             50.1369
  XXY=            -11.9660  XXZ=             48.0999  XZZ=             33.9040  YZZ=            -29.2924
  YYZ=            -24.0962  XYZ=            -19.5896
 Hexadecapole moment (field-independent basis, Debye-Ang**3):
 XXXX=          -5055.4341 YYYY=          -2234.9339 ZZZZ=           -326.7998 XXXY=            131.1589
 XXXZ=            -52.3931 YYYX=            256.2324 YYYZ=           -223.3427 ZZZX=            -75.6594
 ZZZY=           -153.6600 XXYY=           -886.0513 XXZZ=           -715.3068 YYZZ=           -370.3576
 XXYZ=            -74.3756 YYXZ=              1.6593 ZZXY=            118.1875
 N-N= 1.115772018712D+03 E-N=-4.086206720487D+03  KE= 7.891246067351D+02
  Exact polarizability:   0.000   0.000   0.000   0.000   0.000   0.000
 Approx polarizability: 231.129   7.157 199.557  13.419  32.579 174.931
 Calling FoFJK, ICntrl=    100147 FMM=F ISym2X=0 I1Cent= 0 IOpClX= 0 NMat=1 NMatS=1 NMatT=0.
 -------------------------------------------------------------------
 Center     Atomic                   Forces (Hartrees/Bohr)
 Number     Number              X              Y              Z
 -------------------------------------------------------------------
      1        8          -0.003669307   -0.008618666   -0.003647030
      2        6           0.005399793    0.003069322   -0.000628257
      3        7          -0.002288863    0.002150577    0.000332485
      4        6           0.007917040    0.001122356    0.000145136
      5        6          -0.012349021   -0.005243664   -0.004031822
      6        8           0.003377168    0.003130885    0.001202723
      7        8           0.013347812    0.010488934    0.006004954
      8        6          -0.007677813   -0.002994749   -0.003756659
      9        6           0.012150229    0.004660879    0.004636552
     10        6          -0.016581478    0.000276688   -0.003419867
     11        7          -0.007485318    0.005150084    0.004116676
     12        6          -0.000148440   -0.002121220   -0.001322962
     13        7           0.002979212   -0.002850081   -0.001057163
     14        6          -0.002664290    0.001847752   -0.000019303
     15        6           0.002628891   -0.001570859   -0.001193266
     16        7          -0.001360580   -0.001210354   -0.000661913
     17        1           0.004122164    0.002302358    0.003163188
     18        1          -0.002224231   -0.001917925   -0.000384062
     19        1          -0.008025270   -0.002873557   -0.002448238
     20        1           0.003997180   -0.001364043    0.001719037
     21        1          -0.000999545    0.001620367    0.002289918
     22        1          -0.000885208   -0.000116526    0.001082708
     23        1          -0.001861119   -0.002667251   -0.003013553
     24        1           0.007144406   -0.000720977   -0.000967121
     25        1           0.001705635    0.001139646   -0.001921015
     26        1           0.001146935    0.001855973    0.002026853
     27        1           0.000404513   -0.001909863   -0.000610887
     28        1          -0.002209583   -0.001728035    0.001645012
     29        1           0.001446518   -0.003146277   -0.002130914
     30        1           0.002662568    0.002238228    0.002848790
 -------------------------------------------------------------------
 Cartesian Forces:  Max     0.016581478 RMS     0.004418953
 FormGI is forming the generalized inverse of G from B-inverse, IUseBI=4.

 GradGradGradGradGradGradGradGradGradGradGradGradGradGradGradGradGradGrad
 Berny optimization.
 Internal  Forces:  Max     0.017964492 RMS     0.003582838
 Search for a local minimum.
 Step number   1 out of a maximum of  160
 All quantities printed in internal units (Hartrees-Bohrs-Radians)
 Mixed Optimization -- RFO/linear search
 Second derivative matrix not updated -- analytic derivatives used.
 ITU=  0
     Eigenvalues ---    0.00008   0.00202   0.00239   0.00268   0.00387
     Eigenvalues ---    0.00513   0.00642   0.00872   0.00907   0.01449
     Eigenvalues ---    0.01676   0.02106   0.02426   0.02866   0.03343
     Eigenvalues ---    0.03643   0.04158   0.04275   0.04415   0.04486
     Eigenvalues ---    0.04535   0.04608   0.05162   0.05399   0.05448
     Eigenvalues ---    0.06116   0.06212   0.06396   0.07622   0.07894
     Eigenvalues ---    0.08350   0.10646   0.10770   0.11065   0.11688
     Eigenvalues ---    0.11865   0.12683   0.13559   0.15131   0.15961
     Eigenvalues ---    0.16794   0.17522   0.17793   0.19301   0.19580
     Eigenvalues ---    0.20580   0.21798   0.22415   0.23399   0.23544
     Eigenvalues ---    0.24360   0.25255   0.25318   0.27480   0.29797
     Eigenvalues ---    0.31104   0.32092   0.32586   0.33299   0.33838
     Eigenvalues ---    0.34430   0.34502   0.34567   0.34959   0.35399
     Eigenvalues ---    0.35855   0.37293   0.37588   0.38205   0.38515
     Eigenvalues ---    0.42858   0.44316   0.45098   0.45772   0.46201
     Eigenvalues ---    0.47074   0.47490   0.47659   0.49386   0.53146
     Eigenvalues ---    0.59936   0.67228   0.80895   0.94698
 RFO step:  Lambda=-4.90308866D-03 EMin= 7.60022867D-05
 Linear search not attempted -- first point.
 Iteration  1 RMS(Cart)=  0.07959504 RMS(Int)=  0.00146771
 Iteration  2 RMS(Cart)=  0.00211257 RMS(Int)=  0.00011616
 Iteration  3 RMS(Cart)=  0.00000268 RMS(Int)=  0.00011614
 Iteration  4 RMS(Cart)=  0.00000000 RMS(Int)=  0.00011614
 Variable       Old X    -DE/DX   Delta X   Delta X   Delta X     New X
                                 (Linear)    (Quad)   (Total)
    R1        2.32975   0.00937   0.00000   0.01077   0.01077   2.34052
    R2        2.55235   0.01033   0.00000   0.01736   0.01736   2.56971
    R3        2.86258   0.00416   0.00000   0.00865   0.00865   2.87123
    R4        2.73411   0.00790   0.00000   0.00348   0.00348   2.73759
    R5        1.90626   0.00524   0.00000   0.01026   0.01026   1.91652
    R6        2.87639   0.00566   0.00000   0.00764   0.00764   2.88403
    R7        2.94890   0.00663   0.00000   0.02645   0.02645   2.97536
    R8        2.07161   0.00118   0.00000   0.00259   0.00259   2.07420
    R9        2.54844   0.00444   0.00000   0.00208   0.00208   2.55052
   R10        2.26526   0.01796   0.00000   0.01906   0.01906   2.28433
   R11        1.82263   0.00799   0.00000   0.01525   0.01525   1.83788
   R12        2.82468   0.00276   0.00000  -0.00371  -0.00371   2.82098
   R13        2.05659   0.00389   0.00000   0.01117   0.01117   2.06776
   R14        2.06012   0.00296   0.00000   0.00813   0.00813   2.06825
   R15        2.57451   0.01731   0.00000   0.03180   0.03181   2.60633
   R16        2.59571   0.00608   0.00000   0.01459   0.01461   2.61032
   R17        2.61661  -0.00212   0.00000  -0.01134  -0.01135   2.60526
   R18        2.04219   0.00104   0.00000   0.00296   0.00296   2.04515
   R19        2.47775   0.00866   0.00000   0.01404   0.01402   2.49177
   R20        2.56249   0.00963   0.00000   0.01629   0.01629   2.57878
   R21        2.03291   0.00416   0.00000   0.00987   0.00987   2.04278
   R22        1.90722   0.00697   0.00000   0.01623   0.01623   1.92345
   R23        2.86968   0.00786   0.00000   0.02242   0.02242   2.89210
   R24        2.06660   0.00278   0.00000   0.00806   0.00806   2.07466
   R25        2.06556   0.00288   0.00000   0.00828   0.00828   2.07385
   R26        2.77025   0.00304   0.00000   0.00126   0.00126   2.77151
   R27        2.06198   0.00112   0.00000   0.00325   0.00325   2.06523
   R28        2.07318   0.00310   0.00000   0.00969   0.00969   2.08287
   R29        1.91439   0.00358   0.00000   0.00540   0.00540   1.91979
   R30        1.91570   0.00403   0.00000   0.00658   0.00658   1.92228
    A1        2.11000   0.00508   0.00000   0.00769   0.00769   2.11770
    A2        2.14256  -0.00287   0.00000  -0.00436  -0.00436   2.13820
    A3        2.03048  -0.00221   0.00000  -0.00328  -0.00328   2.02720
    A4        2.10512   0.00753   0.00000   0.00410   0.00408   2.10920
    A5        2.13235  -0.00484   0.00000  -0.01081  -0.01084   2.12152
    A6        2.02313  -0.00257   0.00000   0.00883   0.00882   2.03195
    A7        1.87080   0.00029   0.00000   0.02276   0.02277   1.89356
    A8        1.95612   0.00509   0.00000   0.01989   0.02003   1.97615
    A9        1.88891  -0.00061   0.00000   0.00144   0.00152   1.89043
   A10        1.95654  -0.00435   0.00000  -0.01725  -0.01769   1.93885
   A11        1.87188   0.00130   0.00000   0.00492   0.00439   1.87627
   A12        1.91625  -0.00173   0.00000  -0.03068  -0.03078   1.88547
   A13        2.00649   0.00058   0.00000   0.00443   0.00442   2.01092
   A14        2.15942   0.00104   0.00000   0.00079   0.00079   2.16021
   A15        2.11725  -0.00162   0.00000  -0.00525  -0.00525   2.11200
   A16        1.91515   0.00697   0.00000   0.03418   0.03418   1.94932
   A17        1.96595   0.00457   0.00000  -0.00195  -0.00192   1.96403
   A18        1.88741  -0.00316   0.00000  -0.01808  -0.01808   1.86933
   A19        1.93565  -0.00097   0.00000  -0.00337  -0.00339   1.93226
   A20        1.91551   0.00172   0.00000   0.01912   0.01910   1.93461
   A21        1.89730  -0.00297   0.00000   0.00474   0.00471   1.90202
   A22        1.85899   0.00067   0.00000  -0.00009  -0.00026   1.85874
   A23        2.31568  -0.00031   0.00000   0.01596   0.01593   2.33161
   A24        2.13153   0.00161   0.00000  -0.01139  -0.01142   2.12012
   A25        1.83568  -0.00129   0.00000  -0.00446  -0.00441   1.83126
   A26        1.93001   0.00124   0.00000   0.00286   0.00280   1.93281
   A27        2.23493  -0.00030   0.00000  -0.00322  -0.00331   2.23163
   A28        2.11824  -0.00093   0.00000   0.00037   0.00028   2.11852
   A29        1.83130   0.00010   0.00000   0.00357   0.00356   1.83486
   A30        1.95155   0.00207   0.00000   0.00193   0.00193   1.95348
   A31        2.20622  -0.00260   0.00000  -0.01356  -0.01356   2.19266
   A32        2.12542   0.00053   0.00000   0.01163   0.01163   2.13705
   A33        1.87624  -0.00211   0.00000  -0.00390  -0.00388   1.87236
   A34        2.16756  -0.00071   0.00000  -0.01326  -0.01329   2.15427
   A35        2.23937   0.00282   0.00000   0.01711   0.01708   2.25645
   A36        1.95557   0.00329   0.00000   0.01377   0.01375   1.96932
   A37        1.89116  -0.00091   0.00000  -0.00462  -0.00460   1.88656
   A38        1.91596  -0.00111   0.00000   0.00171   0.00167   1.91763
   A39        1.90272  -0.00097   0.00000  -0.00574  -0.00573   1.89699
   A40        1.93063  -0.00059   0.00000  -0.00097  -0.00103   1.92959
   A41        1.86509   0.00014   0.00000  -0.00521  -0.00523   1.85986
   A42        1.90794   0.00142   0.00000   0.00551   0.00549   1.91343
   A43        1.89039   0.00092   0.00000   0.00627   0.00630   1.89669
   A44        1.90737  -0.00053   0.00000  -0.00025  -0.00030   1.90707
   A45        1.90479  -0.00173   0.00000  -0.01304  -0.01303   1.89176
   A46        1.98111   0.00023   0.00000   0.00788   0.00785   1.98896
   A47        1.87002  -0.00032   0.00000  -0.00658  -0.00657   1.86344
   A48        1.91980   0.00117   0.00000   0.01397   0.01362   1.93341
   A49        1.91777   0.00222   0.00000   0.02399   0.02364   1.94141
   A50        1.84636   0.00006   0.00000   0.02028   0.01960   1.86596
    D1       -0.04727  -0.00112   0.00000  -0.05025  -0.05029  -0.09756
    D2       -2.95284  -0.00146   0.00000  -0.06237  -0.06234  -3.01518
    D3        3.07660  -0.00081   0.00000  -0.04695  -0.04698   3.02963
    D4        0.17103  -0.00114   0.00000  -0.05907  -0.05902   0.11201
    D5       -0.45061   0.00016   0.00000  -0.03199  -0.03198  -0.48259
    D6        1.64931   0.00039   0.00000  -0.03366  -0.03366   1.61564
    D7       -2.60295  -0.00057   0.00000  -0.04157  -0.04159  -2.64454
    D8        2.70907  -0.00025   0.00000  -0.03549  -0.03547   2.67359
    D9       -1.47420  -0.00002   0.00000  -0.03716  -0.03715  -1.51135
   D10        0.55673  -0.00098   0.00000  -0.04507  -0.04508   0.51165
   D11       -2.85284  -0.00067   0.00000   0.01707   0.01723  -2.83560
   D12        1.27663   0.00134   0.00000   0.01031   0.01014   1.28677
   D13       -0.83900   0.00069   0.00000   0.03515   0.03508  -0.80392
   D14        0.06689  -0.00076   0.00000   0.02594   0.02615   0.09304
   D15       -2.08683   0.00124   0.00000   0.01918   0.01906  -2.06777
   D16        2.08072   0.00060   0.00000   0.04402   0.04400   2.12472
   D17        3.06900  -0.00116   0.00000  -0.01001  -0.00988   3.05911
   D18       -0.07867  -0.00133   0.00000  -0.01533  -0.01520  -0.09388
   D19       -1.06073   0.00265   0.00000   0.01963   0.01962  -1.04112
   D20        2.07478   0.00248   0.00000   0.01431   0.01430   2.08908
   D21        1.04385  -0.00125   0.00000  -0.02542  -0.02553   1.01832
   D22       -2.10382  -0.00142   0.00000  -0.03073  -0.03085  -2.13466
   D23       -2.19201  -0.00265   0.00000  -0.03519  -0.03518  -2.22719
   D24       -0.07208   0.00026   0.00000  -0.02484  -0.02485  -0.09693
   D25        1.96023  -0.00134   0.00000  -0.03748  -0.03745   1.92278
   D26        1.98648  -0.00355   0.00000  -0.06649  -0.06628   1.92020
   D27       -2.17678  -0.00064   0.00000  -0.05614  -0.05594  -2.23273
   D28       -0.14447  -0.00224   0.00000  -0.06878  -0.06854  -0.21301
   D29       -0.09219  -0.00126   0.00000  -0.04124  -0.04146  -0.13366
   D30        2.02773   0.00165   0.00000  -0.03089  -0.03113   1.99660
   D31       -2.22314   0.00005   0.00000  -0.04353  -0.04373  -2.26687
   D32       -0.04418   0.00032   0.00000   0.02321   0.02322  -0.02096
   D33        3.10332   0.00048   0.00000   0.02836   0.02836   3.13168
   D34       -2.04381   0.00006   0.00000   0.01179   0.01177  -2.03204
   D35        1.06733   0.00029   0.00000   0.01737   0.01736   1.08469
   D36        2.13550  -0.00016   0.00000   0.02273   0.02278   2.15828
   D37       -1.03654   0.00007   0.00000   0.02831   0.02837  -1.00817
   D38        0.10864  -0.00023   0.00000   0.00957   0.00953   0.11817
   D39       -3.06341   0.00000   0.00000   0.01515   0.01512  -3.04828
   D40        3.11874   0.00026   0.00000   0.00406   0.00413   3.12287
   D41       -0.02280  -0.00033   0.00000  -0.01884  -0.01879  -0.04159
   D42        0.00387   0.00003   0.00000  -0.00068  -0.00065   0.00322
   D43       -3.13767  -0.00056   0.00000  -0.02357  -0.02357   3.12194
   D44       -3.12170  -0.00026   0.00000  -0.00458  -0.00455  -3.12625
   D45        0.01448  -0.00038   0.00000  -0.01403  -0.01390   0.00058
   D46       -0.00330  -0.00008   0.00000   0.00003   0.00001  -0.00329
   D47        3.13287  -0.00021   0.00000  -0.00941  -0.00934   3.12354
   D48       -0.00292   0.00006   0.00000   0.00109   0.00106  -0.00185
   D49        3.13863   0.00060   0.00000   0.02221   0.02226  -3.12229
   D50        0.00074  -0.00012   0.00000  -0.00108  -0.00107  -0.00033
   D51        3.13941   0.00008   0.00000   0.00166   0.00168   3.14109
   D52        0.00164   0.00014   0.00000   0.00071   0.00071   0.00235
   D53       -3.13424   0.00029   0.00000   0.01080   0.01092  -3.12332
   D54       -3.13719  -0.00004   0.00000  -0.00184  -0.00189  -3.13908
   D55        0.01011   0.00011   0.00000   0.00825   0.00832   0.01844
   D56        3.08766  -0.00071   0.00000  -0.02419  -0.02420   3.06346
   D57        1.01403   0.00002   0.00000  -0.01529  -0.01531   0.99872
   D58       -1.01766   0.00018   0.00000  -0.01080  -0.01081  -1.02847
   D59        0.99448  -0.00100   0.00000  -0.02327  -0.02326   0.97121
   D60       -1.07915  -0.00026   0.00000  -0.01438  -0.01437  -1.09353
   D61       -3.11084  -0.00011   0.00000  -0.00988  -0.00987  -3.12071
   D62       -1.05147  -0.00024   0.00000  -0.01292  -0.01292  -1.06439
   D63       -3.12510   0.00050   0.00000  -0.00403  -0.00403  -3.12913
   D64        1.12639   0.00065   0.00000   0.00047   0.00047   1.12687
   D65       -3.02483   0.00094   0.00000   0.03790   0.03811  -2.98672
   D66        1.23254  -0.00110   0.00000  -0.00875  -0.00891   1.22363
   D67       -0.96017   0.00187   0.00000   0.04107   0.04125  -0.91893
   D68       -2.98599  -0.00017   0.00000  -0.00558  -0.00577  -2.99176
   D69        1.12409   0.00042   0.00000   0.02874   0.02890   1.15300
   D70       -0.90172  -0.00163   0.00000  -0.01791  -0.01811  -0.91983
         Item               Value     Threshold  Converged?
 Maximum Force            0.017964     0.000450     NO 
 RMS     Force            0.003583     0.000300     NO 
 Maximum Displacement     0.303781     0.001800     NO 
 RMS     Displacement     0.079721     0.001200     NO 
 Predicted change in Energy=-2.628626D-03
 GradGradGradGradGradGradGradGradGradGradGradGradGradGradGradGradGradGrad

                          Input orientation:                          
 ---------------------------------------------------------------------
 Center     Atomic      Atomic             Coordinates (Angstroms)
 Number     Number       Type             X           Y           Z
 ---------------------------------------------------------------------
      1          8           0        0.557803   -0.991078   -0.670729
      2          6           0        1.340047   -0.189944   -0.141305
      3          7           0        0.906672    1.001423    0.350601
      4          6           0       -0.465598    1.426849    0.164756
      5          6           0       -0.544622    2.930118    0.415983
      6          8           0       -1.750278    3.489682    0.181667
      7          8           0        0.385165    3.595639    0.808165
      8          6           0       -1.486312    0.646036    1.074424
      9          6           0       -2.616477    0.060954    0.294139
     10          6           0       -3.979185    0.273598    0.289085
     11          7           0       -4.593817   -0.520777   -0.655299
     12          6           0       -3.617073   -1.204989   -1.217879
     13          7           0       -2.401376   -0.891090   -0.683303
     14          6           0        2.829688   -0.462928   -0.018884
     15          6           0        3.156826   -1.956821    0.040144
     16          7           0        4.611595   -2.142665    0.049710
     17          1           0        1.555752    1.704850    0.685930
     18          1           0       -0.741893    1.252310   -0.883084
     19          1           0       -2.394707    2.834654   -0.136974
     20          1           0       -0.923234   -0.137143    1.591023
     21          1           0       -1.891967    1.301261    1.851589
     22          1           0       -4.550150    0.938077    0.924479
     23          1           0       -3.732397   -1.933247   -2.008372
     24          1           0       -1.479091   -1.245978   -0.927136
     25          1           0        3.329129   -0.027751   -0.894377
     26          1           0        3.232782    0.054887    0.860742
     27          1           0        2.753533   -2.438906   -0.853900
     28          1           0        2.642278   -2.407949    0.904195
     29          1           0        4.850209   -3.124252   -0.058095
     30          1           0        5.016574   -1.834709    0.930564
 ---------------------------------------------------------------------
                    Distance matrix (angstroms):
                    1          2          3          4          5
     1  O    0.000000
     2  C    1.238552   0.000000
     3  N    2.266028   1.359831   0.000000
     4  C    2.755314   2.442958   1.448672   0.000000
     5  C    4.215693   3.687457   2.414621   1.526165   0.000000
     6  O    5.111852   4.816022   3.644085   2.430220   1.349675
     7  O    4.822334   4.017952   2.685385   2.416904   1.208813
     8  C    3.147079   3.188285   2.525191   1.574491   2.556825
     9  C    3.480488   3.988313   3.646950   2.551213   3.541121
    10  C    4.806757   5.356709   4.940153   3.700100   4.343895
    11  N    5.173066   5.965264   5.795196   4.637664   5.426998
    12  C    4.216008   5.173235   5.271873   4.332441   5.404495
    13  N    2.960895   3.844946   3.948891   3.136763   4.388348
    14  C    2.421839   1.519388   2.445166   3.803142   4.804981
    15  C    2.862328   2.540761   3.729717   4.958498   6.141999
    16  N    4.275326   3.814791   4.868499   6.207459   7.242503
    17  H    3.178750   2.078723   1.014180   2.105888   2.446574
    18  H    2.601364   2.639092   2.074292   1.097620   2.131087
    19  H    4.861938   4.805892   3.807567   2.407160   1.933311
    20  H    2.835172   2.850647   2.486671   2.165581   3.306381
    21  H    4.197414   4.079367   3.189866   2.212625   2.555284
    22  H    5.688367   6.091202   5.487281   4.183257   4.502338
    23  H    4.591600   5.679325   5.974781   5.165724   6.300138
    24  H    2.068734   3.111315   3.517853   3.059967   4.485196
    25  H    2.942492   2.133043   2.911609   4.199711   5.046978
    26  H    3.254989   2.155571   2.562609   4.005582   4.767971
    27  H    2.636472   2.750193   4.086268   5.132692   6.427819
    28  H    2.972027   2.776404   3.865567   4.991126   6.236156
    29  H    4.832236   4.575842   5.721863   7.001428   8.123075
    30  H    4.812119   4.167854   5.027056   6.424829   7.341340
                    6          7          8          9         10
     6  O    0.000000
     7  O    2.227968   0.000000
     8  C    2.992159   3.503353   0.000000
     9  C    3.538238   4.665628   1.492796   0.000000
    10  C    3.914430   5.509352   2.640054   1.379208   0.000000
    11  N    4.986984   6.623962   3.742991   2.269298   1.378646
    12  C    5.242479   6.570296   3.636081   2.211334   2.142028
    13  N    4.512568   5.488172   2.507928   1.381321   2.188954
    14  C    6.053052   4.809540   4.588353   5.480251   6.855514
    15  C    7.332400   6.253142   5.422483   6.121026   7.480601
    16  N    8.497892   7.167015   6.783167   7.560470   8.927324
    17  H    3.790744   2.227173   3.244406   4.501488   5.730750
    18  H    2.675139   3.101898   2.180267   2.513812   3.579374
    19  H    0.972565   3.033163   2.661337   2.815750   3.041563
    20  H    3.977957   4.032175   1.094212   2.142014   3.347026
    21  H    2.756429   3.396797   1.094469   2.118710   2.802497
    22  H    3.860278   5.606559   3.081375   2.214896   1.082247
    23  H    6.175211   7.446864   4.604480   3.244021   3.195212
    24  H    4.871290   5.470647   2.754271   2.119724   3.168402
    25  H    6.271410   4.969359   5.245820   6.063882   7.409646
    26  H    6.090143   4.544075   4.760773   5.876641   7.237893
    27  H    7.516972   6.692336   5.586732   6.033597   7.348032
    28  H    7.389089   6.414581   5.138195   5.841417   7.170274
    29  H    9.347087   8.114429   7.459837   8.125332   9.467002
    30  H    8.642932   7.138180   6.961488   7.890630   9.261756
                   11         12         13         14         15
    11  N    0.000000
    12  C    1.318587   0.000000
    13  N    2.223671   1.364633   0.000000
    14  C    7.450960   6.599164   5.290445   0.000000
    15  C    7.913174   6.930626   5.705503   1.530432   0.000000
    16  N    9.373748   8.378364   7.161390   2.449778   1.466622
    17  H    6.676040   6.232958   4.926720   2.611309   4.048248
    18  H    4.246533   3.796981   2.718081   4.055253   5.133311
    19  H    4.045202   4.356747   3.765593   6.179183   7.335470
    20  H    4.320453   4.035715   2.815298   4.096629   4.728990
    21  H    4.111485   4.321911   3.389924   5.376343   6.275886
    22  H    2.150781   3.170656   3.247775   7.570651   8.280094
    23  H    2.137270   1.080990   2.147910   7.012907   7.187376
    24  H    3.209568   2.158049   1.017845   4.472546   4.788805
    25  H    7.941870   7.052678   5.799016   1.097865   2.150425
    26  H    7.992835   7.268319   5.917996   1.097433   2.173964
    27  H    7.596197   6.499203   5.384972   2.146518   1.092870
    28  H    7.639012   6.717870   5.500860   2.161089   1.102206
    29  H    9.814498   8.759197   7.613369   3.341659   2.059148
    30  H    9.828580   8.919204   7.649899   2.750582   2.065532
                   16         17         18         19         20
    16  N    0.000000
    17  H    4.954424   0.000000
    18  H    6.407479   2.818824   0.000000
    19  H    8.596326   4.190437   2.406717   0.000000
    20  H    6.085400   3.218308   2.843356   3.739356   0.000000
    21  H    7.576523   3.661750   2.967070   2.560942   1.753666
    22  H    9.705346   6.158481   4.227156   3.060983   3.841210
    23  H    8.596613   6.961289   4.511892   5.293810   4.906428
    24  H    6.233356   4.529861   2.605158   4.256086   2.807066
    25  H    2.647429   2.940092   4.267541   6.444325   4.926639
    26  H    2.718112   2.359103   4.502531   6.355405   4.224057
    27  H    2.087262   4.580007   5.083693   7.404647   4.979395
    28  H    2.163037   4.259494   5.295703   7.344395   4.282659
[...]
 0.00026336,-0.00002334,0.00000220,-0.00014861,0.00001447,0.00003307,-0
 .00005169,0.00003033,-0.00044423,-0.00131826,0.00036144,0.00023295,0.0
 0006511,-0.00012512,0.00009094,0.00009107,-0.00002598,0.00007915,0.000
 03954,0.00023722,0.00095897,0.00114190,-0.00056485,-0.00003923,-0.0008
 8324,0.00038716,-0.13654650,0.09567738,0.00199921,0.00093517,-0.002357
 54,-0.00058661,-0.00063967,-0.00057061,-0.00005630,0.00023235,-0.00013
 335,-0.00021221,-0.00032688,0.00054018,0.00016952,-0.00026800,-0.00014
 241,-0.00014225,0.00014727,-0.00011055,-0.00001081,0.00014137,0.000054
 12,0.00023125,0.00063247,0.00037931,0.02311393,-0.00094220,-0.00205247
 ,0.00058558,-0.00516442,-0.00373327,-0.00671361,-0.00276622,0.00197200
 ,-0.00676820,0.01434440,0.00728229,0.08908265,-0.07302478,-0.08320339,
 0.00006390,-0.00008955,0.00038667,-0.00004910,0.00006378,0.00010782,0.
 00009632,-0.00002488,-0.00007793,-0.00001598,-0.00002526,-0.00002216,0
 .00000745,0.00016812,0.00013428,0.00005485,-0.00003850,0.00012776,-0.0
 0071174,-0.00010306,-0.00090922,0.00001053,0.00047879,-0.00000360,0.00
 079730,-0.00084853,0.00102831,0.00026957,0.00027877,-0.00080020,-0.101
 23765,0.06686173,0.08208349,0.00056445,0.00146757,-0.00398919,-0.01362
 152,-0.00673187,0.03209293,-0.00202669,0.00085416,-0.00167921,-0.00000
 850,0.00113593,-0.00077140,-0.00030823,-0.00031953,-0.00022709,-0.0001
 3167,0.00022203,0.00005763,0.00008277,0.00015259,0.00002655,0.00023119
 ,0.00002698,-0.00004975,0.00000847,0.00000163,0.00000979,0.00001675,-0
 .00001052,-0.00000428,-0.00002859,-0.00001178,-0.00002834,-0.00001047,
 -0.00000111,0.00000094,-0.00002038,0.00002134,0.00004013,-0.08833256,-
 0.02221207,0.09531419,0.00267970,0.00073001,-0.00534761,0.00067495,-0.
 00021143,-0.00052083,-0.00031238,-0.00004461,0.00035081,-0.00019155,0.
 00014107,0.00010260,0.00006391,-0.00000156,0.00001956,0.00005355,-0.00
 002140,-0.00001263,-0.00001196,0.00000045,-0.00000564,0.00000238,-0.00
 000025,-0.00000094,-0.00000473,-0.00000362,0.00000005,0.00007069,0.000
 03477,-0.00002396,0.09412351,-0.00086956,-0.00005766,-0.00041970,0.003
 00456,0.00038597,-0.00664245,0.00135849,-0.00086955,0.00071214,-0.0001
 7311,-0.00050500,0.00078871,0.00015226,0.00022862,0.00009346,0.0000723
 9,-0.00013114,-0.00003449,-0.00006189,-0.00013320,0.00002684,-0.000101
 50,-0.00002488,0.00002483,-0.00000541,-0.00000388,-0.00001909,-0.00001
 395,0.00000316,0.00000003,0.00000935,0.00001038,0.00001585,0.00001427,
 0.00000829,0.00001253,-0.00000287,-0.00000468,-0.00002075,-0.02030475,
 -0.05046323,0.04121503,-0.01270439,-0.01087829,0.03208756,-0.00100160,
 0.00283438,-0.00154375,0.00014592,0.00040577,-0.00072502,0.00022783,-0
 .00010094,0.00000308,-0.00003841,0.00000687,-0.00000847,-0.00002407,-0
 .00000644,-0.00000569,-0.00000010,0.00000454,-0.00000425,-0.00000189,-
 0.00000074,0.00000008,-0.00000053,-0.00000002,0.00000133,0.00001711,-0
 .00001060,0.00001951,0.02078984,0.06005613,-0.00090673,-0.00013373,-0.
 00034109,0.00019022,-0.00246314,0.00289188,0.00039719,0.00052052,0.000
 53901,0.00015901,0.00004360,-0.00000080,0.00002971,0.00000036,-0.00002
 137,-0.00003401,0.00001744,0.00000700,-0.00002685,-0.00000633,0.000041
 94,-0.00002597,0.00002547,-0.00001083,0.00000308,-0.00002160,-0.000006
 59,-0.00000981,-0.00000352,-0.00000302,-0.00002637,0.00000778,0.000006
 55,0.00003269,0.00000816,0.00001688,-0.00003148,-0.00000108,0.00000999
 ,0.09098949,0.04315868,-0.25767125,0.00371705,0.00313636,-0.00818278,-
 0.00028000,-0.00156986,0.00079426,-0.00008820,0.00037083,-0.00037728,0
 .00006465,-0.00003433,-0.00002454,0.00000773,0.00000267,-0.00000336,0.
 00001420,0.00000411,-0.00004747,-0.00002152,0.00001633,0.00000053,-0.0
 0000102,0.00000239,-0.00000112,-0.00000029,0.00000152,-0.00000159,0.00
 009156,0.00001987,-0.00000724,-0.10196525,-0.04876188,0.27841731,-0.00
 941483,0.00099371,-0.00028467,-0.00884796,-0.02434736,-0.02390891,0.00
 112953,0.00064332,0.00165216,0.00021861,-0.00011571,0.00024395,-0.0002
 0278,-0.00009097,-0.00005002,0.00018150,-0.00005297,0.00002312,0.00019
 626,0.00008573,0.00008487,0.00003086,-0.00002047,0.00005636,0.00008415
 ,-0.00011712,-0.00017751,-0.00008311,0.00002753,-0.00001110,-0.0001318
 5,0.00008637,0.00007227,0.00021172,0.00005583,0.00013494,-0.00034660,-
 0.00002454,-0.00004808,-0.09604568,-0.06334700,-0.07131076,0.00279982,
 0.00496679,0.00512799,0.00118752,-0.00025472,0.00063912,-0.00132241,0.
 00152572,-0.00022100,0.00019402,-0.00017258,-0.00000334,-0.00004001,-0
 .00004068,-0.00000839,0.00000108,0.00001871,-0.00010116,-0.00003183,0.
 00005132,0.00000615,-0.00001384,0.00000288,0.00000508,-0.00000038,0.00
 000061,-0.00000097,0.00053250,0.00007583,0.00006679,0.00622427,0.00847
 902,0.00823412,0.10386205,0.00204454,0.00198577,-0.00052367,0.00152215
 ,0.00158805,0.00520909,0.00120735,-0.00056013,0.00025227,-0.00040660,0
 .00034403,0.00037905,-0.00007464,0.00000162,-0.00002022,-0.00000456,0.
 00001363,-0.00000030,0.00000233,-0.00000949,0.00002872,-0.00003469,-0.
 00000263,-0.00001301,-0.00001362,0.00000726,0.00000358,-0.00001203,0.0
 0000151,0.00000082,0.00001361,0.00001281,0.00001360,0.00001083,-0.0000
 0557,-0.00000892,0.00004424,0.00000483,0.00000172,-0.06684216,-0.14457
 382,-0.10513210,-0.01407565,-0.02088780,-0.02263356,-0.00081581,0.0023
 3223,0.00050707,0.00100516,0.00040850,-0.00024880,0.00011283,-0.000003
 74,0.00005393,-0.00000474,0.00000206,-0.00000257,-0.00001479,-0.000006
 27,0.00000035,-0.00001203,0.00000615,-0.00000206,-0.00000166,0.0000003
 9,0.00000051,0.00000450,-0.00000105,0.00000337,-0.00003650,-0.00003207
 ,-0.00002718,0.00292813,0.00367255,0.00394466,0.07056524,0.15986072,-0
 .00075846,0.00028859,0.00198174,0.00344198,-0.00169277,-0.00322150,0.0
 0052463,0.00059872,0.00047329,-0.00007454,0.00034344,0.00020342,-0.000
 28899,-0.00025926,-0.00009537,0.00008472,0.00006598,0.00003259,0.00020
 253,0.00017572,0.00003295,0.00003521,-0.00001407,0.00005126,0.00004725
 ,-0.00002966,-0.00006394,-0.00002636,0.00001481,-0.00000841,-0.0000617
 7,0.00002492,0.00002295,0.00008882,0.00001690,0.00003862,-0.00009211,0
 .00000753,-0.00002382,-0.07528178,-0.10391343,-0.16213210,0.00370204,0
 .00585575,0.00589991,0.00102329,-0.00018185,0.00040480,-0.00038470,0.0
 0042568,0.00056633,0.00007520,-0.00001757,0.00003029,0.00000300,-0.000
 03379,0.00000552,0.00000634,0.00002828,-0.00004867,-0.00001769,0.00001
 787,0.00000350,-0.00000426,-0.00000021,0.00000416,0.00000218,0.0000008
 5,-0.00000005,0.00017131,0.00000325,0.00003900,-0.01340904,-0.01761246
 ,-0.01829461,0.08065115,0.11501491,0.17215904,-0.00095469,-0.00014523,
 -0.00021588,0.00045934,0.00129525,0.00116490,-0.00000409,-0.00068879,-
 0.00057597,-0.00012416,-0.00001101,-0.00002759,0.00002998,0.00007728,0
 .00001445,0.00000005,-0.00002770,-0.00000194,-0.00002253,-0.00005741,-
 0.00001865,-0.00000801,0.00000702,-0.00000557,-0.00001389,0.00003834,0
 .00003760,0.00001576,-0.00000621,0.00000115,0.00004134,-0.00001971,-0.
 00001270,-0.00006416,-0.00000973,-0.00002530,0.00005907,-0.00002113,0.
 00000271,0.00380067,0.00340449,0.00494181,-0.09569820,-0.06545233,-0.0
 7342664,-0.02286100,-0.02105436,-0.02391711,0.00023170,-0.00010858,0.0
 0000582,-0.00000955,0.00002677,0.00001036,-0.00000301,0.00001293,-0.00
 000163,0.00000329,0.00000399,0.00003098,0.00000918,-0.00001395,-0.0000
 0082,0.00000270,-0.00000052,-0.00000175,-0.00000213,0.00000115,-0.0000
 0295,-0.00009580,0.00004265,-0.00001672,0.00025309,-0.00051340,-0.0002
 1917,-0.00037578,0.00195751,-0.00048166,0.11459758,0.00028963,0.002474
 83,0.00130939,-0.00276495,-0.00204221,-0.00228746,0.00027998,0.0006579
 2,0.00043558,0.00007323,0.00010103,-0.00003622,-0.00011747,-0.00010514
 ,-0.00002562,0.00005521,0.00001170,0.00001397,0.00009413,0.00008185,0.
 00003462,0.00003946,-0.00002747,0.00001752,0.00002640,-0.00003148,-0.0
 0005257,-0.00002117,0.00001092,-0.00000298,-0.00003889,0.00002202,0.00
 002385,0.00006705,0.00000783,0.00002592,-0.00006275,0.00000249,0.00000
 473,-0.01195286,-0.02231780,-0.02154466,-0.06989873,-0.14190976,-0.107
 27999,0.00478578,0.00500025,0.00541787,-0.00027758,0.00029107,0.000098
 58,0.00004125,-0.00002701,0.00001072,-0.00000405,-0.00001710,-0.000002
 81,0.00000915,0.00000076,-0.00002713,-0.00000620,0.00001471,-0.0000003
 0,-0.00000365,0.00000102,0.00000193,0.00000386,0.00000245,0.00000003,0
 .00011487,-0.00000404,-0.00001130,-0.00042011,0.00148107,-0.00010616,0
 .00181329,-0.00560644,0.00209897,0.07263586,0.15474612,-0.00000899,0.0
 0151882,-0.00029642,-0.00137773,-0.00115055,-0.00026278,0.00012092,0.0
 0000251,0.00022301,-0.00002928,-0.00002402,-0.00004102,-0.00000923,-0.
 00000704,-0.00000163,0.00002231,-0.00000750,0.00000168,0.00001724,0.00
 001383,0.00001124,-0.00001122,-0.00000309,-0.00000669,0.00000687,-0.00
 002226,-0.00002181,-0.00001320,0.00000447,-0.00000055,-0.00000843,0.00
 001988,0.00001256,0.00003685,0.00000471,0.00001107,-0.00001097,0.00002
 592,-0.00001495,0.00470852,0.00534738,0.00578817,-0.07842334,-0.109687
 42,-0.17761504,0.00045538,0.00275876,0.00317102,0.00013440,-0.00000015
 ,0.00000473,0.00000272,-0.00001511,0.00000378,-0.00000908,-0.00000906,
 -0.00000073,-0.00000846,-0.00002066,-0.00001898,-0.00000649,0.00001045
 ,-0.00000100,-0.00000276,-0.00000097,0.00000232,0.00000133,-0.00000454
 ,0.00000578,0.00001106,-0.00005321,0.00002982,0.00054314,-0.00019030,0
 .00109009,-0.00046485,0.00234017,0.00087434,0.08502486,0.11566991,0.18
 550137,-0.00008018,-0.00008780,0.00019909,0.00082841,-0.00016058,-0.00
 038373,0.00004637,-0.00000921,0.00002198,0.00006827,-0.00001471,-0.000
 02180,0.00004617,-0.00004063,0.00001000,-0.00003596,0.00002712,-0.0000
 0911,-0.00001899,0.00002806,-0.00001295,0.00000481,-0.00002677,0.00000
 314,0.00000468,0.00000170,-0.00000431,0.00000651,0.00000368,-0.0000015
 6,-0.00001961,-0.00000327,-0.00001058,0.00001006,-0.00000095,0.0000021
 3,-0.00002068,0.00001201,0.00000090,0.00349876,0.00113904,-0.00580826,
 -0.07856483,-0.02009782,0.07440185,-0.02972364,-0.00285215,0.02992320,
 0.00001272,-0.00006321,0.00005309,-0.00000686,-0.00000244,-0.00001567,
 0.00000836,-0.00000693,0.00000733,-0.00000439,0.00002412,0.00000052,0.
 00000463,-0.00000213,-0.00000012,0.00000169,-0.00000138,0.00000138,0.0
 0000025,-0.00000117,0.00000071,0.00001552,-0.00000714,0.00001048,-0.00
 004118,0.00195389,-0.00040235,-0.00009343,-0.00014795,0.00046978,0.006
 35081,0.00321773,-0.01113778,0.09575153,0.00070617,0.00070690,0.000131
 45,-0.00295469,0.00005448,0.00070130,0.00061369,-0.00017555,-0.0006872
 1,-0.00014744,-0.00006543,0.00003095,-0.00002120,0.00003334,0.00001378
 ,0.00004810,-0.00003295,-0.00000865,0.00003511,-0.00001276,-0.00002891
 ,0.00004894,-0.00002921,0.00003638,0.00000918,0.00002879,-0.00001285,0
 .00000688,0.00000887,-0.00000139,0.00001054,-0.00001077,-0.00000575,-0
 .00002024,-0.00000393,-0.00001095,0.00002608,0.00000021,-0.00000411,-0
 .00857067,-0.00978649,0.03044874,-0.01940650,-0.06337307,0.04320702,0.
 00476624,0.00442582,-0.00619265,-0.00003291,-0.00002283,0.00021929,0.0
 0000359,-0.00000615,0.00000799,-0.00001624,-0.00000627,0.00000971,0.00
 002989,0.00000646,0.00001990,0.00001339,-0.00000689,-0.00000656,0.0000
 0098,-0.00000238,0.00000149,-0.00000034,-0.00000096,-0.00000007,-0.000
 03380,-0.00001542,0.00000554,0.00149900,-0.00601933,0.00186482,-0.0005
 9186,0.00155523,-0.00058160,0.00722303,0.00542761,-0.01741669,0.017472
 73,0.06716472,-0.00127623,-0.00064771,0.00043470,0.00210631,0.00087093
 ,-0.00017438,-0.00079261,0.00028507,0.00026761,0.00010968,0.00003971,-
 0.00003570,0.00004380,0.00003032,0.00002120,-0.00006754,0.00001429,0.0
 0001246,-0.00006952,-0.00003681,0.00000387,-0.00007026,0.00012462,-0.0
 0008297,-0.00002783,-0.00003969,0.00004003,-0.00001314,-0.00001650,0.0
 0001583,0.00001967,0.00001070,0.00001562,-0.00001185,-0.00000372,-0.00
 000164,-0.00000328,-0.00004892,0.00002356,0.00123106,0.00154628,-0.007
 07431,0.07269850,0.04455419,-0.24582147,0.00542406,-0.00144725,0.00591
 086,0.00008195,-0.00000305,-0.00016385,-0.00002408,0.00001634,0.000009
 93,0.00002085,0.00002916,-0.00002125,-0.00002111,-0.00000055,0.0000138
 0,-0.00000833,-0.00000911,0.00001417,-0.00000105,0.00000767,-0.0000060
 0,0.00000318,0.00000705,-0.00000595,0.00004287,0.00006384,-0.00007956,
 -0.00030028,0.00134197,0.00111937,-0.00002543,0.00033094,0.00096520,0.
 00809665,0.00536893,-0.02017804,-0.08807599,-0.05161787,0.26271750,-0.
 00025244,-0.00050171,-0.00003892,0.00119723,0.00226093,-0.00030144,-0.
 00076090,0.00007024,0.00003820,0.00005764,0.00005202,0.00018150,-0.000
 02740,-0.00008426,-0.00001197,-0.00004249,0.00004906,0.00000114,-0.000
 00082,0.00003950,0.00001317,-0.00002845,0.00004798,-0.00001937,-0.0000
 0411,-0.00000884,0.00002488,0.00000619,-0.00000831,0.00000061,-0.00000
 644,-0.00000943,-0.00001094,-0.00001323,0.00000371,0.00000119,-0.00001
 126,-0.00001814,0.00000820,-0.00740199,-0.00049572,0.00040206,-0.00841
 086,0.03904564,-0.00189704,-0.06550956,0.06194809,-0.01888395,-0.00002
 512,-0.00003954,-0.00010067,-0.00000092,-0.00000120,-0.00000457,0.0000
 1901,0.00000556,0.00000023,0.00000480,0.00000620,-0.00001101,-0.000014
 24,-0.00000250,0.00000731,0.00000094,0.00000209,-0.00000251,-0.0000030
 0,0.00000295,-0.00000450,0.00003294,0.00004006,-0.00000093,0.00002850,
 -0.00040548,-0.00010907,0.00007374,-0.00004560,0.00033654,0.00120334,-
 0.00024205,-0.00068889,0.00017433,0.00013179,0.00057566,0.07536018,0.0
 0027503,0.00026774,0.00008504,-0.00069973,-0.00056993,-0.00016367,0.00
 031482,-0.00007419,0.00004705,-0.00007487,-0.00005117,-0.00002951,0.00
 000176,0.00005430,0.00000978,0.00003173,-0.00003452,-0.00000080,0.0000
 0660,-0.00002867,-0.00000756,0.00000479,-0.00001169,0.00000509,-0.0000
 0205,0.00001082,-0.00000126,-0.00000017,0.00000171,0.00000034,0.000014
 05,-0.00000214,0.00000177,-0.00001099,-0.00000139,-0.00000444,0.000021
 28,-0.00000047,-0.00000272,0.00258696,0.00103585,-0.00006225,-0.005353
 02,-0.00298320,0.00420958,0.08157616,-0.41868922,-0.00741216,-0.000001
 80,0.00002390,0.00001108,0.00000718,0.00000434,0.00000271,-0.00001092,
 0.00000180,-0.00000084,0.00000083,-0.00000372,0.00000882,0.00000634,-0
 .00000160,-0.00000242,-0.00000007,-0.00000073,0.00000005,-0.00000009,0
 .00000032,-0.00000004,-0.00002945,-0.00000749,-0.00000268,-0.00010543,
 0.00020793,-0.00022151,-0.00018113,0.00038372,0.00004646,-0.00016869,0
 .00095490,0.00018878,-0.00086486,0.00036560,-0.00045104,-0.08164028,0.
 43613718,-0.00030334,-0.00026594,-0.00030373,0.00053175,0.00095410,0.0
 0068252,-0.00064680,0.00012609,0.00001591,0.00010396,0.00008580,0.0000
 8606,0.00005013,-0.00013187,-0.00000145,-0.00010114,0.00008770,-0.0000
 1465,-0.00003625,0.00006785,-0.00000436,0.00000142,0.00000233,0.000004
 76,0.00001122,-0.00000861,0.00000898,0.00001489,-0.00000238,-0.0000058
 2,-0.00004010,-0.00001412,-0.00002923,0.00000986,0.00000841,0.00001226
 ,-0.00004461,0.00000683,0.00000230,-0.00242234,0.00107331,-0.00036592,
 0.00619646,-0.00145212,-0.00365189,-0.02833950,0.03691967,-0.02177596,
 0.00000416,-0.00008720,-0.00003777,-0.00001821,0.00000085,-0.00001260,
 0.00003068,-0.00000466,0.00001347,-0.00000308,0.00001393,-0.00001397,-
 0.00000840,-0.00000210,0.00000366,0.00000346,-0.00000216,0.00000045,-0
 .00000502,-0.00000154,-0.00000085,0.00005533,0.00002547,0.00003401,-0.
 00003387,-0.00028110,0.00038630,0.00011601,0.00010381,0.00000524,-0.00
 082998,0.00031767,0.00025077,0.00033141,-0.00090809,-0.00004297,0.0182
 0339,-0.00342795,0.02663341,0.00031664,0.00067659,0.00020619,-0.000854
 73,-0.00033420,-0.00006674,0.00007588,0.00004912,0.00015164,-0.0000336
 4,0.00001958,-0.00001744,-0.00003915,0.00005015,-0.00000191,0.00003603
 ,-0.00002980,0.00000754,0.00001635,-0.00002948,0.00001224,-0.00000458,
 0.00000410,-0.00001037,-0.00000792,-0.00000488,-0.00000054,-0.00001090
 ,-0.00000041,0.00000118,0.00001519,0.00000739,0.00001384,0.00000107,0.
 00000058,0.00000070,0.00001646,-0.00000545,-0.00000127,0.00077904,-0.0
 0111870,-0.00020212,-0.01889038,-0.01880364,-0.03129204,-0.12653201,-0
 .06220520,-0.12937141,-0.00001094,0.00008840,-0.00004548,0.00001828,-0
 .00000503,0.00000760,-0.00000929,0.00000573,-0.00000704,-0.00000319,-0
 .00001095,-0.00000468,-0.00000152,0.00000613,-0.00000192,-0.00000198,0
 .00000167,-0.00000118,0.00000122,0.00000109,0.00000010,-0.00000833,-0.
 00000902,-0.00001326,-0.00002779,-0.00000198,0.00021739,0.00002287,0.0
 0112460,0.00001541,-0.00682087,0.00226360,0.00112509,0.00177586,-0.000
 84945,0.00033430,0.00435438,0.00429600,0.00716850,0.14582795,-0.000439
 04,-0.00051141,-0.00016314,0.00062298,0.00008999,-0.00008823,-0.000141
 81,-0.00003008,0.00001806,0.00007791,-0.00002039,-0.00001277,0.0001194
 7,0.00001454,0.00003246,-0.00008696,0.00001985,-0.00000799,-0.00008661
 ,-0.00002479,-0.00001551,-0.00000584,0.00002584,-0.00001897,-0.0000049
 1,-0.00001431,0.00001821,0.00000468,-0.00000730,0.00000249,-0.00001390
 ,-0.00000691,-0.00000552,0.00000154,0.00000137,0.00000134,-0.00002105,
 -0.00001032,0.00000970,0.00048989,0.00211319,0.00126477,0.00180083,0.0
 0334869,0.00593332,-0.05919262,-0.12278393,-0.12292942,0.00009763,-0.0
 0004534,-0.00002340,-0.00001721,0.00000240,-0.00000465,0.00001884,0.00
 001263,-0.00000327,-0.00000156,0.00000493,-0.00000673,-0.00000555,0.00
 000122,0.00000267,0.00000176,0.00000351,-0.00000297,-0.00000053,0.0000
 0282,-0.00000349,0.00003282,0.00002774,-0.00000615,0.00008981,-0.00009
 609,0.00017756,-0.00003479,-0.00049204,-0.00069194,0.00157249,0.000797
 88,0.00070700,0.00051101,-0.00020763,-0.00031979,-0.02020274,-0.016989
 97,-0.03320399,0.07481345,0.13477393,0.00046494,0.00019567,0.00016957,
 -0.00055875,0.00013165,0.00014181,0.00008381,-0.00000075,-0.00010694,-
 0.00002493,0.00000829,0.00000979,-0.00004914,-0.00003551,-0.00001262,0
 .00002925,0.00000520,-0.00000077,0.00004205,0.00003107,-0.00000313,0.0
 0000585,-0.00001816,0.00001714,0.00000432,0.00000977,-0.00001075,0.000
 00024,0.00000733,-0.00000400,-0.00000152,0.00000160,-0.00000119,0.0000
 0472,-0.00000331,-0.00000308,0.00000596,0.00001476,-0.00000270,-0.0002
 9355,-0.00001244,-0.00022573,0.00931771,0.00316643,-0.00041140,-0.1632
 5232,-0.16162818,-0.25567430,-0.00004582,-0.00000936,0.00005210,0.0000
 0342,0.00000111,0.00000008,-0.00000665,-0.00001137,0.00000643,0.000002
 27,0.00000250,0.00000632,0.00000604,-0.00000367,-0.00000117,0.00000013
 ,-0.00000274,0.00000272,0.00000121,-0.00000233,0.00000259,-0.00001762,
 -0.00002452,0.00000446,-0.00018901,-0.00007354,-0.00032615,-0.00049790
 ,0.00042383,0.00009432,0.00045072,0.00052700,0.00147787,0.00044723,0.0
 0078500,0.00210237,0.00229169,0.00717429,-0.00187893,0.15177567,0.1493
 4038,0.25457526\\-0.00000126,-0.00000230,0.00000354,0.00000062,-0.0000
 0136,-0.00000573,0.00000257,0.00000134,-0.00000083,-0.00000102,-0.0000
 0193,0.00000218,0.00000396,-0.00000001,0.00000071,-0.00000125,-0.00000
 100,-0.00000153,-0.00000240,-0.00000036,-0.00000136,0.00000053,-0.0000
 0176,-0.00000143,-0.00000212,0.00000230,-0.00000169,0.00000245,-0.0000
 0067,0.00000091,-0.00000010,0.00000026,0.00000082,0.00000087,0.0000006
 4,0.00000098,0.00000020,0.00000026,-0.00000142,-0.00000023,0.00000478,
 -0.00000505,-0.00000279,-0.00000194,-0.00000063,-0.00000121,0.00000133
 ,0.00000067,0.00000076,-0.00000082,-0.00000023,0.00000032,0.00000108,0
 .00000007,0.00000140,0.00000153,0.00000269,-0.00000030,-0.00000006,0.0
 0000163,-0.00000005,-0.00000034,0.00000020,0.00000048,0.00000071,0.000
 00006,-0.00000027,0.00000035,0.00000071,-0.00000076,-0.00000003,0.0000
 0194,-0.00000005,-0.00000003,0.00000112,0.00000164,-0.00000079,0.00000
 160,-0.00000069,0.00000059,0.00000068,-0.00000081,-0.00000123,0.000000
 30,-0.00000055,-0.00000021,-0.00000022,0.00000007,-0.00000033,-0.00000
 071\\\@


 TERRY FORSTER, PORTLY ATLANTA BRAVES RELIEVER,
 ANNOUNCING THAT HE WAS GOING TO A FAT FARM:
 "A WAIST IS A TERRIBLE THING TO MIND."
 Job cpu time:       0 days  2 hours 35 minutes 53.7 seconds.
 File lengths (MBytes):  RWF=    417 Int=      0 D2E=      0 Chk=     13 Scr=      1
 Normal termination of Gaussian 09 at Wed Jul 28 23:49:07 2021.
