 Entering Gaussian System, Link 0=g09
 Input=opt_freq-conf-900.com
 Output=opt_freq-conf-900.log
 Initial command:
 /aerosol/software/g09/l1.exe "/scratch/nicole/10581/Gau-124138.inp" -scrdir="/scratch/nicole/10581/"
 Entering Link 1 = /aerosol/software/g09/l1.exe PID=    124143.
  
 Copyright (c) 1988,1990,1992,1993,1995,1998,2003,2009,2013,
            Gaussian, Inc.  All Rights Reserved.
  
 This is part of the Gaussian(R) 09 program.  It is based on
 the Gaussian(R) 03 system (copyright 2003, Gaussian, Inc.),
 the Gaussian(R) 98 system (copyright 1998, Gaussian, Inc.),
 the Gaussian(R) 94 system (copyright 1995, Gaussian, Inc.),
 the Gaussian 92(TM) system (copyright 1992, Gaussian, Inc.),
 the Gaussian 90(TM) system (copyright 1990, Gaussian, Inc.),
 the Gaussian 88(TM) system (copyright 1988, Gaussian, Inc.),
 the Gaussian 86(TM) system (copyright 1986, Carnegie Mellon
 University), and the Gaussian 82(TM) system (copyright 1983,
 Carnegie Mellon University). Gaussian is a federally registered
 trademark of Gaussian, Inc.
  
 This software contains proprietary and confidential information,
 including trade secrets, belonging to Gaussian, Inc.
  
 This software is provided under written license and may be
 used, copied, transmitted, or stored only in accord with that
 written license.
  
 The following legend is applicable only to US Government
 contracts under FAR:
  
                    RESTRICTED RIGHTS LEGEND
  
 Use, reproduction and disclosure by the US Government is
 subject to restrictions as set forth in subparagraphs (a)
 and (c) of the Commercial Computer Software - Restricted
 Rights clause in FAR 52.227-19.
  
 Gaussian, Inc.
 340 Quinnipiac St., Bldg. 40, Wallingford CT 06492
  
  
 ---------------------------------------------------------------
 Warning -- This program may not be used in any manner that
 competes with the business of Gaussian, Inc. or will provide
 assistance to any competitor of Gaussian, Inc.  The licensee
 of this program is prohibited from giving any competitor of
 Gaussian, Inc. access to this program.  By using this program,
 the user acknowledges that Gaussian, Inc. is engaged in the
 business of creating and licensing software in the field of
 computational chemistry and represents and warrants to the
 licensee that it is not a competitor of Gaussian, Inc. and that
 it will not use this program in any manner prohibited above.
 ---------------------------------------------------------------
  

 Cite this work as:
 Gaussian 09, Revision D.01,
 M. J. Frisch, G. W. Trucks, H. B. Schlegel, G. E. Scuseria, 
 M. A. Robb, J. R. Cheeseman, G. Scalmani, V. Barone, B. Mennucci, 
 G. A. Petersson, H. Nakatsuji, M. Caricato, X. Li, H. P. Hratchian, 
 A. F. Izmaylov, J. Bloino, G. Zheng, J. L. Sonnenberg, M. Hada, 
 M. Ehara, K. Toyota, R. Fukuda, J. Hasegawa, M. Ishida, T. Nakajima, 
 Y. Honda, O. Kitao, H. Nakai, T. Vreven, J. A. Montgomery, Jr., 
 J. E. Peralta, F. Ogliaro, M. Bearpark, J. J. Heyd, E. Brothers, 
 K. N. Kudin, V. N. Staroverov, T. Keith, R. Kobayashi, J. Normand, 
 K. Raghavachari, A. Rendell, J. C. Burant, S. S. Iyengar, J. Tomasi, 
 M. Cossi, N. Rega, J. M. Millam, M. Klene, J. E. Knox, J. B. Cross, 
 V. Bakken, C. Adamo, J. Jaramillo, R. Gomperts, R. E. Stratmann, 
 O. Yazyev, A. J. Austin, R. Cammi, C. Pomelli, J. W. Ochterski, 
 R. L. Martin, K. Morokuma, V. G. Zakrzewski, G. A. Voth, 
 P. Salvador, J. J. Dannenberg, S. Dapprich, A. D. Daniels, 
 O. Farkas, J. B. Foresman, J. V. Ortiz, J. Cioslowski, 
 and D. J. Fox, Gaussian, Inc., Wallingford CT, 2013.
 
 ******************************************
 Gaussian 09:  ES64L-G09RevD.01 24-Apr-2013
                28-Jul-2021 
 ******************************************
 %mem=2gb
 %nproc=4
 Will use up to    4 processors via shared memory.
 %chk=conf-900.chk
 ----------------------------------------------------------------------
 # B3LYP/6-31+G(d,p) opt=calcfc freq=noraman nosymm integral(ultrafineg
 rid)
 ----------------------------------------------------------------------
 1/10=4,14=-1,18=20,19=15,26=4,38=1/1,3;
 2/9=110,12=2,15=1,17=6,18=5,40=1/2;
 3/5=1,6=6,7=111,11=2,16=1,25=1,30=1,71=2,74=-5,75=-5,140=1/1,2,3;
 4//1;
 5/5=2,38=5/2;
 8/6=4,10=90,11=11/1;
 11/6=1,8=1,9=11,15=111,16=1,31=1/1,2,10;
 10/6=1,13=1,31=1/2;
 6/7=2,8=2,9=2,10=2,28=1/1;
 7/10=1,18=20,25=1,30=1/1,2,3,16;
 1/10=4,14=-1,18=20,19=15,26=4/3(2);
 2/9=110,15=1/2;
 99//99;
 2/9=110,15=1/2;
 3/5=1,6=6,7=111,11=2,16=1,25=1,30=1,71=1,74=-5,75=-5/1,2,3;
 4/5=5,16=3,69=1/1;
 5/5=2,38=5/2;
 7/30=1/1,2,3,16;
 1/14=-1,18=20,19=15,26=4/3(-5);
 2/9=110,15=1/2;
 6/7=2,8=2,9=2,10=2,19=2,28=1/1;
 99/9=1/99;
 ------------------------------------------------------------
 Candidate Structure: Conf:900 OPT and FREQ calc in gas phase
 ------------------------------------------------------------
 Symbolic Z-matrix:
 Charge =  0 Multiplicity = 1
 O                    -0.82672   0.57174  -0.96785 
 C                    -1.22909  -0.54922  -0.64952 
 N                    -0.43138  -1.42426  -0.00173 
 C                     0.95992  -1.12022   0.27281 
 C                     1.61867  -2.41781   0.68934 
 O                     2.92994  -2.25252   0.9456 
 O                     1.05262  -3.47689   0.78607 
 C                     1.13632  -0.01601   1.36123 
 C                     1.95978   1.13444   0.8748 
 C                     3.19006   1.59905   1.2347 
 N                     3.54237   2.69371   0.46381 
 C                     2.53244   2.87303  -0.35249 
 N                     1.55281   1.95523  -0.14982 
 C                    -2.63628  -1.03664  -0.95808 
 C                    -3.55512   0.07309  -1.43111 
 N                    -3.82051   1.00949  -0.33497 
 H                    -0.72051  -2.37758   0.15843 
 H                     1.43873  -0.80577  -0.66191 
 H                     3.27157  -3.11944   1.20092 
 H                     0.14997   0.336     1.65821 
 H                     1.60794  -0.42166   2.25634 
 H                     3.8462    1.20985   1.99991 
 H                     2.44361   3.63558  -1.10536 
 H                     0.68931   1.84637  -0.65881 
 H                    -3.04854  -1.50417  -0.05902 
 H                    -2.56143  -1.81752  -1.72349 
 H                    -4.50577  -0.3706   -1.73887 
 H                    -3.10828   0.55223  -2.31242 
 H                    -2.96873   1.53246  -0.16398 
 H                    -4.50977   1.68835  -0.63264 
 

 GradGradGradGradGradGradGradGradGradGradGradGradGradGradGradGradGradGrad
 Berny optimization.
 Initialization pass.
                           ----------------------------
                           !    Initial Parameters    !
                           ! (Angstroms and Degrees)  !
 --------------------------                            --------------------------
 ! Name  Definition              Value          Derivative Info.                !
 --------------------------------------------------------------------------------
 ! R1    R(1,2)                  1.2328         calculate D2E/DX2 analytically  !
 ! R2    R(2,3)                  1.3497         calculate D2E/DX2 analytically  !
 ! R3    R(2,14)                 1.5208         calculate D2E/DX2 analytically  !
 ! R4    R(3,4)                  1.4504         calculate D2E/DX2 analytically  !
 ! R5    R(3,17)                 1.009          calculate D2E/DX2 analytically  !
 ! R6    R(4,5)                  1.5137         calculate D2E/DX2 analytically  !
 ! R7    R(4,8)                  1.5605         calculate D2E/DX2 analytically  !
 ! R8    R(4,18)                 1.0963         calculate D2E/DX2 analytically  !
 ! R9    R(5,6)                  1.3463         calculate D2E/DX2 analytically  !
 ! R10   R(5,7)                  1.2047         calculate D2E/DX2 analytically  !
 ! R11   R(6,19)                 0.9661         calculate D2E/DX2 analytically  !
 ! R12   R(8,9)                  1.4961         calculate D2E/DX2 analytically  !
 ! R13   R(8,20)                 1.0886         calculate D2E/DX2 analytically  !
 ! R14   R(8,21)                 1.09           calculate D2E/DX2 analytically  !
 ! R15   R(9,10)                 1.3634         calculate D2E/DX2 analytically  !
 ! R16   R(9,13)                 1.3745         calculate D2E/DX2 analytically  !
 ! R17   R(10,11)                1.3844         calculate D2E/DX2 analytically  !
 ! R18   R(10,22)                1.0805         calculate D2E/DX2 analytically  !
 ! R19   R(11,12)                1.3109         calculate D2E/DX2 analytically  !
 ! R20   R(12,13)                1.3576         calculate D2E/DX2 analytically  !
 ! R21   R(12,23)                1.0753         calculate D2E/DX2 analytically  !
 ! R22   R(13,24)                1.0082         calculate D2E/DX2 analytically  !
 ! R23   R(14,15)                1.5164         calculate D2E/DX2 analytically  !
 ! R24   R(14,25)                1.094          calculate D2E/DX2 analytically  !
 ! R25   R(14,26)                1.096          calculate D2E/DX2 analytically  !
 ! R26   R(15,16)                1.4659         calculate D2E/DX2 analytically  !
 ! R27   R(15,27)                1.0933         calculate D2E/DX2 analytically  !
 ! R28   R(15,28)                1.0982         calculate D2E/DX2 analytically  !
 ! R29   R(16,29)                1.014          calculate D2E/DX2 analytically  !
 ! R30   R(16,30)                1.0122         calculate D2E/DX2 analytically  !
 ! A1    A(1,2,3)              121.3681         calculate D2E/DX2 analytically  !
 ! A2    A(1,2,14)             122.7535         calculate D2E/DX2 analytically  !
 ! A3    A(3,2,14)             115.8782         calculate D2E/DX2 analytically  !
 ! A4    A(2,3,4)              121.4608         calculate D2E/DX2 analytically  !
 ! A5    A(2,3,17)             121.2899         calculate D2E/DX2 analytically  !
 ! A6    A(4,3,17)             116.2892         calculate D2E/DX2 analytically  !
 ! A7    A(3,4,5)              106.8498         calculate D2E/DX2 analytically  !
 ! A8    A(3,4,8)              112.8802         calculate D2E/DX2 analytically  !
 ! A9    A(3,4,18)             108.5241         calculate D2E/DX2 analytically  !
 ! A10   A(5,4,8)              111.4368         calculate D2E/DX2 analytically  !
 ! A11   A(5,4,18)             106.8843         calculate D2E/DX2 analytically  !
 ! A12   A(8,4,18)             110.0208         calculate D2E/DX2 analytically  !
 ! A13   A(4,5,6)              111.7786         calculate D2E/DX2 analytically  !
 ! A14   A(4,5,7)              124.835          calculate D2E/DX2 analytically  !
 ! A15   A(6,5,7)              123.3863         calculate D2E/DX2 analytically  !
 ! A16   A(5,6,19)             106.5317         calculate D2E/DX2 analytically  !
 ! A17   A(4,8,9)              112.3075         calculate D2E/DX2 analytically  !
 ! A18   A(4,8,20)             108.4622         calculate D2E/DX2 analytically  !
 ! A19   A(4,8,21)             110.9981         calculate D2E/DX2 analytically  !
 ! A20   A(9,8,20)             109.8016         calculate D2E/DX2 analytically  !
 ! A21   A(9,8,21)             108.362          calculate D2E/DX2 analytically  !
 ! A22   A(20,8,21)            106.7591         calculate D2E/DX2 analytically  !
 ! A23   A(8,9,10)             132.2888         calculate D2E/DX2 analytically  !
 ! A24   A(8,9,13)             122.5895         calculate D2E/DX2 analytically  !
 ! A25   A(10,9,13)            105.0974         calculate D2E/DX2 analytically  !
 ! A26   A(9,10,11)            110.6144         calculate D2E/DX2 analytically  !
 ! A27   A(9,10,22)            127.7431         calculate D2E/DX2 analytically  !
 ! A28   A(11,10,22)           121.642          calculate D2E/DX2 analytically  !
 ! A29   A(10,11,12)           105.0013         calculate D2E/DX2 analytically  !
 ! A30   A(11,12,13)           111.7452         calculate D2E/DX2 analytically  !
 ! A31   A(11,12,23)           126.6302         calculate D2E/DX2 analytically  !
 ! A32   A(13,12,23)           121.6246         calculate D2E/DX2 analytically  !
 ! A33   A(9,13,12)            107.5381         calculate D2E/DX2 analytically  !
 ! A34   A(9,13,24)            124.433          calculate D2E/DX2 analytically  !
 ! A35   A(12,13,24)           127.9973         calculate D2E/DX2 analytically  !
 ! A36   A(2,14,15)            112.9165         calculate D2E/DX2 analytically  !
 ! A37   A(2,14,25)            108.5965         calculate D2E/DX2 analytically  !
 ! A38   A(2,14,26)            107.8686         calculate D2E/DX2 analytically  !
 ! A39   A(15,14,25)           109.924          calculate D2E/DX2 analytically  !
 ! A40   A(15,14,26)           110.1777         calculate D2E/DX2 analytically  !
 ! A41   A(25,14,26)           107.1681         calculate D2E/DX2 analytically  !
 ! A42   A(14,15,16)           110.1156         calculate D2E/DX2 analytically  !
 ! A43   A(14,15,27)           108.5228         calculate D2E/DX2 analytically  !
 ! A44   A(14,15,28)           108.8501         calculate D2E/DX2 analytically  !
 ! A45   A(16,15,27)           108.1986         calculate D2E/DX2 analytically  !
 ! A46   A(16,15,28)           113.2703         calculate D2E/DX2 analytically  !
 ! A47   A(27,15,28)           107.7561         calculate D2E/DX2 analytically  !
 ! A48   A(15,16,29)           107.666          calculate D2E/DX2 analytically  !
 ! A49   A(15,16,30)           109.3782         calculate D2E/DX2 analytically  !
 ! A50   A(29,16,30)           106.0034         calculate D2E/DX2 analytically  !
 ! D1    D(1,2,3,4)             -4.0497         calculate D2E/DX2 analytically  !
 ! D2    D(1,2,3,17)          -172.4215         calculate D2E/DX2 analytically  !
 ! D3    D(14,2,3,4)           175.7875         calculate D2E/DX2 analytically  !
 ! D4    D(14,2,3,17)            7.4157         calculate D2E/DX2 analytically  !
 ! D5    D(1,2,14,15)          -11.5739         calculate D2E/DX2 analytically  !
 ! D6    D(1,2,14,25)         -133.7551         calculate D2E/DX2 analytically  !
 ! D7    D(1,2,14,26)          110.4154         calculate D2E/DX2 analytically  !
 ! D8    D(3,2,14,15)          168.5914         calculate D2E/DX2 analytically  !
 ! D9    D(3,2,14,25)           46.4101         calculate D2E/DX2 analytically  !
 ! D10   D(3,2,14,26)          -69.4193         calculate D2E/DX2 analytically  !
 ! D11   D(2,3,4,5)           -166.4882         calculate D2E/DX2 analytically  !
 ! D12   D(2,3,4,8)             70.6718         calculate D2E/DX2 analytically  !
 ! D13   D(2,3,4,18)           -51.557          calculate D2E/DX2 analytically  !
 ! D14   D(17,3,4,5)             2.4357         calculate D2E/DX2 analytically  !
 ! D15   D(17,3,4,8)          -120.4043         calculate D2E/DX2 analytically  !
 ! D16   D(17,3,4,18)          117.3668         calculate D2E/DX2 analytically  !
 ! D17   D(3,4,5,6)            178.8366         calculate D2E/DX2 analytically  !
 ! D18   D(3,4,5,7)             -1.2448         calculate D2E/DX2 analytically  !
 ! D19   D(8,4,5,6)            -57.4281         calculate D2E/DX2 analytically  !
 ! D20   D(8,4,5,7)            122.4904         calculate D2E/DX2 analytically  !
 ! D21   D(18,4,5,6)            62.807          calculate D2E/DX2 analytically  !
 ! D22   D(18,4,5,7)          -117.2745         calculate D2E/DX2 analytically  !
 ! D23   D(3,4,8,9)           -124.279          calculate D2E/DX2 analytically  !
 ! D24   D(3,4,8,20)            -2.7444         calculate D2E/DX2 analytically  !
 ! D25   D(3,4,8,21)           114.2409         calculate D2E/DX2 analytically  !
 ! D26   D(5,4,8,9)            115.476          calculate D2E/DX2 analytically  !
 ! D27   D(5,4,8,20)          -122.9893         calculate D2E/DX2 analytically  !
 ! D28   D(5,4,8,21)            -6.004          calculate D2E/DX2 analytically  !
 ! D29   D(18,4,8,9)            -2.894          calculate D2E/DX2 analytically  !
 ! D30   D(18,4,8,20)          118.6406         calculate D2E/DX2 analytically  !
 ! D31   D(18,4,8,21)         -124.374          calculate D2E/DX2 analytically  !
 ! D32   D(4,5,6,19)          -179.9334         calculate D2E/DX2 analytically  !
 ! D33   D(7,5,6,19)             0.1467         calculate D2E/DX2 analytically  !
 ! D34   D(4,8,9,10)          -113.4026         calculate D2E/DX2 analytically  !
 ! D35   D(4,8,9,13)            64.522          calculate D2E/DX2 analytically  !
 ! D36   D(20,8,9,10)          125.8315         calculate D2E/DX2 analytically  !
 ! D37   D(20,8,9,13)          -56.2439         calculate D2E/DX2 analytically  !
 ! D38   D(21,8,9,10)            9.5732         calculate D2E/DX2 analytically  !
 ! D39   D(21,8,9,13)         -172.5022         calculate D2E/DX2 analytically  !
 ! D40   D(8,9,10,11)          178.7649         calculate D2E/DX2 analytically  !
 ! D41   D(8,9,10,22)           -0.9809         calculate D2E/DX2 analytically  !
 ! D42   D(13,9,10,11)           0.5759         calculate D2E/DX2 analytically  !
 ! D43   D(13,9,10,22)        -179.1699         calculate D2E/DX2 analytically  !
 ! D44   D(8,9,13,12)         -178.9923         calculate D2E/DX2 analytically  !
 ! D45   D(8,9,13,24)           -0.8995         calculate D2E/DX2 analytically  !
 ! D46   D(10,9,13,12)          -0.5824         calculate D2E/DX2 analytically  !
 ! D47   D(10,9,13,24)         177.5105         calculate D2E/DX2 analytically  !
 ! D48   D(9,10,11,12)          -0.3412         calculate D2E/DX2 analytically  !
 ! D49   D(22,10,11,12)        179.4226         calculate D2E/DX2 analytically  !
 ! D50   D(10,11,12,13)         -0.0436         calculate D2E/DX2 analytically  !
 ! D51   D(10,11,12,23)        179.9924         calculate D2E/DX2 analytically  !
 ! D52   D(11,12,13,9)           0.4032         calculate D2E/DX2 analytically  !
 ! D53   D(11,12,13,24)       -177.6006         calculate D2E/DX2 analytically  !
 ! D54   D(23,12,13,9)        -179.6307         calculate D2E/DX2 analytically  !
 ! D55   D(23,12,13,24)          2.3654         calculate D2E/DX2 analytically  !
 ! D56   D(2,14,15,16)         -68.0822         calculate D2E/DX2 analytically  !
 ! D57   D(2,14,15,27)         173.6574         calculate D2E/DX2 analytically  !
 ! D58   D(2,14,15,28)          56.6415         calculate D2E/DX2 analytically  !
 ! D59   D(25,14,15,16)         53.3511         calculate D2E/DX2 analytically  !
 ! D60   D(25,14,15,27)        -64.9094         calculate D2E/DX2 analytically  !
 ! D61   D(25,14,15,28)        178.0747         calculate D2E/DX2 analytically  !
 ! D62   D(26,14,15,16)        171.2363         calculate D2E/DX2 analytically  !
 ! D63   D(26,14,15,27)         52.9758         calculate D2E/DX2 analytically  !
 ! D64   D(26,14,15,28)        -64.0401         calculate D2E/DX2 analytically  !
 ! D65   D(14,15,16,29)         71.1881         calculate D2E/DX2 analytically  !
 ! D66   D(14,15,16,30)       -174.0572         calculate D2E/DX2 analytically  !
 ! D67   D(27,15,16,29)       -170.3521         calculate D2E/DX2 analytically  !
 ! D68   D(27,15,16,30)        -55.5974         calculate D2E/DX2 analytically  !
 ! D69   D(28,15,16,29)        -50.9567         calculate D2E/DX2 analytically  !
 ! D70   D(28,15,16,30)         63.7981         calculate D2E/DX2 analytically  !
 --------------------------------------------------------------------------------
 Trust Radius=3.00D-01 FncErr=1.00D-07 GrdErr=1.00D-06
 Number of steps in this run=    160 maximum allowed number of steps=    180.
 GradGradGradGradGradGradGradGradGradGradGradGradGradGradGradGradGradGrad

                          Input orientation:                          
 ---------------------------------------------------------------------
 Center     Atomic      Atomic             Coordinates (Angstroms)
 Number     Number       Type             X           Y           Z
 ---------------------------------------------------------------------
      1          8           0       -0.826723    0.571738   -0.967851
      2          6           0       -1.229094   -0.549225   -0.649519
      3          7           0       -0.431377   -1.424261   -0.001728
      4          6           0        0.959925   -1.120223    0.272813
      5          6           0        1.618670   -2.417810    0.689338
      6          8           0        2.929943   -2.252524    0.945600
      7          8           0        1.052621   -3.476888    0.786072
      8          6           0        1.136320   -0.016008    1.361235
      9          6           0        1.959780    1.134444    0.874800
     10          6           0        3.190060    1.599053    1.234702
     11          7           0        3.542369    2.693712    0.463813
     12          6           0        2.532436    2.873028   -0.352489
     13          7           0        1.552808    1.955230   -0.149818
     14          6           0       -2.636284   -1.036645   -0.958076
     15          6           0       -3.555117    0.073091   -1.431113
     16          7           0       -3.820507    1.009488   -0.334969
     17          1           0       -0.720507   -2.377581    0.158427
     18          1           0        1.438730   -0.805768   -0.661906
     19          1           0        3.271568   -3.119437    1.200919
     20          1           0        0.149967    0.336002    1.658207
     21          1           0        1.607938   -0.421655    2.256343
     22          1           0        3.846198    1.209845    1.999911
     23          1           0        2.443610    3.635583   -1.105356
     24          1           0        0.689308    1.846367   -0.658808
     25          1           0       -3.048535   -1.504174   -0.059019
     26          1           0       -2.561425   -1.817523   -1.723489
     27          1           0       -4.505767   -0.370602   -1.738872
     28          1           0       -3.108278    0.552227   -2.312420
     29          1           0       -2.968731    1.532462   -0.163977
     30          1           0       -4.509771    1.688346   -0.632639
 ---------------------------------------------------------------------
                    Distance matrix (angstroms):
                    1          2          3          4          5
     1  O    0.000000
     2  C    1.232799   0.000000
     3  N    2.252488   1.349694   0.000000
     4  C    2.755738   2.443059   1.450356   0.000000
     5  C    4.202810   3.659769   2.380631   1.513661   0.000000
     6  O    5.074474   4.768985   3.589139   2.369750   1.346263
     7  O    4.795785   3.979743   2.652576   2.413689   1.204747
     8  C    3.102196   3.150021   2.509684   1.560470   2.540228
     9  C    3.387713   3.914998   3.610111   2.538824   3.573411
    10  C    4.694802   5.262538   4.876883   3.645984   4.347629
    11  N    5.063734   5.875628   5.741522   4.609946   5.466180
    12  C    4.118077   5.094030   5.232008   4.337033   5.469309
    13  N    2.871480   3.776371   3.921719   3.160466   4.453313
    14  C    2.421053   1.520845   2.434432   3.801945   4.767203
    15  C    2.812009   2.531511   3.747393   4.971214   6.121190
    16  N    3.091102   3.040387   4.185736   5.268548   6.510010
    17  H    3.158838   2.062601   1.008992   2.101875   2.399007
    18  H    2.668970   2.680159   2.077419   1.096284   2.111141
    19  H    5.926578   5.503278   4.246385   3.194046   1.867102
    20  H    2.811703   2.830377   2.488347   2.167011   3.267916
    21  H    4.160509   4.063134   3.203578   2.200525   2.537766
    22  H    5.572341   5.989357   5.407654   4.091780   4.454140
    23  H    4.483429   5.586516   5.923307   5.168982   6.367497
    24  H    2.004629   3.069073   3.519189   3.121187   4.567758
    25  H    3.173616   2.137986   2.619005   4.040456   4.814309
    26  H    3.047745   2.130047   2.766988   4.107476   4.863669
    27  H    3.875286   3.457627   4.552859   5.872189   6.898985
    28  H    2.648346   2.740396   4.051123   5.102038   6.338431
    29  H    2.481412   2.755995   3.899577   4.760448   6.113677
    30  H    3.863163   3.971127   5.169107   6.214940   7.494393
                    6          7          8          9         10
     6  O    0.000000
     7  O    2.246965   0.000000
     8  C    2.896867   3.509346   0.000000
     9  C    3.523887   4.700553   1.496077   0.000000
    10  C    3.871161   5.525857   2.615776   1.363444   0.000000
    11  N    5.007237   6.661756   3.733231   2.259383   1.384438
    12  C    5.302295   6.618732   3.637653   2.203826   2.138845
    13  N    4.560881   5.534798   2.518437   1.374466   2.173557
    14  C    6.007097   4.754457   4.544605   5.403412   6.760286
    15  C    7.287883   6.224911   5.460286   6.071062   7.411649
    16  N    7.605863   6.718012   5.338435   5.906850   7.208295
    17  H    3.736450   2.178623   3.235981   4.475650   5.680186
    18  H    2.626955   3.062777   2.192777   2.529305   3.528094
    19  H    0.966145   2.285518   3.770445   4.463480   4.719315
    20  H    3.864782   4.014167   1.088575   2.127594   3.319159
    21  H    2.611096   3.435771   1.090042   2.110426   2.762267
    22  H    3.733510   5.589539   3.042049   2.197756   1.080530
    23  H    6.254018   7.489967   4.596433   3.226578   3.190692
    24  H    4.939177   5.527813   2.783672   2.114920   3.146475
    25  H    6.108313   4.628743   4.663129   5.737382   7.086876
    26  H    6.121142   4.702417   5.141429   5.992205   7.314607
    27  H    8.126364   6.849820   6.447445   7.134406   8.482184
    28  H    7.412248   6.568676   5.642273   6.015194   7.303902
    29  H    7.095888   6.493648   4.644941   5.052494   6.315968
    30  H    8.565666   7.722214   6.225648   6.665904   7.923531
                   11         12         13         14         15
    11  N    0.000000
    12  C    1.310904   0.000000
    13  N    2.209129   1.357608   0.000000
    14  C    7.356159   6.509066   5.210862   0.000000
    15  C    7.799532   6.786853   5.592411   1.516421   0.000000
    16  N    7.595170   6.620647   5.459050   2.444853   1.465880
    17  H    6.631996   6.197706   4.902675   2.591310   4.070313
    18  H    4.235433   3.850386   2.810402   4.092280   5.128604
    19  H    5.865949   6.234504   5.525475   6.625858   7.982698
    20  H    4.300437   4.019397   2.803358   4.061070   4.831218
    21  H    4.081751   4.302980   3.382637   5.359489   6.363902
    22  H    2.157259   3.166376   3.230568   7.471210   8.236722
    23  H    2.134639   1.075262   2.128419   6.903385   6.984425
    24  H    3.180916   2.131897   1.008243   4.411448   4.664344
    25  H    7.831706   7.098821   5.757437   1.094001   2.151054
    26  H    7.898850   7.058918   5.799744   1.096007   2.155766
    27  H    8.889001   7.872706   6.681387   2.132657   1.093305
    28  H    7.518280   6.406645   5.326442   2.140453   1.098152
    29  H    6.643572   5.665288   4.541283   2.709506   2.019714
    30  H    8.188402   7.146652   6.087628   3.322866   2.039111
                   16         17         18         19         20
    16  N    0.000000
    17  H    4.617973   0.000000
    18  H    5.573295   2.793894   0.000000
    19  H    8.348923   4.192112   3.490341   0.000000
    20  H    4.493440   3.220341   2.889199   4.679056   0.000000
    21  H    6.183130   3.694395   2.948280   3.340601   1.748568
    22  H    8.016868   6.092247   4.116293   4.439739   3.813461
    23  H    6.835864   6.911362   4.575154   7.185731   4.877019
    24  H    4.598225   4.527381   2.755987   5.897954   2.817915
    25  H    2.643972   2.495964   4.581135   6.643811   4.070078
    26  H    3.391941   2.691515   4.260499   6.653643   4.839957
    27  H    2.084508   4.685712   6.056919   8.757021   5.806488
    28  H    2.150970   4.515563   5.024303   8.156415   5.140894
    29  H    1.014033   4.521824   5.014077   7.902180   3.805017
    30  H    1.012196   5.613917   6.450281   9.328770   5.365629
                   21         22         23         24         25
    21  H    0.000000
    22  H    2.781610   0.000000
    23  H    5.334843   4.182600   0.000000
    24  H    3.806036   4.176111   2.545246   0.000000
    25  H    5.311826   7.690412   7.594445   5.055427   0.000000
    26  H    5.930523   8.005392   7.427573   5.012475   1.762363
    27  H    7.303544   9.286099   8.046410   5.750678   2.496080
    28  H    6.638128   8.209348   6.464329   4.339457   3.051257
    29  H    5.533754   7.157496   5.882411   3.704679   3.039497
    30  H    7.086938   8.773910   7.236346   5.201546   3.557588
                   26         27         28         29         30
    26  H    0.000000
    27  H    2.423691   0.000000
    28  H    2.502319   1.770183   0.000000
    29  H    3.717576   2.909369   2.365617   0.000000
    30  H    4.156576   2.337314   2.465079   1.618254   0.000000
 Symmetry turned off by external request.
 Stoichiometry    C9H14N4O3
 Framework group  C1[X(C9H14N4O3)]
 Deg. of freedom    84
 Full point group                 C1      NOp   1
 Rotational constants (GHZ):      0.6120385      0.3669297      0.2426803
 Standard basis: 6-31+G(d,p) (6D, 7F)
   374 basis functions,   610 primitive gaussians,   374 cartesian basis functions
    60 alpha electrons       60 beta electrons
       nuclear repulsion energy      1127.3674257685 Hartrees.
 NAtoms=   30 NActive=   30 NUniq=   30 SFac= 1.00D+00 NAtFMM=   60 NAOKFM=F Big=F
 Integral buffers will be    131072 words long.
 Raffenetti 2 integral format.
 Two-electron integral symmetry is turned off.
 One-electron integrals computed using PRISM.
 NBasis=   374 RedAO= T EigKep=  6.87D-06  NBF=   374
 NBsUse=   374 1.00D-06 EigRej= -1.00D+00 NBFU=   374
 ExpMin= 4.38D-02 ExpMax= 5.48D+03 ExpMxC= 8.25D+02 IAcc=3 IRadAn=         5 AccDes= 0.00D+00
 Harris functional with IExCor=  402 and IRadAn=       5 diagonalized for initial guess.
 HarFok:  IExCor=  402 AccDes= 0.00D+00 IRadAn=         5 IDoV= 1 UseB2=F ITyADJ=14
 ICtDFT=  3500011 ScaDFX=  1.000000  1.000000  1.000000  1.000000
 FoFCou: FMM=F IPFlag=           0 FMFlag=      100000 FMFlg1=           0
         NFxFlg=           0 DoJE=T BraDBF=F KetDBF=T FulRan=T
         wScrn=  0.000000 ICntrl=     500 IOpCl=  0 I1Cent=   200000004 NGrid=           0
         NMat0=    1 NMatS0=      1 NMatT0=    0 NMatD0=    1 NMtDS0=    0 NMtDT0=    0
 Symmetry not used in FoFCou.
 Requested convergence on RMS density matrix=1.00D-08 within 128 cycles.
 Requested convergence on MAX density matrix=1.00D-06.
 Requested convergence on             energy=1.00D-06.
 No special actions if energy rises.
 SCF Done:  E(RB3LYP) =  -796.155070297     A.U. after   14 cycles
            NFock= 14  Conv=0.82D-08     -V/T= 2.0089
 DoSCS=F DFT=T ScalE2(SS,OS)=  1.000000  1.000000
 Range of M.O.s used for correlation:     1   374
 NBasis=   374 NAE=    60 NBE=    60 NFC=     0 NFV=     0
 NROrb=    374 NOA=    60 NOB=    60 NVA=   314 NVB=   314

 **** Warning!!: The largest alpha MO coefficient is  0.98354452D+02

 Symmetrizing basis deriv contribution to polar:
 IMax=3 JMax=2 DiffMx= 0.00D+00
 G2DrvN: will do    31 centers at a time, making    1 passes.
 Calling FoFCou, ICntrl=  3107 FMM=F I1Cent=   0 AccDes= 0.00D+00.
 End of G2Drv F.D. properties file   721 does not exist.
 End of G2Drv F.D. properties file   722 does not exist.
 End of G2Drv F.D. properties file   788 does not exist.
          IDoAtm=111111111111111111111111111111
          Differentiating once with respect to nuclear coordinates.
          There are    93 degrees of freedom in the 1st order CPHF.  IDoFFX=6 NUNeed=     0.
     87 vectors produced by pass  0 Test12= 2.03D-14 1.08D-09 XBig12= 1.74D-01 7.63D-02.
 AX will form    87 AO Fock derivatives at one time.
     87 vectors produced by pass  1 Test12= 2.03D-14 1.08D-09 XBig12= 2.44D-02 4.50D-02.
     87 vectors produced by pass  2 Test12= 2.03D-14 1.08D-09 XBig12= 3.59D-04 3.41D-03.
     87 vectors produced by pass  3 Test12= 2.03D-14 1.08D-09 XBig12= 1.71D-06 1.79D-04.
     87 vectors produced by pass  4 Test12= 2.03D-14 1.08D-09 XBig12= 3.56D-09 5.29D-06.
     81 vectors produced by pass  5 Test12= 2.03D-14 1.08D-09 XBig12= 4.11D-12 1.76D-07.
     26 vectors produced by pass  6 Test12= 2.03D-14 1.08D-09 XBig12= 4.22D-15 4.39D-09.
      6 vectors produced by pass  7 Test12= 2.03D-14 1.08D-09 XBig12= 3.82D-16 2.54D-09.
      6 vectors produced by pass  8 Test12= 2.03D-14 1.08D-09 XBig12= 3.50D-15 6.75D-09.
      6 vectors produced by pass  9 Test12= 2.03D-14 1.08D-09 XBig12= 1.56D-15 4.30D-09.
      6 vectors produced by pass 10 Test12= 2.03D-14 1.08D-09 XBig12= 3.31D-15 5.24D-09.
      4 vectors produced by pass 11 Test12= 2.03D-14 1.08D-09 XBig12= 7.63D-16 2.55D-09.
      4 vectors produced by pass 12 Test12= 2.03D-14 1.08D-09 XBig12= 3.34D-15 8.30D-09.
      4 vectors produced by pass 13 Test12= 2.03D-14 1.08D-09 XBig12= 1.21D-15 4.78D-09.
      4 vectors produced by pass 14 Test12= 2.03D-14 1.08D-09 XBig12= 2.21D-15 4.05D-09.
      3 vectors produced by pass 15 Test12= 2.03D-14 1.08D-09 XBig12= 9.32D-16 3.23D-09.
      3 vectors produced by pass 16 Test12= 2.03D-14 1.08D-09 XBig12= 2.25D-15 4.80D-09.
      3 vectors produced by pass 17 Test12= 2.03D-14 1.08D-09 XBig12= 7.38D-16 2.04D-09.
      3 vectors produced by pass 18 Test12= 2.03D-14 1.08D-09 XBig12= 4.04D-15 5.94D-09.
      3 vectors produced by pass 19 Test12= 2.03D-14 1.08D-09 XBig12= 1.44D-15 3.44D-09.
      3 vectors produced by pass 20 Test12= 2.03D-14 1.08D-09 XBig12= 9.04D-16 2.98D-09.
      3 vectors produced by pass 21 Test12= 2.03D-14 1.08D-09 XBig12= 1.78D-15 3.65D-09.
      2 vectors produced by pass 22 Test12= 2.03D-14 1.08D-09 XBig12= 7.46D-16 2.29D-09.
 InvSVY:  IOpt=1 It=  1 EMax= 6.66D-16
 Solved reduced A of dimension   605 with    93 vectors.
 End of Minotr F.D. properties file   721 does not exist.
 End of Minotr F.D. properties file   722 does not exist.
 End of Minotr F.D. properties file   788 does not exist.

 **********************************************************************

            Population analysis using the SCF density.

 **********************************************************************

 Alpha  occ. eigenvalues --  -19.23831 -19.18831 -19.15293 -14.39021 -14.37869
 Alpha  occ. eigenvalues --  -14.32670 -14.30978 -10.36172 -10.31836 -10.27242
 Alpha  occ. eigenvalues --  -10.23232 -10.22346 -10.22162 -10.21683 -10.21307
 Alpha  occ. eigenvalues --  -10.19240  -1.15330  -1.07273  -1.06466  -1.01212
 Alpha  occ. eigenvalues --   -0.96007  -0.89647  -0.86583  -0.82302  -0.77739
 Alpha  occ. eigenvalues --   -0.75124  -0.69282  -0.66801  -0.62282  -0.61392
 Alpha  occ. eigenvalues --   -0.60613  -0.58676  -0.54952  -0.54066  -0.52710
 Alpha  occ. eigenvalues --   -0.51579  -0.50490  -0.49649  -0.48938  -0.48035
 Alpha  occ. eigenvalues --   -0.46034  -0.44903  -0.44108  -0.43724  -0.42483
 Alpha  occ. eigenvalues --   -0.40812  -0.40399  -0.40068  -0.39953  -0.39003
 Alpha  occ. eigenvalues --   -0.37777  -0.37461  -0.36292  -0.32379  -0.29387
 Alpha  occ. eigenvalues --   -0.28983  -0.27417  -0.26313  -0.25351  -0.22524
 Alpha virt. eigenvalues --   -0.03532  -0.01790  -0.01273  -0.00373   0.00618
 Alpha virt. eigenvalues --    0.01432   0.01586   0.02317   0.02824   0.03354
 Alpha virt. eigenvalues --    0.04063   0.04363   0.04897   0.05274   0.05929
 Alpha virt. eigenvalues --    0.06415   0.06642   0.07345   0.07944   0.08160
 Alpha virt. eigenvalues --    0.08335   0.08853   0.09655   0.10280   0.10810
 Alpha virt. eigenvalues --    0.11374   0.11759   0.12957   0.13425   0.13600
 Alpha virt. eigenvalues --    0.14356   0.14934   0.15406   0.15492   0.15930
 Alpha virt. eigenvalues --    0.15997   0.16803   0.17023   0.18166   0.18397
 Alpha virt. eigenvalues --    0.18642   0.18907   0.19178   0.19631   0.19842
 Alpha virt. eigenvalues --    0.20649   0.20853   0.21051   0.21177   0.22067
 Alpha virt. eigenvalues --    0.22107   0.22791   0.23592   0.23849   0.24038
 Alpha virt. eigenvalues --    0.24446   0.24745   0.25248   0.25409   0.26103
 Alpha virt. eigenvalues --    0.26496   0.26807   0.26953   0.27710   0.28258
 Alpha virt. eigenvalues --    0.28419   0.28488   0.29583   0.29774   0.30026
 Alpha virt. eigenvalues --    0.31049   0.31806   0.32136   0.32429   0.32725
 Alpha virt. eigenvalues --    0.33365   0.33877   0.34728   0.35264   0.36191
 Alpha virt. eigenvalues --    0.36403   0.36871   0.37826   0.38405   0.38824
 Alpha virt. eigenvalues --    0.39333   0.40927   0.41450   0.41897   0.43630
 Alpha virt. eigenvalues --    0.45188   0.46241   0.47148   0.49338   0.50009
 Alpha virt. eigenvalues --    0.50761   0.53380   0.54480   0.63385   0.65102
 Alpha virt. eigenvalues --    0.65741   0.66410   0.68048   0.69442   0.70811
 Alpha virt. eigenvalues --    0.71873   0.72742   0.73519   0.74788   0.75187
 Alpha virt. eigenvalues --    0.76178   0.78682   0.79604   0.80935   0.81888
 Alpha virt. eigenvalues --    0.83105   0.83522   0.84032   0.85503   0.86283
 Alpha virt. eigenvalues --    0.87433   0.88372   0.89662   0.89708   0.92201
 Alpha virt. eigenvalues --    0.93333   0.93949   0.95291   0.96264   0.97008
 Alpha virt. eigenvalues --    0.98494   0.99153   1.00717   1.01767   1.03084
 Alpha virt. eigenvalues --    1.04206   1.04909   1.06222   1.06758   1.07745
 Alpha virt. eigenvalues --    1.07930   1.08269   1.09810   1.11142   1.11669
 Alpha virt. eigenvalues --    1.13040   1.13131   1.15433   1.16125   1.19013
 Alpha virt. eigenvalues --    1.20703   1.23509   1.24895   1.25582   1.26502
 Alpha virt. eigenvalues --    1.27135   1.28006   1.28867   1.30025   1.31169
 Alpha virt. eigenvalues --    1.32871   1.33389   1.33741   1.34465   1.35527
 Alpha virt. eigenvalues --    1.36746   1.37587   1.38691   1.39308   1.42349
 Alpha virt. eigenvalues --    1.43104   1.44294   1.44911   1.46859   1.48051
 Alpha virt. eigenvalues --    1.49647   1.50474   1.52007   1.54861   1.56333
 Alpha virt. eigenvalues --    1.58793   1.58908   1.60096   1.62788   1.67424
 Alpha virt. eigenvalues --    1.68022   1.71445   1.72074   1.72762   1.74572
 Alpha virt. eigenvalues --    1.75549   1.77544   1.78044   1.79206   1.80493
 Alpha virt. eigenvalues --    1.81423   1.83033   1.84317   1.85173   1.86954
 Alpha virt. eigenvalues --    1.89191   1.89973   1.91866   1.93257   1.93440
 Alpha virt. eigenvalues --    1.95088   1.96887   1.99501   2.00060   2.02839
 Alpha virt. eigenvalues --    2.03543   2.05268   2.06742   2.09422   2.10312
 Alpha virt. eigenvalues --    2.11551   2.11763   2.13286   2.15340   2.17104
 Alpha virt. eigenvalues --    2.17803   2.19765   2.21489   2.21973   2.24750
 Alpha virt. eigenvalues --    2.25695   2.28140   2.28465   2.29278   2.31597
 Alpha virt. eigenvalues --    2.33421   2.35064   2.35134   2.37180   2.39163
 Alpha virt. eigenvalues --    2.41802   2.42824   2.45198   2.46954   2.47780
 Alpha virt. eigenvalues --    2.49362   2.49633   2.50073   2.51485   2.52429
 Alpha virt. eigenvalues --    2.55979   2.56188   2.56381   2.57761   2.58991
 Alpha virt. eigenvalues --    2.59157   2.60482   2.62382   2.63689   2.66139
 Alpha virt. eigenvalues --    2.66413   2.67555   2.69082   2.71369   2.71962
 Alpha virt. eigenvalues --    2.73907   2.75946   2.76578   2.79437   2.80997
 Alpha virt. eigenvalues --    2.81842   2.84219   2.86028   2.86468   2.89120
 Alpha virt. eigenvalues --    2.91258   2.91981   2.95358   2.96705   2.97658
 Alpha virt. eigenvalues --    2.99413   3.03145   3.05632   3.07787   3.10415
 Alpha virt. eigenvalues --    3.12850   3.18023   3.26129   3.28107   3.32142
 Alpha virt. eigenvalues --    3.33975   3.35193   3.38212   3.41098   3.41918
 Alpha virt. eigenvalues --    3.43630   3.47681   3.52208   3.54372   3.55178
 Alpha virt. eigenvalues --    3.59729   3.62047   3.78899   4.18573   4.22904
 Alpha virt. eigenvalues --    4.24323   4.28959   4.34660   4.36431   4.40843
 Alpha virt. eigenvalues --    4.45042   4.46371   4.56705   4.61354   4.62671
 Alpha virt. eigenvalues --    4.67583   4.71004   4.78536   4.81774
          Condensed to atoms (all electrons):
               1          2          3          4          5          6
     1  O    8.330163   0.318485  -0.193084   0.079370   0.014216   0.000458
     2  C    0.318485   7.037952   0.058008  -0.238977  -0.147679   0.014283
     3  N   -0.193084   0.058008   7.357594  -0.351516   0.096062   0.022642
     4  C    0.079370  -0.238977  -0.351516  10.287963  -2.051522  -0.068527
     5  C    0.014216  -0.147679   0.096062  -2.051522   7.155300   0.075682
     6  O    0.000458   0.014283   0.022642  -0.068527   0.075682   8.311202
     7  O   -0.000225   0.062679   0.019500  -0.173407   0.449571  -0.148604
     8  C   -0.022712  -0.141951  -0.080754  -0.021074   0.391225  -0.045668
     9  C   -0.059623   0.035119   0.204440  -1.013508  -0.135628   0.056299
    10  C    0.014133  -0.047449   0.001648   0.085155  -0.011427  -0.001355
    11  N   -0.001393  -0.000082   0.001042  -0.009560   0.000963  -0.000279
    12  C    0.005534   0.018064   0.005083  -0.003245  -0.022459   0.000425
    13  N    0.004773   0.038272  -0.004189  -0.010583  -0.055381   0.000908
    14  C    0.040031  -1.212435  -0.069708  -0.165694  -0.286084  -0.003899
    15  C    0.022268  -0.112864  -0.008778  -0.107193  -0.015223  -0.000142
    16  N   -0.010186   0.065443  -0.003663  -0.004781  -0.000781  -0.000004
    17  H    0.011207  -0.041599   0.295796   0.013112  -0.015826   0.001626
    18  H    0.005699   0.020901  -0.059525   0.459093  -0.140816   0.002301
    19  H    0.000010  -0.005771  -0.003034   0.014861   0.047972   0.189119
    20  H   -0.001853  -0.003402  -0.003802  -0.025905  -0.045351   0.000540
    21  H    0.000410  -0.001010   0.006008  -0.073289  -0.007111   0.005366
    22  H   -0.000022  -0.001313   0.000008   0.005401   0.008458   0.000300
    23  H   -0.000536  -0.001910  -0.000084   0.004201   0.000725   0.000007
    24  H    0.020791  -0.002372   0.001448  -0.001243  -0.001374   0.000003
    25  H    0.002286  -0.147098   0.008569   0.002616  -0.006921  -0.000002
    26  H    0.002539  -0.025306  -0.006122  -0.008306  -0.001513  -0.000006
    27  H   -0.000116   0.010044   0.000374  -0.000997  -0.000310   0.000000
    28  H   -0.005131  -0.006526   0.001409  -0.003425  -0.001118   0.000000
    29  H    0.003787  -0.017783   0.001081  -0.013471  -0.001195   0.000000
    30  H    0.000056  -0.009715   0.000013   0.001160   0.000098   0.000000
               7          8          9         10         11         12
     1  O   -0.000225  -0.022712  -0.059623   0.014133  -0.001393   0.005534
     2  C    0.062679  -0.141951   0.035119  -0.047449  -0.000082   0.018064
     3  N    0.019500  -0.080754   0.204440   0.001648   0.001042   0.005083
     4  C   -0.173407  -0.021074  -1.013508   0.085155  -0.009560  -0.003245
     5  C    0.449571   0.391225  -0.135628  -0.011427   0.000963  -0.022459
     6  O   -0.148604  -0.045668   0.056299  -0.001355  -0.000279   0.000425
     7  O    8.237444   0.001157  -0.017905   0.000875  -0.000054   0.000543
     8  C    0.001157   8.281320  -2.030861  -0.521058  -0.043075  -0.031083
     9  C   -0.017905  -2.030861   9.849031  -1.036960  -0.194323  -0.089178
    10  C    0.000875  -0.521058  -1.036960   7.370513   0.494556  -0.417099
    11  N   -0.000054  -0.043075  -0.194323   0.494556   6.773171   0.423075
    12  C    0.000543  -0.031083  -0.089178  -0.417099   0.423075   5.297801
    13  N    0.000873  -0.169323   0.280112  -0.052866  -0.031653   0.108238
    14  C   -0.002806  -0.086512   0.085136  -0.003611  -0.000554   0.008393
    15  C    0.001640   0.001303   0.004625  -0.007131   0.000054   0.000829
    16  N    0.000004  -0.004175   0.003075   0.002900  -0.000011   0.000640
    17  H    0.014859   0.017227  -0.016071  -0.002101  -0.000004  -0.000136
    18  H    0.003932  -0.007312  -0.029321  -0.012762  -0.000992  -0.002329
    19  H    0.000787  -0.000557  -0.009099  -0.001061  -0.000014  -0.000336
    20  H   -0.000268   0.524374  -0.104628  -0.030052  -0.001622  -0.006387
    21  H    0.002445   0.510540  -0.154130   0.024769  -0.001380  -0.004858
    22  H   -0.000013   0.042532  -0.117720   0.402092  -0.062508   0.023493
    23  H    0.000000   0.021164   0.046693  -0.037125  -0.051892   0.437312
    24  H    0.000031  -0.056739   0.090010  -0.012714   0.008304  -0.028975
    25  H    0.000128   0.001191  -0.001233  -0.000185   0.000000  -0.000032
    26  H   -0.000055   0.001876  -0.001710  -0.000198   0.000000  -0.000016
    27  H    0.000001  -0.000106   0.000190   0.000012   0.000000   0.000002
    28  H    0.000002   0.001230  -0.001754  -0.000226  -0.000001  -0.000037
    29  H    0.000002  -0.001133   0.003595   0.000493   0.000000  -0.000006
    30  H    0.000000   0.000242  -0.000187   0.000002   0.000000   0.000005
              13         14         15         16         17         18
     1  O    0.004773   0.040031   0.022268  -0.010186   0.011207   0.005699
     2  C    0.038272  -1.212435  -0.112864   0.065443  -0.041599   0.020901
     3  N   -0.004189  -0.069708  -0.008778  -0.003663   0.295796  -0.059525
     4  C   -0.010583  -0.165694  -0.107193  -0.004781   0.013112   0.459093
     5  C   -0.055381  -0.286084  -0.015223  -0.000781  -0.015826  -0.140816
     6  O    0.000908  -0.003899  -0.000142  -0.000004   0.001626   0.002301
     7  O    0.000873  -0.002806   0.001640   0.000004   0.014859   0.003932
     8  C   -0.169323  -0.086512   0.001303  -0.004175   0.017227  -0.007312
     9  C    0.280112   0.085136   0.004625   0.003075  -0.016071  -0.029321
    10  C   -0.052866  -0.003611  -0.007131   0.002900  -0.002101  -0.012762
    11  N   -0.031653  -0.000554   0.000054  -0.000011  -0.000004  -0.000992
    12  C    0.108238   0.008393   0.000829   0.000640  -0.000136  -0.002329
    13  N    7.040111   0.003207   0.003395  -0.001197   0.000290   0.017338
    14  C    0.003207   7.253913   0.115652  -0.190560   0.013384   0.016597
    15  C    0.003395   0.115652   5.323773   0.267751   0.007198   0.000556
    16  N   -0.001197  -0.190560   0.267751   6.917735  -0.000051   0.000029
    17  H    0.000290   0.013384   0.007198  -0.000051   0.363288   0.003017
    18  H    0.017338   0.016597   0.000556   0.000029   0.003017   0.523870
    19  H   -0.000265  -0.000436  -0.000016   0.000000  -0.000040  -0.000326
    20  H   -0.002949   0.018179  -0.001294   0.000091   0.000207   0.001913
    21  H    0.009311  -0.000703  -0.000147   0.000001  -0.000124   0.003591
    22  H    0.000940  -0.000160   0.000001   0.000000   0.000000   0.000001
    23  H   -0.117446  -0.000244   0.000012   0.000000   0.000000   0.000002
    24  H    0.261647   0.005344  -0.000108  -0.000290  -0.000005   0.000401
    25  H    0.000053   0.468416  -0.001188  -0.000466   0.000106  -0.000016
    26  H    0.000088   0.357703  -0.013180   0.010616   0.000321   0.000059
    27  H   -0.000007  -0.038155   0.406892  -0.051373  -0.000010   0.000000
    28  H    0.000204  -0.106118   0.494467  -0.090587   0.000000  -0.000003
    29  H   -0.000584  -0.004211  -0.010497   0.359771  -0.000007   0.000000
    30  H    0.000007   0.054823  -0.060325   0.335926   0.000000   0.000000
              19         20         21         22         23         24
     1  O    0.000010  -0.001853   0.000410  -0.000022  -0.000536   0.020791
     2  C   -0.005771  -0.003402  -0.001010  -0.001313  -0.001910  -0.002372
     3  N   -0.003034  -0.003802   0.006008   0.000008  -0.000084   0.001448
     4  C    0.014861  -0.025905  -0.073289   0.005401   0.004201  -0.001243
     5  C    0.047972  -0.045351  -0.007111   0.008458   0.000725  -0.001374
     6  O    0.189119   0.000540   0.005366   0.000300   0.000007   0.000003
     7  O    0.000787  -0.000268   0.002445  -0.000013   0.000000   0.000031
     8  C   -0.000557   0.524374   0.510540   0.042532   0.021164  -0.056739
     9  C   -0.009099  -0.104628  -0.154130  -0.117720   0.046693   0.090010
    10  C   -0.001061  -0.030052   0.024769   0.402092  -0.037125  -0.012714
    11  N   -0.000014  -0.001622  -0.001380  -0.062508  -0.051892   0.008304
    12  C   -0.000336  -0.006387  -0.004858   0.023493   0.437312  -0.028975
    13  N   -0.000265  -0.002949   0.009311   0.000940  -0.117446   0.261647
    14  C   -0.000436   0.018179  -0.000703  -0.000160  -0.000244   0.005344
    15  C   -0.000016  -0.001294  -0.000147   0.000001   0.000012  -0.000108
    16  N    0.000000   0.000091   0.000001   0.000000   0.000000  -0.000290
    17  H   -0.000040   0.000207  -0.000124   0.000000   0.000000  -0.000005
    18  H   -0.000326   0.001913   0.003591   0.000001   0.000002   0.000401
    19  H    0.386459   0.000006  -0.000290   0.000009   0.000000   0.000000
    20  H    0.000006   0.527021  -0.026574  -0.000047  -0.000006   0.000817
    21  H   -0.000290  -0.026574   0.541781   0.001924   0.000005  -0.000008
    22  H    0.000009  -0.000047   0.001924   0.575322  -0.000046  -0.000092
    23  H    0.000000  -0.000006   0.000005  -0.000046   0.570507   0.000355
    24  H    0.000000   0.000817  -0.000008  -0.000092   0.000355   0.362317
    25  H    0.000000   0.000000  -0.000002   0.000000   0.000000  -0.000002
    26  H    0.000000  -0.000002   0.000000   0.000000   0.000000  -0.000004
    27  H    0.000000   0.000000   0.000000   0.000000   0.000000   0.000000
    28  H    0.000000   0.000000   0.000000   0.000000   0.000000  -0.000001
    29  H    0.000000  -0.000016   0.000000   0.000000   0.000000  -0.000025
    30  H    0.000000   0.000000   0.000000   0.000000   0.000000   0.000000
              25         26         27         28         29         30
     1  O    0.002286   0.002539  -0.000116  -0.005131   0.003787   0.000056
     2  C   -0.147098  -0.025306   0.010044  -0.006526  -0.017783  -0.009715
     3  N    0.008569  -0.006122   0.000374   0.001409   0.001081   0.000013
     4  C    0.002616  -0.008306  -0.000997  -0.003425  -0.013471   0.001160
     5  C   -0.006921  -0.001513  -0.000310  -0.001118  -0.001195   0.000098
     6  O   -0.000002  -0.000006   0.000000   0.000000   0.000000   0.000000
     7  O    0.000128  -0.000055   0.000001   0.000002   0.000002   0.000000
     8  C    0.001191   0.001876  -0.000106   0.001230  -0.001133   0.000242
     9  C   -0.001233  -0.001710   0.000190  -0.001754   0.003595  -0.000187
    10  C   -0.000185  -0.000198   0.000012  -0.000226   0.000493   0.000002
    11  N    0.000000   0.000000   0.000000  -0.000001   0.000000   0.000000
    12  C   -0.000032  -0.000016   0.000002  -0.000037  -0.000006   0.000005
    13  N    0.000053   0.000088  -0.000007   0.000204  -0.000584   0.000007
    14  C    0.468416   0.357703  -0.038155  -0.106118  -0.004211   0.054823
    15  C   -0.001188  -0.013180   0.406892   0.494467  -0.010497  -0.060325
    16  N   -0.000466   0.010616  -0.051373  -0.090587   0.359771   0.335926
    17  H    0.000106   0.000321  -0.000010   0.000000  -0.000007   0.000000
    18  H   -0.000016   0.000059   0.000000  -0.000003   0.000000   0.000000
    19  H    0.000000   0.000000   0.000000   0.000000   0.000000   0.000000
    20  H    0.000000  -0.000002   0.000000   0.000000  -0.000016   0.000000
    21  H   -0.000002   0.000000   0.000000   0.000000   0.000000   0.000000
    22  H    0.000000   0.000000   0.000000   0.000000   0.000000   0.000000
    23  H    0.000000   0.000000   0.000000   0.000000   0.000000   0.000000
    24  H   -0.000002  -0.000004   0.000000  -0.000001  -0.000025   0.000000
    25  H    0.518262  -0.026557  -0.004182   0.004863  -0.000060  -0.000051
    26  H   -0.026557   0.544448  -0.003968   0.000078  -0.000077  -0.000207
    27  H   -0.004182  -0.003968   0.592780  -0.043189   0.005967  -0.005256
    28  H    0.004863   0.000078  -0.043189   0.618387  -0.004715  -0.001808
    29  H   -0.000060  -0.000077   0.005967  -0.004715   0.414626  -0.036428
    30  H   -0.000051  -0.000207  -0.005256  -0.001808  -0.036428   0.436261
 Mulliken charges:
               1
     1  O   -0.581335
     2  C    0.485993
     3  N   -0.296466
     4  C   -0.606708
     5  C    0.707445
     6  O   -0.412676
     7  O   -0.453136
     8  C   -0.531290
     9  C    0.355513
    10  C   -0.201767
    11  N   -0.301767
    12  C    0.276739
    13  N   -0.323325
    14  C   -0.268886
    15  C   -0.312328
    16  N   -0.605856
    17  H    0.334336
    18  H    0.194102
    19  H    0.382022
    20  H    0.181009
    21  H    0.163475
    22  H    0.121439
    23  H    0.128307
    24  H    0.352483
    25  H    0.181505
    26  H    0.169499
    27  H    0.131407
    28  H    0.143998
    29  H    0.300884
    30  H    0.285384
 Sum of Mulliken charges =   0.00000
 Mulliken charges with hydrogens summed into heavy atoms:
               1
     1  O   -0.581335
     2  C    0.485993
     3  N    0.037870
     4  C   -0.412606
     5  C    0.707445
     6  O   -0.030654
     7  O   -0.453136
     8  C   -0.186806
     9  C    0.355513
    10  C   -0.080328
    11  N   -0.301767
    12  C    0.405045
    13  N    0.029158
    14  C    0.082117
    15  C   -0.036922
    16  N   -0.019588
 APT charges:
               1
     1  O   -0.639358
     2  C    0.411506
     3  N   -0.623337
     4  C   -0.684477
     5  C    0.169033
     6  O   -0.850879
     7  O   -0.061079
     8  C   -1.112514
     9  C    0.107283
    10  C   -0.398315
    11  N   -0.119545
    12  C   -0.311916
    13  N   -0.484311
    14  C   -1.005920
    15  C   -1.115501
    16  N   -0.964688
    17  H    0.752437
    18  H    0.334369
    19  H    1.146280
    20  H    0.258382
    21  H    0.568614
    22  H    0.727351
    23  H    0.714575
    24  H    0.188448
    25  H    0.436434
    26  H    0.517649
    27  H    0.795966
    28  H    0.269515
    29  H   -0.002794
    30  H    0.976791
 Sum of APT charges =   0.00000
 APT charges with hydrogens summed into heavy atoms:
               1
     1  O   -0.639358
     2  C    0.411506
     3  N    0.129100
     4  C   -0.350108
     5  C    0.169033
     6  O    0.295402
     7  O   -0.061079
     8  C   -0.285518
     9  C    0.107283
    10  C    0.329037
    11  N   -0.119545
    12  C    0.402659
    13  N   -0.295863
    14  C   -0.051837
    15  C   -0.050020
    16  N    0.009310
 Electronic spatial extent (au):  <R**2>=           4462.4480
 Charge=              0.0000 electrons
 Dipole moment (field-independent basis, Debye):
    X=             -2.8882    Y=             -3.5220    Z=             -1.2408  Tot=              4.7207
 Quadrupole moment (field-independent basis, Debye-Ang):
   XX=           -105.1553   YY=            -99.5225   ZZ=            -92.0537
   XY=            -18.1917   XZ=              6.7288   YZ=             -4.9940
 Traceless Quadrupole moment (field-independent basis, Debye-Ang):
   XX=             -6.2448   YY=             -0.6120   ZZ=              6.8568
   XY=            -18.1917   XZ=              6.7288   YZ=             -4.9940
 Octapole moment (field-independent basis, Debye-Ang**2):
  XXX=           -182.8542  YYY=              3.2749  ZZZ=            -20.9658  XYY=            -69.5972
  XXY=            -81.8981  XXZ=            -30.3387  XZZ=            -29.5092  YZZ=             -5.3449
  YYZ=            -30.1875  XYZ=            -22.1896
 Hexadecapole moment (field-independent basis, Debye-Ang**3):
 XXXX=          -3606.0638 YYYY=          -2117.4530 ZZZZ=           -559.4331 XXXY=           -613.5362
 XXXZ=           -282.9637 YYYX=           -396.4492 YYYZ=              0.3403 ZZZX=           -419.2810
 ZZZY=             58.8745 XXYY=           -904.8147 XXZZ=           -609.0926 YYZZ=           -412.1398
 XXYZ=            -74.2773 YYXZ=           -157.8452 ZZXY=            -77.6766
 N-N= 1.127367425768D+03 E-N=-4.110113243618D+03  KE= 7.890996298560D+02
  Exact polarizability:   0.000   0.000   0.000   0.000   0.000   0.000
 Approx polarizability: 211.081  20.457 217.068  17.594 -25.735 176.116
 Calling FoFJK, ICntrl=    100147 FMM=F ISym2X=0 I1Cent= 0 IOpClX= 0 NMat=1 NMatS=1 NMatT=0.
 -------------------------------------------------------------------
 Center     Atomic                   Forces (Hartrees/Bohr)
 Number     Number              X              Y              Z
 -------------------------------------------------------------------
      1        8           0.000431182    0.009576678   -0.003367779
      2        6          -0.004067503   -0.005140562   -0.000660323
      3        7           0.002150290   -0.000894107    0.000245695
      4        6          -0.004138198   -0.004858091   -0.000275625
      5        6           0.008674325    0.012533706   -0.001684936
      6        8          -0.002387833    0.002923200   -0.001683703
      7        8          -0.007503062   -0.015753132    0.001868018
      8        6           0.006363536    0.008581890   -0.003143907
      9        6          -0.007051712   -0.008621880    0.003117933
     10        6           0.011490155    0.007827041    0.001183138
     11        7           0.007875419   -0.001138401    0.006697954
     12        6          -0.001159794    0.000217203   -0.001890779
     13        7          -0.003735576    0.001981656   -0.001366408
     14        6           0.002312675   -0.004084353    0.001143507
     15        6          -0.002917520    0.001206019   -0.000875950
     16        7           0.001226990   -0.000688187   -0.001499239
     17        1          -0.002615492   -0.003593056    0.001555659
     18        1           0.001689986    0.002684921    0.001526090
     19        1           0.004564078   -0.005232576    0.002094509
     20        1          -0.004597475   -0.001049845    0.000120608
     21        1           0.001188070   -0.001297955    0.001009433
     22        1           0.000580860    0.000380057    0.000466044
     23        1           0.001294839    0.003833259   -0.002810509
     24        1          -0.005764144   -0.002546940   -0.002200436
     25        1          -0.001608352   -0.000886467    0.000971482
     26        1           0.000396020   -0.001121818   -0.001443649
     27        1          -0.001006205   -0.000635614   -0.000488947
     28        1           0.000077886    0.000323951   -0.001761744
     29        1           0.002546510    0.002757387    0.002562564
     30        1          -0.004309954    0.002716019    0.000591299
 -------------------------------------------------------------------
 Cartesian Forces:  Max     0.015753132 RMS     0.004242021
 FormGI is forming the generalized inverse of G from B-inverse, IUseBI=4.

 GradGradGradGradGradGradGradGradGradGradGradGradGradGradGradGradGradGrad
 Berny optimization.
 Internal  Forces:  Max     0.017523426 RMS     0.003385644
 Search for a local minimum.
 Step number   1 out of a maximum of  160
 All quantities printed in internal units (Hartrees-Bohrs-Radians)
 Mixed Optimization -- RFO/linear search
 Second derivative matrix not updated -- analytic derivatives used.
 ITU=  0
     Eigenvalues ---    0.00019   0.00189   0.00307   0.00368   0.00406
     Eigenvalues ---    0.00437   0.00583   0.00740   0.00924   0.01451
     Eigenvalues ---    0.02036   0.02042   0.02350   0.02824   0.03577
     Eigenvalues ---    0.03719   0.04167   0.04194   0.04351   0.04496
     Eigenvalues ---    0.04611   0.04663   0.05267   0.05368   0.05434
     Eigenvalues ---    0.06169   0.06238   0.06305   0.07852   0.07877
     Eigenvalues ---    0.08384   0.10529   0.10986   0.11002   0.11821
     Eigenvalues ---    0.11951   0.12556   0.12756   0.15233   0.15468
     Eigenvalues ---    0.15921   0.17284   0.18149   0.19499   0.20551
     Eigenvalues ---    0.21825   0.22386   0.22663   0.23395   0.23552
     Eigenvalues ---    0.25113   0.25145   0.25371   0.27787   0.29922
     Eigenvalues ---    0.31665   0.32122   0.32796   0.33371   0.33707
     Eigenvalues ---    0.34112   0.34334   0.34646   0.34874   0.35366
     Eigenvalues ---    0.36513   0.37615   0.37692   0.38544   0.38593
     Eigenvalues ---    0.42708   0.42858   0.44940   0.45934   0.46432
     Eigenvalues ---    0.47052   0.47626   0.47725   0.49158   0.53488
     Eigenvalues ---    0.59782   0.67525   0.80931   0.91910
 RFO step:  Lambda=-4.47056956D-03 EMin= 1.94545526D-04
 Linear search not attempted -- first point.
 Iteration  1 RMS(Cart)=  0.06062393 RMS(Int)=  0.00125450
 Iteration  2 RMS(Cart)=  0.00195501 RMS(Int)=  0.00014069
 Iteration  3 RMS(Cart)=  0.00000298 RMS(Int)=  0.00014067
 Iteration  4 RMS(Cart)=  0.00000000 RMS(Int)=  0.00014067
 Variable       Old X    -DE/DX   Delta X   Delta X   Delta X     New X
                                 (Linear)    (Quad)   (Total)
    R1        2.32965   0.00972   0.00000   0.01161   0.01161   2.34126
    R2        2.55055   0.00901   0.00000   0.01363   0.01363   2.56418
    R3        2.87398   0.00333   0.00000   0.00732   0.00732   2.88130
    R4        2.74078   0.00775   0.00000   0.00742   0.00742   2.74820
    R5        1.90672   0.00439   0.00000   0.00921   0.00921   1.91593
    R6        2.86040   0.00636   0.00000   0.01297   0.01297   2.87337
    R7        2.94886   0.00734   0.00000   0.02938   0.02938   2.97824
    R8        2.07168   0.00021   0.00000   0.00023   0.00023   2.07191
    R9        2.54407   0.00191   0.00000  -0.00248  -0.00248   2.54159
   R10        2.27664   0.01752   0.00000   0.01928   0.01928   2.29592
   R11        1.82575   0.00686   0.00000   0.01199   0.01199   1.83774
   R12        2.82718   0.00239   0.00000  -0.00561  -0.00561   2.82157
   R13        2.05711   0.00386   0.00000   0.01233   0.01233   2.06943
   R14        2.05988   0.00183   0.00000   0.00586   0.00586   2.06574
   R15        2.57654   0.01450   0.00000   0.02667   0.02669   2.60322
   R16        2.59737   0.00556   0.00000   0.01373   0.01376   2.61113
   R17        2.61621  -0.00224   0.00000  -0.01212  -0.01214   2.60407
   R18        2.04190   0.00055   0.00000   0.00193   0.00193   2.04384
   R19        2.47725   0.00861   0.00000   0.01541   0.01538   2.49263
   R20        2.56551   0.00850   0.00000   0.01299   0.01299   2.57849
   R21        2.03195   0.00458   0.00000   0.01090   0.01090   2.04285
   R22        1.90530   0.00632   0.00000   0.01636   0.01636   1.92166
   R23        2.86562   0.00727   0.00000   0.02297   0.02297   2.88859
   R24        2.06736   0.00178   0.00000   0.00474   0.00474   2.07211
   R25        2.07115   0.00183   0.00000   0.00512   0.00512   2.07627
   R26        2.77011   0.00439   0.00000   0.00258   0.00258   2.77269
   R27        2.06605   0.00127   0.00000   0.00350   0.00350   2.06955
   R28        2.07521   0.00159   0.00000   0.00460   0.00460   2.07981
   R29        1.91624   0.00399   0.00000   0.00624   0.00624   1.92248
   R30        1.91277   0.00458   0.00000   0.00750   0.00750   1.92027
    A1        2.11827   0.00457   0.00000   0.00980   0.00980   2.12808
    A2        2.14245  -0.00228   0.00000  -0.00454  -0.00454   2.13792
    A3        2.02246  -0.00230   0.00000  -0.00527  -0.00527   2.01719
    A4        2.11989   0.00790   0.00000   0.01989   0.01979   2.13968
    A5        2.11691  -0.00492   0.00000  -0.01490  -0.01501   2.10190
    A6        2.02963  -0.00285   0.00000  -0.00076  -0.00084   2.02879
    A7        1.86488  -0.00207   0.00000   0.00436   0.00427   1.86915
    A8        1.97013   0.00281   0.00000   0.00748   0.00744   1.97757
    A9        1.89410   0.00099   0.00000   0.00981   0.00980   1.90391
   A10        1.94494   0.00032   0.00000   0.00593   0.00587   1.95081
   A11        1.86548   0.00044   0.00000   0.00428   0.00422   1.86970
   A12        1.92023  -0.00255   0.00000  -0.03080  -0.03077   1.88946
   A13        1.95090   0.00071   0.00000   0.00130   0.00130   1.95221
   A14        2.17878   0.00068   0.00000  -0.00041  -0.00042   2.17837
   A15        2.15350  -0.00139   0.00000  -0.00089  -0.00089   2.15260
   A16        1.85933   0.00428   0.00000   0.02131   0.02131   1.88064
   A17        1.96014   0.00920   0.00000   0.03093   0.03100   1.99114
   A18        1.89302  -0.00485   0.00000  -0.03519  -0.03545   1.85757
   A19        1.93728  -0.00258   0.00000  -0.01185  -0.01214   1.92514
   A20        1.91640  -0.00012   0.00000   0.01337   0.01371   1.93011
   A21        1.89127  -0.00370   0.00000   0.00062   0.00067   1.89195
   A22        1.86330   0.00173   0.00000   0.00109   0.00064   1.86393
   A23        2.30888   0.00077   0.00000   0.01445   0.01431   2.32318
   A24        2.13959   0.00027   0.00000  -0.00970  -0.00984   2.12975
   A25        1.83430  -0.00103   0.00000  -0.00402  -0.00406   1.83024
   A26        1.93059   0.00160   0.00000   0.00417   0.00418   1.93477
   A27        2.22954  -0.00023   0.00000  -0.00106  -0.00107   2.22847
   A28        2.12305  -0.00137   0.00000  -0.00309  -0.00311   2.11995
   A29        1.83262  -0.00029   0.00000   0.00176   0.00172   1.83434
   A30        1.95032   0.00173   0.00000   0.00210   0.00210   1.95242
   A31        2.21011  -0.00271   0.00000  -0.01634  -0.01634   2.19377
   A32        2.12275   0.00098   0.00000   0.01424   0.01425   2.13699
   A33        1.87689  -0.00200   0.00000  -0.00392  -0.00390   1.87300
   A34        2.17176  -0.00102   0.00000  -0.01684  -0.01688   2.15488
   A35        2.23397   0.00301   0.00000   0.02028   0.02020   2.25418
   A36        1.97076   0.00177   0.00000   0.00466   0.00466   1.97543
   A37        1.89537   0.00009   0.00000   0.00742   0.00743   1.90280
   A38        1.88266  -0.00067   0.00000  -0.00067  -0.00066   1.88200
   A39        1.91854  -0.00102   0.00000  -0.00704  -0.00707   1.91147
   A40        1.92296  -0.00049   0.00000  -0.00613  -0.00615   1.91682
   A41        1.87044   0.00026   0.00000   0.00195   0.00191   1.87235
   A42        1.92188   0.00236   0.00000   0.00866   0.00863   1.93051
   A43        1.89408  -0.00122   0.00000  -0.01106  -0.01105   1.88303
   A44        1.89979  -0.00020   0.00000   0.00253   0.00246   1.90225
   A45        1.88842  -0.00037   0.00000  -0.00106  -0.00103   1.88739
   A46        1.97694  -0.00071   0.00000   0.00428   0.00422   1.98116
   A47        1.88070   0.00005   0.00000  -0.00443  -0.00443   1.87627
   A48        1.87913   0.00356   0.00000   0.02808   0.02764   1.90676
   A49        1.90901   0.00246   0.00000   0.02091   0.02048   1.92949
   A50        1.85011  -0.00103   0.00000   0.01680   0.01591   1.86602
    D1       -0.07068  -0.00001   0.00000  -0.00863  -0.00870  -0.07938
    D2       -3.00932  -0.00044   0.00000  -0.03388  -0.03381  -3.04313
    D3        3.06807   0.00000   0.00000  -0.00972  -0.00979   3.05828
    D4        0.12943  -0.00042   0.00000  -0.03496  -0.03490   0.09453
    D5       -0.20200   0.00007   0.00000   0.00747   0.00748  -0.19452
    D6       -2.33447   0.00012   0.00000   0.00806   0.00805  -2.32642
    D7        1.92711   0.00012   0.00000   0.00226   0.00226   1.92937
    D8        2.94247   0.00004   0.00000   0.00854   0.00855   2.95103
    D9        0.81001   0.00010   0.00000   0.00913   0.00912   0.81913
   D10       -1.21160   0.00010   0.00000   0.00333   0.00333  -1.20827
   D11       -2.90577   0.00088   0.00000   0.04275   0.04269  -2.86307
   D12        1.23346   0.00014   0.00000   0.02752   0.02745   1.26090
   D13       -0.89984   0.00081   0.00000   0.05476   0.05473  -0.84511
   D14        0.04251   0.00097   0.00000   0.06506   0.06511   0.10762
   D15       -2.10145   0.00024   0.00000   0.04983   0.04987  -2.05158
   D16        2.04844   0.00091   0.00000   0.07707   0.07715   2.12558
   D17        3.12129  -0.00103   0.00000  -0.04368  -0.04368   3.07761
   D18       -0.02173  -0.00082   0.00000  -0.04624  -0.04624  -0.06797
   D19       -1.00231   0.00127   0.00000  -0.02772  -0.02771  -1.03002
   D20        2.13786   0.00148   0.00000  -0.03028  -0.03026   2.10760
   D21        1.09619  -0.00138   0.00000  -0.05918  -0.05920   1.03699
   D22       -2.04683  -0.00117   0.00000  -0.06174  -0.06176  -2.10859
   D23       -2.16908  -0.00201   0.00000   0.02964   0.02975  -2.13933
   D24       -0.04790   0.00043   0.00000   0.04221   0.04196  -0.00594
   D25        1.99388  -0.00185   0.00000   0.01564   0.01582   2.00970
   D26        2.01544  -0.00153   0.00000   0.01451   0.01461   2.03004
   D27       -2.14657   0.00091   0.00000   0.02708   0.02681  -2.11975
   D28       -0.10479  -0.00137   0.00000   0.00051   0.00068  -0.10411
   D29       -0.05051  -0.00064   0.00000   0.02527   0.02536  -0.02515
   D30        2.07067   0.00181   0.00000   0.03785   0.03757   2.10824
   D31       -2.17074  -0.00048   0.00000   0.01127   0.01143  -2.15931
   D32       -3.14043   0.00011   0.00000  -0.00644  -0.00644   3.13632
   D33        0.00256  -0.00010   0.00000  -0.00392  -0.00392  -0.00136
   D34       -1.97925  -0.00065   0.00000  -0.06480  -0.06478  -2.04403
   D35        1.12612  -0.00010   0.00000  -0.03370  -0.03361   1.09251
   D36        2.19617  -0.00052   0.00000  -0.04994  -0.05011   2.14606
   D37       -0.98164   0.00003   0.00000  -0.01884  -0.01894  -1.00058
   D38        0.16708  -0.00043   0.00000  -0.05891  -0.05887   0.10821
   D39       -3.01073   0.00011   0.00000  -0.02781  -0.02770  -3.03843
   D40        3.12004   0.00023   0.00000   0.02072   0.02095   3.14099
   D41       -0.01712   0.00007   0.00000   0.01323   0.01336  -0.00376
   D42        0.01005  -0.00026   0.00000  -0.00626  -0.00623   0.00383
   D43       -3.12710  -0.00042   0.00000  -0.01375  -0.01382  -3.14092
   D44       -3.12401   0.00003   0.00000  -0.01455  -0.01435  -3.13835
   D45       -0.01570  -0.00036   0.00000  -0.02821  -0.02783  -0.04353
   D46       -0.01016   0.00048   0.00000   0.00967   0.00959  -0.00058
   D47        3.09814   0.00008   0.00000  -0.00399  -0.00389   3.09425
   D48       -0.00596  -0.00001   0.00000   0.00036   0.00035  -0.00561
   D49        3.13152   0.00014   0.00000   0.00732   0.00740   3.13891
   D50       -0.00076   0.00032   0.00000   0.00600   0.00600   0.00524
   D51        3.14146   0.00011   0.00000   0.00380   0.00393  -3.13779
   D52        0.00704  -0.00049   0.00000  -0.01009  -0.01006  -0.00302
   D53       -3.09972   0.00003   0.00000   0.00516   0.00542  -3.09430
   D54       -3.13515  -0.00029   0.00000  -0.00804  -0.00808   3.13995
   D55        0.04128   0.00023   0.00000   0.00721   0.00739   0.04868
   D56       -1.18826  -0.00010   0.00000   0.02345   0.02344  -1.16482
   D57        3.03089  -0.00028   0.00000   0.02634   0.02635   3.05724
   D58        0.98858   0.00045   0.00000   0.03635   0.03636   1.02494
   D59        0.93115   0.00050   0.00000   0.03111   0.03108   0.96223
   D60       -1.13288   0.00032   0.00000   0.03399   0.03399  -1.09889
   D61        3.10799   0.00105   0.00000   0.04401   0.04400  -3.13120
   D62        2.98864  -0.00009   0.00000   0.02551   0.02550   3.01414
   D63        0.92460  -0.00027   0.00000   0.02839   0.02842   0.95302
   D64       -1.11771   0.00046   0.00000   0.03840   0.03842  -1.07929
   D65        1.24247  -0.00017   0.00000   0.03058   0.03035   1.27282
   D66       -3.03787   0.00178   0.00000   0.07609   0.07635  -2.96152
   D67       -2.97321  -0.00052   0.00000   0.02153   0.02129  -2.95191
   D68       -0.97036   0.00143   0.00000   0.06704   0.06729  -0.90307
   D69       -0.88936  -0.00116   0.00000   0.01791   0.01765  -0.87171
   D70        1.11349   0.00079   0.00000   0.06342   0.06365   1.17713
         Item               Value     Threshold  Converged?
 Maximum Force            0.017523     0.000450     NO 
 RMS     Force            0.003386     0.000300     NO 
 Maximum Displacement     0.226274     0.001800     NO 
 RMS     Displacement     0.060635     0.001200     NO 
 Predicted change in Energy=-2.444785D-03
 GradGradGradGradGradGradGradGradGradGradGradGradGradGradGradGradGradGrad

                          Input orientation:                          
 ---------------------------------------------------------------------
 Center     Atomic      Atomic             Coordinates (Angstroms)
 Number     Number       Type             X           Y           Z
 ---------------------------------------------------------------------
      1          8           0       -0.841748    0.570133   -1.014936
      2          6           0       -1.239517   -0.546066   -0.653187
      3          7           0       -0.437593   -1.410983    0.017658
      4          6           0        0.966938   -1.136877    0.276688
      5          6           0        1.613948   -2.454762    0.672348
      6          8           0        2.939685   -2.325629    0.858470
      7          8           0        1.019301   -3.504996    0.812026
      8          6           0        1.193873   -0.023196    1.368498
      9          6           0        2.001963    1.139323    0.894248
     10          6           0        3.221832    1.655080    1.273199
     11          7           0        3.543804    2.760328    0.515778
     12          6           0        2.533942    2.910601   -0.319369
     13          7           0        1.573797    1.959356   -0.132130
     14          6           0       -2.653654   -1.042251   -0.933874
     15          6           0       -3.585406    0.054992   -1.448117
     16          7           0       -3.826241    1.058704   -0.405349
     17          1           0       -0.757357   -2.349790    0.228169
     18          1           0        1.445626   -0.808619   -0.653478
     19          1           0        3.289685   -3.196675    1.112473
     20          1           0        0.199049    0.304255    1.688404
     21          1           0        1.684374   -0.448567    2.247945
     22          1           0        3.880774    1.291622    2.050017
     23          1           0        2.446418    3.682852   -1.070765
     24          1           0        0.711717    1.806656   -0.649418
     25          1           0       -3.069156   -1.475401   -0.016225
     26          1           0       -2.585651   -1.850816   -1.674666
     27          1           0       -4.544085   -0.409507   -1.702181
     28          1           0       -3.165862    0.476104   -2.374365
     29          1           0       -2.988904    1.623541   -0.283716
     30          1           0       -4.571415    1.690880   -0.684019
 ---------------------------------------------------------------------
                    Distance matrix (angstroms):
                    1          2          3          4          5
     1  O    0.000000
     2  C    1.238943   0.000000
     3  N    2.270332   1.356907   0.000000
     4  C    2.802413   2.466205   1.454282   0.000000
     5  C    4.245864   3.680004   2.393098   1.520523   0.000000
     6  O    5.118039   4.787241   3.598548   2.375570   1.344952
     7  O    4.838178   4.000547   2.671789   2.428439   1.214951
     8  C    3.190071   3.206555   2.532273   1.576019   2.563904
     9  C    3.472125   3.967654   3.636468   2.575605   3.621774
    10  C    4.788043   5.334757   4.936448   3.724595   4.453888
    11  N    5.135475   5.931178   5.787874   4.678206   5.562915
    12  C    4.166160   5.128253   5.255445   4.380966   5.533264
    13  N    2.923037   3.803074   3.927761   3.181519   4.487007
    14  C    2.426799   1.524719   2.439734   3.818782   4.773632
    15  C    2.825009   2.548800   3.769125   5.011919   6.150489
    16  N    3.085044   3.054154   4.214407   5.316043   6.565176
    17  H    3.174646   2.064628   1.013865   2.108720   2.414829
    18  H    2.695123   2.697948   2.088009   1.096406   2.120362
    19  H    5.981927   5.536872   4.275502   3.215037   1.884738
    20  H    2.908951   2.876729   2.477650   2.158577   3.262895
    21  H    4.250345   4.120099   3.225395   2.207791   2.551918
    22  H    5.675976   6.074684   5.484784   4.187212   4.590410
    23  H    4.528154   5.625321   5.953935   5.218647   6.434420
    24  H    2.018873   3.056571   3.481251   3.096320   4.552008
    25  H    3.184803   2.148712   2.632569   4.060843   4.833709
    26  H    3.055721   2.134916   2.769759   4.115625   4.848696
    27  H    3.890925   3.469756   4.563340   5.900539   6.909618
    28  H    2.694140   2.778145   4.089782   5.168154   6.381145
    29  H    2.500926   2.811416   3.975972   4.856196   6.223573
    30  H    3.908452   4.013281   5.215591   6.292259   7.568673
                    6          7          8          9         10
     6  O    0.000000
     7  O    2.254094   0.000000
     8  C    2.934141   3.530308   0.000000
     9  C    3.589776   4.747851   1.493108   0.000000
    10  C    4.012188   5.629406   2.634067   1.377567   0.000000
    11  N    5.133163   6.761299   3.741298   2.268958   1.378015
    12  C    5.382382   6.688354   3.640308   2.212079   2.141447
    13  N    4.605218   5.572974   2.515300   1.381749   2.187133
    14  C    6.012071   4.754354   4.598136   5.456744   6.831405
    15  C    7.318778   6.243804   5.548058   6.154765   7.503621
    16  N    7.669987   6.766731   5.433101   5.971885   7.269699
    17  H    3.750464   2.198159   3.243561   4.497934   5.741516
    18  H    2.611421   3.098371   2.183726   2.549401   3.596777
    19  H    0.972492   2.310838   3.811686   4.528436   4.854891
    20  H    3.887951   3.993901   1.095097   2.139748   3.336816
    21  H    2.651378   3.441794   1.093142   2.110629   2.781949
    22  H    3.923001   5.720856   3.068004   2.211092   1.081552
    23  H    6.329858   7.566157   4.610170   3.244743   3.194885
    24  H    4.930857   5.517615   2.766373   2.119663   3.165455
    25  H    6.131406   4.639045   4.711663   5.777714   7.144161
    26  H    6.096848   4.681413   5.185156   6.048673   7.396490
    27  H    8.138505   6.845039   6.519392   7.210482   8.568831
    28  H    7.455107   6.596805   5.767635   6.150618   7.449653
    29  H    7.214478   6.600626   4.789278   5.150807   6.402985
    30  H    8.656110   7.777621   6.355268   6.782657   8.035339
                   11         12         13         14         15
    11  N    0.000000
    12  C    1.319042   0.000000
    13  N    2.223121   1.364480   0.000000
    14  C    7.414147   6.550863   5.246311   0.000000
    15  C    7.874094   6.846532   5.654715   1.528578   0.000000
    16  N    7.619814   6.624866   5.481444   2.463395   1.467244
    17  H    6.685507   6.229298   4.912517   2.579912   4.073177
    18  H    4.301965   3.889558   2.819560   4.115495   5.166097
    19  H    5.992204   6.318239   5.574761   6.644724   8.024764
    20  H    4.312161   4.034343   2.818445   4.102114   4.921585
    21  H    4.093274   4.312410   3.387488   5.412478   6.456394
    22  H    2.150474   3.170022   3.244962   7.553100   8.337268
    23  H    2.138323   1.081031   2.147777   6.953853   7.048877
    24  H    3.207474   2.155952   1.016900   4.418474   4.708664
    25  H    7.871192   7.122051   5.776503   1.096512   2.158455
    26  H    7.976898   7.121668   5.847891   1.098715   2.164010
    27  H    8.965553   7.939380   6.745743   2.136443   1.095159
    28  H    7.654425   6.529743   5.449038   2.154710   1.100586
    29  H    6.678903   5.670946   4.577553   2.764335   2.042545
    30  H    8.272848   7.218504   6.175783   3.348170   2.057229
                   16         17         18         19         20
    16  N    0.000000
    17  H    4.630036   0.000000
    18  H    5.598308   2.829424   0.000000
    19  H    8.429024   4.228209   3.495991   0.000000
    20  H    4.599561   3.176626   2.876953   4.705341   0.000000
    21  H    6.299104   3.695428   2.933411   3.379115   1.756706
    22  H    8.092043   6.171812   4.201172   4.623114   3.828936
    23  H    6.831924   6.952997   4.620501   7.266741   4.906995
    24  H    4.605656   4.494928   2.716304   5.897754   2.825854
    25  H    2.673253   2.483686   4.608030   6.683682   4.093177
[...]
 08521,-0.00046611,-0.00037388,0.00060518,0.00004613,0.00028687,-0.0004
 3691,-0.00018496,-0.00019485,-0.00016537,0.00008224,0.00044911,-0.0009
 8456,-0.00014468,0.00004767,-0.00000656,0.00004658,-0.00018913,-0.0000
 4564,0.00025184,-0.00009553,-0.00009500,-0.00019811,0.00052789,0.00133
 351,0.00075281,0.00072503,-0.00052351,0.00002866,0.06498896,0.05902813
 ,-0.00110372,0.00147810,-0.00621607,0.00151647,-0.00283218,0.00248182,
 -0.00069199,0.00127465,-0.00139201,0.00056608,0.00036338,0.00065033,0.
 00023165,0.00026725,-0.00022601,-0.00012205,-0.00006610,-0.00009139,-0
 .00024228,-0.00016300,0.00006595,0.00062944,-0.00029327,0.00041858,-0.
 01504793,-0.01131351,-0.00820294,-0.00194557,0.00402110,-0.00293886,0.
 00316306,0.00504796,0.00443237,0.00900663,-0.00757002,0.00643466,-0.17
 937078,-0.01256990,-0.16104436,-0.00013883,0.00065853,0.00023487,-0.00
 025422,0.00017371,0.00020083,0.00009751,-0.00011706,-0.00029867,-0.000
 12774,-0.00003969,-0.00000345,0.00007446,-0.00013638,0.00015417,-0.000
 01514,0.00002430,0.00003645,0.00039128,0.00042030,-0.00047492,0.000073
 39,-0.00048380,0.00003781,-0.00110164,0.00008864,0.00081287,0.00025670
 ,-0.00024017,-0.00073573,0.18381092,0.02186275,0.16552897,-0.00577125,
 -0.00372205,-0.00300672,-0.00703836,-0.01387845,0.02853221,0.00049531,
 0.00059014,-0.00223016,0.00040001,-0.00008203,-0.00027402,-0.00009494,
 -0.00021774,0.00004550,0.00012523,0.00002512,0.00000792,0.00014315,0.0
 0017362,-0.00005506,-0.00010848,0.00002245,-0.00001524,0.00008610,-0.0
 0009586,0.00015606,-0.00007459,-0.00004077,-0.00001882,-0.00014606,-0.
 00000856,-0.00011128,0.00014832,0.00021085,-0.00008172,-0.00034047,-0.
 00028732,-0.00006532,-0.08471700,-0.04415288,0.07725094,0.00728598,0.0
 1144440,-0.01887051,0.00046056,-0.00181385,0.00016593,-0.00173537,0.00
 059845,-0.00018061,0.00015056,-0.00004873,0.00007763,-0.00000957,-0.00
 000445,0.00000147,-0.00001592,-0.00000222,0.00005105,-0.00003419,-0.00
 000388,-0.00003428,-0.00001332,-0.00000288,-0.00000756,-0.00000281,-0.
 00000214,0.00000232,0.00050956,0.00042374,0.00010493,0.09258299,-0.003
 44590,-0.00073168,-0.00090298,-0.00371955,-0.00803118,0.00947632,0.001
 73822,0.00013646,-0.00005442,-0.00010890,-0.00016740,-0.00070609,0.000
 00241,0.00010979,-0.00004660,0.00000650,-0.00003412,0.00001683,-0.0000
 1614,-0.00006742,-0.00000293,-0.00012312,0.00000126,0.00003274,0.00002
 655,-0.00005739,0.00004743,-0.00003246,-0.00002199,-0.00001758,-0.0000
 5259,0.00001404,-0.00004800,0.00005741,0.00007957,-0.00003149,-0.00012
 618,-0.00012853,-0.00003492,-0.04459178,-0.10267761,0.09887373,-0.0082
 1270,-0.01195161,0.02126914,-0.00138211,0.00230064,-0.00073571,0.00021
 042,0.00082383,0.00042163,0.00020874,-0.00002852,0.00005786,0.00000141
 ,0.00000189,0.00000726,-0.00001374,-0.00001520,-0.00000095,-0.00000735
 ,-0.00000029,-0.00000745,-0.00000728,-0.00000042,-0.00000225,0.0000010
 0,0.00000190,0.00000118,0.00019189,0.00017822,0.00008412,0.04785416,0.
 11096279,-0.00134956,-0.00218667,-0.00009055,-0.00436286,-0.00258260,0
 .00567957,-0.00072954,-0.00023563,-0.00001484,0.00033649,-0.00018717,0
 .00055822,0.00021175,0.00018649,-0.00004012,-0.00009834,-0.00004016,0.
 00000977,-0.00012159,-0.00012689,-0.00000388,-0.00002400,0.00003639,0.
 00002453,0.00000370,0.00000258,-0.00002555,0.00001130,0.00000214,0.000
 00139,0.00000326,-0.00001366,0.00002083,-0.00002513,-0.00001812,-0.000
 00888,-0.00002306,-0.00003103,-0.00002432,0.07799963,0.10068819,-0.215
 24964,0.00257152,0.00435828,-0.00909231,0.00011546,-0.00101435,0.00183
 319,0.00026036,-0.00030586,0.00022609,-0.00016113,-0.00004804,-0.00002
 127,0.00002149,-0.00000151,0.00000313,0.00000450,-0.00000872,-0.000012
 13,0.00000392,-0.00000684,-0.00000814,0.00000133,0.00000140,0.00000317
 ,-0.00000421,-0.00000424,0.00000174,0.00000666,0.00003796,-0.00000960,
 -0.08092233,-0.11083644,0.23362749,-0.00331858,0.00027700,0.00314444,0
 .00330712,-0.02203885,-0.02626908,-0.00148714,0.00111162,0.00094537,-0
 .00032631,0.00068956,0.00091525,-0.00008969,-0.00041423,0.00015736,-0.
 00014831,0.00016072,-0.00007272,-0.00001773,0.00020755,-0.00001323,0.0
 0013784,0.00015967,0.00011512,0.00002386,-0.00002231,0.00001900,0.0000
 1440,-0.00001099,0.00000785,-0.00006121,-0.00004402,0.00000298,0.00003
 211,0.00002066,-0.00001273,-0.00008419,-0.00003080,-0.00012663,-0.0463
 9896,0.00648280,0.00601017,0.00019534,0.01067519,0.01698737,-0.0034541
 0,0.00405287,-0.00097568,-0.00019619,-0.00016992,-0.00064522,-0.000226
 74,0.00004169,-0.00015553,-0.00001900,-0.00000387,-0.00002848,0.000038
 03,0.00002209,0.00004678,-0.00002479,-0.00000711,-0.00000990,-0.000001
 51,0.00000208,-0.00000008,-0.00000387,-0.00000340,0.00000332,0.0001091
 6,0.00019746,0.00016681,-0.00061794,0.00851029,0.00849146,0.05162726,-
 0.00244577,0.00042022,0.00143369,0.00008009,-0.00895143,-0.00857395,0.
 00076017,0.00021022,0.00100347,-0.00052179,0.00012707,0.00002153,-0.00
 002731,0.00004327,-0.00003237,-0.00000807,-0.00000398,0.00001367,-0.00
 000297,-0.00004096,0.00000452,0.00012912,-0.00001107,0.00003605,0.0000
 2323,-0.00002788,0.00006676,-0.00001827,-0.00000435,-0.00000896,-0.000
 02561,0.00001351,-0.00002331,0.00003900,0.00004024,-0.00001402,-0.0000
 6621,-0.00003142,-0.00004030,0.00945248,-0.15686894,-0.12692949,-0.000
 63947,-0.01372625,-0.01953575,0.00499191,-0.00297476,0.00156807,0.0001
 4098,0.00009060,-0.00001126,0.00004840,0.00000196,-0.00005561,0.000000
 04,-0.00000069,-0.00000490,0.00000982,-0.00002772,-0.00001463,0.000013
 70,0.00002687,0.00002439,-0.00000208,-0.00000247,-0.00000203,0.0000033
 2,-0.00000264,-0.00000412,0.00009993,0.00007954,0.00006954,-0.00009208
 ,0.01133000,0.01150029,-0.01084598,0.17031556,0.00005178,0.00067734,-0
 .00030624,0.00053934,-0.00349063,-0.00472334,-0.00128137,0.00035953,0.
 00093620,-0.00036571,0.00031279,0.00029166,-0.00014624,-0.00035983,0.0
 0007987,0.00001701,0.00009841,-0.00002879,0.00008275,0.00022261,0.0000
 2389,0.00011653,0.00006836,0.00001043,0.00000792,0.00000840,0.00002929
 ,0.00000195,0.00000396,0.00000309,-0.00001809,-0.00001188,-0.00000163,
 0.00001209,0.00000819,-0.00000058,-0.00004065,-0.00001189,-0.00001223,
 0.01020535,-0.12705717,-0.18989677,-0.00023025,0.00704362,0.00647669,-
 0.00059636,0.00055766,0.00002607,-0.00008776,-0.00041189,-0.00090470,-
 0.00010458,0.00001605,-0.00007795,-0.00001896,-0.00000531,-0.00001793,
 0.00001227,0.00000940,0.00000541,-0.00000141,-0.00000504,-0.00000769,0
 .00000043,-0.00000080,-0.00000259,0.00000173,-0.00000115,-0.00000109,0
 .00003345,0.00002212,-0.00000124,0.00052529,-0.01733049,-0.01811517,-0
 .00925562,0.13971804,0.20480052,-0.00008331,0.00034521,-0.00041639,-0.
 00002814,0.00331128,-0.00033112,-0.00163423,-0.00025418,-0.00051699,0.
 00029326,0.00027637,-0.00022003,0.00011154,-0.00032517,0.00005452,-0.0
 0018241,0.00012419,-0.00004358,-0.00008289,0.00016822,-0.00005831,-0.0
 0005906,0.00005804,0.00001239,0.00003957,-0.00003234,0.00001790,0.0000
 0782,-0.00000749,0.00000022,-0.00007696,-0.00005068,-0.00001051,0.0000
 5288,0.00005067,-0.00000584,-0.00011527,-0.00005113,-0.00006391,-0.018
 37174,-0.00750757,-0.00238596,-0.26302361,-0.09395955,-0.04107212,0.00
 544180,0.00223447,0.00105880,-0.00005686,-0.00015184,0.00014145,-0.000
 00842,-0.00001331,0.00000540,0.00000845,-0.00001199,0.00000441,-0.0000
 0694,0.00000390,0.00003580,-0.00002471,-0.00002091,-0.00002654,-0.0000
 0187,0.00000309,-0.00000156,0.00000016,-0.00000079,0.00000233,0.000153
 85,0.00014090,0.00005583,0.00089876,-0.00020516,-0.00036052,0.00022940
 ,-0.00007148,0.00052540,0.28264403,-0.00048349,0.00130963,-0.00052457,
 0.00160877,-0.00596975,0.00195855,0.00182575,0.00087070,0.00037925,-0.
 00004130,-0.00033028,0.00034014,0.00002949,0.00020048,-0.00002041,0.00
 010149,-0.00008682,0.00003026,0.00002604,-0.00007146,0.00002686,0.0000
 7196,-0.00005790,-0.00002199,-0.00000115,-0.00000869,0.00004967,-0.000
 01839,0.00000212,-0.00000400,-0.00000164,0.00002404,-0.00002407,0.0000
 3333,0.00002417,0.00000659,-0.00001367,0.00002680,0.00001710,0.0248682
 4,0.00902303,0.00457202,-0.09105492,-0.08716213,-0.01624781,-0.0214295
 4,-0.01365908,-0.00836638,0.00004586,0.00008889,-0.00011860,-0.0000009
 5,0.00000352,-0.00000957,0.00001086,-0.00000276,-0.00000304,0.00000193
 ,-0.00000628,0.00000079,0.00000682,0.00002452,0.00001903,-0.00000041,-
 0.00000243,-0.00000385,0.00000785,0.00000287,-0.00000544,0.00001113,-0
 .00008573,-0.00002199,-0.00054663,0.00098604,-0.00015368,-0.00056420,0
 .00107344,-0.00033295,0.09878824,0.10101702,0.00060246,-0.00076767,0.0
 0084871,0.00020289,0.00294654,-0.00012147,-0.00055724,-0.00031659,-0.0
 0011692,-0.00002738,0.00003574,-0.00016064,-0.00003559,-0.00006893,0.0
 0001784,0.00000335,0.00002136,-0.00000263,0.00002089,0.00002841,-0.000
 01215,-0.00001116,-0.00000277,-0.00003075,-0.00000103,0.00000541,-0.00
 000586,0.00000347,0.00000054,0.00000582,0.00000237,0.00000008,0.000006
 46,-0.00000332,0.00000045,0.00000323,-0.00000430,0.00002642,0.00002114
 ,-0.01016071,-0.00214638,-0.00229757,-0.03372750,-0.01546365,-0.057630
 16,-0.02538223,-0.01463525,-0.00815704,-0.00005414,-0.00005189,0.00006
 278,0.00000368,0.00000141,0.00000791,-0.00000518,-0.00000012,0.,-0.000
 00776,-0.00000954,0.00001108,-0.00000848,-0.00000418,-0.00000183,0.000
 00155,-0.00000085,-0.00000098,0.00000146,-0.00000381,-0.00000384,-0.00
 001764,-0.00005463,-0.00006007,-0.00016320,-0.00058297,0.00012192,0.00
 063771,-0.00006764,0.00032630,0.04404011,0.02441737,0.06365596,-0.0007
 0257,-0.00073670,0.00035064,0.00088180,0.00102493,-0.00136680,0.000119
 19,-0.00064230,0.00049359,-0.00016745,-0.00008707,0.00009803,0.0000029
 8,0.00013104,-0.00002288,0.00001113,-0.00003852,0.00000873,-0.00001172
 ,-0.00009224,0.00002213,0.00000138,0.00000027,-0.00000054,-0.00002897,
 0.00003666,-0.00005236,0.00001499,0.00000618,0.00000548,0.00005593,0.0
 0001307,0.00003091,-0.00006499,-0.00006283,0.00000968,0.00010037,0.000
 03324,0.00002389,0.00658521,0.01160036,-0.01784181,-0.08010205,-0.0386
 2716,0.06840535,0.00234813,0.00172555,0.00422501,0.00036574,-0.0000427
 8,0.00006219,-0.00004290,0.00001411,-0.00002463,-0.00000098,0.00000488
 ,0.00000119,-0.00000286,0.00000440,-0.00002277,0.00000944,-0.00000117,
 0.00000660,0.00000274,0.00000107,0.00000363,-0.00000387,-0.00000143,0.
 00000182,-0.00013057,-0.00005868,-0.00003286,-0.00251466,0.00325344,-0
 .00184271,0.00087203,-0.00071645,0.00037333,-0.00891578,-0.01360594,0.
 02420156,0.08121990,0.00023288,0.00139093,-0.00100286,-0.00202707,-0.0
 0143833,0.00013404,0.00044815,0.00016395,0.00011451,-0.00013628,-0.000
 02123,-0.00008775,-0.00015106,-0.00000352,0.00000231,0.00012895,-0.000
 02262,0.00001500,0.00010941,0.00001660,0.00000288,0.00004677,-0.000032
 01,-0.00002058,-0.00000800,0.00001254,0.00001023,-0.00000553,0.0000029
 6,0.00000274,0.00002569,0.00001990,-0.00000327,-0.00000977,-0.00000659
 ,-0.00000123,0.00003585,0.00001885,0.00002760,-0.00700541,-0.01289455,
 0.02153126,-0.03727799,-0.09962897,0.09172491,0.00918148,0.00691564,-0
 .02840579,-0.00027186,0.00021435,-0.00007036,0.00006145,0.00002567,0.0
 0000822,-0.00001307,0.00000346,-0.00000111,0.00000442,-0.00001210,-0.0
 0000541,0.00000542,0.00001013,0.00001184,0.00000054,-0.00000228,-0.000
 00042,-0.00000195,0.00000150,-0.00000014,-0.00006055,-0.00003536,-0.00
 002388,0.00390241,-0.00330412,0.00119363,-0.00048076,0.00025781,-0.000
 26191,-0.00364762,-0.00491586,0.00983973,0.03620558,0.11058013,0.00041
 741,-0.00157144,0.00176652,0.00166897,0.00230833,-0.00121637,0.0000005
 5,-0.00060187,0.00044051,-0.00009672,-0.00003938,-0.00007095,0.0000095
 1,0.00006796,-0.00001783,-0.00001168,-0.00001152,0.00001669,-0.0000085
 5,-0.00005791,0.00003831,0.00005766,-0.00001328,-0.00004925,-0.0000175
 8,0.00004106,-0.00002105,0.00001806,0.00001409,0.00001634,0.00003182,-
 0.00000645,0.00004294,-0.00005122,-0.00003368,-0.00000292,0.00003675,0
 .00005295,0.00005062,0.00208016,0.00645770,-0.00714504,0.06477557,0.09
 211671,-0.21507186,0.00924069,-0.00344302,-0.02904712,0.00011975,-0.00
 013653,0.00001249,-0.00001829,0.00000521,0.00000368,0.00000312,-0.0000
 0131,-0.00001019,-0.00001004,-0.00001023,-0.00000217,0.00000502,0.0000
 0025,0.00001187,0.00000830,-0.00000369,0.00000049,-0.00000243,-0.00001
 283,-0.00000637,-0.00008923,-0.00008166,-0.00012611,-0.00081028,0.0010
 5601,0.00064378,-0.00041896,0.00046105,0.00037350,-0.00110711,-0.00193
 463,0.00609711,-0.07636042,-0.09478828,0.24242585,-0.00102274,-0.00223
 225,0.00005777,0.00051124,0.00398085,-0.00111261,0.00023459,-0.0010056
 5,0.00073917,-0.00034048,-0.00005091,-0.00003001,-0.00019419,0.0002512
 4,-0.00007329,0.00015928,-0.00009080,0.00002964,0.00008870,-0.00017192
 ,0.00006300,-0.00001462,-0.00002899,0.00003010,-0.00012378,0.00009493,
 -0.00014798,0.00003426,0.00003046,0.00000860,0.00015661,0.00007415,0.0
 0008443,-0.00017895,-0.00019151,0.00001421,0.00026965,0.00002041,0.000
 04807,0.00054847,-0.00015885,-0.00020318,0.00473848,0.00224417,0.00232
 771,-0.30143747,-0.16634783,-0.01933664,0.00010041,0.00008679,0.000076
 37,0.00000539,0.00003559,-0.00001944,-0.00002282,0.00001580,-0.0000036
 3,0.00000708,0.00003480,-0.00010728,0.00005215,-0.00000970,0.00001297,
 0.00000826,-0.00000141,0.00000523,0.00000254,0.00000108,-0.00000323,-0
 .00044834,-0.00006215,0.00006370,-0.00009964,0.00001373,-0.00001992,-0
 .00022810,-0.00007578,0.00002777,0.00167316,0.00106109,0.00081703,0.00
 053801,0.00103913,0.00079821,0.31938145,-0.00093148,0.00211157,0.00058
 489,0.00073556,-0.00399371,0.00093474,-0.00025910,0.00070892,-0.000542
 97,0.00037998,0.00003410,0.00000366,0.00024719,-0.00020943,0.00004966,
 -0.00019557,0.00008563,-0.00003282,-0.00012836,0.00014125,-0.00004546,
 0.00007791,0.00006372,-0.00005277,0.00007127,-0.00000168,0.00002966,0.
 00001982,-0.00000122,0.00001539,-0.00007880,-0.00011395,0.00000711,0.0
 0001131,0.00004447,-0.00003524,-0.00011222,-0.00012371,-0.00009781,-0.
 00090612,-0.00047519,-0.00050129,-0.02150088,-0.01392639,0.00344458,-0
 .18742546,-0.18588370,-0.03271602,-0.00007676,-0.00011643,-0.00005254,
 -0.00000278,-0.00002505,0.00002355,0.00002500,-0.00001461,0.00000351,-
 0.00001434,0.00000916,0.00010732,-0.00005012,-0.00000559,-0.00001027,-
 0.00000111,0.00000458,0.00000560,-0.00002695,-0.00000467,0.00002286,0.
 00021216,0.00036450,0.00006579,-0.00006074,-0.00008670,-0.00010091,0.0
 0051760,0.00010791,-0.00001313,0.00131500,-0.00258115,-0.00352142,0.00
 083051,0.00172979,0.00001944,0.18406629,0.18849297,-0.00068450,0.00170
 042,-0.00123445,-0.00038241,-0.00200835,0.00213827,-0.00019852,0.00076
 395,-0.00093721,0.00022274,0.00007340,0.00013726,0.00002267,0.00007367
 ,-0.00003667,-0.00000376,-0.00002069,-0.00001714,-0.00004217,-0.000030
 33,-0.00001249,-0.00023638,0.00003081,0.00017506,-0.00003183,-0.000062
 40,-0.00003046,-0.00003022,-0.00002744,-0.00004728,-0.00001351,0.00004
 833,-0.00005338,0.00003383,-0.00000382,0.00001068,0.00002105,-0.000090
 12,-0.00008059,0.00053302,0.00082259,0.00069907,-0.02660928,-0.0211961
 9,-0.00755929,0.01982595,-0.00376897,-0.02080609,-0.00006452,0.0000661
 3,0.00000061,0.00001197,-0.00003944,0.00000309,-0.00000780,0.00001017,
 0.00001187,0.00002059,0.00008753,-0.00008254,0.00003387,-0.00002486,-0
 .00003785,-0.00001313,0.00000594,0.00000103,0.00001224,0.00002126,0.00
 000531,0.00013859,0.00008178,0.00030098,0.00011387,0.00017702,-0.00011
 724,-0.00007415,0.00004324,-0.00003821,0.00090802,-0.00441732,-0.00410
 704,-0.00145578,0.00055534,0.00137491,0.01449132,0.02883523,0.03320349
 ,-0.00027397,0.00074803,0.00029554,-0.00019943,-0.00102373,0.00035589,
 0.00010037,0.00016331,-0.00014873,0.00005004,-0.00001603,-0.00000036,0
 .00001501,0.00002099,-0.00000996,-0.00000391,-0.00000401,0.00000280,-0
 .00000807,-0.00000906,0.00000938,0.00002266,0.00000801,-0.00001252,0.0
 0000923,0.00000970,-0.00000018,0.00000270,-0.00000196,0.00000458,0.000
 00228,-0.00002160,0.00000928,-0.00001544,0.00000402,-0.00001896,0.0000
 0257,-0.00001804,0.00000128,0.00122681,-0.00072753,0.00070765,0.000068
 12,-0.00065471,-0.00281017,-0.29183154,0.16643676,-0.04380532,-0.00002
 853,0.00001977,-0.00004528,0.00000800,-0.00000493,0.00000864,0.0000002
 2,0.00000060,-0.00000206,-0.00000257,-0.00000314,0.00001619,-0.0000050
 8,0.00000064,0.00000283,0.00000058,-0.00000073,0.00000332,-0.00001242,
 -0.00000314,0.00000751,0.00002674,0.00006856,-0.00001412,0.00004804,-0
 .00003121,0.00000206,0.00011781,-0.00023286,-0.00038742,0.00111749,-0.
 00073665,-0.00037166,-0.00043963,-0.00033118,-0.00026904,-0.02439860,0
 .02326116,-0.00654179,0.31440052,-0.00006408,0.00116029,0.00018692,-0.
 00161157,-0.00104321,0.00003500,0.00024664,0.00020315,0.00006851,-0.00
 007466,-0.00002523,-0.00001204,-0.00005251,0.00003631,-0.00001753,0.00
 005283,-0.00001993,0.00001412,0.00003547,-0.00001191,0.00002503,0.0000
 4026,-0.00001475,-0.00001336,0.00000790,0.00000026,0.00002150,-0.00000
 636,0.00000149,-0.00000371,0.00000769,0.00000172,-0.00000489,0.0000035
 5,0.00000996,-0.00000548,0.00001341,0.00001203,0.00001767,0.00016205,-
 0.00391040,-0.00593919,0.01846224,-0.01421081,0.01105622,0.19170034,-0
 .18139705,0.00851289,-0.00005271,0.00005430,-0.00011682,0.00002302,-0.
 00000361,0.00000729,-0.00000501,0.00000272,-0.00000540,-0.00000355,-0.
 00001003,-0.00000023,0.00000415,0.00000920,0.00000975,0.00000012,-0.00
 000194,0.00000058,-0.00000428,0.00000002,0.00000283,0.00001371,-0.0000
 2281,-0.00002915,-0.00018208,0.00037776,-0.00010482,0.00150761,-0.0014
 6365,0.00016760,-0.00050838,0.00026306,0.00037484,-0.00017200,0.000953
 32,0.00014692,-0.02262278,0.01366463,-0.00170688,-0.18692103,0.1853851
 0,0.00004446,0.00040387,0.00001439,0.00007392,-0.00077591,-0.00024982,
 -0.00006442,0.00015354,0.00003557,0.00009206,0.00004058,0.00004583,0.0
 0007464,-0.00011851,0.00004107,-0.00007271,0.00004053,-0.00002245,-0.0
 0003832,0.00007501,-0.00003742,0.00003280,0.00001620,-0.00002532,0.000
 02738,-0.00002178,0.00003692,-0.00000409,-0.00000617,-0.00000385,-0.00
 005128,-0.00003135,-0.00003208,0.00005459,0.00003919,0.00001396,-0.000
 08279,-0.00002227,-0.00004485,-0.00015497,-0.00128170,-0.00327391,0.02
 596177,-0.01890809,-0.00108628,-0.08103028,0.03047523,-0.03261706,0.00
 000536,-0.00007897,-0.00002821,-0.00001231,-0.00000454,-0.00000336,0.0
 0000970,-0.00000552,0.00000716,0.00000384,0.00000814,0.00005612,-0.000
 02762,0.00000634,-0.00000335,-0.00000566,0.00000521,-0.00000106,0.0000
 0349,0.00000558,0.00000359,0.00011118,0.00003844,0.00003075,-0.0001879
 9,-0.00017999,0.00007884,0.00040703,-0.00064598,0.00075325,-0.00024209
 ,0.00039269,0.00152271,0.00069980,-0.00050127,-0.00052840,0.00136191,0
 .00356966,-0.00286369,0.05301061,-0.01268816,0.03818095\\-0.00000173,-
 0.00000167,-0.00000119,-0.00000207,0.00000394,0.00000159,0.00000131,-0
 .00000126,-0.00000042,0.00000276,0.00000180,0.00000141,-0.00000108,-0.
 00000129,0.00000075,-0.00000024,0.00000038,0.00000067,0.00000069,0.000
 00132,0.00000045,-0.00000039,-0.00000144,-0.00000179,0.00000010,0.0000
 0132,0.00000115,-0.00000128,-0.00000050,-0.00000125,-0.00000048,0.0000
 0029,-0.00000098,0.00000038,-0.00000040,0.00000052,0.00000143,0.000001
 04,0.,-0.00000139,0.00000092,-0.00000011,0.00000089,-0.00000185,-0.000
 00060,0.00000072,-0.00000065,0.00000040,-0.00000053,-0.00000013,0.0000
 0111,0.00000001,-0.00000015,0.00000002,-0.00000032,0.00000062,0.000000
 44,-0.00000008,0.00000030,-0.00000033,0.00000014,0.00000047,-0.0000000
 1,-0.00000006,0.00000041,-0.00000019,-0.00000017,-0.00000033,-0.000000
 41,0.00000059,-0.00000087,-0.00000033,0.00000021,-0.00000095,-0.000000
 15,0.00000010,-0.00000062,-0.00000025,0.00000021,-0.00000085,-0.000000
 19,0.00000004,-0.00000032,0.00000078,-0.00000061,0.00000033,-0.0000006
 7,0.00000085,0.00000013,-0.00000043\\\@


 A SOLDIER'S LIFE IS A LIFE OF HONOR, BUT A DOG WOULD NOT LEAD IT.
 -- PRINCE RUPERT, FOUNDER OF THE HUDSON'S BAY COMPANY
 Job cpu time:       0 days  2 hours 40 minutes 17.7 seconds.
 File lengths (MBytes):  RWF=    417 Int=      0 D2E=      0 Chk=     13 Scr=      1
 Normal termination of Gaussian 09 at Wed Jul 28 23:51:01 2021.
