 Entering Gaussian System, Link 0=g09
 Input=opt_freq-conf-295.com
 Output=opt_freq-conf-295.log
 Initial command:
 /aerosol/software/g09/l1.exe "/scratch/nicole/10585/Gau-84163.inp" -scrdir="/scratch/nicole/10585/"
 Entering Link 1 = /aerosol/software/g09/l1.exe PID=     84166.
  
 Copyright (c) 1988,1990,1992,1993,1995,1998,2003,2009,2013,
            Gaussian, Inc.  All Rights Reserved.
  
 This is part of the Gaussian(R) 09 program.  It is based on
 the Gaussian(R) 03 system (copyright 2003, Gaussian, Inc.),
 the Gaussian(R) 98 system (copyright 1998, Gaussian, Inc.),
 the Gaussian(R) 94 system (copyright 1995, Gaussian, Inc.),
 the Gaussian 92(TM) system (copyright 1992, Gaussian, Inc.),
 the Gaussian 90(TM) system (copyright 1990, Gaussian, Inc.),
 the Gaussian 88(TM) system (copyright 1988, Gaussian, Inc.),
 the Gaussian 86(TM) system (copyright 1986, Carnegie Mellon
 University), and the Gaussian 82(TM) system (copyright 1983,
 Carnegie Mellon University). Gaussian is a federally registered
 trademark of Gaussian, Inc.
  
 This software contains proprietary and confidential information,
 including trade secrets, belonging to Gaussian, Inc.
  
 This software is provided under written license and may be
 used, copied, transmitted, or stored only in accord with that
 written license.
  
 The following legend is applicable only to US Government
 contracts under FAR:
  
                    RESTRICTED RIGHTS LEGEND
  
 Use, reproduction and disclosure by the US Government is
 subject to restrictions as set forth in subparagraphs (a)
 and (c) of the Commercial Computer Software - Restricted
 Rights clause in FAR 52.227-19.
  
 Gaussian, Inc.
 340 Quinnipiac St., Bldg. 40, Wallingford CT 06492
  
  
 ---------------------------------------------------------------
 Warning -- This program may not be used in any manner that
 competes with the business of Gaussian, Inc. or will provide
 assistance to any competitor of Gaussian, Inc.  The licensee
 of this program is prohibited from giving any competitor of
 Gaussian, Inc. access to this program.  By using this program,
 the user acknowledges that Gaussian, Inc. is engaged in the
 business of creating and licensing software in the field of
 computational chemistry and represents and warrants to the
 licensee that it is not a competitor of Gaussian, Inc. and that
 it will not use this program in any manner prohibited above.
 ---------------------------------------------------------------
  

 Cite this work as:
 Gaussian 09, Revision D.01,
 M. J. Frisch, G. W. Trucks, H. B. Schlegel, G. E. Scuseria, 
 M. A. Robb, J. R. Cheeseman, G. Scalmani, V. Barone, B. Mennucci, 
 G. A. Petersson, H. Nakatsuji, M. Caricato, X. Li, H. P. Hratchian, 
 A. F. Izmaylov, J. Bloino, G. Zheng, J. L. Sonnenberg, M. Hada, 
 M. Ehara, K. Toyota, R. Fukuda, J. Hasegawa, M. Ishida, T. Nakajima, 
 Y. Honda, O. Kitao, H. Nakai, T. Vreven, J. A. Montgomery, Jr., 
 J. E. Peralta, F. Ogliaro, M. Bearpark, J. J. Heyd, E. Brothers, 
 K. N. Kudin, V. N. Staroverov, T. Keith, R. Kobayashi, J. Normand, 
 K. Raghavachari, A. Rendell, J. C. Burant, S. S. Iyengar, J. Tomasi, 
 M. Cossi, N. Rega, J. M. Millam, M. Klene, J. E. Knox, J. B. Cross, 
 V. Bakken, C. Adamo, J. Jaramillo, R. Gomperts, R. E. Stratmann, 
 O. Yazyev, A. J. Austin, R. Cammi, C. Pomelli, J. W. Ochterski, 
 R. L. Martin, K. Morokuma, V. G. Zakrzewski, G. A. Voth, 
 P. Salvador, J. J. Dannenberg, S. Dapprich, A. D. Daniels, 
 O. Farkas, J. B. Foresman, J. V. Ortiz, J. Cioslowski, 
 and D. J. Fox, Gaussian, Inc., Wallingford CT, 2013.
 
 ******************************************
 Gaussian 09:  ES64L-G09RevD.01 24-Apr-2013
                28-Jul-2021 
 ******************************************
 %mem=2gb
 %nproc=4
 Will use up to    4 processors via shared memory.
 %chk=conf-295.chk
 ----------------------------------------------------------------------
 # B3LYP/6-31+G(d,p) opt=calcfc freq=noraman nosymm integral(ultrafineg
 rid)
 ----------------------------------------------------------------------
 1/10=4,14=-1,18=20,19=15,26=4,38=1/1,3;
 2/9=110,12=2,15=1,17=6,18=5,40=1/2;
 3/5=1,6=6,7=111,11=2,16=1,25=1,30=1,71=2,74=-5,75=-5,140=1/1,2,3;
 4//1;
 5/5=2,38=5/2;
 8/6=4,10=90,11=11/1;
 11/6=1,8=1,9=11,15=111,16=1,31=1/1,2,10;
 10/6=1,13=1,31=1/2;
 6/7=2,8=2,9=2,10=2,28=1/1;
 7/10=1,18=20,25=1,30=1/1,2,3,16;
 1/10=4,14=-1,18=20,19=15,26=4/3(2);
 2/9=110,15=1/2;
 99//99;
 2/9=110,15=1/2;
 3/5=1,6=6,7=111,11=2,16=1,25=1,30=1,71=1,74=-5,75=-5/1,2,3;
 4/5=5,16=3,69=1/1;
 5/5=2,38=5/2;
 7/30=1/1,2,3,16;
 1/14=-1,18=20,19=15,26=4/3(-5);
 2/9=110,15=1/2;
 6/7=2,8=2,9=2,10=2,19=2,28=1/1;
 99/9=1/99;
 ------------------------------------------------------------
 Candidate Structure: Conf:295 OPT and FREQ calc in gas phase
 ------------------------------------------------------------
 Symbolic Z-matrix:
 Charge =  0 Multiplicity = 1
 O                     0.99868   0.25393  -1.30825 
 C                     1.54103  -0.4116   -0.43426 
 N                     0.88521  -0.77622   0.69038 
 C                    -0.45719  -0.27355   0.92541 
 C                    -0.73566  -0.43996   2.40348 
 O                    -1.96335   0.00395   2.75481 
 O                     0.03439  -0.91686   3.19448 
 C                    -1.48971  -0.99987   0.0266 
 C                    -2.56601  -0.09592  -0.47179 
 C                    -2.94691   0.23608  -1.74047 
 N                    -3.99656   1.13826  -1.71326 
 C                    -4.2317    1.3495   -0.44114 
 N                    -3.38666   0.6337    0.34865 
 C                     2.98549  -0.87192  -0.53834 
 C                     3.94273   0.31628  -0.57455 
 N                     3.84995   0.99938  -1.86386 
 H                     1.37442  -1.15506   1.48561 
 H                    -0.45034   0.79627   0.6873 
 H                    -2.03655  -0.13336   3.7117 
 H                    -0.96322  -1.38181  -0.84588 
 H                    -1.90081  -1.86282   0.55072 
 H                    -2.5303   -0.1175   -2.67275 
 H                    -4.98513   1.99431  -0.02581 
 H                    -3.32973   0.6303    1.35462 
 H                     3.21975  -1.53327   0.29868 
 H                     3.09015  -1.43985  -1.46574 
 H                     4.96531  -0.05625  -0.46242 
 H                     3.74311   0.97263   0.2886 
 H                     2.89883   1.32085  -2.00384 
 H                     4.44081   1.82038  -1.85746 
 

 GradGradGradGradGradGradGradGradGradGradGradGradGradGradGradGradGradGrad
 Berny optimization.
 Initialization pass.
                           ----------------------------
                           !    Initial Parameters    !
                           ! (Angstroms and Degrees)  !
 --------------------------                            --------------------------
 ! Name  Definition              Value          Derivative Info.                !
 --------------------------------------------------------------------------------
 ! R1    R(1,2)                  1.2251         calculate D2E/DX2 analytically  !
 ! R2    R(2,3)                  1.352          calculate D2E/DX2 analytically  !
 ! R3    R(2,14)                 1.5196         calculate D2E/DX2 analytically  !
 ! R4    R(3,4)                  1.4526         calculate D2E/DX2 analytically  !
 ! R5    R(3,17)                 1.0076         calculate D2E/DX2 analytically  !
 ! R6    R(4,5)                  1.5133         calculate D2E/DX2 analytically  !
 ! R7    R(4,8)                  1.5497         calculate D2E/DX2 analytically  !
 ! R8    R(4,18)                 1.096          calculate D2E/DX2 analytically  !
 ! R9    R(5,6)                  1.3519         calculate D2E/DX2 analytically  !
 ! R10   R(5,7)                  1.2025         calculate D2E/DX2 analytically  !
 ! R11   R(6,19)                 0.9695         calculate D2E/DX2 analytically  !
 ! R12   R(8,9)                  1.4913         calculate D2E/DX2 analytically  !
 ! R13   R(8,20)                 1.0882         calculate D2E/DX2 analytically  !
 ! R14   R(8,21)                 1.0901         calculate D2E/DX2 analytically  !
 ! R15   R(9,10)                 1.3656         calculate D2E/DX2 analytically  !
 ! R16   R(9,13)                 1.3707         calculate D2E/DX2 analytically  !
 ! R17   R(10,11)                1.3844         calculate D2E/DX2 analytically  !
 ! R18   R(10,22)                1.0806         calculate D2E/DX2 analytically  !
 ! R19   R(11,12)                1.3108         calculate D2E/DX2 analytically  !
 ! R20   R(12,13)                1.3602         calculate D2E/DX2 analytically  !
 ! R21   R(12,23)                1.0751         calculate D2E/DX2 analytically  !
 ! R22   R(13,24)                1.0076         calculate D2E/DX2 analytically  !
 ! R23   R(14,15)                1.5263         calculate D2E/DX2 analytically  !
 ! R24   R(14,25)                1.0922         calculate D2E/DX2 analytically  !
 ! R25   R(14,26)                1.0925         calculate D2E/DX2 analytically  !
 ! R26   R(15,16)                1.462          calculate D2E/DX2 analytically  !
 ! R27   R(15,27)                1.0941         calculate D2E/DX2 analytically  !
 ! R28   R(15,28)                1.1026         calculate D2E/DX2 analytically  !
 ! R29   R(16,29)                1.0137         calculate D2E/DX2 analytically  !
 ! R30   R(16,30)                1.0115         calculate D2E/DX2 analytically  !
 ! A1    A(1,2,3)              121.6817         calculate D2E/DX2 analytically  !
 ! A2    A(1,2,14)             122.4452         calculate D2E/DX2 analytically  !
 ! A3    A(3,2,14)             115.8724         calculate D2E/DX2 analytically  !
 ! A4    A(2,3,4)              119.311          calculate D2E/DX2 analytically  !
 ! A5    A(2,3,17)             121.4939         calculate D2E/DX2 analytically  !
 ! A6    A(4,3,17)             116.8152         calculate D2E/DX2 analytically  !
 ! A7    A(3,4,5)              106.8608         calculate D2E/DX2 analytically  !
 ! A8    A(3,4,8)              111.0823         calculate D2E/DX2 analytically  !
 ! A9    A(3,4,18)             107.2694         calculate D2E/DX2 analytically  !
 ! A10   A(5,4,8)              113.1012         calculate D2E/DX2 analytically  !
 ! A11   A(5,4,18)             108.7047         calculate D2E/DX2 analytically  !
 ! A12   A(8,4,18)             109.6119         calculate D2E/DX2 analytically  !
 ! A13   A(4,5,6)              112.6336         calculate D2E/DX2 analytically  !
 ! A14   A(4,5,7)              124.6287         calculate D2E/DX2 analytically  !
 ! A15   A(6,5,7)              122.7372         calculate D2E/DX2 analytically  !
 ! A16   A(5,6,19)             106.1745         calculate D2E/DX2 analytically  !
 ! A17   A(4,8,9)              112.992          calculate D2E/DX2 analytically  !
 ! A18   A(4,8,20)             107.8876         calculate D2E/DX2 analytically  !
 ! A19   A(4,8,21)             110.0859         calculate D2E/DX2 analytically  !
 ! A20   A(9,8,20)             107.0955         calculate D2E/DX2 analytically  !
 ! A21   A(9,8,21)             111.6136         calculate D2E/DX2 analytically  !
 ! A22   A(20,8,21)            106.8626         calculate D2E/DX2 analytically  !
 ! A23   A(8,9,10)             131.2355         calculate D2E/DX2 analytically  !
 ! A24   A(8,9,13)             123.6905         calculate D2E/DX2 analytically  !
 ! A25   A(10,9,13)            105.0498         calculate D2E/DX2 analytically  !
 ! A26   A(9,10,11)            110.5892         calculate D2E/DX2 analytically  !
 ! A27   A(9,10,22)            127.9094         calculate D2E/DX2 analytically  !
 ! A28   A(11,10,22)           121.5013         calculate D2E/DX2 analytically  !
 ! A29   A(10,11,12)           105.077          calculate D2E/DX2 analytically  !
 ! A30   A(11,12,13)           111.5461         calculate D2E/DX2 analytically  !
 ! A31   A(11,12,23)           126.6744         calculate D2E/DX2 analytically  !
 ! A32   A(13,12,23)           121.7793         calculate D2E/DX2 analytically  !
 ! A33   A(9,13,12)            107.7286         calculate D2E/DX2 analytically  !
 ! A34   A(9,13,24)            124.1906         calculate D2E/DX2 analytically  !
 ! A35   A(12,13,24)           128.0671         calculate D2E/DX2 analytically  !
 ! A36   A(2,14,15)            111.2212         calculate D2E/DX2 analytically  !
 ! A37   A(2,14,25)            109.5615         calculate D2E/DX2 analytically  !
 ! A38   A(2,14,26)            107.8592         calculate D2E/DX2 analytically  !
 ! A39   A(15,14,25)           110.7974         calculate D2E/DX2 analytically  !
 ! A40   A(15,14,26)           108.9339         calculate D2E/DX2 analytically  !
 ! A41   A(25,14,26)           108.3746         calculate D2E/DX2 analytically  !
 ! A42   A(14,15,16)           110.1732         calculate D2E/DX2 analytically  !
 ! A43   A(14,15,27)           108.5833         calculate D2E/DX2 analytically  !
 ! A44   A(14,15,28)           109.3486         calculate D2E/DX2 analytically  !
 ! A45   A(16,15,27)           107.9854         calculate D2E/DX2 analytically  !
 ! A46   A(16,15,28)           113.6246         calculate D2E/DX2 analytically  !
 ! A47   A(27,15,28)           106.9585         calculate D2E/DX2 analytically  !
 ! A48   A(15,16,29)           109.2373         calculate D2E/DX2 analytically  !
 ! A49   A(15,16,30)           109.6686         calculate D2E/DX2 analytically  !
 ! A50   A(29,16,30)           106.9504         calculate D2E/DX2 analytically  !
 ! D1    D(1,2,3,4)             -5.3613         calculate D2E/DX2 analytically  !
 ! D2    D(1,2,3,17)          -167.2917         calculate D2E/DX2 analytically  !
 ! D3    D(14,2,3,4)           174.3349         calculate D2E/DX2 analytically  !
 ! D4    D(14,2,3,17)           12.4045         calculate D2E/DX2 analytically  !
 ! D5    D(1,2,14,15)           63.0622         calculate D2E/DX2 analytically  !
 ! D6    D(1,2,14,25)         -174.1045         calculate D2E/DX2 analytically  !
 ! D7    D(1,2,14,26)          -56.332          calculate D2E/DX2 analytically  !
 ! D8    D(3,2,14,15)         -116.6315         calculate D2E/DX2 analytically  !
 ! D9    D(3,2,14,25)            6.2019         calculate D2E/DX2 analytically  !
 ! D10   D(3,2,14,26)          123.9744         calculate D2E/DX2 analytically  !
 ! D11   D(2,3,4,5)           -161.0865         calculate D2E/DX2 analytically  !
 ! D12   D(2,3,4,8)             75.118          calculate D2E/DX2 analytically  !
 ! D13   D(2,3,4,18)           -44.6545         calculate D2E/DX2 analytically  !
 ! D14   D(17,3,4,5)             1.675          calculate D2E/DX2 analytically  !
 ! D15   D(17,3,4,8)          -122.1205         calculate D2E/DX2 analytically  !
 ! D16   D(17,3,4,18)          118.107          calculate D2E/DX2 analytically  !
 ! D17   D(3,4,5,6)            179.5803         calculate D2E/DX2 analytically  !
 ! D18   D(3,4,5,7)             -0.6976         calculate D2E/DX2 analytically  !
 ! D19   D(8,4,5,6)            -57.878          calculate D2E/DX2 analytically  !
 ! D20   D(8,4,5,7)            121.8441         calculate D2E/DX2 analytically  !
 ! D21   D(18,4,5,6)            64.1058         calculate D2E/DX2 analytically  !
 ! D22   D(18,4,5,7)          -116.1721         calculate D2E/DX2 analytically  !
 ! D23   D(3,4,8,9)           -142.58           calculate D2E/DX2 analytically  !
 ! D24   D(3,4,8,20)           -24.3832         calculate D2E/DX2 analytically  !
 ! D25   D(3,4,8,21)            91.8849         calculate D2E/DX2 analytically  !
 ! D26   D(5,4,8,9)             97.2611         calculate D2E/DX2 analytically  !
 ! D27   D(5,4,8,20)          -144.5421         calculate D2E/DX2 analytically  !
 ! D28   D(5,4,8,21)           -28.274          calculate D2E/DX2 analytically  !
 ! D29   D(18,4,8,9)           -24.2128         calculate D2E/DX2 analytically  !
 ! D30   D(18,4,8,20)           93.984          calculate D2E/DX2 analytically  !
 ! D31   D(18,4,8,21)         -149.7479         calculate D2E/DX2 analytically  !
 ! D32   D(4,5,6,19)          -179.1609         calculate D2E/DX2 analytically  !
 ! D33   D(7,5,6,19)             1.1109         calculate D2E/DX2 analytically  !
 ! D34   D(4,8,9,10)           120.6832         calculate D2E/DX2 analytically  !
 ! D35   D(4,8,9,13)           -57.2465         calculate D2E/DX2 analytically  !
 ! D36   D(20,8,9,10)            2.0253         calculate D2E/DX2 analytically  !
 ! D37   D(20,8,9,13)         -175.9044         calculate D2E/DX2 analytically  !
 ! D38   D(21,8,9,10)         -114.6089         calculate D2E/DX2 analytically  !
 ! D39   D(21,8,9,13)           67.4613         calculate D2E/DX2 analytically  !
 ! D40   D(8,9,10,11)         -179.108          calculate D2E/DX2 analytically  !
 ! D41   D(8,9,10,22)            0.8329         calculate D2E/DX2 analytically  !
 ! D42   D(13,9,10,11)          -0.8916         calculate D2E/DX2 analytically  !
 ! D43   D(13,9,10,22)         179.0493         calculate D2E/DX2 analytically  !
 ! D44   D(8,9,13,12)          179.3457         calculate D2E/DX2 analytically  !
 ! D45   D(8,9,13,24)            0.5989         calculate D2E/DX2 analytically  !
 ! D46   D(10,9,13,12)           0.9577         calculate D2E/DX2 analytically  !
 ! D47   D(10,9,13,24)        -177.7891         calculate D2E/DX2 analytically  !
 ! D48   D(9,10,11,12)           0.471          calculate D2E/DX2 analytically  !
 ! D49   D(22,10,11,12)       -179.4743         calculate D2E/DX2 analytically  !
 ! D50   D(10,11,12,13)          0.1596         calculate D2E/DX2 analytically  !
 ! D51   D(10,11,12,23)       -179.7166         calculate D2E/DX2 analytically  !
 ! D52   D(11,12,13,9)          -0.7218         calculate D2E/DX2 analytically  !
 ! D53   D(11,12,13,24)        177.9615         calculate D2E/DX2 analytically  !
 ! D54   D(23,12,13,9)         179.1613         calculate D2E/DX2 analytically  !
 ! D55   D(23,12,13,24)         -2.1554         calculate D2E/DX2 analytically  !
 ! D56   D(2,14,15,16)         -72.2829         calculate D2E/DX2 analytically  !
 ! D57   D(2,14,15,27)         169.6456         calculate D2E/DX2 analytically  !
 ! D58   D(2,14,15,28)          53.2732         calculate D2E/DX2 analytically  !
 ! D59   D(25,14,15,16)        165.5973         calculate D2E/DX2 analytically  !
 ! D60   D(25,14,15,27)         47.5258         calculate D2E/DX2 analytically  !
 ! D61   D(25,14,15,28)        -68.8466         calculate D2E/DX2 analytically  !
 ! D62   D(26,14,15,16)         46.4684         calculate D2E/DX2 analytically  !
 ! D63   D(26,14,15,27)        -71.6032         calculate D2E/DX2 analytically  !
 ! D64   D(26,14,15,28)        172.0245         calculate D2E/DX2 analytically  !
 ! D65   D(14,15,16,29)         59.3398         calculate D2E/DX2 analytically  !
 ! D66   D(14,15,16,30)        176.2537         calculate D2E/DX2 analytically  !
 ! D67   D(27,15,16,29)        177.7789         calculate D2E/DX2 analytically  !
 ! D68   D(27,15,16,30)        -65.3072         calculate D2E/DX2 analytically  !
 ! D69   D(28,15,16,29)        -63.7502         calculate D2E/DX2 analytically  !
 ! D70   D(28,15,16,30)         53.1638         calculate D2E/DX2 analytically  !
 --------------------------------------------------------------------------------
 Trust Radius=3.00D-01 FncErr=1.00D-07 GrdErr=1.00D-06
 Number of steps in this run=    160 maximum allowed number of steps=    180.
 GradGradGradGradGradGradGradGradGradGradGradGradGradGradGradGradGradGrad

                          Input orientation:                          
 ---------------------------------------------------------------------
 Center     Atomic      Atomic             Coordinates (Angstroms)
 Number     Number       Type             X           Y           Z
 ---------------------------------------------------------------------
      1          8           0        0.998683    0.253927   -1.308250
      2          6           0        1.541026   -0.411601   -0.434263
      3          7           0        0.885208   -0.776224    0.690382
      4          6           0       -0.457190   -0.273549    0.925408
      5          6           0       -0.735662   -0.439963    2.403476
      6          8           0       -1.963350    0.003948    2.754810
      7          8           0        0.034390   -0.916863    3.194478
      8          6           0       -1.489712   -0.999874    0.026602
      9          6           0       -2.566006   -0.095922   -0.471785
     10          6           0       -2.946906    0.236082   -1.740470
     11          7           0       -3.996562    1.138259   -1.713258
     12          6           0       -4.231700    1.349504   -0.441144
     13          7           0       -3.386661    0.633703    0.348655
     14          6           0        2.985486   -0.871919   -0.538343
     15          6           0        3.942728    0.316283   -0.574547
     16          7           0        3.849954    0.999382   -1.863858
     17          1           0        1.374419   -1.155058    1.485610
     18          1           0       -0.450345    0.796273    0.687298
     19          1           0       -2.036547   -0.133365    3.711704
     20          1           0       -0.963225   -1.381810   -0.845878
     21          1           0       -1.900811   -1.862824    0.550719
     22          1           0       -2.530295   -0.117504   -2.672748
     23          1           0       -4.985133    1.994313   -0.025806
     24          1           0       -3.329726    0.630302    1.354620
     25          1           0        3.219749   -1.533269    0.298684
     26          1           0        3.090155   -1.439846   -1.465738
     27          1           0        4.965309   -0.056250   -0.462419
     28          1           0        3.743108    0.972631    0.288604
     29          1           0        2.898827    1.320853   -2.003836
     30          1           0        4.440808    1.820382   -1.857464
 ---------------------------------------------------------------------
                    Distance matrix (angstroms):
                    1          2          3          4          5
     1  O    0.000000
     2  C    1.225119   0.000000
     3  N    2.251359   1.351989   0.000000
     4  C    2.717908   2.420874   1.452567   0.000000
     5  C    4.155280   3.638252   2.382223   1.513250   0.000000
     6  O    5.034341   4.756419   3.603445   2.385840   1.351928
     7  O    4.751333   3.961440   2.648427   2.409187   1.202538
     8  C    3.089653   3.121512   2.476059   1.549679   2.555704
     9  C    3.678189   4.119317   3.704635   2.535904   3.425734
    10  C    3.969232   4.718814   4.649613   3.683113   4.745412
    11  N    5.089062   5.890906   5.768397   4.634967   5.483772
    12  C    5.413785   6.035387   5.655247   4.329976   4.849364
    13  N    4.703276   5.097815   4.511490   3.120506   3.521768
    14  C    2.409912   1.519602   2.435178   3.788487   4.763174
    15  C    3.034734   2.513497   3.484544   4.685834   5.597130
    16  N    2.999025   3.060353   4.297282   5.286950   6.427265
    17  H    3.151519   2.065526   1.007586   2.108476   2.409623
    18  H    2.525081   2.585037   2.063118   1.096022   2.134234
    19  H    5.878993   5.483200   4.251859   3.205849   1.870231
    20  H    2.595863   2.716985   2.478615   2.149830   3.390747
    21  H    4.042705   3.862962   2.993678   2.179502   2.610520
    22  H    3.801776   4.655423   4.838410   4.155580   5.393769
    23  H    6.362363   6.967497   6.530674   5.152696   5.466728
    24  H    5.095847   5.292437   4.492794   3.041814   2.995786
    25  H    3.272528   2.147897   2.485282   3.936947   4.612022
    26  H    2.695909   2.126271   3.154527   4.434127   5.532401
    27  H    4.067648   3.442787   4.300527   5.601497   6.392313
    28  H    3.255511   2.699593   3.374539   4.427300   5.150484
    29  H    2.287514   2.703438   3.963736   4.731325   5.977825
    30  H    3.821471   3.926319   5.086862   6.009934   7.075353
                    6          7          8          9         10
     6  O    0.000000
     7  O    2.243249   0.000000
     8  C    2.945354   3.516421   0.000000
     9  C    3.283913   4.569190   1.491284   0.000000
    10  C    4.607474   5.879721   2.602604   1.365603   0.000000
    11  N    5.038279   6.675176   3.725993   2.260741   1.384356
    12  C    4.143676   6.045965   3.640997   2.205613   2.139778
    13  N    2.865657   4.712384   2.524026   1.370748   2.171619
    14  C    6.008575   4.758669   4.512531   5.605860   6.153540
    15  C    6.787041   5.567881   5.621838   6.522584   6.988052
    16  N    7.491160   6.619462   6.006904   6.655982   6.840699
    17  H    3.754312   2.184638   3.218079   4.525496   5.569265
    18  H    2.681710   3.075021   2.177832   2.572064   3.527137
    19  H    0.969463   2.273801   3.824898   4.217027   5.539986
    20  H    3.985665   4.187587   1.088249   2.088627   2.711616
    21  H    2.889077   3.410177   1.090129   2.147078   3.278608
    22  H    5.458439   6.452978   3.024546   2.201358   1.080615
    23  H    4.563393   6.636323   4.602811   3.228027   3.191523
    24  H    2.054224   4.134740   2.794057   2.108655   3.143492
    25  H    5.938021   4.348803   4.747374   6.011202   6.731745
    26  H    6.740584   5.597216   4.836924   5.897985   6.271389
    27  H    7.639404   6.198992   6.541931   7.531425   8.020101
    28  H    6.291596   5.076305   5.598377   6.443983   7.029647
    29  H    6.929626   6.343093   5.363556   5.849687   5.951360
    30  H    8.098502   7.240935   6.831883   7.395118   7.556587
                   11         12         13         14         15
    11  N    0.000000
    12  C    1.310797   0.000000
    13  N    2.208629   1.360236   0.000000
    14  C    7.360044   7.551950   6.607414   0.000000
    15  C    8.062545   8.240547   7.394120   1.526252   0.000000
    16  N    7.849190   8.213393   7.576116   2.450727   1.462037
    17  H    6.658791   6.435353   5.211546   2.602324   3.606287
    18  H    4.295961   3.984732   2.960247   4.011233   4.595839
    19  H    5.906683   4.925824   3.704228   6.620360   7.370608
    20  H    4.037850   4.278646   3.370793   3.993355   5.198607
    21  H    4.303982   4.090952   2.912255   5.103317   6.337324
    22  H    2.155806   3.166536   3.229017   5.962271   6.818405
    23  H    2.134853   1.075150   2.132274   8.485797   9.100748
    24  H    3.180341   2.134379   1.007581   6.761795   7.530530
    25  H    7.953623   8.023828   6.952907   1.092189   2.169349
    26  H    7.545161   7.901887   7.038521   1.092502   2.145948
    27  H    9.127244   9.303847   8.419577   2.142610   1.094086
    28  H    7.996085   8.016990   7.138073   2.158749   1.102575
    29  H    6.903924   7.299811   6.746388   2.638830   2.035130
    30  H    8.466127   8.800004   8.218542   3.332645   2.038694
                   16         17         18         19         20
    16  N    0.000000
    17  H    4.689224   0.000000
    18  H    5.004220   2.788325   0.000000
    19  H    8.186629   4.199290   3.539392   0.000000
    20  H    5.465625   3.309355   2.712512   4.845843   0.000000
    21  H    6.862485   3.478804   3.032046   3.605729   1.749550
    22  H    6.527581   5.797865   4.055994   6.403535   2.718755
    23  H    9.078936   7.255812   4.744273   5.214418   5.314741
    24  H    7.876714   5.033254   2.960355   2.794878   3.806719
    25  H    3.389405   2.226450   4.364330   6.421610   4.339381
    26  H    2.585659   3.425684   4.708602   7.402423   4.100912
    27  H    2.079040   4.230448   5.601602   8.152008   6.087008
    28  H    2.155278   3.401554   4.216053   6.807734   5.383309
    29  H    1.013696   4.542046   4.328318   7.690258   4.853937
    30  H    1.011529   5.425138   5.607850   8.762926   6.362461
                   21         22         23         24         25
    21  H    0.000000
    22  H    3.719291   0.000000
    23  H    4.972216   4.182380   0.000000
    24  H    2.983912   4.173487   2.550779   0.000000
    25  H    5.137339   6.625466   8.936958   6.977941   0.000000
    26  H    5.399513   5.898722   8.892532   7.311279   1.771640
    27  H    7.171733   7.814946  10.168910   8.519424   2.409947
    28  H    6.321576   7.022363   8.793457   7.160905   2.559989
    29  H    6.300641   5.656119   8.156163   7.109920   3.681114
    30  H    7.718904   7.281234   9.603832   8.492053   4.169764
                   26         27         28         29         30
    26  H    0.000000
    27  H    2.537162   0.000000
    28  H    3.053541   1.765335   0.000000
    29  H    2.819151   2.922794   2.467660   0.000000
    30  H    3.550606   2.396456   2.410617   1.627470   0.000000
 Symmetry turned off by external request.
 Stoichiometry    C9H14N4O3
 Framework group  C1[X(C9H14N4O3)]
 Deg. of freedom    84
 Full point group                 C1      NOp   1
 Rotational constants (GHZ):      0.7362152      0.3081977      0.2331108
 Standard basis: 6-31+G(d,p) (6D, 7F)
   374 basis functions,   610 primitive gaussians,   374 cartesian basis functions
    60 alpha electrons       60 beta electrons
       nuclear repulsion energy      1121.3042026874 Hartrees.
 NAtoms=   30 NActive=   30 NUniq=   30 SFac= 1.00D+00 NAtFMM=   60 NAOKFM=F Big=F
 Integral buffers will be    131072 words long.
 Raffenetti 2 integral format.
 Two-electron integral symmetry is turned off.
 One-electron integrals computed using PRISM.
 NBasis=   374 RedAO= T EigKep=  7.49D-06  NBF=   374
 NBsUse=   374 1.00D-06 EigRej= -1.00D+00 NBFU=   374
 ExpMin= 4.38D-02 ExpMax= 5.48D+03 ExpMxC= 8.25D+02 IAcc=3 IRadAn=         5 AccDes= 0.00D+00
 Harris functional with IExCor=  402 and IRadAn=       5 diagonalized for initial guess.
 HarFok:  IExCor=  402 AccDes= 0.00D+00 IRadAn=         5 IDoV= 1 UseB2=F ITyADJ=14
 ICtDFT=  3500011 ScaDFX=  1.000000  1.000000  1.000000  1.000000
 FoFCou: FMM=F IPFlag=           0 FMFlag=      100000 FMFlg1=           0
         NFxFlg=           0 DoJE=T BraDBF=F KetDBF=T FulRan=T
         wScrn=  0.000000 ICntrl=     500 IOpCl=  0 I1Cent=   200000004 NGrid=           0
         NMat0=    1 NMatS0=      1 NMatT0=    0 NMatD0=    1 NMtDS0=    0 NMtDT0=    0
 Symmetry not used in FoFCou.
 Requested convergence on RMS density matrix=1.00D-08 within 128 cycles.
 Requested convergence on MAX density matrix=1.00D-06.
 Requested convergence on             energy=1.00D-06.
 No special actions if energy rises.
 SCF Done:  E(RB3LYP) =  -796.145875756     A.U. after   14 cycles
            NFock= 14  Conv=0.78D-08     -V/T= 2.0089
 DoSCS=F DFT=T ScalE2(SS,OS)=  1.000000  1.000000
 Range of M.O.s used for correlation:     1   374
 NBasis=   374 NAE=    60 NBE=    60 NFC=     0 NFV=     0
 NROrb=    374 NOA=    60 NOB=    60 NVA=   314 NVB=   314

 **** Warning!!: The largest alpha MO coefficient is  0.10526225D+03

 Symmetrizing basis deriv contribution to polar:
 IMax=3 JMax=2 DiffMx= 0.00D+00
 G2DrvN: will do    31 centers at a time, making    1 passes.
 Calling FoFCou, ICntrl=  3107 FMM=F I1Cent=   0 AccDes= 0.00D+00.
 End of G2Drv F.D. properties file   721 does not exist.
 End of G2Drv F.D. properties file   722 does not exist.
 End of G2Drv F.D. properties file   788 does not exist.
          IDoAtm=111111111111111111111111111111
          Differentiating once with respect to nuclear coordinates.
          There are    93 degrees of freedom in the 1st order CPHF.  IDoFFX=6 NUNeed=     0.
     87 vectors produced by pass  0 Test12= 2.03D-14 1.08D-09 XBig12= 1.89D-01 7.92D-02.
 AX will form    87 AO Fock derivatives at one time.
     87 vectors produced by pass  1 Test12= 2.03D-14 1.08D-09 XBig12= 2.94D-02 3.21D-02.
     87 vectors produced by pass  2 Test12= 2.03D-14 1.08D-09 XBig12= 3.16D-04 3.59D-03.
     87 vectors produced by pass  3 Test12= 2.03D-14 1.08D-09 XBig12= 1.22D-06 1.71D-04.
     87 vectors produced by pass  4 Test12= 2.03D-14 1.08D-09 XBig12= 2.38D-09 6.25D-06.
     80 vectors produced by pass  5 Test12= 2.03D-14 1.08D-09 XBig12= 2.80D-12 1.36D-07.
     23 vectors produced by pass  6 Test12= 2.03D-14 1.08D-09 XBig12= 3.20D-15 4.62D-09.
      4 vectors produced by pass  7 Test12= 2.03D-14 1.08D-09 XBig12= 3.86D-16 2.04D-09.
      3 vectors produced by pass  8 Test12= 2.03D-14 1.08D-09 XBig12= 6.92D-16 2.88D-09.
      3 vectors produced by pass  9 Test12= 2.03D-14 1.08D-09 XBig12= 1.99D-15 5.81D-09.
      3 vectors produced by pass 10 Test12= 2.03D-14 1.08D-09 XBig12= 2.79D-15 5.53D-09.
      3 vectors produced by pass 11 Test12= 2.03D-14 1.08D-09 XBig12= 1.39D-15 3.43D-09.
      3 vectors produced by pass 12 Test12= 2.03D-14 1.08D-09 XBig12= 3.24D-15 5.61D-09.
      3 vectors produced by pass 13 Test12= 2.03D-14 1.08D-09 XBig12= 2.10D-15 4.28D-09.
      2 vectors produced by pass 14 Test12= 2.03D-14 1.08D-09 XBig12= 1.99D-15 3.22D-09.
 InvSVY:  IOpt=1 It=  1 EMax= 5.55D-16
 Solved reduced A of dimension   562 with    93 vectors.
 End of Minotr F.D. properties file   721 does not exist.
 End of Minotr F.D. properties file   722 does not exist.
 End of Minotr F.D. properties file   788 does not exist.

 **********************************************************************

            Population analysis using the SCF density.

 **********************************************************************

 Alpha  occ. eigenvalues --  -19.25779 -19.19919 -19.13586 -14.38961 -14.38478
 Alpha  occ. eigenvalues --  -14.31558 -14.31471 -10.37268 -10.30364 -10.27295
 Alpha  occ. eigenvalues --  -10.23813 -10.22327 -10.22199 -10.22083 -10.20444
 Alpha  occ. eigenvalues --  -10.19469  -1.16824  -1.07954  -1.05992  -1.01935
 Alpha  occ. eigenvalues --   -0.95471  -0.88819  -0.87287  -0.82463  -0.77274
 Alpha  occ. eigenvalues --   -0.75170  -0.69872  -0.66608  -0.62564  -0.61735
 Alpha  occ. eigenvalues --   -0.61164  -0.59226  -0.55689  -0.54170  -0.53652
 Alpha  occ. eigenvalues --   -0.51515  -0.50649  -0.49861  -0.48094  -0.47384
 Alpha  occ. eigenvalues --   -0.46684  -0.45510  -0.44005  -0.43015  -0.41984
 Alpha  occ. eigenvalues --   -0.41372  -0.40579  -0.40264  -0.40026  -0.38941
 Alpha  occ. eigenvalues --   -0.37966  -0.37788  -0.36199  -0.33222  -0.28706
 Alpha  occ. eigenvalues --   -0.28156  -0.26966  -0.26755  -0.24174  -0.22766
 Alpha virt. eigenvalues --   -0.04471  -0.02933  -0.00810   0.00453   0.00793
 Alpha virt. eigenvalues --    0.01315   0.01733   0.02119   0.02485   0.03014
 Alpha virt. eigenvalues --    0.04005   0.04638   0.05132   0.05272   0.05772
 Alpha virt. eigenvalues --    0.06138   0.06916   0.07018   0.07744   0.08035
 Alpha virt. eigenvalues --    0.08271   0.09156   0.09783   0.09917   0.10612
 Alpha virt. eigenvalues --    0.11416   0.12276   0.12703   0.13352   0.13589
 Alpha virt. eigenvalues --    0.14006   0.14458   0.15026   0.15631   0.16170
 Alpha virt. eigenvalues --    0.16339   0.16891   0.17367   0.17604   0.17886
 Alpha virt. eigenvalues --    0.18189   0.19019   0.19275   0.19948   0.20167
 Alpha virt. eigenvalues --    0.20731   0.20795   0.21312   0.21724   0.21804
 Alpha virt. eigenvalues --    0.22265   0.22430   0.23144   0.23600   0.23819
 Alpha virt. eigenvalues --    0.24343   0.24539   0.24931   0.25534   0.26090
 Alpha virt. eigenvalues --    0.26261   0.26520   0.26805   0.27457   0.28015
 Alpha virt. eigenvalues --    0.28572   0.28665   0.29179   0.29900   0.30282
 Alpha virt. eigenvalues --    0.30969   0.31288   0.31720   0.32242   0.32670
 Alpha virt. eigenvalues --    0.33429   0.34208   0.34660   0.34749   0.35419
 Alpha virt. eigenvalues --    0.36585   0.36792   0.37585   0.37982   0.38308
 Alpha virt. eigenvalues --    0.39324   0.40255   0.41589   0.42543   0.43216
 Alpha virt. eigenvalues --    0.43988   0.44886   0.46547   0.47334   0.49733
 Alpha virt. eigenvalues --    0.50582   0.52365   0.53281   0.62735   0.64151
 Alpha virt. eigenvalues --    0.65855   0.66944   0.69328   0.69479   0.70922
 Alpha virt. eigenvalues --    0.72962   0.73248   0.73879   0.75135   0.75771
 Alpha virt. eigenvalues --    0.76875   0.77953   0.79616   0.80424   0.81285
 Alpha virt. eigenvalues --    0.82017   0.82825   0.83553   0.85312   0.86484
 Alpha virt. eigenvalues --    0.87185   0.89707   0.90832   0.91495   0.91723
 Alpha virt. eigenvalues --    0.93711   0.94307   0.95468   0.96034   0.96825
 Alpha virt. eigenvalues --    0.98357   1.00222   1.00902   1.02013   1.02552
 Alpha virt. eigenvalues --    1.03453   1.05108   1.05452   1.06380   1.07025
 Alpha virt. eigenvalues --    1.07513   1.08586   1.09698   1.11522   1.12751
 Alpha virt. eigenvalues --    1.13461   1.14203   1.14996   1.16357   1.18398
 Alpha virt. eigenvalues --    1.20316   1.20724   1.22447   1.24282   1.25684
 Alpha virt. eigenvalues --    1.26482   1.27093   1.28021   1.29110   1.30299
 Alpha virt. eigenvalues --    1.31012   1.31721   1.32857   1.33791   1.34533
 Alpha virt. eigenvalues --    1.36218   1.37595   1.38299   1.40851   1.41455
 Alpha virt. eigenvalues --    1.42253   1.42789   1.46592   1.47495   1.49060
 Alpha virt. eigenvalues --    1.49283   1.50682   1.51584   1.52549   1.55178
 Alpha virt. eigenvalues --    1.56048   1.58047   1.59260   1.64097   1.65512
 Alpha virt. eigenvalues --    1.67723   1.69166   1.71215   1.73565   1.75952
 Alpha virt. eigenvalues --    1.76691   1.76943   1.78076   1.79882   1.81153
 Alpha virt. eigenvalues --    1.82997   1.84159   1.85544   1.85993   1.88382
 Alpha virt. eigenvalues --    1.89119   1.90180   1.91328   1.92625   1.93713
 Alpha virt. eigenvalues --    1.95947   1.98381   2.00494   2.01171   2.03720
 Alpha virt. eigenvalues --    2.04190   2.05290   2.07848   2.08384   2.10011
 Alpha virt. eigenvalues --    2.10699   2.12017   2.13145   2.14187   2.17631
 Alpha virt. eigenvalues --    2.19325   2.20423   2.20957   2.23477   2.23816
 Alpha virt. eigenvalues --    2.25427   2.27678   2.28039   2.28806   2.30052
 Alpha virt. eigenvalues --    2.33349   2.34017   2.36008   2.38411   2.38663
 Alpha virt. eigenvalues --    2.40695   2.41601   2.43443   2.45698   2.46000
 Alpha virt. eigenvalues --    2.46538   2.47427   2.50734   2.51250   2.52762
 Alpha virt. eigenvalues --    2.53888   2.55708   2.57354   2.57493   2.59918
 Alpha virt. eigenvalues --    2.60220   2.62338   2.64270   2.64510   2.66014
 Alpha virt. eigenvalues --    2.66813   2.67425   2.69212   2.70705   2.72784
 Alpha virt. eigenvalues --    2.72934   2.74787   2.77294   2.78963   2.81031
 Alpha virt. eigenvalues --    2.82984   2.83258   2.85758   2.87791   2.89624
 Alpha virt. eigenvalues --    2.91370   2.91826   2.94392   2.95546   2.98405
 Alpha virt. eigenvalues --    3.00435   3.02551   3.05628   3.07839   3.08810
 Alpha virt. eigenvalues --    3.13878   3.20865   3.25248   3.25392   3.32121
 Alpha virt. eigenvalues --    3.34772   3.35891   3.36712   3.41063   3.41873
 Alpha virt. eigenvalues --    3.43352   3.48683   3.53399   3.54856   3.57237
 Alpha virt. eigenvalues --    3.60142   3.61961   3.75998   4.18260   4.20597
 Alpha virt. eigenvalues --    4.24922   4.28801   4.33213   4.36828   4.41004
 Alpha virt. eigenvalues --    4.43639   4.49192   4.55177   4.59608   4.61360
 Alpha virt. eigenvalues --    4.65059   4.76967   4.78401   4.82960
          Condensed to atoms (all electrons):
               1          2          3          4          5          6
     1  O    8.291776   0.465770  -0.184006   0.038723   0.022137   0.000431
     2  C    0.465770   6.884496  -0.046152  -0.171353  -0.048814   0.002801
     3  N   -0.184006  -0.046152   7.501026  -0.244643   0.036729   0.019406
     4  C    0.038723  -0.171353  -0.244643  10.145633  -2.025853  -0.162451
     5  C    0.022137  -0.048814   0.036729  -2.025853   6.694769   0.070318
     6  O    0.000431   0.002801   0.019406  -0.162451   0.070318   8.474205
     7  O   -0.000097   0.029849   0.015571  -0.159402   0.489844  -0.147865
     8  C   -0.145182  -0.187303  -0.023826   0.243974   0.077080  -0.018991
     9  C    0.087471   0.014999   0.160135  -1.405005   0.036370   0.079193
    10  C   -0.024237  -0.070310   0.002497   0.227791   0.017672   0.004875
    11  N    0.000211   0.003615   0.001391  -0.015901  -0.004041  -0.000748
    12  C    0.002802   0.006559   0.006057  -0.065609   0.010912  -0.006813
    13  N    0.002016  -0.010829  -0.002524  -0.038734   0.046721   0.006326
    14  C   -0.078015  -0.687951  -0.290204  -0.268175  -0.072786   0.001157
    15  C    0.020834  -0.294801   0.061728   0.071412   0.002971  -0.000307
    16  N   -0.019757   0.048647  -0.008348  -0.000664  -0.009193  -0.000008
    17  H    0.008011  -0.013059   0.288228   0.016300  -0.027088   0.001750
    18  H    0.009605   0.037621  -0.068268   0.418271  -0.127565   0.004275
    19  H   -0.000001  -0.001302  -0.002405   0.054049  -0.004456   0.189715
    20  H   -0.000045  -0.001279  -0.012694   0.023756  -0.028264  -0.000014
    21  H    0.000781   0.006192   0.012363  -0.132518   0.028227   0.003153
    22  H    0.000080   0.000033  -0.000278   0.017144  -0.000810  -0.000036
    23  H    0.000003  -0.000144  -0.000028   0.003571  -0.001335  -0.000467
    24  H   -0.000030   0.001419  -0.000033   0.008535  -0.005498   0.001703
    25  H    0.008977  -0.045276   0.006966   0.028124  -0.004839   0.000001
    26  H   -0.002604  -0.114095   0.010521  -0.007836   0.000225  -0.000002
    27  H   -0.000616   0.006558  -0.001117   0.001245   0.000041   0.000000
    28  H    0.002037  -0.043735   0.014972   0.001059   0.001895  -0.000003
    29  H    0.008027  -0.028959   0.002786  -0.001498  -0.000692   0.000000
    30  H   -0.000209  -0.006592  -0.000583  -0.001080  -0.000048   0.000000
               7          8          9         10         11         12
     1  O   -0.000097  -0.145182   0.087471  -0.024237   0.000211   0.002802
     2  C    0.029849  -0.187303   0.014999  -0.070310   0.003615   0.006559
     3  N    0.015571  -0.023826   0.160135   0.002497   0.001391   0.006057
     4  C   -0.159402   0.243974  -1.405005   0.227791  -0.015901  -0.065609
     5  C    0.489844   0.077080   0.036370   0.017672  -0.004041   0.010912
     6  O   -0.147865  -0.018991   0.079193   0.004875  -0.000748  -0.006813
     7  O    8.213082  -0.032551   0.009828   0.003001  -0.000042   0.000187
     8  C   -0.032551   8.839726  -2.658217  -0.295209  -0.039877  -0.012653
     9  C    0.009828  -2.658217  10.217645  -0.932020  -0.094854   0.030146
    10  C    0.003001  -0.295209  -0.932020   7.056551   0.402264  -0.507229
    11  N   -0.000042  -0.039877  -0.094854   0.402264   6.782586   0.414136
    12  C    0.000187  -0.012653   0.030146  -0.507229   0.414136   5.330265
    13  N   -0.000806  -0.059692   0.266260  -0.138420  -0.037545   0.092177
    14  C    0.008489  -0.174818   0.203088  -0.022885   0.001341   0.005557
    15  C   -0.000502   0.007850  -0.006750   0.006562   0.000021  -0.000192
    16  N   -0.000026   0.005917  -0.004309  -0.003105  -0.000002  -0.000040
    17  H    0.013149   0.004809  -0.008756   0.000017  -0.000009  -0.000111
    18  H    0.004055  -0.078454   0.071291   0.004344  -0.001262  -0.006557
    19  H    0.007099  -0.000723  -0.010474  -0.001347   0.000020  -0.000604
    20  H   -0.000194   0.494641  -0.145120   0.002944  -0.000792  -0.007411
    21  H    0.002106   0.438438  -0.048659  -0.001313  -0.001889  -0.004509
    22  H   -0.000002   0.049895  -0.105107   0.377128  -0.062783   0.024271
    23  H   -0.000001   0.018585   0.032074  -0.030758  -0.052995   0.445560
    24  H    0.000403  -0.063370   0.103500  -0.006613   0.009792  -0.031398
    25  H   -0.000271  -0.000227  -0.002572   0.000264  -0.000001  -0.000018
    26  H   -0.000001   0.003951  -0.001236  -0.000408   0.000001  -0.000003
    27  H   -0.000001   0.000138  -0.000038  -0.000017   0.000000   0.000000
    28  H    0.000025   0.000114   0.000073   0.000103   0.000000  -0.000006
    29  H   -0.000001   0.000322   0.000410  -0.000210   0.000001  -0.000014
    30  H    0.000000  -0.000206   0.000107  -0.000001   0.000000   0.000001
              13         14         15         16         17         18
     1  O    0.002016  -0.078015   0.020834  -0.019757   0.008011   0.009605
     2  C   -0.010829  -0.687951  -0.294801   0.048647  -0.013059   0.037621
     3  N   -0.002524  -0.290204   0.061728  -0.008348   0.288228  -0.068268
     4  C   -0.038734  -0.268175   0.071412  -0.000664   0.016300   0.418271
     5  C    0.046721  -0.072786   0.002971  -0.009193  -0.027088  -0.127565
     6  O    0.006326   0.001157  -0.000307  -0.000008   0.001750   0.004275
     7  O   -0.000806   0.008489  -0.000502  -0.000026   0.013149   0.004055
     8  C   -0.059692  -0.174818   0.007850   0.005917   0.004809  -0.078454
     9  C    0.266260   0.203088  -0.006750  -0.004309  -0.008756   0.071291
    10  C   -0.138420  -0.022885   0.006562  -0.003105   0.000017   0.004344
    11  N   -0.037545   0.001341   0.000021  -0.000002  -0.000009  -0.001262
    12  C    0.092177   0.005557  -0.000192  -0.000040  -0.000111  -0.006557
    13  N    7.025476  -0.000202  -0.000092   0.000091  -0.000015  -0.009022
    14  C   -0.000202   7.095947  -0.020612  -0.163399   0.018822   0.018583
    15  C   -0.000092  -0.020612   5.294380   0.287910  -0.002137  -0.003802
    16  N    0.000091  -0.163399   0.287910   6.917077   0.000352   0.000193
    17  H   -0.000015   0.018822  -0.002137   0.000352   0.371248   0.003230
    18  H   -0.009022   0.018583  -0.003802   0.000193   0.003230   0.521152
    19  H    0.001924  -0.000166   0.000025   0.000000  -0.000036  -0.000201
    20  H    0.005482   0.002745   0.000539   0.000016   0.000225  -0.001354
    21  H   -0.006480  -0.002818  -0.000471   0.000005  -0.000147   0.004526
    22  H    0.003883  -0.000300   0.000048  -0.000001   0.000000  -0.000024
    23  H   -0.113222  -0.000009   0.000001   0.000000   0.000000  -0.000003
    24  H    0.259285   0.000073  -0.000017   0.000000   0.000001   0.000257
    25  H   -0.000008   0.321278  -0.008902   0.010304   0.001373  -0.000007
    26  H    0.000003   0.440703   0.003215  -0.002361   0.000005  -0.000019
    27  H    0.000000  -0.071376   0.443200  -0.044761  -0.000012   0.000000
    28  H   -0.000007  -0.087835   0.484535  -0.106646  -0.000140  -0.000019
    29  H   -0.000001  -0.018518   0.003120   0.363293  -0.000012  -0.000002
    30  H    0.000000   0.063176  -0.066216   0.327211   0.000000   0.000000
              19         20         21         22         23         24
     1  O   -0.000001  -0.000045   0.000781   0.000080   0.000003  -0.000030
     2  C   -0.001302  -0.001279   0.006192   0.000033  -0.000144   0.001419
     3  N   -0.002405  -0.012694   0.012363  -0.000278  -0.000028  -0.000033
     4  C    0.054049   0.023756  -0.132518   0.017144   0.003571   0.008535
     5  C   -0.004456  -0.028264   0.028227  -0.000810  -0.001335  -0.005498
     6  O    0.189715  -0.000014   0.003153  -0.000036  -0.000467   0.001703
     7  O    0.007099  -0.000194   0.002106  -0.000002  -0.000001   0.000403
     8  C   -0.000723   0.494641   0.438438   0.049895   0.018585  -0.063370
     9  C   -0.010474  -0.145120  -0.048659  -0.105107   0.032074   0.103500
    10  C   -0.001347   0.002944  -0.001313   0.377128  -0.030758  -0.006613
    11  N    0.000020  -0.000792  -0.001889  -0.062783  -0.052995   0.009792
    12  C   -0.000604  -0.007411  -0.004509   0.024271   0.445560  -0.031398
    13  N    0.001924   0.005482  -0.006480   0.003883  -0.113222   0.259285
    14  C   -0.000166   0.002745  -0.002818  -0.000300  -0.000009   0.000073
    15  C    0.000025   0.000539  -0.000471   0.000048   0.000001  -0.000017
    16  N    0.000000   0.000016   0.000005  -0.000001   0.000000   0.000000
    17  H   -0.000036   0.000225  -0.000147   0.000000   0.000000   0.000001
    18  H   -0.000201  -0.001354   0.004526  -0.000024  -0.000003   0.000257
    19  H    0.357061   0.000008  -0.000130   0.000000  -0.000001   0.000243
    20  H    0.000008   0.507117  -0.028226   0.002214   0.000004  -0.000064
    21  H   -0.000130  -0.028226   0.570853  -0.000062  -0.000004   0.000687
    22  H    0.000000   0.002214  -0.000062   0.564919  -0.000044  -0.000094
    23  H   -0.000001   0.000004  -0.000004  -0.000044   0.570620   0.000420
    24  H    0.000243  -0.000064   0.000687  -0.000094   0.000420   0.397482
    25  H    0.000000  -0.000011  -0.000002   0.000000   0.000000   0.000000
    26  H    0.000000   0.000031  -0.000002   0.000000   0.000000   0.000000
    27  H    0.000000   0.000000   0.000000   0.000000   0.000000   0.000000
    28  H    0.000000  -0.000001   0.000000   0.000000   0.000000   0.000000
    29  H    0.000000   0.000000   0.000000   0.000000   0.000000   0.000000
    30  H    0.000000   0.000000   0.000000   0.000000   0.000000   0.000000
              25         26         27         28         29         30
     1  O    0.008977  -0.002604  -0.000616   0.002037   0.008027  -0.000209
     2  C   -0.045276  -0.114095   0.006558  -0.043735  -0.028959  -0.006592
     3  N    0.006966   0.010521  -0.001117   0.014972   0.002786  -0.000583
     4  C    0.028124  -0.007836   0.001245   0.001059  -0.001498  -0.001080
     5  C   -0.004839   0.000225   0.000041   0.001895  -0.000692  -0.000048
     6  O    0.000001  -0.000002   0.000000  -0.000003   0.000000   0.000000
     7  O   -0.000271  -0.000001  -0.000001   0.000025  -0.000001   0.000000
     8  C   -0.000227   0.003951   0.000138   0.000114   0.000322  -0.000206
     9  C   -0.002572  -0.001236  -0.000038   0.000073   0.000410   0.000107
    10  C    0.000264  -0.000408  -0.000017   0.000103  -0.000210  -0.000001
    11  N   -0.000001   0.000001   0.000000   0.000000   0.000001   0.000000
    12  C   -0.000018  -0.000003   0.000000  -0.000006  -0.000014   0.000001
    13  N   -0.000008   0.000003   0.000000  -0.000007  -0.000001   0.000000
    14  C    0.321278   0.440703  -0.071376  -0.087835  -0.018518   0.063176
    15  C   -0.008902   0.003215   0.443200   0.484535   0.003120  -0.066216
    16  N    0.010304  -0.002361  -0.044761  -0.106646   0.363293   0.327211
    17  H    0.001373   0.000005  -0.000012  -0.000140  -0.000012   0.000000
    18  H   -0.000007  -0.000019   0.000000  -0.000019  -0.000002   0.000000
    19  H    0.000000   0.000000   0.000000   0.000000   0.000000   0.000000
    20  H   -0.000011   0.000031   0.000000  -0.000001   0.000000   0.000000
    21  H   -0.000002  -0.000002   0.000000   0.000000   0.000000   0.000000
    22  H    0.000000   0.000000   0.000000   0.000000   0.000000   0.000000
    23  H    0.000000   0.000000   0.000000   0.000000   0.000000   0.000000
    24  H    0.000000   0.000000   0.000000   0.000000   0.000000   0.000000
    25  H    0.590031  -0.027039  -0.005407   0.000548  -0.000019  -0.000212
    26  H   -0.027039   0.506995  -0.004573   0.005309  -0.000068   0.000087
    27  H   -0.005407  -0.004573   0.584915  -0.049427   0.004882  -0.004555
    28  H    0.000548   0.005309  -0.049427   0.661666  -0.001846  -0.002974
    29  H   -0.000019  -0.000068   0.004882  -0.001846   0.386892  -0.036409
    30  H   -0.000212   0.000087  -0.004555  -0.002974  -0.036409   0.451020
 Mulliken charges:
               1
     1  O   -0.514894
     2  C    0.263396
     3  N   -0.255266
     4  C   -0.598864
     5  C    0.825372
     6  O   -0.521606
     7  O   -0.454925
     8  C   -0.394140
     9  C    0.110530
    10  C   -0.071929
    11  N   -0.302638
    12  C    0.274537
    13  N   -0.292046
    14  C   -0.220888
    15  C   -0.283549
    16  N   -0.598392
    17  H    0.324001
    18  H    0.199157
    19  H    0.411701
    20  H    0.185748
    21  H    0.159900
    22  H    0.129927
    23  H    0.128172
    24  H    0.323317
    25  H    0.126947
    26  H    0.189203
    27  H    0.140922
    28  H    0.120304
    29  H    0.318517
    30  H    0.277486
 Sum of Mulliken charges =   0.00000
 Mulliken charges with hydrogens summed into heavy atoms:
               1
     1  O   -0.514894
     2  C    0.263396
     3  N    0.068735
     4  C   -0.399707
     5  C    0.825372
     6  O   -0.109906
     7  O   -0.454925
     8  C   -0.048492
     9  C    0.110530
    10  C    0.057998
    11  N   -0.302638
    12  C    0.402709
    13  N    0.031272
    14  C    0.095262
    15  C   -0.022323
    16  N   -0.002389
 APT charges:
               1
     1  O   -0.630793
     2  C    0.509862
     3  N   -0.647188
     4  C   -0.633640
     5  C    0.322411
     6  O   -0.846864
     7  O   -0.093362
     8  C   -0.982744
     9  C   -0.404870
    10  C   -0.037069
    11  N   -0.365482
    12  C   -0.348028
    13  N   -0.473797
    14  C   -0.877111
    15  C   -1.183769
    16  N   -0.787576
    17  H    0.701001
    18  H    0.283582
    19  H    1.062894
    20  H    0.295449
    21  H    0.518199
    22  H    0.405261
    23  H    0.973685
    24  H    0.472928
    25  H    0.413788
    26  H    0.527958
    27  H    0.817847
    28  H    0.197696
    29  H   -0.075224
    30  H    0.884955
 Sum of APT charges =   0.00000
 APT charges with hydrogens summed into heavy atoms:
               1
     1  O   -0.630793
     2  C    0.509862
     3  N    0.053813
     4  C   -0.350057
     5  C    0.322411
     6  O    0.216030
     7  O   -0.093362
     8  C   -0.169096
     9  C   -0.404870
    10  C    0.368192
    11  N   -0.365482
    12  C    0.625657
    13  N   -0.000870
    14  C    0.064635
    15  C   -0.168226
    16  N    0.022156
 Electronic spatial extent (au):  <R**2>=           4654.7293
 Charge=              0.0000 electrons
 Dipole moment (field-independent basis, Debye):
    X=              0.9878    Y=             -1.0731    Z=              6.9288  Tot=              7.0806
 Quadrupole moment (field-independent basis, Debye-Ang):
   XX=            -98.8971   YY=            -92.9718   ZZ=           -101.6079
   XY=              4.3735   XZ=            -15.0047   YZ=              7.0920
 Traceless Quadrupole moment (field-independent basis, Debye-Ang):
   XX=             -1.0715   YY=              4.8538   ZZ=             -3.7823
   XY=              4.3735   XZ=            -15.0047   YZ=              7.0920
 Octapole moment (field-independent basis, Debye-Ang**2):
  XXX=            163.7030  YYY=             -1.3250  ZZZ=             33.7047  XYY=             51.1786
  XXY=              3.3923  XXZ=             96.5815  XZZ=              0.2627  YZZ=             -2.3008
  YYZ=             -5.1203  XYZ=            -23.2313
 Hexadecapole moment (field-independent basis, Debye-Ang**3):
 XXXX=          -4384.3526 YYYY=           -462.0839 ZZZZ=          -1425.5401 XXXY=            206.3859
 XXXZ=            -95.7323 YYYX=            188.6778 YYYZ=            164.3216 ZZZX=              7.3651
 ZZZY=            225.9280 XXYY=           -728.3804 XXZZ=          -1083.3038 YYZZ=           -336.0566
 XXYZ=            109.0878 YYXZ=            -12.6293 ZZXY=            106.3999
 N-N= 1.121304202687D+03 E-N=-4.097910803196D+03  KE= 7.891506133340D+02
  Exact polarizability:   0.000   0.000   0.000   0.000   0.000   0.000
 Approx polarizability: 201.616 -30.588 177.048   5.405 -17.302 227.233
 Calling FoFJK, ICntrl=    100147 FMM=F ISym2X=0 I1Cent= 0 IOpClX= 0 NMat=1 NMatS=1 NMatT=0.
 -------------------------------------------------------------------
 Center     Atomic                   Forces (Hartrees/Bohr)
 Number     Number              X              Y              Z
 -------------------------------------------------------------------
      1        8          -0.005993166    0.007883648   -0.008618456
      2        6           0.014630032   -0.005360102   -0.002093052
      3        7          -0.007287077   -0.000463504    0.007597952
      4        6           0.010413149   -0.002819707   -0.000126625
      5        6          -0.004626714    0.005057065   -0.013778592
      6        8          -0.000616566    0.000699992    0.003188618
      7        8           0.008329975   -0.005943198    0.013811985
      8        6          -0.005742652    0.005242889   -0.003652960
      9        6           0.007020147   -0.006546754    0.000597347
     10        6          -0.007033000    0.004407734   -0.009303998
     11        7           0.001467312   -0.002409051   -0.007029748
     12        6          -0.001177145    0.002291216    0.000554628
     13        7          -0.003664562   -0.000457467    0.008854107
     14        6          -0.005085764   -0.002719683    0.002743115
     15        6           0.003973848    0.001758009   -0.002416953
     16        7           0.001221896    0.000502790    0.001595387
     17        1           0.002555943   -0.003058518    0.002100814
     18        1          -0.004474057    0.001173981   -0.000917855
     19        1          -0.002920658   -0.000125772    0.004152468
     20        1           0.001842355    0.000156688   -0.000534558
     21        1          -0.001557366   -0.004101169    0.003244326
     22        1           0.000267696    0.000171048   -0.000047315
     23        1          -0.003357656    0.003558979    0.000306609
     24        1          -0.002058264    0.000818813    0.001752699
     25        1           0.002677075   -0.001310188    0.001413445
     26        1           0.000721624   -0.000882812   -0.001506037
     27        1           0.001191379   -0.000649422    0.000764671
     28        1          -0.000249170    0.000182161    0.002022030
     29        1          -0.004481358   -0.000399179   -0.002964451
     30        1           0.004012744    0.003341513   -0.001709602
 -------------------------------------------------------------------
 Cartesian Forces:  Max     0.014630032 RMS     0.004657618
 FormGI is forming the generalized inverse of G from B-inverse, IUseBI=4.

 GradGradGradGradGradGradGradGradGradGradGradGradGradGradGradGradGradGrad
 Berny optimization.
 Internal  Forces:  Max     0.016776087 RMS     0.004031571
 Search for a local minimum.
 Step number   1 out of a maximum of  160
 All quantities printed in internal units (Hartrees-Bohrs-Radians)
 Mixed Optimization -- RFO/linear search
 Second derivative matrix not updated -- analytic derivatives used.
 ITU=  0
     Eigenvalues ---    0.00051   0.00112   0.00205   0.00366   0.00395
     Eigenvalues ---    0.00543   0.00630   0.00705   0.00814   0.01025
     Eigenvalues ---    0.01999   0.02022   0.02083   0.02544   0.03463
     Eigenvalues ---    0.03950   0.04161   0.04219   0.04477   0.04523
     Eigenvalues ---    0.04682   0.04707   0.05172   0.05315   0.05762
     Eigenvalues ---    0.05793   0.06143   0.06379   0.07532   0.07959
     Eigenvalues ---    0.08305   0.10555   0.10703   0.11020   0.11784
     Eigenvalues ---    0.11844   0.12278   0.12746   0.15199   0.15659
     Eigenvalues ---    0.16616   0.18026   0.18828   0.19272   0.20725
     Eigenvalues ---    0.21803   0.22077   0.22839   0.23410   0.23482
     Eigenvalues ---    0.24895   0.25049   0.25283   0.27305   0.30924
     Eigenvalues ---    0.31226   0.31442   0.33046   0.33255   0.34223
     Eigenvalues ---    0.34304   0.34527   0.34885   0.35290   0.35669
     Eigenvalues ---    0.36806   0.37677   0.38156   0.38561   0.38881
     Eigenvalues ---    0.40981   0.42475   0.45235   0.45980   0.46603
     Eigenvalues ---    0.47478   0.47934   0.48422   0.48887   0.52088
     Eigenvalues ---    0.58026   0.60215   0.83762   0.93153
 RFO step:  Lambda=-6.73048208D-03 EMin= 5.14872388D-04
 Linear search not attempted -- first point.
 Iteration  1 RMS(Cart)=  0.11811557 RMS(Int)=  0.00255619
 Iteration  2 RMS(Cart)=  0.00465715 RMS(Int)=  0.00017084
 Iteration  3 RMS(Cart)=  0.00001203 RMS(Int)=  0.00017074
 Iteration  4 RMS(Cart)=  0.00000001 RMS(Int)=  0.00017074
 Variable       Old X    -DE/DX   Delta X   Delta X   Delta X     New X
                                 (Linear)    (Quad)   (Total)
    R1        2.31514   0.01308   0.00000   0.01415   0.01415   2.32929
    R2        2.55489   0.01571   0.00000   0.02716   0.02716   2.58205
    R3        2.87163   0.00384   0.00000   0.00252   0.00252   2.87415
    R4        2.74495   0.00787   0.00000   0.00302   0.00302   2.74797
    R5        1.90406   0.00405   0.00000   0.00851   0.00851   1.91257
    R6        2.85963   0.00721   0.00000   0.01380   0.01380   2.87343
    R7        2.92847   0.01091   0.00000   0.03305   0.03305   2.96152
    R8        2.07118   0.00132   0.00000   0.00391   0.00391   2.07509
    R9        2.55477   0.00531   0.00000   0.00883   0.00883   2.56360
   R10        2.27247   0.01678   0.00000   0.01841   0.01841   2.29088
   R11        1.83202   0.00434   0.00000   0.00689   0.00689   1.83890
   R12        2.81812   0.00872   0.00000   0.00884   0.00884   2.82696
   R13        2.05649   0.00127   0.00000   0.00494   0.00494   2.06144
   R14        2.06005   0.00539   0.00000   0.01501   0.01501   2.07506
   R15        2.58062   0.01205   0.00000   0.02258   0.02263   2.60325
   R16        2.59034   0.01228   0.00000   0.02518   0.02524   2.61558
   R17        2.61605  -0.00205   0.00000  -0.01263  -0.01267   2.60339
   R18        2.04207   0.00009   0.00000   0.00099   0.00099   2.04306
   R19        2.47705   0.00583   0.00000   0.01052   0.01045   2.48750
   R20        2.57047   0.00825   0.00000   0.01340   0.01339   2.58387
   R21        2.03174   0.00461   0.00000   0.01117   0.01117   2.04291
   R22        1.90405   0.00163   0.00000   0.00387   0.00387   1.90792
   R23        2.88420   0.00731   0.00000   0.02430   0.02430   2.90850
   R24        2.06394   0.00245   0.00000   0.00616   0.00616   2.07010
   R25        2.06453   0.00181   0.00000   0.00642   0.00642   2.07094
   R26        2.76285   0.00428   0.00000   0.00195   0.00195   2.76480
   R27        2.06752   0.00141   0.00000   0.00363   0.00363   2.07115
   R28        2.08357   0.00174   0.00000   0.00504   0.00504   2.08860
   R29        1.91561   0.00449   0.00000   0.00809   0.00809   1.92370
   R30        1.91151   0.00505   0.00000   0.00824   0.00824   1.91975
    A1        2.12375  -0.00100   0.00000  -0.00677  -0.00678   2.11697
    A2        2.13707   0.00030   0.00000   0.00228   0.00228   2.13935
    A3        2.02236   0.00071   0.00000   0.00451   0.00451   2.02687
    A4        2.08237   0.00788   0.00000   0.03264   0.03236   2.11473
    A5        2.12047  -0.00495   0.00000  -0.01806  -0.01839   2.10208
    A6        2.03881  -0.00255   0.00000  -0.00319  -0.00344   2.03537
    A7        1.86507  -0.00428   0.00000  -0.00484  -0.00478   1.86029
    A8        1.93875   0.00321   0.00000   0.01760   0.01764   1.95640
    A9        1.87220   0.00197   0.00000   0.03078   0.03097   1.90317
   A10        1.97399   0.00172   0.00000  -0.00539  -0.00554   1.96845
   A11        1.89725   0.00055   0.00000  -0.00657  -0.00691   1.89035
   A12        1.91309  -0.00315   0.00000  -0.02918  -0.02951   1.88358
   A13        1.96583   0.00456   0.00000   0.00746   0.00746   1.97329
   A14        2.17518   0.00197   0.00000   0.00914   0.00914   2.18432
   A15        2.14217  -0.00653   0.00000  -0.01661  -0.01661   2.12556
   A16        1.85309   0.00473   0.00000   0.01410   0.01410   1.86719
   A17        1.97208   0.01511   0.00000   0.04988   0.04994   2.02203
   A18        1.88299  -0.00572   0.00000  -0.03305  -0.03315   1.84984
   A19        1.92136  -0.00438   0.00000  -0.01419  -0.01461   1.90675
   A20        1.86917  -0.00391   0.00000  -0.00365  -0.00315   1.86602
   A21        1.94802  -0.00421   0.00000  -0.00499  -0.00506   1.94296
   A22        1.86510   0.00238   0.00000   0.00261   0.00219   1.86729
   A23        2.29049  -0.00343   0.00000  -0.00827  -0.00858   2.28191
   A24        2.15881   0.00695   0.00000   0.01921   0.01889   2.17770
   A25        1.83346  -0.00349   0.00000  -0.00983  -0.00993   1.82353
   A26        1.93015   0.00292   0.00000   0.00926   0.00930   1.93945
   A27        2.23244  -0.00152   0.00000  -0.01013  -0.01016   2.22228
   A28        2.12060  -0.00141   0.00000   0.00088   0.00085   2.12145
   A29        1.83394   0.00130   0.00000   0.00217   0.00209   1.83603
   A30        1.94685   0.00106   0.00000   0.00235   0.00232   1.94917
   A31        2.21089  -0.00215   0.00000  -0.01290  -0.01289   2.19800
   A32        2.12545   0.00109   0.00000   0.01055   0.01056   2.13601
   A33        1.88022  -0.00177   0.00000  -0.00367  -0.00364   1.87658
   A34        2.16753   0.00294   0.00000   0.01368   0.01356   2.18109
   A35        2.23519  -0.00118   0.00000  -0.01044  -0.01053   2.22467
   A36        1.94118   0.00234   0.00000   0.01047   0.01046   1.95164
   A37        1.91221   0.00045   0.00000   0.01883   0.01885   1.93106
   A38        1.88250  -0.00016   0.00000  -0.00012  -0.00006   1.88244
   A39        1.93378  -0.00148   0.00000  -0.01058  -0.01078   1.92300
   A40        1.90125  -0.00142   0.00000  -0.01482  -0.01488   1.88638
   A41        1.89149   0.00026   0.00000  -0.00412  -0.00431   1.88718
   A42        1.92289   0.00247   0.00000   0.00619   0.00620   1.92908
   A43        1.89514  -0.00059   0.00000  -0.00803  -0.00807   1.88707
   A44        1.90849  -0.00168   0.00000  -0.00955  -0.00960   1.89889
   A45        1.88470  -0.00087   0.00000   0.00307   0.00309   1.88779
   A46        1.98312   0.00042   0.00000   0.00950   0.00952   1.99264
   A47        1.86678   0.00014   0.00000  -0.00204  -0.00213   1.86464
   A48        1.90655   0.00250   0.00000   0.01484   0.01448   1.92103
   A49        1.91408   0.00226   0.00000   0.02166   0.02131   1.93539
   A50        1.86664  -0.00001   0.00000   0.02281   0.02213   1.88876
    D1       -0.09357   0.00032   0.00000   0.00377   0.00366  -0.08992
    D2       -2.91979  -0.00066   0.00000  -0.03792  -0.03779  -2.95758
    D3        3.04272   0.00023   0.00000   0.00774   0.00761   3.05033
    D4        0.21650  -0.00075   0.00000  -0.03395  -0.03383   0.18266
    D5        1.10064  -0.00087   0.00000  -0.08697  -0.08703   1.01361
    D6       -3.03870  -0.00086   0.00000  -0.08030  -0.08022  -3.11892
    D7       -0.98318  -0.00040   0.00000  -0.07492  -0.07491  -1.05809
    D8       -2.03560  -0.00077   0.00000  -0.09094  -0.09101  -2.12661
    D9        0.10824  -0.00077   0.00000  -0.08427  -0.08420   0.02404
   D10        2.16376  -0.00030   0.00000  -0.07889  -0.07889   2.08487
   D11       -2.81149   0.00097   0.00000   0.01509   0.01500  -2.79649
   D12        1.31106  -0.00030   0.00000   0.01404   0.01408   1.32513
   D13       -0.77937   0.00045   0.00000   0.02025   0.01997  -0.75940
   D14        0.02924   0.00136   0.00000   0.05181   0.05194   0.08117
   D15       -2.13141   0.00009   0.00000   0.05076   0.05101  -2.08039
   D16        2.06136   0.00084   0.00000   0.05697   0.05690   2.11826
   D17        3.13427  -0.00079   0.00000  -0.01270  -0.01267   3.12160
   D18       -0.01218  -0.00064   0.00000  -0.01428  -0.01426  -0.02644
   D19       -1.01016   0.00133   0.00000   0.00264   0.00265  -1.00751
   D20        2.12658   0.00148   0.00000   0.00106   0.00107   2.12765
   D21        1.11886  -0.00114   0.00000  -0.04284  -0.04287   1.07599
   D22       -2.02759  -0.00099   0.00000  -0.04442  -0.04446  -2.07204
   D23       -2.48849  -0.00054   0.00000  -0.04185  -0.04161  -2.53010
   D24       -0.42557  -0.00016   0.00000  -0.03839  -0.03859  -0.46415
   D25        1.60369  -0.00292   0.00000  -0.06168  -0.06143   1.54227
   D26        1.69753   0.00149   0.00000  -0.04449  -0.04423   1.65330
   D27       -2.52274   0.00187   0.00000  -0.04103  -0.04121  -2.56394
   D28       -0.49347  -0.00089   0.00000  -0.06432  -0.06405  -0.55752
   D29       -0.42259   0.00187   0.00000  -0.01145  -0.01152  -0.43411
   D30        1.64033   0.00226   0.00000  -0.00799  -0.00850   1.63183
   D31       -2.61359  -0.00051   0.00000  -0.03128  -0.03134  -2.64493
   D32       -3.12695  -0.00040   0.00000  -0.01554  -0.01553   3.14071
   D33        0.01939  -0.00057   0.00000  -0.01407  -0.01408   0.00531
   D34        2.10632  -0.00129   0.00000  -0.03275  -0.03270   2.07362
   D35       -0.99914  -0.00235   0.00000  -0.08004  -0.08010  -1.07924
   D36        0.03535  -0.00049   0.00000  -0.01868  -0.01874   0.01661
   D37       -3.07011  -0.00154   0.00000  -0.06597  -0.06614  -3.13625
   D38       -2.00030   0.00126   0.00000  -0.01694  -0.01677  -2.01707
   D39        1.17742   0.00020   0.00000  -0.06423  -0.06417   1.11325
   D40       -3.12602  -0.00039   0.00000  -0.02995  -0.02941   3.12775
   D41        0.01454  -0.00071   0.00000  -0.03351  -0.03316  -0.01862
   D42       -0.01556   0.00069   0.00000   0.01128   0.01128  -0.00428
   D43        3.12500   0.00038   0.00000   0.00771   0.00753   3.13253
   D44        3.13017  -0.00024   0.00000   0.02112   0.02146  -3.13155
   D45        0.01045   0.00018   0.00000   0.04057   0.04098   0.05143
   D46        0.01671  -0.00101   0.00000  -0.01557  -0.01549   0.00122
   D47       -3.10301  -0.00059   0.00000   0.00388   0.00402  -3.09898
   D48        0.00822  -0.00012   0.00000  -0.00250  -0.00252   0.00570
   D49       -3.13242   0.00017   0.00000   0.00081   0.00099  -3.13143
   D50        0.00278  -0.00048   0.00000  -0.00759  -0.00766  -0.00487
   D51       -3.13665  -0.00012   0.00000  -0.01090  -0.01078   3.13576
   D52       -0.01260   0.00094   0.00000   0.01492   0.01496   0.00237
   D53        3.10601   0.00056   0.00000  -0.00512  -0.00479   3.10123
   D54        3.12695   0.00058   0.00000   0.01800   0.01792  -3.13831
   D55       -0.03762   0.00021   0.00000  -0.00203  -0.00183  -0.03945
   D56       -1.26158  -0.00042   0.00000  -0.01138  -0.01139  -1.27297
   D57        2.96087  -0.00044   0.00000  -0.01389  -0.01387   2.94700
   D58        0.92979   0.00065   0.00000  -0.00171  -0.00176   0.92803
   D59        2.89022  -0.00157   0.00000  -0.03530  -0.03521   2.85501
   D60        0.82948  -0.00160   0.00000  -0.03780  -0.03769   0.79179
   D61       -1.20160  -0.00051   0.00000  -0.02563  -0.02558  -1.22718
   D62        0.81103  -0.00011   0.00000  -0.01456  -0.01463   0.79640
   D63       -1.24971  -0.00013   0.00000  -0.01707  -0.01711  -1.26682
   D64        3.00239   0.00096   0.00000  -0.00489  -0.00500   2.99740
   D65        1.03568  -0.00168   0.00000  -0.03465  -0.03482   1.00086
   D66        3.07621   0.00103   0.00000   0.01387   0.01406   3.09027
   D67        3.10283  -0.00151   0.00000  -0.03901  -0.03919   3.06364
   D68       -1.13983   0.00121   0.00000   0.00951   0.00969  -1.13014
   D69       -1.11265  -0.00167   0.00000  -0.03373  -0.03392  -1.14657
   D70        0.92788   0.00105   0.00000   0.01479   0.01496   0.94284
         Item               Value     Threshold  Converged?
 Maximum Force            0.016776     0.000450     NO 
 RMS     Force            0.004032     0.000300     NO 
 Maximum Displacement     0.493149     0.001800     NO 
 RMS     Displacement     0.118169     0.001200     NO 
 Predicted change in Energy=-3.774919D-03
 GradGradGradGradGradGradGradGradGradGradGradGradGradGradGradGradGradGrad

                          Input orientation:                          
 ---------------------------------------------------------------------
 Center     Atomic      Atomic             Coordinates (Angstroms)
 Number     Number       Type             X           Y           Z
 ---------------------------------------------------------------------
      1          8           0        1.107904    0.347432   -1.290594
      2          6           0        1.608859   -0.361225   -0.415282
      3          7           0        0.894685   -0.739862    0.686322
      4          6           0       -0.446925   -0.231980    0.924514
      5          6           0       -0.731513   -0.434935    2.404345
      6          8           0       -1.953314    0.021116    2.777946
      7          8           0        0.026568   -0.952287    3.196357
      8          6           0       -1.510286   -0.920604    0.001977
      9          6           0       -2.635423   -0.049441   -0.459597
     10          6           0       -3.021436    0.323815   -1.728217
     11          7           0       -4.136600    1.131834   -1.690249
     12          6           0       -4.427296    1.258909   -0.412726
     13          7           0       -3.552923    0.563759    0.375825
     14          6           0        3.042828   -0.862785   -0.488875
     15          6           0        4.050002    0.296678   -0.589439
     16          7           0        4.000919    0.905036   -1.919123
     17          1           0        1.357064   -1.184045    1.469411
     18          1           0       -0.464608    0.845687    0.714468
     19          1           0       -2.042081   -0.152288    3.731355
     20          1           0       -0.971036   -1.241874   -0.890202
     21          1           0       -1.884057   -1.827789    0.495006
     22          1           0       -2.549763    0.054203   -2.662934
     23          1           0       -5.246096    1.833303   -0.002449
     24          1           0       -3.534942    0.522584    1.384451
     25          1           0        3.276597   -1.492420    0.376527
     26          1           0        3.138479   -1.475730   -1.392279
     27          1           0        5.055800   -0.111314   -0.437326
     28          1           0        3.862777    1.003934    0.238988
     29          1           0        3.057018    1.228707   -2.120521
     30          1           0        4.628819    1.701584   -1.976437
 ---------------------------------------------------------------------
                    Distance matrix (angstroms):
                    1          2          3          4          5
     1  O    0.000000
     2  C    1.232608   0.000000
     3  N    2.266246   1.366361   0.000000
     4  C    2.767655   2.457235   1.454165   0.000000
     5  C    4.200968   3.665115   2.385184   1.520553   0.000000
     6  O    5.102016   4.799163   3.614565   2.401766   1.356598
     7  O    4.794923   3.987096   2.664400   2.429879   1.212280
     8  C    3.183328   3.196259   2.506966   1.567168   2.571718
     9  C    3.854940   4.255949   3.775112   2.595883   3.460584
    10  C    4.152532   4.861348   4.722013   3.738181   4.785135
    11  N    5.317878   6.071660   5.870703   4.723417   5.551133
    12  C    5.678017   6.249800   5.790204   4.455818   4.946090
    13  N    4.954499   5.303342   4.645110   3.252919   3.615610
    14  C    2.418948   1.520936   2.451676   3.817585   4.774875
    15  C    3.024919   2.534235   3.557809   4.774294   5.688663
    16  N    3.012558   3.096273   4.375240   5.400221   6.548573
    17  H    3.166249   2.071835   1.012088   2.111331   2.407784
    18  H    2.596407   2.651836   2.088644   1.098088   2.137034
    19  H    5.949126   5.528798   4.271073   3.229432   1.886381
    20  H    2.647301   2.767120   2.493664   2.141909   3.400376
    21  H    4.107528   3.896138   2.990249   2.190076   2.629443
    22  H    3.917630   4.745383   4.869525   4.168166   5.405793
    23  H    6.651350   7.209493   6.693637   5.306288   5.596340
    24  H    5.361209   5.520765   4.658621   3.211971   3.133088
    25  H    3.296601   2.165159   2.517106   3.969083   4.614680
    26  H    2.730842   2.129879   3.145902   4.446298   5.520367
    27  H    4.065022   3.456060   4.355748   5.670022   6.455449
    28  H    3.218686   2.715120   3.471383   4.535522   5.278884
    29  H    2.294443   2.744611   4.053309   4.866565   6.131483
    30  H    3.834182   3.976499   5.195642   6.157707   7.244938
                    6          7          8          9         10
     6  O    0.000000
     7  O    2.245554   0.000000
     8  C    2.964645   3.544995   0.000000
     9  C    3.309371   4.611651   1.495964   0.000000
    10  C    4.640907   5.930446   2.612609   1.377579   0.000000
    11  N    5.095606   6.749403   3.738135   2.272322   1.377653
    12  C    4.222927   6.144247   3.664860   2.219185   2.140411
    13  N    2.936562   4.802765   2.552540   1.384106   2.183356
    14  C    6.034471   4.763063   4.579861   5.736281   6.302324
    15  C    6.888761   5.663937   5.722617   6.695638   7.162596
    16  N    7.635226   6.738935   6.115306   6.861653   7.048953
    17  H    3.758096   2.192322   3.231789   4.576937   5.627586
    18  H    2.674716   3.103826   2.172756   2.625285   3.574413
    19  H    0.973107   2.281563   3.844656   4.233995   5.567112
    20  H    4.001915   4.216520   1.090865   2.092248   2.712525
    21  H    2.938547   3.422614   1.098074   2.153680   3.296324
    22  H    5.473575   6.479336   3.022004   2.207436   1.081139
    23  H    4.675151   6.767042   4.641153   3.251050   3.194674
    24  H    2.166759   4.259413   2.844865   2.129991   3.160997
    25  H    5.950595   4.336574   4.835444   6.142742   6.884321
    26  H    6.749643   5.568982   4.884990   6.020145   6.426179
    27  H    7.712535   6.261315   6.630341   7.691505   8.191305
    28  H    6.421772   5.223919   5.712252   6.619987   7.191999
    29  H    7.110323   6.496888   5.475838   6.065988   6.157949
    30  H    8.291720   7.414954   6.962658   7.624704   7.777292
                   11         12         13         14         15
    11  N    0.000000
    12  C    1.316327   0.000000
    13  N    2.220822   1.367324   0.000000
    14  C    7.547582   7.765960   6.803430   0.000000
    15  C    8.302392   8.533563   7.668607   1.539113   0.000000
    16  N    8.143896   8.569088   7.902138   2.467537   1.463068
    17  H    6.747376   6.555096   5.325291   2.603822   3.699097
    18  H    4.398644   4.140557   3.119592   4.082771   4.731098
    19  H    5.952291   4.985392   3.748993   6.646160   7.482266
    20  H    4.036751   4.292741   3.395478   4.051651   5.260079
    21  H    4.313775   4.101188   2.918701   5.115999   6.395501
    22  H    2.150687   3.168577   3.240375   6.069965   6.922071
    23  H    2.138156   1.081060   2.149807   8.729935   9.440509
    24  H    3.191702   2.137362   1.009626   6.978227   7.840832
    25  H    8.131037   8.218437   7.132336   1.095449   2.175343
    26  H    7.734013   8.104241   7.215301   1.095896   2.148687
    27  H    9.360313   9.581609   8.673353   2.149285   1.096005
    28  H    8.229723   8.319558   7.430012   2.164889   1.105241
    29  H    7.207125   7.676745   7.096846   2.652699   2.049124
    30  H    8.788577   9.200781   8.588870   3.362172   2.057317
                   16         17         18         19         20
    16  N    0.000000
    17  H    4.778743   0.000000
    18  H    5.184617   2.829884   0.000000
    19  H    8.340485   4.211307   3.547673   0.000000
    20  H    5.512553   3.315293   2.681296   4.867558   0.000000
    21  H    6.923098   3.445103   3.034876   3.647771   1.759461
    22  H    6.647451   5.820037   4.047365   6.417734   2.704584
    23  H    9.489079   7.407597   4.934773   5.305617   5.340502
    24  H    8.237055   5.181846   3.159149   2.862175   3.854993
    25  H    3.397417   2.230269   4.424655   6.429554   4.439568
    26  H    2.586390   3.383458   4.775940   7.405493   4.146672
    27  H    2.083618   4.297330   5.719912   8.231616   6.148661
    28  H    2.164788   3.546800   4.356304   6.957070   5.448346
    29  H    1.017976   4.647454   4.537149   7.883680   4.882896
    30  H    1.015890   5.559236   5.823790   8.973106   6.418897
                   21         22         23         24         25
    21  H    0.000000
    22  H    3.735993   0.000000
    23  H    4.995434   4.184924   0.000000
    24  H    3.006790   4.191812   2.563108   0.000000
    25  H    5.172897   6.751062   9.156438   7.174484   0.000000
    26  H    5.376956   6.025891   9.120441   7.499203   1.774268
[...]
 ,0.13722689,-0.00000270,-0.00000716,0.00002305,-0.00000097,0.00001615,
 -0.00000773,-0.00000304,-0.00002340,0.00000376,0.00008207,0.00003429,-
 0.00009068,-0.00028287,-0.00010063,-0.00001468,0.00043816,0.00022339,0
 .00064009,-0.00011689,-0.00025845,0.00002298,0.00047836,-0.00073168,0.
 00001168,0.00045964,0.00161226,0.00037459,-0.00018852,-0.00086066,-0.0
 0081273,-0.00071368,0.07488795,-0.00011361,0.00017488,-0.00027156,-0.0
 0003865,-0.00034158,0.00032146,-0.00003904,0.00024548,-0.00071844,0.00
 014034,0.00016498,0.00017750,-0.00568378,0.00108135,0.00343655,0.00287
 981,0.00045871,-0.00564896,0.00239586,-0.00120457,-0.00003897,0.000275
 54,-0.00041699,0.00061294,-0.00451650,0.00281272,-0.00787582,0.0016157
 4,0.00017649,-0.00021087,-0.00031844,0.00158993,0.00253699,0.00196675,
 -0.00228897,-0.00552417,0.05476298,0.14091140,-0.40541402,0.00002552,0
 .00006067,-0.00000749,0.00000724,-0.00000830,0.00006157,-0.00001334,-0
 .00001344,-0.00005377,-0.00017651,-0.00005001,0.00023057,0.00005504,-0
 .00010808,0.00003754,-0.00029854,0.00031072,-0.00080068,-0.00035027,0.
 00003654,-0.00017380,0.00022818,-0.00018431,0.00003321,0.00005636,0.00
 065713,0.00032968,-0.00022095,-0.00024085,0.00004255,-0.05264117,-0.14
 383945,0.41892053,-0.00308767,0.00362609,0.00260227,-0.01003864,-0.007
 85584,-0.03199545,-0.00024022,0.00066208,0.00232895,0.00013912,0.00051
 930,0.00087759,-0.00021736,0.00036709,-0.00038668,-0.00002899,-0.00009
 579,0.00014818,0.00012586,-0.00011635,0.00027069,0.00021118,-0.0000430
 5,0.00007065,0.00002081,-0.00000879,0.00000878,0.00000326,-0.00002260,
 0.00001057,-0.00002693,0.00000885,-0.00000122,-0.00002738,0.00001287,0
 .00000361,-0.00000082,0.00000346,-0.00001369,-0.08359577,-0.02158477,-
 0.08888042,0.00798389,0.00555646,0.01592598,-0.00224704,-0.00181235,0.
 00338019,-0.00095252,-0.00068153,-0.00017823,-0.00013483,-0.00008437,0
 .00002154,-0.00003981,-0.00001612,-0.00000645,0.00006894,0.00001990,0.
 00004365,-0.00002497,-0.00001148,-0.00001207,0.00000574,0.00000414,0.0
 0001505,-0.00000285,0.00000163,0.00000022,0.00000681,0.00000219,-0.000
 01211,0.09034065,0.00184571,-0.00245160,-0.00116383,0.00511654,0.00159
 292,0.01146042,-0.00111810,0.00033011,0.00013932,0.00005766,-0.0002445
 4,-0.00014615,-0.00010578,0.00014596,-0.00013021,0.00008258,-0.0000489
 7,0.00001053,0.00010172,-0.00009349,0.00008791,-0.00008615,-0.00000988
 ,0.00001859,0.00000689,-0.00000960,-0.00000120,0.00000164,0.00000103,0
 .00000242,-0.00000965,0.00000285,0.00000578,-0.00000656,0.00000563,-0.
 00000689,0.00000023,0.00000167,0.00000356,-0.01964037,-0.05453078,-0.0
 4500005,0.00673146,0.00294465,0.01351631,-0.00208501,-0.00055055,0.001
 17762,-0.00053325,-0.00003962,-0.00013124,0.00001389,0.00002634,0.0000
 2354,-0.00000977,0.00000809,0.00000376,0.00000342,-0.00001546,0.000019
 67,-0.00000287,-0.00000867,-0.00001928,-0.00000072,-0.00000310,-0.0000
 0053,-0.00000061,0.00000085,-0.00000023,-0.00000339,0.00000452,-0.0000
 0862,0.02126387,0.05661194,-0.00096785,-0.00050397,0.00071178,-0.00021
 988,0.00159505,-0.00102439,0.00099304,0.00048395,0.00027930,-0.0005266
 6,0.00017571,0.00035569,-0.00010666,0.00000398,-0.00003968,0.00006841,
 -0.00000120,-0.00000894,0.00006453,-0.00002072,0.00002651,0.00013588,-
 0.00007029,-0.00006001,0.00003245,0.00004743,0.00001420,0.00001690,0.0
 0000820,-0.00002691,0.00001477,-0.00002011,0.00001141,0.00000551,-0.00
 000563,0.00000443,-0.00001445,-0.00000769,0.00003539,-0.08502651,-0.04
 542368,-0.25532796,-0.01029698,-0.00762669,-0.01751121,0.00464982,0.00
 211611,-0.00372678,-0.00002602,-0.00046493,-0.00014791,0.00002538,-0.0
 0003655,-0.00003892,-0.00000635,-0.00000139,0.00000006,-0.00000093,-0.
 00000295,-0.00002791,0.00000955,0.00001042,0.00000617,0.00000348,-0.00
 000021,0.00000504,-0.00000081,-0.00000213,0.00000114,-0.00001107,0.000
 00287,-0.00000817,0.09310456,0.04974843,0.27982745,-0.00633589,0.00010
 559,-0.00280300,0.00245800,0.03398538,0.00540943,-0.00081518,-0.002422
 82,-0.00047851,0.00032788,-0.00033667,-0.00055977,0.00008409,-0.000006
 95,-0.00013024,0.00001459,0.00000199,0.00000291,0.00001149,-0.00006795
 ,0.00007379,-0.00014652,0.00001567,0.00008001,0.00000665,-0.00003117,-
 0.00005014,-0.00000130,-0.00001283,-0.00000640,-0.00001381,-0.00000271
 ,-0.00000497,-0.00001115,0.00000993,0.00000612,-0.00000250,-0.00000395
 ,0.00000205,-0.04747109,0.01168476,0.00400923,-0.00033235,-0.02138799,
 -0.00233012,0.00043306,0.00156539,-0.00119494,-0.00061710,0.00028021,0
 .00081386,0.00008707,0.00009893,-0.00011036,0.00000875,0.00000753,-0.0
 0000601,-0.00000485,0.00012909,0.00006003,-0.00005983,-0.00004753,0.00
 002769,0.00000981,0.00000937,0.00002206,-0.00000042,0.00000217,0.00000
 244,0.00000226,0.00000599,-0.00000494,0.00043215,-0.01264216,-0.001163
 62,0.05362403,0.00242592,0.00053319,-0.00050902,-0.00125440,-0.0107868
 4,0.00075997,-0.00103371,0.00137206,0.00065661,0.00063444,0.00061816,0
 .00021987,0.00013738,-0.00005753,0.00003545,-0.00009989,0.00002444,0.0
 0002219,-0.00009267,0.00007337,-0.00003238,0.00005333,-0.00002704,0.00
 001565,-0.00000587,-0.00000751,0.00002229,-0.00000301,0.00000357,0.000
 02044,-0.00000939,0.00002435,-0.00000833,-0.00000010,-0.00000542,0.000
 00022,0.00001525,0.00001423,-0.00002689,0.01064025,-0.30125131,-0.0368
 9693,-0.00087672,-0.01644672,-0.00246949,0.00129661,0.00212311,-0.0008
 1968,0.00027417,-0.00023321,-0.00086252,-0.00029193,0.00003327,0.00008
 583,0.00000870,-0.00001007,-0.00000903,0.00001700,-0.00006331,-0.00003
 714,0.00002560,0.00001500,-0.00003104,-0.00000673,-0.00000987,-0.00001
 287,-0.00000140,-0.00000129,-0.00000231,0.00001223,-0.00000822,0.00000
 854,0.00006175,-0.00459735,-0.00075940,-0.00955053,0.32801461,-0.00142
 030,0.00050148,-0.00047757,-0.00197291,0.00253902,-0.00063377,0.001256
 99,0.00054753,0.00009515,-0.00018815,-0.00004345,-0.00019492,0.0001264
 7,-0.00020027,0.00015099,-0.00008467,0.00005724,-0.00002051,-0.0001072
 4,0.00013518,-0.00008951,-0.00000389,0.00001227,0.00003803,-0.00001751
 ,0.00000256,-0.00001835,-0.00000835,-0.00000290,0.00000748,0.00000504,
 0.00000060,-0.00000654,0.00000908,-0.00000224,-0.00000129,0.00000941,-
 0.00000423,-0.00001012,0.00299582,-0.03776086,-0.04989830,-0.00016697,
 0.02403139,0.00276307,-0.00077965,-0.00059404,0.00218007,0.00084947,-0
 .00019877,-0.00026520,0.00002841,0.00000808,-0.00004722,0.00001463,-0.
 00000508,-0.00000204,-0.00001532,0.00001545,-0.00002301,0.00000094,0.0
 0000841,0.00000859,-0.00000119,0.00000459,-0.00000230,0.00000146,-0.00
 000049,-0.00000008,0.00000502,-0.00000431,0.00001123,0.00182467,-0.029
 27944,-0.00333429,-0.00424274,0.03858939,0.05192101,0.00019873,-0.0002
 3387,0.00020622,0.00059944,-0.00210369,0.00248110,-0.00159995,0.000233
 84,0.00012778,0.00015327,-0.00034181,0.00013547,0.00005148,0.00011171,
 -0.00029289,-0.00014322,-0.00002054,0.00014612,-0.00005217,-0.00006776
 ,0.00015738,-0.00001893,0.00004579,0.00003584,0.00000189,-0.00004474,-
 0.00002476,0.00000814,-0.00002086,0.00000202,-0.00004591,0.00002746,-0
 .00000485,-0.00002059,0.00001148,0.00000599,0.00000083,0.00000647,-0.0
 0001970,-0.01726756,0.00631936,-0.00075988,-0.27701531,0.07821732,-0.0
 2429630,-0.01006538,0.00248570,-0.00390954,-0.00001711,0.00017045,-0.0
 0009450,-0.00000053,0.00001728,-0.00000975,0.00000188,0.00000494,-0.00
 001310,0.00002450,0.00002008,0.00002588,-0.00002009,-0.00000941,-0.000
 00295,0.00000855,0.00000073,0.00001329,-0.00000361,0.00000221,0.000001
 48,0.00002378,0.00000142,-0.00000025,0.00065827,0.00032442,0.00022902,
 0.00038637,-0.00023096,-0.00060691,0.30199078,0.00084881,0.00135399,-0
 .00094553,-0.00043152,-0.00312571,0.00375564,-0.00111608,0.00052304,-0
 .00023796,-0.00016115,-0.00022576,0.00014554,-0.00007848,0.00006036,-0
 .00004335,-0.00000813,-0.00001497,0.00003469,0.00001669,-0.00001708,0.
 00000517,-0.00001690,0.00001928,0.00001242,-0.00000768,-0.00000664,0.0
 0000040,-0.00000145,0.00000313,0.00000289,0.00000179,0.00000575,0.0000
 0067,0.00000034,0.00000008,-0.00000212,0.00000403,0.00000145,-0.000004
 51,-0.01725778,0.00432529,-0.00015623,0.08306163,-0.07952426,0.0069148
 2,-0.01017424,0.00357728,-0.00152521,-0.00001078,0.00007702,-0.0000322
 5,0.00000263,0.00000414,0.00000329,-0.00001180,0.00000155,0.00000884,-
 0.00000902,-0.00000988,-0.00000583,0.00000022,-0.00000168,-0.00000357,
 -0.00000208,-0.00000378,-0.00000537,-0.00000012,-0.00000041,-0.0000008
 9,0.00000007,-0.00000174,0.00000210,0.00070038,0.00043909,-0.00065137,
 -0.00002600,0.00074282,-0.00064292,-0.08507726,0.08045502,-0.00002498,
 -0.00022037,0.00055311,0.00129470,0.00366551,-0.00343112,0.00186133,-0
 .00060702,0.00010520,-0.00002692,0.00037914,-0.00027313,0.00001015,-0.
 00009850,0.00022822,0.00013570,0.00002032,-0.00013549,0.00004390,0.000
 03756,-0.00010653,0.00001066,-0.00003404,-0.00007400,0.00001111,0.0000
 4140,0.00001628,0.00001914,0.00001804,-0.00003457,0.00002512,-0.000027
 62,0.00001987,0.00000787,-0.00000504,-0.00000040,-0.00002058,-0.000010
 64,0.00004334,0.02237854,-0.00806673,0.00154264,-0.01855115,0.00604753
 ,-0.04986576,-0.03570809,0.00970654,-0.00976544,0.00000235,-0.00011844
 ,0.00007711,-0.00000082,-0.00001122,0.00000251,0.00000748,-0.00000420,
 0.00000053,-0.00001251,-0.00001111,-0.00002421,0.00001501,0.00000469,0
 .00001026,0.00000267,-0.00000285,-0.00000223,0.00000084,-0.00000180,0.
 00000142,-0.00002240,0.00000314,-0.00000962,-0.00014209,-0.00065756,0.
 00063271,-0.00066890,-0.00009272,0.00074224,0.02816142,-0.00798267,0.0
 6379015,-0.00011448,0.00131936,-0.00048201,0.00061450,-0.00238812,0.00
 037224,0.00029897,0.00075739,-0.00044831,-0.00012856,0.00016005,0.0000
 1382,-0.00000966,-0.00004922,0.00012359,0.00002653,0.00001534,-0.00004
 275,0.00000287,0.00005056,-0.00008181,0.00000950,-0.00002032,-0.000025
 64,0.00000421,0.00002135,0.00002762,0.00000148,0.00001178,0.00000211,0
 .00001505,0.00000021,0.00000323,0.00000633,-0.00000543,-0.00000200,0.0
 0000027,0.00000146,-0.00000104,0.00023855,-0.02029760,-0.00030959,-0.0
 5315914,0.01002843,0.00208074,0.00187367,-0.01192168,-0.00684747,0.000
 24045,-0.00008900,-0.00018862,-0.00005770,-0.00001448,0.00003236,-0.00
 000255,-0.00000523,0.00000444,-0.00001527,-0.00003670,-0.00001870,0.00
 001739,0.00001108,-0.00000820,-0.00000735,-0.00000957,-0.00001285,0.00
 000028,-0.00000190,-0.00000193,-0.00000742,-0.00000500,0.00000159,0.00
 053212,0.00039521,-0.00024679,-0.00193999,-0.00210133,0.00248770,0.000
 21278,0.03031563,0.00369868,0.05099113,0.00046203,0.00214746,-0.000787
 84,0.00210836,-0.00188001,0.00102790,-0.00027632,0.00037571,-0.0001389
 7,0.00004315,-0.00004779,0.00001517,0.00006172,-0.00002097,-0.00003555
 ,-0.00006287,0.00001846,0.00004457,-0.00003710,0.00003644,0.00002118,-
 0.00000457,0.00001044,-0.00001650,0.00001045,-0.00000712,0.00000962,0.
 00001690,0.00000390,-0.00000720,-0.00001672,0.00002024,0.00000646,-0.0
 0001248,0.00000185,0.00000534,-0.00000397,0.00001096,-0.00000042,-0.00
 051927,-0.01608711,0.00013403,0.00669431,-0.28677307,-0.02890670,-0.00
 307435,-0.00321981,-0.01049741,0.00008982,-0.00001575,-0.00026726,-0.0
 0004420,0.00002438,-0.00000931,-0.00000041,-0.00001172,-0.00000956,0.0
 0000699,-0.00002159,0.00000215,0.00000815,0.00000764,-0.00000869,0.000
 00083,-0.00001257,-0.00000066,-0.00000407,-0.00000228,-0.00000061,0.00
 000268,-0.00000915,-0.00000534,-0.00006589,-0.00000800,0.00064489,-0.0
 0150467,-0.00022379,0.00236527,0.00108395,-0.00946745,-0.00053200,-0.0
 0521312,0.31359094,0.00060194,-0.00042575,0.00053614,-0.00128421,0.000
 54956,0.00003603,0.00034435,-0.00007863,-0.00013288,-0.00018253,-0.000
 06920,-0.00003129,-0.00010899,0.00004106,0.00003722,0.00010165,-0.0000
 1042,-0.00003924,0.00008126,-0.00003228,-0.00001692,0.00001417,-0.0000
 1266,-0.00004182,0.00001460,0.00002112,0.00001230,0.00002003,0.0000162
 9,-0.00002224,0.00001304,-0.00000812,0.00001716,-0.00000159,-0.0000028
 2,0.00000137,-0.00001419,-0.00000252,0.00002862,0.00065328,0.02399812,
 0.00266717,0.00111814,-0.03043764,-0.05215594,-0.00525125,-0.03514320,
 -0.01895093,-0.00018060,0.00004257,0.00020196,0.00005975,-0.00001856,0
 .00000191,-0.00000776,-0.00000082,0.00000364,0.00000554,-0.00001037,-0
 .00002043,0.00000721,0.00000324,0.00000093,-0.00000089,-0.00001325,-0.
 00000386,-0.00000101,-0.00000220,0.00000039,-0.00001597,0.00000003,-0.
 00001109,-0.00078589,-0.00034280,0.00072442,0.00351421,0.00236414,-0.0
 0308708,0.00061493,0.00238175,0.00121278,-0.00075498,0.03785998,0.0672
 3573,-0.00235040,0.00090619,-0.00069080,0.00095702,-0.00194337,0.00230
 415,0.00024350,0.00072241,-0.00056764,-0.00023342,0.00009334,0.0000184
 7,-0.00013442,-0.00008527,0.00025627,0.00011711,0.00000438,-0.00011661
 ,0.00004495,0.00007373,-0.00016770,-0.00004255,-0.00002848,0.00007514,
 -0.00004302,0.00004362,0.00000883,-0.00006306,0.00001177,0.00006141,0.
 00007062,-0.00003240,-0.00000959,0.00004848,-0.00001128,-0.00003616,0.
 00003776,-0.00001814,-0.00000438,0.00046619,-0.00008237,-0.00014158,-0
 .01019763,0.00688745,-0.00426000,-0.31506952,0.14651979,-0.05720258,0.
 00012234,0.00001126,0.00006373,0.00000635,-0.00002812,0.00001846,-0.00
 001306,0.00000238,0.00002474,-0.00009551,-0.00007213,0.00000270,0.0000
 3124,0.00000757,-0.00002441,-0.00004026,0.00001880,-0.00004116,0.00000
 857,-0.00000068,-0.00000518,-0.00001760,-0.00000138,0.00001471,-0.0002
 0394,0.00004382,0.00004658,-0.00006582,-0.00010045,0.00000283,0.001225
 27,-0.00091231,-0.00213900,0.00062688,0.00030862,0.00180178,0.34572776
 ,0.00001752,-0.00183585,-0.00026703,-0.00056896,0.00149767,0.00037220,
 -0.00010338,-0.00063296,0.00032735,0.00012670,0.00007761,0.00002340,-0
 .00003519,-0.00005862,0.00008071,0.00002039,-0.00000567,-0.00004068,-0
 .00001426,0.00002607,-0.00004705,-0.00006566,0.00000879,0.00013017,-0.
 00004642,0.00001962,-0.00006994,-0.00004954,-0.00002006,0.00001386,0.0
 0003181,-0.00004651,-0.00000872,0.00003607,-0.00000030,-0.00002602,0.0
 0002470,-0.00003778,0.00001526,0.00130604,0.00005161,0.00091871,-0.013
 67749,0.00101329,-0.00788685,0.19818163,-0.11771938,0.04831066,-0.0000
 3228,-0.00001861,0.00009018,0.00001020,0.00000395,-0.00002198,-0.00000
 195,0.00000931,0.00001468,-0.00008651,0.00004681,0.00002264,-0.0000020
 3,-0.00001810,0.00000817,0.00000254,0.00005893,0.00000008,0.00000809,0
 .00000315,0.00000180,-0.00000193,0.00001155,0.00001561,-0.00023783,0.0
 0001291,0.00003996,0.00017927,-0.00023405,0.00015403,-0.00119900,0.000
 25546,-0.00223145,-0.00138894,0.00145599,0.00028348,-0.16759638,0.1143
 0947,-0.00011858,-0.00169030,0.00348162,0.00000704,0.00488047,-0.00482
 447,-0.00081154,-0.00166142,0.00109203,0.00059155,-0.00017530,-0.00002
 749,0.00029142,-0.00000249,-0.00034063,-0.00025889,0.00000644,0.000163
 54,-0.00015824,-0.00004077,0.00021944,0.00000293,0.00004978,0.00005553
 ,0.00000245,-0.00010155,-0.00001691,-0.00004778,-0.00005012,0.00007946
 ,-0.00006443,0.00005459,-0.00005923,-0.00002893,0.00001432,0.00001883,
 0.00003175,0.00003622,-0.00010897,-0.00044373,0.00023400,0.00036272,-0
 .03364808,0.01834626,-0.00774237,-0.05738128,0.03642902,-0.07539505,-0
 .00017704,0.00000737,-0.00002689,0.00003907,0.00006453,-0.00006396,0.0
 0002242,0.00000466,-0.00002189,0.00008697,0.00006770,0.00009449,-0.000
 04748,-0.00000917,0.00000174,0.00000340,0.00001308,0.00003312,-0.00000
 196,0.00000613,-0.00000243,0.00004975,-0.00000363,0.00001711,0.0004258
 4,-0.00021853,-0.00001018,0.00000587,-0.00008927,-0.00008566,-0.002028
 29,-0.00178314,-0.00657119,0.00017978,-0.00039446,0.00119725,0.0679258
 8,-0.03913843,0.08209624,-0.00008045,-0.00012456,0.00144983,-0.0005442
 2,0.00121591,-0.00114963,0.00001267,-0.00034298,0.00018326,0.00009183,
 -0.00001807,-0.00000779,0.00004265,-0.00000494,-0.00004417,-0.00003076
 ,0.00000230,0.00001894,-0.00001591,-0.00000344,0.00003283,0.00002007,0
 .00000047,-0.00001654,0.00001107,-0.00001914,0.00001517,-0.00000798,-0
 .00000557,0.00001619,-0.00001131,0.00001546,-0.00001538,-0.00001027,0.
 00000021,0.00001066,0.00000384,0.00001612,-0.00003032,0.00008495,-0.00
 055445,-0.00268525,0.00978439,0.00201133,-0.01322539,-0.23486431,-0.05
 686579,0.17305625,-0.00006621,-0.00005270,0.00000390,0.00001382,0.0000
 1139,-0.00001146,0.00000237,-0.00000110,-0.00000314,0.00003128,0.00000
 796,0.00001491,-0.00000805,0.00000205,0.00000217,0.00000220,-0.0000062
 5,0.00000859,-0.00000078,0.00000060,-0.00000136,0.00000671,-0.00000371
 ,0.00000247,0.00034093,0.00025531,-0.00078533,-0.00006840,0.00005646,-
 0.00000216,0.00072443,0.00035057,-0.00036923,-0.00027083,-0.00005795,-
 0.00037600,-0.02116385,-0.01483722,0.02555012,0.24597012,0.00018034,0.
 00000870,-0.00065792,0.00083171,-0.00053123,-0.00022696,-0.00022941,0.
 00006698,0.00005076,0.00011970,-0.00002630,0.00001780,0.00008534,0.000
 03346,-0.00010750,-0.00008939,-0.00000554,0.00005790,-0.00005386,-0.00
 002956,0.00005665,-0.00000445,0.00001484,0.00000455,0.00000090,-0.0000
 1921,-0.00000320,-0.00000312,-0.00002085,-0.00000340,-0.00002964,0.000
 00463,-0.00000764,-0.00000952,0.00000646,0.00000289,-0.00000477,0.0000
 0039,-0.00001330,-0.00008428,-0.00026596,0.00133394,0.00557467,-0.0033
 2589,-0.01237327,-0.09107548,-0.04501750,0.10130965,0.00003110,0.00006
 755,-0.00005979,-0.00001822,0.00000650,0.00000118,0.00001104,0.0000066
 7,-0.00000740,0.00002914,0.00000858,0.00002675,-0.00001187,-0.00000682
 ,0.00000204,0.00000907,0.00001304,0.00001302,-0.00000072,0.00000377,0.
 00000193,0.00001792,0.00000692,0.00000326,-0.00017330,0.00048305,0.000
 72191,-0.00003734,0.00037136,-0.00023349,0.00026530,0.00055459,0.00079
 212,0.00045978,0.00010378,-0.00095008,0.01525762,0.00176571,-0.0148559
 8,0.06895174,0.04572187,0.00021449,-0.00040031,0.00078022,-0.00116818,
 0.00066252,-0.00045021,0.00019804,-0.00007767,0.00014931,-0.00001774,0
 .00002925,0.00003361,-0.00002548,0.00002212,-0.00001820,0.00001881,-0.
 00000806,-0.00000444,0.00002243,-0.00001669,0.00001958,0.00002463,-0.0
 0000911,-0.00002319,0.00000978,0.00000498,0.00000789,0.00000216,-0.000
 00454,-0.00000892,-0.00000372,-0.00000518,-0.00000183,-0.00000365,0.00
 000033,0.00000467,-0.00000648,0.00000081,0.00000104,-0.00372971,-0.003
 09526,-0.00589928,0.02515786,0.01299924,-0.02167340,0.16698112,0.06496
 323,-0.22544750,-0.00008891,-0.00008048,0.00000454,0.00001227,-0.00000
 043,-0.00000608,-0.00000068,0.00000076,0.00000063,0.00001910,0.0000049
 8,0.00000300,-0.00000199,0.00000021,0.00000463,0.00000644,0.00000302,0
 .00000874,0.00000007,0.00000085,0.00000077,-0.00000041,0.00000288,-0.0
 0000197,0.00135132,0.00088871,-0.00134244,-0.00027504,-0.00014154,0.00
 027992,-0.00028027,0.00075470,0.00131530,0.00044478,-0.00051808,0.0005
 9871,-0.00721891,-0.00108481,0.00638419,-0.18164214,-0.07489641,0.2452
 8070\\-0.00000070,-0.00000009,-0.00000032,-0.00000055,-0.00000064,0.00
 000016,-0.00000034,-0.00000096,-0.00000044,0.00000075,0.00000077,0.000
 00107,-0.00000143,0.00000167,0.00000053,0.00000034,0.00000068,-0.00000
 188,0.00000132,0.00000006,0.00000068,0.00000009,0.00000040,0.00000043,
 0.00000036,0.00000028,-0.00000012,-0.00000054,-0.00000024,-0.00000014,
 0.00000022,-0.00000068,-0.00000014,-0.00000037,0.00000038,0.,0.0000009
 7,-0.00000075,0.00000096,0.00000090,0.00000169,-0.00000051,-0.00000089
 ,0.00000015,-0.00000133,0.00000034,-0.00000115,0.00000077,-0.00000030,
 0.00000025,0.00000056,-0.00000008,0.00000028,-0.00000030,0.00000022,0.
 00000136,0.00000066,0.00000027,-0.00000012,0.,0.00000018,0.,0.00000043
 ,-0.00000014,-0.00000066,-0.00000013,-0.00000006,0.00000010,-0.0000000
 6,-0.00000083,0.00000015,0.00000030,0.00000013,-0.00000023,-0.00000067
 ,0.00000033,-0.00000078,0.00000102,-0.00000021,-0.00000068,-0.00000059
 ,0.00000015,0.00000006,-0.00000044,-0.00000028,-0.00000073,-0.00000023
 ,0.00000016,-0.00000057,-0.00000028\\\@


 What some people mistake for the high cost
 of living is really the cost of living high.
                              -- Doug Larson
 Job cpu time:       0 days  2 hours 37 minutes  3.4 seconds.
 File lengths (MBytes):  RWF=    417 Int=      0 D2E=      0 Chk=     13 Scr=      1
 Normal termination of Gaussian 09 at Thu Jul 29 00:07:16 2021.
