 Entering Gaussian System, Link 0=g09
 Input=opt_freq-conf-683.com
 Output=opt_freq-conf-683.log
 Initial command:
 /aerosol/software/g09/l1.exe "/scratch/nicole/10571/Gau-90684.inp" -scrdir="/scratch/nicole/10571/"
 Entering Link 1 = /aerosol/software/g09/l1.exe PID=     90688.
  
 Copyright (c) 1988,1990,1992,1993,1995,1998,2003,2009,2013,
            Gaussian, Inc.  All Rights Reserved.
  
 This is part of the Gaussian(R) 09 program.  It is based on
 the Gaussian(R) 03 system (copyright 2003, Gaussian, Inc.),
 the Gaussian(R) 98 system (copyright 1998, Gaussian, Inc.),
 the Gaussian(R) 94 system (copyright 1995, Gaussian, Inc.),
 the Gaussian 92(TM) system (copyright 1992, Gaussian, Inc.),
 the Gaussian 90(TM) system (copyright 1990, Gaussian, Inc.),
 the Gaussian 88(TM) system (copyright 1988, Gaussian, Inc.),
 the Gaussian 86(TM) system (copyright 1986, Carnegie Mellon
 University), and the Gaussian 82(TM) system (copyright 1983,
 Carnegie Mellon University). Gaussian is a federally registered
 trademark of Gaussian, Inc.
  
 This software contains proprietary and confidential information,
 including trade secrets, belonging to Gaussian, Inc.
  
 This software is provided under written license and may be
 used, copied, transmitted, or stored only in accord with that
 written license.
  
 The following legend is applicable only to US Government
 contracts under FAR:
  
                    RESTRICTED RIGHTS LEGEND
  
 Use, reproduction and disclosure by the US Government is
 subject to restrictions as set forth in subparagraphs (a)
 and (c) of the Commercial Computer Software - Restricted
 Rights clause in FAR 52.227-19.
  
 Gaussian, Inc.
 340 Quinnipiac St., Bldg. 40, Wallingford CT 06492
  
  
 ---------------------------------------------------------------
 Warning -- This program may not be used in any manner that
 competes with the business of Gaussian, Inc. or will provide
 assistance to any competitor of Gaussian, Inc.  The licensee
 of this program is prohibited from giving any competitor of
 Gaussian, Inc. access to this program.  By using this program,
 the user acknowledges that Gaussian, Inc. is engaged in the
 business of creating and licensing software in the field of
 computational chemistry and represents and warrants to the
 licensee that it is not a competitor of Gaussian, Inc. and that
 it will not use this program in any manner prohibited above.
 ---------------------------------------------------------------
  

 Cite this work as:
 Gaussian 09, Revision D.01,
 M. J. Frisch, G. W. Trucks, H. B. Schlegel, G. E. Scuseria, 
 M. A. Robb, J. R. Cheeseman, G. Scalmani, V. Barone, B. Mennucci, 
 G. A. Petersson, H. Nakatsuji, M. Caricato, X. Li, H. P. Hratchian, 
 A. F. Izmaylov, J. Bloino, G. Zheng, J. L. Sonnenberg, M. Hada, 
 M. Ehara, K. Toyota, R. Fukuda, J. Hasegawa, M. Ishida, T. Nakajima, 
 Y. Honda, O. Kitao, H. Nakai, T. Vreven, J. A. Montgomery, Jr., 
 J. E. Peralta, F. Ogliaro, M. Bearpark, J. J. Heyd, E. Brothers, 
 K. N. Kudin, V. N. Staroverov, T. Keith, R. Kobayashi, J. Normand, 
 K. Raghavachari, A. Rendell, J. C. Burant, S. S. Iyengar, J. Tomasi, 
 M. Cossi, N. Rega, J. M. Millam, M. Klene, J. E. Knox, J. B. Cross, 
 V. Bakken, C. Adamo, J. Jaramillo, R. Gomperts, R. E. Stratmann, 
 O. Yazyev, A. J. Austin, R. Cammi, C. Pomelli, J. W. Ochterski, 
 R. L. Martin, K. Morokuma, V. G. Zakrzewski, G. A. Voth, 
 P. Salvador, J. J. Dannenberg, S. Dapprich, A. D. Daniels, 
 O. Farkas, J. B. Foresman, J. V. Ortiz, J. Cioslowski, 
 and D. J. Fox, Gaussian, Inc., Wallingford CT, 2013.
 
 ******************************************
 Gaussian 09:  ES64L-G09RevD.01 24-Apr-2013
                28-Jul-2021 
 ******************************************
 %mem=2gb
 %nproc=4
 Will use up to    4 processors via shared memory.
 %chk=conf-683.chk
 ----------------------------------------------------------------------
 # B3LYP/6-31+G(d,p) opt=calcfc freq=noraman nosymm integral(ultrafineg
 rid)
 ----------------------------------------------------------------------
 1/10=4,14=-1,18=20,19=15,26=4,38=1/1,3;
 2/9=110,12=2,15=1,17=6,18=5,40=1/2;
 3/5=1,6=6,7=111,11=2,16=1,25=1,30=1,71=2,74=-5,75=-5,140=1/1,2,3;
 4//1;
 5/5=2,38=5/2;
 8/6=4,10=90,11=11/1;
 11/6=1,8=1,9=11,15=111,16=1,31=1/1,2,10;
 10/6=1,13=1,31=1/2;
 6/7=2,8=2,9=2,10=2,28=1/1;
 7/10=1,18=20,25=1,30=1/1,2,3,16;
 1/10=4,14=-1,18=20,19=15,26=4/3(2);
 2/9=110,15=1/2;
 99//99;
 2/9=110,15=1/2;
 3/5=1,6=6,7=111,11=2,16=1,25=1,30=1,71=1,74=-5,75=-5/1,2,3;
 4/5=5,16=3,69=1/1;
 5/5=2,38=5/2;
 7/30=1/1,2,3,16;
 1/14=-1,18=20,19=15,26=4/3(-5);
 2/9=110,15=1/2;
 6/7=2,8=2,9=2,10=2,19=2,28=1/1;
 99/9=1/99;
 ------------------------------------------------------------
 Candidate Structure: Conf:683 OPT and FREQ calc in gas phase
 ------------------------------------------------------------
 Symbolic Z-matrix:
 Charge =  0 Multiplicity = 1
 O                    -0.48714   0.03411  -2.18319 
 C                     0.46127   0.27928  -1.44052 
 N                     0.32789   0.42795  -0.11044 
 C                    -0.9578    0.66545   0.50158 
 C                    -0.92497   2.00031   1.21365 
 O                    -2.15887   2.3984    1.57874 
 O                     0.07049   2.63591   1.45945 
 C                    -1.34629  -0.41772   1.51388 
 C                    -1.55824  -1.78505   0.92941 
 C                    -1.80804  -2.98089   1.53805 
 N                    -1.96662  -3.98554   0.60476 
 C                    -1.81522  -3.39077  -0.55338 
 N                    -1.57259  -2.06509  -0.41431 
 C                     1.88811   0.37371  -1.96848 
 C                     2.67074   1.56211  -1.4079 
 N                     2.95917   1.38592   0.02671 
 H                     1.16423   0.73916   0.38089 
 H                    -1.71051   0.71537  -0.28595 
 H                    -2.04427   3.24021   2.03676 
 H                    -0.58326  -0.47218   2.29309 
 H                    -2.2642   -0.10001   2.01323 
 H                    -1.8861   -3.18906   2.59558 
 H                    -1.86735  -3.85838  -1.52128 
 H                    -1.36912  -1.41053  -1.15988 
 H                     2.42577  -0.54795  -1.71986 
 H                     1.81067   0.4345   -3.05414 
 H                     2.07238   2.46848  -1.52499 
 H                     3.58337   1.70483  -1.9953 
 H                     3.80746   0.85703   0.17254 
 H                     3.07913   2.28043   0.48106 
 

 GradGradGradGradGradGradGradGradGradGradGradGradGradGradGradGradGradGrad
 Berny optimization.
 Initialization pass.
                           ----------------------------
                           !    Initial Parameters    !
                           ! (Angstroms and Degrees)  !
 --------------------------                            --------------------------
 ! Name  Definition              Value          Derivative Info.                !
 --------------------------------------------------------------------------------
 ! R1    R(1,2)                  1.2293         calculate D2E/DX2 analytically  !
 ! R2    R(2,3)                  1.345          calculate D2E/DX2 analytically  !
 ! R3    R(2,14)                 1.5243         calculate D2E/DX2 analytically  !
 ! R4    R(3,4)                  1.4436         calculate D2E/DX2 analytically  !
 ! R5    R(3,17)                 1.0187         calculate D2E/DX2 analytically  !
 ! R6    R(4,5)                  1.5133         calculate D2E/DX2 analytically  !
 ! R7    R(4,8)                  1.5326         calculate D2E/DX2 analytically  !
 ! R8    R(4,18)                 1.0905         calculate D2E/DX2 analytically  !
 ! R9    R(5,6)                  1.3469         calculate D2E/DX2 analytically  !
 ! R10   R(5,7)                  1.2064         calculate D2E/DX2 analytically  !
 ! R11   R(6,19)                 0.9652         calculate D2E/DX2 analytically  !
 ! R12   R(8,9)                  1.502          calculate D2E/DX2 analytically  !
 ! R13   R(8,20)                 1.0919         calculate D2E/DX2 analytically  !
 ! R14   R(8,21)                 1.0922         calculate D2E/DX2 analytically  !
 ! R15   R(9,10)                 1.3649         calculate D2E/DX2 analytically  !
 ! R16   R(9,13)                 1.3727         calculate D2E/DX2 analytically  !
 ! R17   R(10,11)                1.3804         calculate D2E/DX2 analytically  !
 ! R18   R(10,22)                1.0806         calculate D2E/DX2 analytically  !
 ! R19   R(11,12)                1.3107         calculate D2E/DX2 analytically  !
 ! R20   R(12,13)                1.3549         calculate D2E/DX2 analytically  !
 ! R21   R(12,23)                1.0762         calculate D2E/DX2 analytically  !
 ! R22   R(13,24)                1.0128         calculate D2E/DX2 analytically  !
 ! R23   R(14,15)                1.5294         calculate D2E/DX2 analytically  !
 ! R24   R(14,25)                1.0956         calculate D2E/DX2 analytically  !
 ! R25   R(14,26)                1.0901         calculate D2E/DX2 analytically  !
 ! R26   R(15,16)                1.4739         calculate D2E/DX2 analytically  !
 ! R27   R(15,27)                1.0924         calculate D2E/DX2 analytically  !
 ! R28   R(15,28)                1.0947         calculate D2E/DX2 analytically  !
 ! R29   R(16,29)                1.0102         calculate D2E/DX2 analytically  !
 ! R30   R(16,30)                1.0104         calculate D2E/DX2 analytically  !
 ! A1    A(1,2,3)              122.8875         calculate D2E/DX2 analytically  !
 ! A2    A(1,2,14)             121.6868         calculate D2E/DX2 analytically  !
 ! A3    A(3,2,14)             115.3721         calculate D2E/DX2 analytically  !
 ! A4    A(2,3,4)              121.7189         calculate D2E/DX2 analytically  !
 ! A5    A(2,3,17)             115.4249         calculate D2E/DX2 analytically  !
 ! A6    A(4,3,17)             118.4538         calculate D2E/DX2 analytically  !
 ! A7    A(3,4,5)              108.9833         calculate D2E/DX2 analytically  !
 ! A8    A(3,4,8)              112.9234         calculate D2E/DX2 analytically  !
 ! A9    A(3,4,18)             108.4268         calculate D2E/DX2 analytically  !
 ! A10   A(5,4,8)              108.549          calculate D2E/DX2 analytically  !
 ! A11   A(5,4,18)             108.3251         calculate D2E/DX2 analytically  !
 ! A12   A(8,4,18)             109.535          calculate D2E/DX2 analytically  !
 ! A13   A(4,5,6)              111.6154         calculate D2E/DX2 analytically  !
 ! A14   A(4,5,7)              125.3475         calculate D2E/DX2 analytically  !
 ! A15   A(6,5,7)              123.0221         calculate D2E/DX2 analytically  !
 ! A16   A(5,6,19)             106.1193         calculate D2E/DX2 analytically  !
 ! A17   A(4,8,9)              114.9679         calculate D2E/DX2 analytically  !
 ! A18   A(4,8,20)             109.2354         calculate D2E/DX2 analytically  !
 ! A19   A(4,8,21)             108.0247         calculate D2E/DX2 analytically  !
 ! A20   A(9,8,20)             109.3221         calculate D2E/DX2 analytically  !
 ! A21   A(9,8,21)             108.9127         calculate D2E/DX2 analytically  !
 ! A22   A(20,8,21)            105.9938         calculate D2E/DX2 analytically  !
 ! A23   A(8,9,10)             130.5325         calculate D2E/DX2 analytically  !
 ! A24   A(8,9,13)             124.618          calculate D2E/DX2 analytically  !
 ! A25   A(10,9,13)            104.8255         calculate D2E/DX2 analytically  !
 ! A26   A(9,10,11)            110.9276         calculate D2E/DX2 analytically  !
 ! A27   A(9,10,22)            128.1989         calculate D2E/DX2 analytically  !
 ! A28   A(11,10,22)           120.8735         calculate D2E/DX2 analytically  !
 ! A29   A(10,11,12)           104.7069         calculate D2E/DX2 analytically  !
 ! A30   A(11,12,13)           111.9624         calculate D2E/DX2 analytically  !
 ! A31   A(11,12,23)           126.2929         calculate D2E/DX2 analytically  !
 ! A32   A(13,12,23)           121.7446         calculate D2E/DX2 analytically  !
 ! A33   A(9,13,12)            107.5757         calculate D2E/DX2 analytically  !
 ! A34   A(9,13,24)            125.9221         calculate D2E/DX2 analytically  !
 ! A35   A(12,13,24)           126.3561         calculate D2E/DX2 analytically  !
 ! A36   A(2,14,15)            113.5898         calculate D2E/DX2 analytically  !
 ! A37   A(2,14,25)            109.187          calculate D2E/DX2 analytically  !
 ! A38   A(2,14,26)            106.3738         calculate D2E/DX2 analytically  !
 ! A39   A(15,14,25)           108.6248         calculate D2E/DX2 analytically  !
 ! A40   A(15,14,26)           110.9815         calculate D2E/DX2 analytically  !
 ! A41   A(25,14,26)           107.9245         calculate D2E/DX2 analytically  !
 ! A42   A(14,15,16)           111.3475         calculate D2E/DX2 analytically  !
 ! A43   A(14,15,27)           108.9737         calculate D2E/DX2 analytically  !
 ! A44   A(14,15,28)           109.3448         calculate D2E/DX2 analytically  !
 ! A45   A(16,15,27)           108.1028         calculate D2E/DX2 analytically  !
 ! A46   A(16,15,28)           112.0079         calculate D2E/DX2 analytically  !
 ! A47   A(27,15,28)           106.9165         calculate D2E/DX2 analytically  !
 ! A48   A(15,16,29)           111.5564         calculate D2E/DX2 analytically  !
 ! A49   A(15,16,30)           110.7986         calculate D2E/DX2 analytically  !
 ! A50   A(29,16,30)           107.3892         calculate D2E/DX2 analytically  !
 ! D1    D(1,2,3,4)            -16.8472         calculate D2E/DX2 analytically  !
 ! D2    D(1,2,3,17)          -172.909          calculate D2E/DX2 analytically  !
 ! D3    D(14,2,3,4)           165.7775         calculate D2E/DX2 analytically  !
 ! D4    D(14,2,3,17)            9.7158         calculate D2E/DX2 analytically  !
 ! D5    D(1,2,14,15)          136.0055         calculate D2E/DX2 analytically  !
 ! D6    D(1,2,14,25)         -102.5989         calculate D2E/DX2 analytically  !
 ! D7    D(1,2,14,26)           13.6252         calculate D2E/DX2 analytically  !
 ! D8    D(3,2,14,15)          -46.5847         calculate D2E/DX2 analytically  !
 ! D9    D(3,2,14,25)           74.8109         calculate D2E/DX2 analytically  !
 ! D10   D(3,2,14,26)         -168.965          calculate D2E/DX2 analytically  !
 ! D11   D(2,3,4,5)           -118.9752         calculate D2E/DX2 analytically  !
 ! D12   D(2,3,4,8)            120.312          calculate D2E/DX2 analytically  !
 ! D13   D(2,3,4,18)            -1.2603         calculate D2E/DX2 analytically  !
 ! D14   D(17,3,4,5)            36.3919         calculate D2E/DX2 analytically  !
 ! D15   D(17,3,4,8)           -84.3209         calculate D2E/DX2 analytically  !
 ! D16   D(17,3,4,18)          154.1068         calculate D2E/DX2 analytically  !
 ! D17   D(3,4,5,6)            167.8964         calculate D2E/DX2 analytically  !
 ! D18   D(3,4,5,7)            -13.4842         calculate D2E/DX2 analytically  !
 ! D19   D(8,4,5,6)            -68.7433         calculate D2E/DX2 analytically  !
 ! D20   D(8,4,5,7)            109.876          calculate D2E/DX2 analytically  !
 ! D21   D(18,4,5,6)            50.1173         calculate D2E/DX2 analytically  !
 ! D22   D(18,4,5,7)          -131.2634         calculate D2E/DX2 analytically  !
 ! D23   D(3,4,8,9)            -64.9541         calculate D2E/DX2 analytically  !
 ! D24   D(3,4,8,20)            58.3472         calculate D2E/DX2 analytically  !
 ! D25   D(3,4,8,21)           173.2087         calculate D2E/DX2 analytically  !
 ! D26   D(5,4,8,9)            174.086          calculate D2E/DX2 analytically  !
 ! D27   D(5,4,8,20)           -62.6128         calculate D2E/DX2 analytically  !
 ! D28   D(5,4,8,21)            52.2487         calculate D2E/DX2 analytically  !
 ! D29   D(18,4,8,9)            55.9903         calculate D2E/DX2 analytically  !
 ! D30   D(18,4,8,20)          179.2915         calculate D2E/DX2 analytically  !
 ! D31   D(18,4,8,21)          -65.847          calculate D2E/DX2 analytically  !
 ! D32   D(4,5,6,19)           178.8907         calculate D2E/DX2 analytically  !
 ! D33   D(7,5,6,19)             0.2338         calculate D2E/DX2 analytically  !
 ! D34   D(4,8,9,10)           174.4921         calculate D2E/DX2 analytically  !
 ! D35   D(4,8,9,13)            -7.5697         calculate D2E/DX2 analytically  !
 ! D36   D(20,8,9,10)           51.2371         calculate D2E/DX2 analytically  !
 ! D37   D(20,8,9,13)         -130.8247         calculate D2E/DX2 analytically  !
 ! D38   D(21,8,9,10)          -64.1528         calculate D2E/DX2 analytically  !
 ! D39   D(21,8,9,13)          113.7854         calculate D2E/DX2 analytically  !
 ! D40   D(8,9,10,11)          178.6096         calculate D2E/DX2 analytically  !
 ! D41   D(8,9,10,22)           -1.3372         calculate D2E/DX2 analytically  !
 ! D42   D(13,9,10,11)           0.3647         calculate D2E/DX2 analytically  !
 ! D43   D(13,9,10,22)        -179.5821         calculate D2E/DX2 analytically  !
 ! D44   D(8,9,13,12)         -178.8194         calculate D2E/DX2 analytically  !
 ! D45   D(8,9,13,24)            5.359          calculate D2E/DX2 analytically  !
 ! D46   D(10,9,13,12)          -0.4403         calculate D2E/DX2 analytically  !
 ! D47   D(10,9,13,24)        -176.2619         calculate D2E/DX2 analytically  !
 ! D48   D(9,10,11,12)          -0.1419         calculate D2E/DX2 analytically  !
 ! D49   D(22,10,11,12)        179.8093         calculate D2E/DX2 analytically  !
 ! D50   D(10,11,12,13)         -0.1505         calculate D2E/DX2 analytically  !
 ! D51   D(10,11,12,23)        179.7578         calculate D2E/DX2 analytically  !
 ! D52   D(11,12,13,9)           0.3833         calculate D2E/DX2 analytically  !
 ! D53   D(11,12,13,24)        176.1817         calculate D2E/DX2 analytically  !
 ! D54   D(23,12,13,9)        -179.5298         calculate D2E/DX2 analytically  !
 ! D55   D(23,12,13,24)         -3.7314         calculate D2E/DX2 analytically  !
 ! D56   D(2,14,15,16)          68.9177         calculate D2E/DX2 analytically  !
 ! D57   D(2,14,15,27)         -50.2361         calculate D2E/DX2 analytically  !
 ! D58   D(2,14,15,28)        -166.7754         calculate D2E/DX2 analytically  !
 ! D59   D(25,14,15,16)        -52.7915         calculate D2E/DX2 analytically  !
 ! D60   D(25,14,15,27)       -171.9453         calculate D2E/DX2 analytically  !
 ! D61   D(25,14,15,28)         71.5155         calculate D2E/DX2 analytically  !
 ! D62   D(26,14,15,16)       -171.2862         calculate D2E/DX2 analytically  !
 ! D63   D(26,14,15,27)         69.56           calculate D2E/DX2 analytically  !
 ! D64   D(26,14,15,28)        -46.9793         calculate D2E/DX2 analytically  !
 ! D65   D(14,15,16,29)         86.1649         calculate D2E/DX2 analytically  !
 ! D66   D(14,15,16,30)       -154.2452         calculate D2E/DX2 analytically  !
 ! D67   D(27,15,16,29)       -154.1633         calculate D2E/DX2 analytically  !
 ! D68   D(27,15,16,30)        -34.5734         calculate D2E/DX2 analytically  !
 ! D69   D(28,15,16,29)        -36.6262         calculate D2E/DX2 analytically  !
 ! D70   D(28,15,16,30)         82.9637         calculate D2E/DX2 analytically  !
 --------------------------------------------------------------------------------
 Trust Radius=3.00D-01 FncErr=1.00D-07 GrdErr=1.00D-06
 Number of steps in this run=    160 maximum allowed number of steps=    180.
 GradGradGradGradGradGradGradGradGradGradGradGradGradGradGradGradGradGrad

                          Input orientation:                          
 ---------------------------------------------------------------------
 Center     Atomic      Atomic             Coordinates (Angstroms)
 Number     Number       Type             X           Y           Z
 ---------------------------------------------------------------------
      1          8           0       -0.487137    0.034113   -2.183190
      2          6           0        0.461268    0.279282   -1.440517
      3          7           0        0.327894    0.427946   -0.110441
      4          6           0       -0.957804    0.665448    0.501575
      5          6           0       -0.924970    2.000307    1.213651
      6          8           0       -2.158867    2.398398    1.578742
      7          8           0        0.070491    2.635914    1.459449
      8          6           0       -1.346294   -0.417723    1.513882
      9          6           0       -1.558244   -1.785053    0.929409
     10          6           0       -1.808037   -2.980892    1.538055
     11          7           0       -1.966617   -3.985539    0.604764
     12          6           0       -1.815215   -3.390767   -0.553375
     13          7           0       -1.572589   -2.065091   -0.414312
     14          6           0        1.888109    0.373714   -1.968479
     15          6           0        2.670739    1.562111   -1.407896
     16          7           0        2.959170    1.385918    0.026709
     17          1           0        1.164234    0.739164    0.380893
     18          1           0       -1.710505    0.715370   -0.285954
     19          1           0       -2.044274    3.240207    2.036763
     20          1           0       -0.583259   -0.472180    2.293090
     21          1           0       -2.264205   -0.100005    2.013233
     22          1           0       -1.886099   -3.189059    2.595576
     23          1           0       -1.867355   -3.858382   -1.521281
     24          1           0       -1.369122   -1.410531   -1.159878
     25          1           0        2.425773   -0.547949   -1.719863
     26          1           0        1.810668    0.434499   -3.054138
     27          1           0        2.072378    2.468476   -1.524990
     28          1           0        3.583373    1.704834   -1.995297
     29          1           0        3.807463    0.857035    0.172543
     30          1           0        3.079128    2.280426    0.481062
 ---------------------------------------------------------------------
                    Distance matrix (angstroms):
                    1          2          3          4          5
     1  O    0.000000
     2  C    1.229285   0.000000
     3  N    2.261784   1.344987   0.000000
     4  C    2.797870   2.436105   1.443603   0.000000
     5  C    3.949195   3.453720   2.407323   1.513267   0.000000
     6  O    4.747279   4.524564   3.594440   2.367690   1.346949
     7  O    4.511001   3.757156   2.721384   2.420257   1.206381
     8  C    3.822388   3.532926   2.481227   1.532629   2.472755
     9  C    3.760972   3.735834   3.088069   2.559009   3.848477
    10  C    4.968168   4.964913   4.347403   3.884969   5.069258
    11  N    5.110690   5.316625   5.025450   4.760256   6.106236
    12  C    4.018694   4.408930   4.401327   4.277962   5.742699
    13  N    2.951914   3.268908   3.149509   2.944938   4.426865
    14  C    2.408987   1.524315   2.426833   3.779616   4.548095
    15  C    3.592776   2.555089   2.908375   4.197191   4.471425
    16  N    4.311387   3.101114   2.803593   4.010892   4.107657
    17  H    3.130279   2.005789   1.018691   2.126745   2.578514
    18  H    2.358018   2.497957   2.066032   1.090529   2.125310
    19  H    5.523741   5.209250   4.259868   3.188510   1.862178
    20  H    4.505847   3.949120   2.723489   2.154996   2.719402
    21  H    4.559159   4.415931   3.392300   2.139559   2.616141
    22  H    5.931487   5.816318   5.030608   4.483725   5.455547
    23  H    4.182661   4.748608   5.018186   5.038281   6.533925
    24  H    1.977894   2.506901   2.713149   2.690595   4.179082
    25  H    3.006411   2.149797   2.818458   4.225602   5.130944
    26  H    2.489732   2.109205   3.296060   4.512302   5.305609
    27  H    3.593113   2.719445   3.034458   4.066925   4.086983
    28  H    4.404050   3.476711   3.972564   5.285544   5.541643
    29  H    4.966917   3.759359   3.517328   4.780453   4.978644
    30  H    4.986221   3.814476   3.369101   4.348033   4.080190
                    6          7          8          9         10
     6  O    0.000000
     7  O    2.245146   0.000000
     8  C    2.931726   3.366740   0.000000
     9  C    4.275938   4.741167   1.502040   0.000000
    10  C    5.390871   5.923137   2.604539   1.364872   0.000000
    11  N    6.460669   6.980253   3.733712   2.261482   1.380397
    12  C    6.178872   6.627838   3.651361   2.200682   2.131227
    13  N    4.923284   5.320727   2.546167   1.372667   2.169300
    14  C    5.749794   4.491322   4.818151   4.993534   6.100054
    15  C    5.739728   4.016965   5.347250   5.877993   7.026872
    16  N    5.443181   3.458280   4.899165   5.592580   6.639236
    17  H    3.902678   2.440740   2.987441   3.752923   4.900228
    18  H    2.551608   3.147517   2.157767   2.784314   4.122969
    19  H    0.965172   2.273916   3.760456   5.168723   6.245525
    20  H    3.351574   3.283686   1.091949   2.129285   2.892022
    21  H    2.538089   3.639057   1.092180   2.124251   2.955231
    22  H    5.685774   6.248946   3.023533   2.203368   1.080637
    23  H    6.988735   7.403774   4.617560   3.224922   3.183244
    24  H    4.757276   5.030614   2.852224   2.130998   3.152383
    25  H    6.370296   5.078618   4.970166   4.941807   5.870126
    26  H    6.409187   5.314782   5.617784   5.669623   6.771126
    27  H    5.247999   3.597564   5.408531   6.107209   7.357681
    28  H    6.799125   5.014232   6.412581   6.868001   7.969184
    29  H    6.320624   4.334224   5.475893   6.028622   6.937445
    30  H    5.353074   3.183631   5.284986   6.183393   7.258310
                   11         12         13         14         15
    11  N    0.000000
    12  C    1.310710   0.000000
    13  N    2.209501   1.354852   0.000000
    14  C    6.362671   5.467033   4.509949   0.000000
    15  C    7.505484   6.736839   5.670066   1.529396   0.000000
    16  N    7.310956   6.778493   5.713213   2.480424   1.473881
    17  H    5.672316   5.177481   3.998300   2.485377   2.479227
    18  H    4.791400   4.116169   2.786837   3.987185   4.601199
    19  H    7.366685   7.122577   5.863142   6.302569   6.075609
    20  H    4.136159   4.258900   3.293352   4.998417   5.331430
    21  H    4.143636   4.197402   3.198886   5.772361   6.230604
    22  H    2.145739   3.156201   3.228160   6.911483   7.704944
    23  H    2.132155   1.076208   2.127947   5.675750   7.070283
    24  H    3.178305   2.118532   1.012776   3.800911   5.021812
    25  H    6.042682   5.237202   4.471363   1.095607   2.147018
    26  H    6.869657   5.833824   4.966192   1.090113   2.172866
    27  H    7.905925   7.098461   5.922214   2.149108   1.092357
    28  H    8.363196   7.562344   6.579954   2.155578   1.094673
    29  H    7.548333   7.084158   6.150462   2.915732   2.070521
    30  H    8.045940   7.562214   6.428350   3.324805   2.061775
                   16         17         18         19         20
    16  N    0.000000
    17  H    1.940498   0.000000
    18  H    4.727923   2.951165   0.000000
    19  H    5.702031   4.392225   3.446913   0.000000
    20  H    4.597588   2.859648   3.054902   3.997760   0.000000
    21  H    5.782551   3.888822   2.501535   3.347527   1.744251
    22  H    7.141856   5.444289   4.855781   6.455443   3.028253
    23  H    7.293442   5.826340   4.740237   7.942351   5.259723
    24  H    5.287932   3.662384   2.323735   5.683635   3.663478
    25  H    2.659862   2.767909   4.556409   6.960150   5.016354
    26  H    3.422846   3.508581   4.487805   6.974944   5.928390
    27  H    2.089522   2.729036   4.349574   5.498043   5.502509
    28  H    2.140057   3.525767   5.650313   7.091212   6.363213
    29  H    1.010241   2.654046   5.538796   6.587690   5.053907
    30  H    1.010431   2.460150   5.096891   5.439727   4.926800
                   21         22         23         24         25
    21  H    0.000000
    22  H    3.166123   0.000000
    23  H    5.174522   4.170953   0.000000
    24  H    3.547856   4.187344   2.524049   0.000000
    25  H    6.011036   6.647609   5.424882   3.931775   0.000000
    26  H    6.524457   7.662605   5.857161   4.135628   1.767441
    27  H    6.158090   8.040914   7.453230   5.198454   3.043301
    28  H    7.315731   8.656871   7.802852   5.910214   2.547731
    29  H    6.416324   7.393146   7.570188   5.806395   2.732077
    30  H    6.046917   7.683742   8.134004   6.008558   3.642890
                   26         27         28         29         30
    26  H    0.000000
    27  H    2.558095   0.000000
    28  H    2.424331   1.757112   0.000000
    29  H    3.818010   2.913568   2.338484   0.000000
    30  H    4.184982   2.252366   2.591896   1.628404   0.000000
 Symmetry turned off by external request.
 Stoichiometry    C9H14N4O3
 Framework group  C1[X(C9H14N4O3)]
 Deg. of freedom    84
 Full point group                 C1      NOp   1
 Rotational constants (GHZ):      0.6745708      0.3748381      0.2826775
 Standard basis: 6-31+G(d,p) (6D, 7F)
   374 basis functions,   610 primitive gaussians,   374 cartesian basis functions
    60 alpha electrons       60 beta electrons
       nuclear repulsion energy      1148.3601066720 Hartrees.
 NAtoms=   30 NActive=   30 NUniq=   30 SFac= 1.00D+00 NAtFMM=   60 NAOKFM=F Big=F
 Integral buffers will be    131072 words long.
 Raffenetti 2 integral format.
 Two-electron integral symmetry is turned off.
 One-electron integrals computed using PRISM.
 NBasis=   374 RedAO= T EigKep=  2.30D-06  NBF=   374
 NBsUse=   374 1.00D-06 EigRej= -1.00D+00 NBFU=   374
 ExpMin= 4.38D-02 ExpMax= 5.48D+03 ExpMxC= 8.25D+02 IAcc=3 IRadAn=         5 AccDes= 0.00D+00
 Harris functional with IExCor=  402 and IRadAn=       5 diagonalized for initial guess.
 HarFok:  IExCor=  402 AccDes= 0.00D+00 IRadAn=         5 IDoV= 1 UseB2=F ITyADJ=14
 ICtDFT=  3500011 ScaDFX=  1.000000  1.000000  1.000000  1.000000
 FoFCou: FMM=F IPFlag=           0 FMFlag=      100000 FMFlg1=           0
         NFxFlg=           0 DoJE=T BraDBF=F KetDBF=T FulRan=T
         wScrn=  0.000000 ICntrl=     500 IOpCl=  0 I1Cent=   200000004 NGrid=           0
         NMat0=    1 NMatS0=      1 NMatT0=    0 NMatD0=    1 NMtDS0=    0 NMtDT0=    0
 Symmetry not used in FoFCou.
 Requested convergence on RMS density matrix=1.00D-08 within 128 cycles.
 Requested convergence on MAX density matrix=1.00D-06.
 Requested convergence on             energy=1.00D-06.
 No special actions if energy rises.
 SCF Done:  E(RB3LYP) =  -796.156396002     A.U. after   15 cycles
            NFock= 15  Conv=0.52D-08     -V/T= 2.0088
 DoSCS=F DFT=T ScalE2(SS,OS)=  1.000000  1.000000
 Range of M.O.s used for correlation:     1   374
 NBasis=   374 NAE=    60 NBE=    60 NFC=     0 NFV=     0
 NROrb=    374 NOA=    60 NOB=    60 NVA=   314 NVB=   314

 **** Warning!!: The largest alpha MO coefficient is  0.16093345D+03

 Symmetrizing basis deriv contribution to polar:
 IMax=3 JMax=2 DiffMx= 0.00D+00
 G2DrvN: will do    31 centers at a time, making    1 passes.
 Calling FoFCou, ICntrl=  3107 FMM=F I1Cent=   0 AccDes= 0.00D+00.
 End of G2Drv F.D. properties file   721 does not exist.
 End of G2Drv F.D. properties file   722 does not exist.
 End of G2Drv F.D. properties file   788 does not exist.
          IDoAtm=111111111111111111111111111111
          Differentiating once with respect to nuclear coordinates.
          There are    93 degrees of freedom in the 1st order CPHF.  IDoFFX=6 NUNeed=     0.
     87 vectors produced by pass  0 Test12= 2.03D-14 1.08D-09 XBig12= 2.16D-01 1.03D-01.
 AX will form    87 AO Fock derivatives at one time.
     87 vectors produced by pass  1 Test12= 2.03D-14 1.08D-09 XBig12= 2.80D-02 4.47D-02.
     87 vectors produced by pass  2 Test12= 2.03D-14 1.08D-09 XBig12= 2.75D-04 1.97D-03.
     87 vectors produced by pass  3 Test12= 2.03D-14 1.08D-09 XBig12= 8.84D-07 1.13D-04.
     87 vectors produced by pass  4 Test12= 2.03D-14 1.08D-09 XBig12= 1.65D-09 3.96D-06.
     77 vectors produced by pass  5 Test12= 2.03D-14 1.08D-09 XBig12= 2.08D-12 1.06D-07.
     30 vectors produced by pass  6 Test12= 2.03D-14 1.08D-09 XBig12= 2.91D-15 4.69D-09.
      2 vectors produced by pass  7 Test12= 2.03D-14 1.08D-09 XBig12= 2.56D-16 1.60D-09.
 InvSVY:  IOpt=1 It=  1 EMax= 8.88D-16
 Solved reduced A of dimension   544 with    93 vectors.
 End of Minotr F.D. properties file   721 does not exist.
 End of Minotr F.D. properties file   722 does not exist.
 End of Minotr F.D. properties file   788 does not exist.

 **********************************************************************

            Population analysis using the SCF density.

 **********************************************************************

 Alpha  occ. eigenvalues --  -19.23382 -19.17968 -19.14011 -14.37669 -14.37078
 Alpha  occ. eigenvalues --  -14.35423 -14.30556 -10.35333 -10.30568 -10.26330
 Alpha  occ. eigenvalues --  -10.24222 -10.22545 -10.21782 -10.21541 -10.21136
 Alpha  occ. eigenvalues --  -10.18591  -1.14719  -1.06237  -1.05568  -1.00928
 Alpha  occ. eigenvalues --   -0.95209  -0.91680  -0.86241  -0.82101  -0.77885
 Alpha  occ. eigenvalues --   -0.74911  -0.68487  -0.66499  -0.63195  -0.60799
 Alpha  occ. eigenvalues --   -0.59504  -0.58209  -0.55539  -0.53427  -0.52600
 Alpha  occ. eigenvalues --   -0.52209  -0.50187  -0.48967  -0.48316  -0.47829
 Alpha  occ. eigenvalues --   -0.46174  -0.44970  -0.44061  -0.43317  -0.42000
 Alpha  occ. eigenvalues --   -0.41449  -0.40717  -0.39875  -0.39718  -0.39206
 Alpha  occ. eigenvalues --   -0.38632  -0.36696  -0.35650  -0.31569  -0.28484
 Alpha  occ. eigenvalues --   -0.28436  -0.27231  -0.27104  -0.25942  -0.21738
 Alpha virt. eigenvalues --   -0.02839  -0.02170  -0.00967   0.00115   0.01131
 Alpha virt. eigenvalues --    0.01810   0.02208   0.02686   0.02995   0.03542
 Alpha virt. eigenvalues --    0.04079   0.04885   0.05126   0.05927   0.06435
 Alpha virt. eigenvalues --    0.06634   0.07148   0.07518   0.08073   0.08297
 Alpha virt. eigenvalues --    0.09312   0.09985   0.10029   0.10471   0.11602
 Alpha virt. eigenvalues --    0.11630   0.12019   0.12748   0.13240   0.13716
 Alpha virt. eigenvalues --    0.14166   0.14368   0.15027   0.15785   0.16133
 Alpha virt. eigenvalues --    0.16568   0.17177   0.17578   0.17660   0.18191
 Alpha virt. eigenvalues --    0.18612   0.18960   0.19208   0.19940   0.20099
 Alpha virt. eigenvalues --    0.20721   0.21301   0.21491   0.22438   0.22777
 Alpha virt. eigenvalues --    0.23209   0.23826   0.23929   0.24153   0.24392
 Alpha virt. eigenvalues --    0.25036   0.25595   0.25640   0.26241   0.26737
 Alpha virt. eigenvalues --    0.27100   0.27755   0.27859   0.28154   0.28962
 Alpha virt. eigenvalues --    0.29622   0.29799   0.30503   0.30798   0.31294
 Alpha virt. eigenvalues --    0.31685   0.32390   0.32670   0.33343   0.33745
 Alpha virt. eigenvalues --    0.33987   0.34287   0.34877   0.35770   0.36478
 Alpha virt. eigenvalues --    0.36968   0.37651   0.37951   0.38153   0.38958
 Alpha virt. eigenvalues --    0.39459   0.40961   0.41167   0.41959   0.43454
 Alpha virt. eigenvalues --    0.45173   0.45877   0.47179   0.48674   0.50016
 Alpha virt. eigenvalues --    0.51340   0.52721   0.53798   0.63302   0.64693
 Alpha virt. eigenvalues --    0.66303   0.67524   0.68075   0.69299   0.69750
 Alpha virt. eigenvalues --    0.71567   0.73313   0.73680   0.75251   0.76932
 Alpha virt. eigenvalues --    0.78094   0.78847   0.80587   0.81426   0.81821
 Alpha virt. eigenvalues --    0.82751   0.83822   0.85880   0.86913   0.87297
 Alpha virt. eigenvalues --    0.88576   0.89725   0.90039   0.90992   0.91994
 Alpha virt. eigenvalues --    0.93482   0.94447   0.95029   0.96559   0.97102
 Alpha virt. eigenvalues --    0.99775   1.01179   1.01569   1.02582   1.03808
 Alpha virt. eigenvalues --    1.04379   1.04832   1.06577   1.06777   1.07331
 Alpha virt. eigenvalues --    1.08497   1.09842   1.10665   1.11462   1.12321
 Alpha virt. eigenvalues --    1.13561   1.14789   1.15451   1.16692   1.18698
 Alpha virt. eigenvalues --    1.20068   1.21841   1.24444   1.25943   1.26985
 Alpha virt. eigenvalues --    1.27681   1.28152   1.30330   1.30693   1.31748
 Alpha virt. eigenvalues --    1.32772   1.34783   1.35701   1.36753   1.37589
 Alpha virt. eigenvalues --    1.38252   1.39448   1.39725   1.40767   1.42430
 Alpha virt. eigenvalues --    1.43065   1.44028   1.44278   1.45545   1.49567
 Alpha virt. eigenvalues --    1.50843   1.52424   1.54759   1.56385   1.56460
 Alpha virt. eigenvalues --    1.60674   1.62080   1.62624   1.65197   1.66279
 Alpha virt. eigenvalues --    1.69071   1.70851   1.71620   1.73175   1.73549
 Alpha virt. eigenvalues --    1.75317   1.77278   1.78698   1.79751   1.81235
 Alpha virt. eigenvalues --    1.83395   1.83902   1.86636   1.88685   1.89931
 Alpha virt. eigenvalues --    1.91412   1.92325   1.92911   1.95518   1.96807
 Alpha virt. eigenvalues --    1.97469   1.99524   2.00553   2.02983   2.04809
 Alpha virt. eigenvalues --    2.05051   2.07706   2.08682   2.10008   2.11189
 Alpha virt. eigenvalues --    2.12242   2.13164   2.14109   2.15093   2.16640
 Alpha virt. eigenvalues --    2.17498   2.19776   2.21433   2.22916   2.23988
 Alpha virt. eigenvalues --    2.25383   2.26549   2.27982   2.29742   2.31801
 Alpha virt. eigenvalues --    2.33826   2.34574   2.36271   2.37336   2.37987
 Alpha virt. eigenvalues --    2.41632   2.42749   2.44534   2.45207   2.47118
 Alpha virt. eigenvalues --    2.47682   2.50266   2.50891   2.52981   2.53313
 Alpha virt. eigenvalues --    2.54430   2.57460   2.58543   2.59484   2.59714
 Alpha virt. eigenvalues --    2.60619   2.62212   2.62787   2.65631   2.66868
 Alpha virt. eigenvalues --    2.68014   2.69811   2.70363   2.70998   2.72676
 Alpha virt. eigenvalues --    2.73166   2.76355   2.77576   2.78656   2.81008
 Alpha virt. eigenvalues --    2.83507   2.83982   2.86457   2.87535   2.89467
 Alpha virt. eigenvalues --    2.89909   2.93300   2.94236   2.95398   2.99457
 Alpha virt. eigenvalues --    3.02197   3.03773   3.07317   3.09354   3.10266
 Alpha virt. eigenvalues --    3.14516   3.19823   3.25783   3.29339   3.30073
 Alpha virt. eigenvalues --    3.33123   3.34434   3.36655   3.38575   3.43588
 Alpha virt. eigenvalues --    3.45940   3.48398   3.51703   3.53474   3.56262
 Alpha virt. eigenvalues --    3.59631   3.61513   3.77538   4.23167   4.24630
 Alpha virt. eigenvalues --    4.25516   4.30887   4.34024   4.38828   4.41850
 Alpha virt. eigenvalues --    4.46099   4.53237   4.53833   4.61742   4.62336
 Alpha virt. eigenvalues --    4.65158   4.71160   4.76265   4.87521
          Condensed to atoms (all electrons):
               1          2          3          4          5          6
     1  O    8.257173   0.531544  -0.168023  -0.092153   0.064459   0.000275
     2  C    0.531544   6.328756   0.196365  -0.070333   0.032672   0.014780
     3  N   -0.168023   0.196365   7.615305  -0.235072   0.019157   0.030192
     4  C   -0.092153  -0.070333  -0.235072  14.335499  -3.669726  -0.200247
     5  C    0.064459   0.032672   0.019157  -3.669726   7.457818   0.218255
     6  O    0.000275   0.014780   0.030192  -0.200247   0.218255   8.284704
     7  O   -0.000005   0.019483   0.011557  -0.179410   0.626650  -0.150386
     8  C    0.020567  -0.567720   0.116795  -6.516085   2.203751   0.040240
     9  C   -0.081889   0.082143   0.130205   3.053711  -1.205662  -0.043908
    10  C    0.015931   0.013890  -0.030902  -0.436800  -0.005685   0.012326
    11  N   -0.001829  -0.002393  -0.000264   0.025251  -0.011606  -0.000071
    12  C    0.001790  -0.001018  -0.035876   0.035844  -0.047590  -0.000490
    13  N   -0.033444  -0.005889   0.003280   0.181253  -0.055942  -0.001703
    14  C   -0.032649  -0.617278  -0.487383  -0.104267   0.017498   0.001698
    15  C   -0.007969  -0.192174   0.007696  -0.086891   0.008763   0.000798
    16  N   -0.007747   0.102201  -0.097032  -0.127111   0.015542   0.000674
    17  H    0.007651   0.004978   0.284854  -0.028712  -0.023164   0.000416
    18  H    0.009252   0.027648  -0.106958   0.561047  -0.124455  -0.001963
    19  H   -0.000036  -0.001208  -0.002967   0.023893   0.028919   0.199214
    20  H   -0.000170   0.016522  -0.006739   0.079181  -0.070914  -0.001723
    21  H    0.000428  -0.011180   0.011738  -0.147901   0.014862   0.004601
    22  H   -0.000011  -0.000339   0.000519  -0.004985   0.002125   0.000005
    23  H   -0.000429   0.000741   0.000330  -0.007248  -0.000672   0.000000
    24  H    0.035298   0.018134  -0.016429   0.015224   0.018135   0.000123
    25  H    0.002329  -0.049311   0.008103  -0.000524  -0.000078   0.000001
    26  H   -0.008847  -0.020890   0.002825  -0.004269  -0.001786  -0.000005
    27  H    0.002037  -0.032562   0.006256   0.004008  -0.005802   0.000012
    28  H   -0.000816   0.015973  -0.003319  -0.000463  -0.000200   0.000000
    29  H    0.000178  -0.017562   0.008031  -0.000448  -0.001005   0.000007
    30  H    0.000061  -0.002332   0.005287   0.008878  -0.000880  -0.000034
               7          8          9         10         11         12
     1  O   -0.000005   0.020567  -0.081889   0.015931  -0.001829   0.001790
     2  C    0.019483  -0.567720   0.082143   0.013890  -0.002393  -0.001018
     3  N    0.011557   0.116795   0.130205  -0.030902  -0.000264  -0.035876
     4  C   -0.179410  -6.516085   3.053711  -0.436800   0.025251   0.035844
     5  C    0.626650   2.203751  -1.205662  -0.005685  -0.011606  -0.047590
     6  O   -0.150386   0.040240  -0.043908   0.012326  -0.000071  -0.000490
     7  O    8.159715  -0.062223  -0.023649  -0.002916  -0.000030  -0.000105
     8  C   -0.062223  19.176405  -7.433185   0.019957  -0.167014  -0.355322
     9  C   -0.023649  -7.433185  12.940842  -2.435460  -0.104124   0.309164
    10  C   -0.002916   0.019957  -2.435460   8.765997   0.475366  -0.542502
    11  N   -0.000030  -0.167014  -0.104124   0.475366   6.772746   0.442724
    12  C   -0.000105  -0.355322   0.309164  -0.542502   0.442724   5.397272
    13  N    0.000153  -0.276498   0.329084  -0.025715  -0.023690   0.084700
    14  C    0.007374  -0.257099   0.015208  -0.014357  -0.000899   0.028577
    15  C    0.006046   0.023235  -0.005829   0.004860  -0.000121  -0.002080
    16  N    0.007177   0.079299  -0.022377  -0.003727  -0.000040  -0.001984
    17  H    0.000608  -0.046255   0.021295   0.005529   0.000001   0.000947
    18  H    0.003213  -0.180816   0.049889   0.007152   0.000360   0.006241
    19  H    0.005653  -0.005327  -0.005224  -0.000771   0.000000  -0.000002
    20  H   -0.000535   0.323620  -0.067029   0.019356   0.000134   0.001183
    21  H    0.002067   0.649602  -0.161241  -0.044544  -0.001614  -0.006053
    22  H    0.000004   0.142639  -0.121965   0.349030  -0.068352   0.007429
    23  H    0.000000   0.016672   0.047814  -0.034623  -0.053059   0.448359
    24  H   -0.000045  -0.115033   0.043455   0.012249   0.007619  -0.004054
    25  H    0.000036   0.003250   0.000654  -0.001041   0.000017  -0.001072
    26  H   -0.000020  -0.002642   0.002219   0.000276   0.000002  -0.000101
    27  H    0.000990  -0.001630   0.000319  -0.000052   0.000000  -0.000034
    28  H    0.000030   0.000948  -0.000084  -0.000004   0.000000  -0.000005
    29  H    0.000732   0.000049   0.000250   0.000138   0.000000   0.000001
    30  H   -0.001392   0.001041  -0.000501  -0.000060   0.000000   0.000017
              13         14         15         16         17         18
     1  O   -0.033444  -0.032649  -0.007969  -0.007747   0.007651   0.009252
     2  C   -0.005889  -0.617278  -0.192174   0.102201   0.004978   0.027648
     3  N    0.003280  -0.487383   0.007696  -0.097032   0.284854  -0.106958
     4  C    0.181253  -0.104267  -0.086891  -0.127111  -0.028712   0.561047
     5  C   -0.055942   0.017498   0.008763   0.015542  -0.023164  -0.124455
     6  O   -0.001703   0.001698   0.000798   0.000674   0.000416  -0.001963
     7  O    0.000153   0.007374   0.006046   0.007177   0.000608   0.003213
     8  C   -0.276498  -0.257099   0.023235   0.079299  -0.046255  -0.180816
     9  C    0.329084   0.015208  -0.005829  -0.022377   0.021295   0.049889
    10  C   -0.025715  -0.014357   0.004860  -0.003727   0.005529   0.007152
    11  N   -0.023690  -0.000899  -0.000121  -0.000040   0.000001   0.000360
    12  C    0.084700   0.028577  -0.002080  -0.001984   0.000947   0.006241
    13  N    7.018252  -0.014911  -0.002736  -0.002133   0.000220   0.019792
    14  C   -0.014911   6.904476   0.215962  -0.207674   0.044991   0.014587
    15  C   -0.002736   0.215962   5.242400   0.226218  -0.002053   0.000458
    16  N   -0.002133  -0.207674   0.226218   7.220527   0.013929  -0.001722
    17  H    0.000220   0.044991  -0.002053   0.013929   0.314532   0.003058
    18  H    0.019792   0.014587   0.000458  -0.001722   0.003058   0.517307
    19  H    0.000001  -0.000180   0.000080  -0.000018   0.000003  -0.000248
    20  H    0.013568   0.004160   0.000090  -0.001053   0.000432   0.005133
    21  H    0.001804  -0.001049  -0.000034   0.000071  -0.000034  -0.003330
    22  H   -0.003706  -0.000130  -0.000003   0.000005   0.000001  -0.000007
    23  H   -0.115177  -0.000743   0.000017   0.000001   0.000000   0.000004
    24  H    0.256212   0.016127   0.000617  -0.000059   0.000121  -0.000259
    25  H    0.000174   0.404314  -0.047936  -0.002465  -0.000613  -0.000020
    26  H   -0.000300   0.371676  -0.015489   0.011006   0.000132  -0.000008
    27  H    0.000034  -0.039961   0.453759  -0.069152  -0.000647  -0.000010
    28  H   -0.000014  -0.080399   0.438101  -0.064403   0.000424   0.000000
    29  H    0.000012   0.002313  -0.009199   0.324919  -0.000181   0.000001
    30  H    0.000028   0.032468  -0.065737   0.340737  -0.000703   0.000002
              19         20         21         22         23         24
     1  O   -0.000036  -0.000170   0.000428  -0.000011  -0.000429   0.035298
     2  C   -0.001208   0.016522  -0.011180  -0.000339   0.000741   0.018134
     3  N   -0.002967  -0.006739   0.011738   0.000519   0.000330  -0.016429
     4  C    0.023893   0.079181  -0.147901  -0.004985  -0.007248   0.015224
     5  C    0.028919  -0.070914   0.014862   0.002125  -0.000672   0.018135
     6  O    0.199214  -0.001723   0.004601   0.000005   0.000000   0.000123
     7  O    0.005653  -0.000535   0.002067   0.000004   0.000000  -0.000045
     8  C   -0.005327   0.323620   0.649602   0.142639   0.016672  -0.115033
     9  C   -0.005224  -0.067029  -0.161241  -0.121965   0.047814   0.043455
    10  C   -0.000771   0.019356  -0.044544   0.349030  -0.034623   0.012249
    11  N    0.000000   0.000134  -0.001614  -0.068352  -0.053059   0.007619
    12  C   -0.000002   0.001183  -0.006053   0.007429   0.448359  -0.004054
    13  N    0.000001   0.013568   0.001804  -0.003706  -0.115177   0.256212
    14  C   -0.000180   0.004160  -0.001049  -0.000130  -0.000743   0.016127
    15  C    0.000080   0.000090  -0.000034  -0.000003   0.000017   0.000617
    16  N   -0.000018  -0.001053   0.000071   0.000005   0.000001  -0.000059
    17  H    0.000003   0.000432  -0.000034   0.000001   0.000000   0.000121
    18  H   -0.000248   0.005133  -0.003330  -0.000007   0.000004  -0.000259
    19  H    0.382590  -0.000091  -0.000033   0.000000   0.000000   0.000000
    20  H   -0.000091   0.554293  -0.036291   0.000436   0.000004   0.000026
    21  H   -0.000033  -0.036291   0.539201   0.000182   0.000003   0.000010
    22  H    0.000000   0.000436   0.000182   0.580229  -0.000058  -0.000092
    23  H    0.000000   0.000004   0.000003  -0.000058   0.569021   0.000275
    24  H    0.000000   0.000026   0.000010  -0.000092   0.000275   0.378936
    25  H    0.000000  -0.000002   0.000000   0.000000   0.000000  -0.000108
    26  H    0.000000   0.000000   0.000000   0.000000   0.000000   0.000015
    27  H    0.000000   0.000000   0.000000   0.000000   0.000000  -0.000002
    28  H    0.000000   0.000000   0.000000   0.000000   0.000000   0.000000
    29  H    0.000000   0.000001   0.000000   0.000000   0.000000   0.000000
    30  H    0.000000   0.000002   0.000000   0.000000   0.000000   0.000000
              25         26         27         28         29         30
     1  O    0.002329  -0.008847   0.002037  -0.000816   0.000178   0.000061
     2  C   -0.049311  -0.020890  -0.032562   0.015973  -0.017562  -0.002332
     3  N    0.008103   0.002825   0.006256  -0.003319   0.008031   0.005287
     4  C   -0.000524  -0.004269   0.004008  -0.000463  -0.000448   0.008878
     5  C   -0.000078  -0.001786  -0.005802  -0.000200  -0.001005  -0.000880
     6  O    0.000001  -0.000005   0.000012   0.000000   0.000007  -0.000034
     7  O    0.000036  -0.000020   0.000990   0.000030   0.000732  -0.001392
     8  C    0.003250  -0.002642  -0.001630   0.000948   0.000049   0.001041
     9  C    0.000654   0.002219   0.000319  -0.000084   0.000250  -0.000501
    10  C   -0.001041   0.000276  -0.000052  -0.000004   0.000138  -0.000060
    11  N    0.000017   0.000002   0.000000   0.000000   0.000000   0.000000
    12  C   -0.001072  -0.000101  -0.000034  -0.000005   0.000001   0.000017
    13  N    0.000174  -0.000300   0.000034  -0.000014   0.000012   0.000028
    14  C    0.404314   0.371676  -0.039961  -0.080399   0.002313   0.032468
    15  C   -0.047936  -0.015489   0.453759   0.438101  -0.009199  -0.065737
    16  N   -0.002465   0.011006  -0.069152  -0.064403   0.324919   0.340737
    17  H   -0.000613   0.000132  -0.000647   0.000424  -0.000181  -0.000703
    18  H   -0.000020  -0.000008  -0.000010   0.000000   0.000001   0.000002
    19  H    0.000000   0.000000   0.000000   0.000000   0.000000   0.000000
    20  H   -0.000002   0.000000   0.000000   0.000000   0.000001   0.000002
    21  H    0.000000   0.000000   0.000000   0.000000   0.000000   0.000000
    22  H    0.000000   0.000000   0.000000   0.000000   0.000000   0.000000
    23  H    0.000000   0.000000   0.000000   0.000000   0.000000   0.000000
    24  H   -0.000108   0.000015  -0.000002   0.000000   0.000000   0.000000
    25  H    0.532920  -0.023214   0.004808  -0.004185   0.002440   0.000056
    26  H   -0.023214   0.517907  -0.002088  -0.001932  -0.000111  -0.000171
    27  H    0.004808  -0.002088   0.555838  -0.034147   0.005587  -0.005714
    28  H   -0.004185  -0.001932  -0.034147   0.598526  -0.007229   0.000288
    29  H    0.002440  -0.000111   0.005587  -0.007229   0.415680  -0.026948
    30  H    0.000056  -0.000171  -0.005714   0.000288  -0.026948   0.405189
 Mulliken charges:
               1
     1  O   -0.512956
     2  C    0.186360
     3  N   -0.267533
     4  C   -0.411141
     5  C    0.496561
     6  O   -0.407792
     7  O   -0.430770
     8  C   -0.831221
     9  C    0.685873
    10  C   -0.122896
    11  N   -0.289116
    12  C    0.234039
    13  N   -0.346713
    14  C   -0.222452
    15  C   -0.190849
    16  N   -0.733608
    17  H    0.398239
    18  H    0.194652
    19  H    0.375750
    20  H    0.166407
    21  H    0.188735
    22  H    0.117046
    23  H    0.128769
    24  H    0.333505
    25  H    0.171466
    26  H    0.175819
    27  H    0.158154
    28  H    0.142909
    29  H    0.302345
    30  H    0.310418
 Sum of Mulliken charges =   0.00000
 Mulliken charges with hydrogens summed into heavy atoms:
               1
     1  O   -0.512956
     2  C    0.186360
     3  N    0.130707
     4  C   -0.216488
     5  C    0.496561
     6  O   -0.032042
     7  O   -0.430770
     8  C   -0.476079
     9  C    0.685873
    10  C   -0.005851
    11  N   -0.289116
    12  C    0.362808
    13  N   -0.013208
    14  C    0.124833
    15  C    0.110214
    16  N   -0.120845
 APT charges:
               1
     1  O   -0.409347
     2  C    0.123440
     3  N   -0.385564
     4  C   -0.670088
     5  C   -0.063532
     6  O   -0.748384
     7  O   -0.205595
     8  C   -1.545021
     9  C    0.729471
    10  C   -0.509779
    11  N   -0.089017
    12  C   -0.238623
    13  N   -0.643484
    14  C   -0.798736
    15  C   -1.110938
    16  N   -1.650107
    17  H    0.588833
    18  H    0.416838
    19  H    1.034624
    20  H    0.370575
    21  H    0.594931
    22  H    0.724052
    23  H    0.714208
    24  H    0.211401
    25  H    0.360921
    26  H    0.603711
    27  H    0.328467
    28  H    0.743451
    29  H    0.787935
    30  H    0.735355
 Sum of APT charges =   0.00000
 APT charges with hydrogens summed into heavy atoms:
               1
     1  O   -0.409347
     2  C    0.123440
     3  N    0.203269
     4  C   -0.253250
     5  C   -0.063532
     6  O    0.286241
     7  O   -0.205595
     8  C   -0.579514
     9  C    0.729471
    10  C    0.214272
    11  N   -0.089017
    12  C    0.475586
    13  N   -0.432083
    14  C    0.165896
    15  C   -0.039019
    16  N   -0.126817
 Electronic spatial extent (au):  <R**2>=           4042.6368
 Charge=              0.0000 electrons
 Dipole moment (field-independent basis, Debye):
    X=              4.1925    Y=              5.8284    Z=              0.5163  Tot=              7.1982
 Quadrupole moment (field-independent basis, Debye-Ang):
   XX=            -87.0210   YY=           -111.4262   ZZ=            -93.6942
   XY=             -9.5106   XZ=             -5.9909   YZ=              6.9180
 Traceless Quadrupole moment (field-independent basis, Debye-Ang):
   XX=             10.3595   YY=            -14.0457   ZZ=              3.6863
   XY=             -9.5106   XZ=             -5.9909   YZ=              6.9180
 Octapole moment (field-independent basis, Debye-Ang**2):
  XXX=            158.4884  YYY=            180.5191  ZZZ=              8.3468  XYY=             64.9014
  XXY=             60.4793  XXZ=            -12.3947  XZZ=             28.0438  YZZ=             14.1384
  YYZ=            -27.2809  XYZ=            -25.8843
 Hexadecapole moment (field-independent basis, Debye-Ang**3):
 XXXX=          -1694.0610 YYYY=          -2927.0575 ZZZZ=          -1089.1696 XXXY=           -542.8662
 XXXZ=            349.8302 YYYX=           -803.5454 YYYZ=            179.0180 ZZZX=            277.1587
 ZZZY=              5.7052 XXYY=           -764.2314 XXZZ=           -447.7432 YYZZ=           -527.1248
 XXYZ=             49.6816 YYXZ=            117.8148 ZZXY=           -175.8626
 N-N= 1.148360106672D+03 E-N=-4.152462881592D+03  KE= 7.891988120527D+02
  Exact polarizability:   0.000   0.000   0.000   0.000   0.000   0.000
 Approx polarizability: 185.773  16.299 203.380   2.603   8.709 214.781
 Calling FoFJK, ICntrl=    100147 FMM=F ISym2X=0 I1Cent= 0 IOpClX= 0 NMat=1 NMatS=1 NMatT=0.
 -------------------------------------------------------------------
 Center     Atomic                   Forces (Hartrees/Bohr)
 Number     Number              X              Y              Z
 -------------------------------------------------------------------
      1        8          -0.012688439   -0.003383551   -0.010606643
      2        6           0.013641215   -0.004470583   -0.002642498
      3        7          -0.003943655    0.003918027    0.005400603
      4        6           0.001407494   -0.002248859    0.001241976
      5        6          -0.006532675   -0.002819732   -0.002539196
      6        8          -0.002342288   -0.002371148   -0.001743085
      7        8           0.009316897    0.007733885    0.002672928
      8        6          -0.006151339   -0.006788406    0.003518323
      9        6           0.002693832    0.010116931    0.001493694
     10        6          -0.001957101   -0.013200256    0.006044808
     11        7          -0.001521808   -0.003705143    0.007304763
     12        6          -0.000565631   -0.004451083   -0.005757256
     13        7           0.000947756    0.006700500   -0.003891522
     14        6          -0.001206152   -0.000472821    0.000643621
     15        6           0.002784032    0.002482216    0.000150412
     16        7          -0.003046134    0.001561981   -0.001424476
     17        1           0.005786930    0.001151990    0.004238181
     18        1          -0.001677857    0.000552731   -0.001936925
     19        1          -0.001934641    0.007088730    0.004502523
     20        1           0.003547224    0.000259753    0.001641614
     21        1          -0.002369828    0.001441174    0.000739590
     22        1           0.000109756    0.000333891    0.000958469
     23        1          -0.000354474   -0.002461971   -0.002976600
     24        1           0.000311550    0.003480242   -0.005852889
     25        1          -0.000734575   -0.002673911   -0.000931848
     26        1           0.000735039   -0.000063528   -0.001695168
     27        1          -0.000286704    0.002165075    0.000469379
     28        1           0.001657563    0.000384541   -0.002585816
     29        1           0.003958020   -0.004011620    0.000447464
     30        1           0.000415994    0.003750946    0.003115573
 -------------------------------------------------------------------
 Cartesian Forces:  Max     0.013641215 RMS     0.004384691
 FormGI is forming the generalized inverse of G from B-inverse, IUseBI=4.

 GradGradGradGradGradGradGradGradGradGradGradGradGradGradGradGradGradGrad
 Berny optimization.
 Internal  Forces:  Max     0.016871853 RMS     0.003843344
 Search for a local minimum.
 Step number   1 out of a maximum of  160
 All quantities printed in internal units (Hartrees-Bohrs-Radians)
 Mixed Optimization -- RFO/linear search
 Second derivative matrix not updated -- analytic derivatives used.
 ITU=  0
     Eigenvalues ---    0.00021   0.00103   0.00183   0.00296   0.00583
     Eigenvalues ---    0.00604   0.00920   0.01018   0.01272   0.01909
     Eigenvalues ---    0.02048   0.02066   0.02900   0.03144   0.03273
     Eigenvalues ---    0.03911   0.03984   0.04312   0.04373   0.04494
     Eigenvalues ---    0.04614   0.05281   0.05454   0.05685   0.05735
     Eigenvalues ---    0.05895   0.06197   0.06524   0.07713   0.08413
     Eigenvalues ---    0.08456   0.10911   0.11262   0.11666   0.12014
     Eigenvalues ---    0.12702   0.13634   0.14152   0.14918   0.15487
     Eigenvalues ---    0.16586   0.17227   0.18819   0.19406   0.21761
     Eigenvalues ---    0.21979   0.22666   0.23526   0.24276   0.24720
     Eigenvalues ---    0.25410   0.26341   0.27372   0.28495   0.30544
     Eigenvalues ---    0.32212   0.32994   0.33651   0.33741   0.33938
     Eigenvalues ---    0.34592   0.34815   0.34870   0.35064   0.35546
     Eigenvalues ---    0.36157   0.37778   0.38365   0.38632   0.41467
     Eigenvalues ---    0.42526   0.42827   0.44268   0.46593   0.46951
     Eigenvalues ---    0.47218   0.49041   0.51530   0.53810   0.57712
     Eigenvalues ---    0.59965   0.64361   0.82706   0.90874
 RFO step:  Lambda=-5.67767129D-03 EMin= 2.06411724D-04
 Linear search not attempted -- first point.
 Iteration  1 RMS(Cart)=  0.07439671 RMS(Int)=  0.00163842
 Iteration  2 RMS(Cart)=  0.00331521 RMS(Int)=  0.00020941
 Iteration  3 RMS(Cart)=  0.00000766 RMS(Int)=  0.00020935
 Iteration  4 RMS(Cart)=  0.00000000 RMS(Int)=  0.00020935
 Variable       Old X    -DE/DX   Delta X   Delta X   Delta X     New X
                                 (Linear)    (Quad)   (Total)
    R1        2.32301   0.01687   0.00000   0.02078   0.02078   2.34379
    R2        2.54166   0.01593   0.00000   0.02226   0.02226   2.56392
    R3        2.88054   0.00483   0.00000   0.00165   0.00165   2.88219
    R4        2.72801   0.00855   0.00000   0.01397   0.01397   2.74199
    R5        1.92505   0.00715   0.00000   0.01363   0.01363   1.93868
    R6        2.85966   0.00983   0.00000   0.02532   0.02532   2.88498
    R7        2.89625   0.00932   0.00000   0.03249   0.03249   2.92874
    R8        2.06080   0.00258   0.00000   0.00785   0.00785   2.06865
    R9        2.54536   0.00606   0.00000   0.00866   0.00866   2.55402
   R10        2.27973   0.01231   0.00000   0.01154   0.01154   2.29127
   R11        1.82391   0.00809   0.00000   0.01376   0.01376   1.83767
   R12        2.83844   0.00399   0.00000   0.00704   0.00704   2.84548
   R13        2.06348   0.00364   0.00000   0.00958   0.00958   2.07306
   R14        2.06392   0.00275   0.00000   0.00740   0.00740   2.07132
   R15        2.57923   0.01420   0.00000   0.02662   0.02662   2.60586
   R16        2.59396   0.01018   0.00000   0.01763   0.01766   2.61162
   R17        2.60857   0.00050   0.00000  -0.00612  -0.00616   2.60242
   R18        2.04211   0.00087   0.00000   0.00236   0.00236   2.04446
   R19        2.47688   0.00918   0.00000   0.01422   0.01421   2.49109
   R20        2.56030   0.01103   0.00000   0.02050   0.02052   2.58082
   R21        2.03374   0.00376   0.00000   0.00887   0.00887   2.04261
   R22        1.91387   0.00662   0.00000   0.01724   0.01724   1.93111
   R23        2.89014   0.00779   0.00000   0.01659   0.01659   2.90673
   R24        2.07040   0.00168   0.00000   0.00592   0.00592   2.07632
   R25        2.06002   0.00163   0.00000   0.00498   0.00498   2.06499
   R26        2.78523   0.00219   0.00000   0.00154   0.00154   2.78677
   R27        2.06426   0.00190   0.00000   0.00507   0.00507   2.06933
   R28        2.06863   0.00282   0.00000   0.00868   0.00868   2.07731
   R29        1.90908   0.00549   0.00000   0.01153   0.01153   1.92060
   R30        1.90944   0.00477   0.00000   0.00948   0.00948   1.91892
    A1        2.14479  -0.00283   0.00000  -0.00189  -0.00190   2.14289
    A2        2.12383  -0.00407   0.00000  -0.00911  -0.00912   2.11472
    A3        2.01362   0.00690   0.00000   0.01129   0.01128   2.02491
    A4        2.12440   0.00108   0.00000   0.01109   0.00972   2.13412
    A5        2.01454   0.00044   0.00000   0.00967   0.00823   2.02277
    A6        2.06741  -0.00072   0.00000   0.01449   0.01311   2.08052
    A7        1.90212   0.00017   0.00000  -0.00041  -0.00072   1.90140
    A8        1.97089  -0.00091   0.00000   0.01319   0.01307   1.98395
    A9        1.89240   0.00030   0.00000  -0.00859  -0.00859   1.88382
   A10        1.89454   0.00280   0.00000   0.01769   0.01759   1.91213
   A11        1.89063  -0.00139   0.00000  -0.01418  -0.01415   1.87648
   A12        1.91175  -0.00101   0.00000  -0.00889  -0.00877   1.90297
   A13        1.94806   0.00104   0.00000  -0.00084  -0.00085   1.94721
   A14        2.18773   0.00110   0.00000   0.00241   0.00240   2.19012
   A15        2.14714  -0.00214   0.00000  -0.00139  -0.00140   2.14574
   A16        1.85213   0.00540   0.00000   0.02380   0.02380   1.87593
   A17        2.00657  -0.00037   0.00000   0.00316   0.00316   2.00973
   A18        1.90652  -0.00155   0.00000  -0.01493  -0.01495   1.89156
   A19        1.88539   0.00041   0.00000  -0.00935  -0.00938   1.87601
   A20        1.90803   0.00107   0.00000   0.00054   0.00051   1.90854
   A21        1.90089  -0.00001   0.00000   0.01007   0.01007   1.91095
   A22        1.84994   0.00052   0.00000   0.01137   0.01127   1.86121
   A23        2.27822  -0.00063   0.00000  -0.00557  -0.00562   2.27260
   A24        2.17499   0.00097   0.00000   0.00672   0.00665   2.18165
   A25        1.82955  -0.00034   0.00000  -0.00157  -0.00156   1.82799
   A26        1.93605   0.00036   0.00000   0.00182   0.00181   1.93786
   A27        2.23749  -0.00073   0.00000  -0.00899  -0.00899   2.22851
   A28        2.10964   0.00037   0.00000   0.00716   0.00716   2.11680
   A29        1.82748   0.00200   0.00000   0.00456   0.00452   1.83200
   A30        1.95411   0.00029   0.00000   0.00073   0.00075   1.95486
   A31        2.20423  -0.00110   0.00000  -0.00720  -0.00722   2.19701
   A32        2.12484   0.00081   0.00000   0.00647   0.00646   2.13130
   A33        1.87755  -0.00231   0.00000  -0.00553  -0.00552   1.87203
   A34        2.19776   0.00246   0.00000   0.00774   0.00764   2.20539
   A35        2.20533  -0.00012   0.00000  -0.00354  -0.00362   2.20171
   A36        1.98252   0.00954   0.00000   0.03423   0.03413   2.01665
   A37        1.90567  -0.00388   0.00000  -0.02207  -0.02236   1.88331
   A38        1.85657  -0.00278   0.00000  -0.00115  -0.00125   1.85533
   A39        1.89586  -0.00043   0.00000   0.01071   0.01080   1.90666
   A40        1.93699  -0.00339   0.00000  -0.00949  -0.00956   1.92743
   A41        1.88364   0.00052   0.00000  -0.01526  -0.01536   1.86828
   A42        1.94338   0.00149   0.00000  -0.00160  -0.00160   1.94178
   A43        1.90195   0.00107   0.00000   0.00982   0.00984   1.91178
   A44        1.90843  -0.00176   0.00000  -0.01514  -0.01511   1.89332
   A45        1.88675  -0.00096   0.00000  -0.00638  -0.00637   1.88038
   A46        1.95491   0.00023   0.00000   0.01441   0.01440   1.96931
   A47        1.86605  -0.00008   0.00000  -0.00083  -0.00079   1.86525
   A48        1.94703  -0.00065   0.00000  -0.00035  -0.00038   1.94664
   A49        1.93380   0.00200   0.00000   0.01299   0.01296   1.94676
   A50        1.87429   0.00003   0.00000   0.00427   0.00421   1.87850
    D1       -0.29404   0.00109   0.00000   0.07286   0.07287  -0.22117
    D2       -3.01783  -0.00077   0.00000  -0.02154  -0.02154  -3.03937
    D3        2.89336   0.00123   0.00000   0.06609   0.06608   2.95945
    D4        0.16957  -0.00063   0.00000  -0.02831  -0.02833   0.14125
    D5        2.37374  -0.00105   0.00000   0.04028   0.04045   2.41420
    D6       -1.79069   0.00202   0.00000   0.06112   0.06094  -1.72975
    D7        0.23780  -0.00079   0.00000   0.03164   0.03166   0.26947
    D8       -0.81306  -0.00115   0.00000   0.04716   0.04732  -0.76574
    D9        1.30570   0.00192   0.00000   0.06800   0.06780   1.37350
   D10       -2.94900  -0.00089   0.00000   0.03851   0.03853  -2.91047
   D11       -2.07651  -0.00046   0.00000  -0.07938  -0.07952  -2.15603
   D12        2.09984  -0.00353   0.00000  -0.11008  -0.11021   1.98963
   D13       -0.02200  -0.00186   0.00000  -0.10139  -0.10150  -0.12350
   D14        0.63516   0.00174   0.00000   0.01663   0.01674   0.65190
   D15       -1.47168  -0.00133   0.00000  -0.01407  -0.01394  -1.48562
   D16        2.68967   0.00033   0.00000  -0.00538  -0.00524   2.68443
   D17        2.93035  -0.00050   0.00000  -0.01283  -0.01282   2.91752
   D18       -0.23534  -0.00017   0.00000  -0.00444  -0.00442  -0.23976
   D19       -1.19980   0.00026   0.00000   0.01432   0.01435  -1.18545
   D20        1.91770   0.00059   0.00000   0.02272   0.02275   1.94045
   D21        0.87471  -0.00016   0.00000   0.00563   0.00559   0.88030
   D22       -2.29098   0.00017   0.00000   0.01403   0.01399  -2.27698
   D23       -1.13366   0.00037   0.00000  -0.00048  -0.00041  -1.13408
   D24        1.01835   0.00029   0.00000  -0.00923  -0.00916   1.00919
   D25        3.02306   0.00032   0.00000  -0.00859  -0.00849   3.01458
   D26        3.03837  -0.00120   0.00000  -0.02076  -0.02086   3.01751
   D27       -1.09280  -0.00127   0.00000  -0.02951  -0.02960  -1.12240
   D28        0.91191  -0.00124   0.00000  -0.02887  -0.02893   0.88298
   D29        0.97721  -0.00057   0.00000  -0.00890  -0.00891   0.96830
   D30        3.12923  -0.00065   0.00000  -0.01765  -0.01766   3.11157
   D31       -1.14925  -0.00062   0.00000  -0.01701  -0.01699  -1.16623
   D32        3.12223  -0.00005   0.00000  -0.00386  -0.00387   3.11836
   D33        0.00408  -0.00042   0.00000  -0.01209  -0.01208  -0.00800
   D34        3.04546  -0.00117   0.00000  -0.04479  -0.04481   3.00066
   D35       -0.13212  -0.00155   0.00000  -0.06297  -0.06298  -0.19509
   D36        0.89426   0.00030   0.00000  -0.02780  -0.02778   0.86648
   D37       -2.28332  -0.00008   0.00000  -0.04597  -0.04595  -2.32927
   D38       -1.11968  -0.00090   0.00000  -0.04718  -0.04719  -1.16687
   D39        1.98593  -0.00128   0.00000  -0.06536  -0.06536   1.92057
   D40        3.11732  -0.00037   0.00000  -0.01816  -0.01807   3.09926
   D41       -0.02334  -0.00022   0.00000  -0.01427  -0.01422  -0.03756
   D42        0.00636  -0.00007   0.00000  -0.00284  -0.00284   0.00353
   D43       -3.13430   0.00008   0.00000   0.00105   0.00101  -3.13329
   D44       -3.12099   0.00033   0.00000   0.01507   0.01511  -3.10587
   D45        0.09353  -0.00004   0.00000   0.03436   0.03446   0.12799
   D46       -0.00768   0.00002   0.00000   0.00066   0.00065  -0.00704
   D47       -3.07635  -0.00035   0.00000   0.01995   0.02000  -3.05636
   D48       -0.00248   0.00011   0.00000   0.00398   0.00398   0.00150
   D49        3.13826  -0.00002   0.00000   0.00040   0.00040   3.13867
   D50       -0.00263  -0.00011   0.00000  -0.00356  -0.00358  -0.00620
   D51        3.13737   0.00015   0.00000  -0.00559  -0.00555   3.13181
   D52        0.00669   0.00006   0.00000   0.00192   0.00191   0.00860
   D53        3.07495   0.00057   0.00000  -0.01687  -0.01678   3.05817
   D54       -3.13339  -0.00018   0.00000   0.00385   0.00382  -3.12957
   D55       -0.06513   0.00033   0.00000  -0.01494  -0.01487  -0.08000
   D56        1.20284   0.00063   0.00000  -0.01768  -0.01757   1.18527
   D57       -0.87679   0.00022   0.00000  -0.01510  -0.01499  -0.89178
   D58       -2.91078   0.00070   0.00000  -0.01118  -0.01105  -2.92183
   D59       -0.92139  -0.00045   0.00000  -0.02000  -0.02012  -0.94151
   D60       -3.00101  -0.00086   0.00000  -0.01742  -0.01755  -3.01856
   D61        1.24818  -0.00038   0.00000  -0.01349  -0.01360   1.23458
   D62       -2.98951   0.00119   0.00000  -0.00233  -0.00233  -2.99184
   D63        1.21405   0.00078   0.00000   0.00025   0.00024   1.21430
   D64       -0.81994   0.00126   0.00000   0.00417   0.00419  -0.81575
   D65        1.50386  -0.00164   0.00000  -0.06753  -0.06756   1.43630
   D66       -2.69209  -0.00069   0.00000  -0.05368  -0.05367  -2.74576
   D67       -2.69066  -0.00005   0.00000  -0.06047  -0.06049  -2.75114
   D68       -0.60342   0.00091   0.00000  -0.04662  -0.04660  -0.65002
   D69       -0.63925  -0.00061   0.00000  -0.05713  -0.05714  -0.69639
   D70        1.44799   0.00034   0.00000  -0.04328  -0.04325   1.40474
         Item               Value     Threshold  Converged?
 Maximum Force            0.016872     0.000450     NO 
 RMS     Force            0.003843     0.000300     NO 
 Maximum Displacement     0.311498     0.001800     NO 
 RMS     Displacement     0.074293     0.001200     NO 
 Predicted change in Energy=-3.150074D-03
 GradGradGradGradGradGradGradGradGradGradGradGradGradGradGradGradGradGrad

                          Input orientation:                          
 ---------------------------------------------------------------------
 Center     Atomic      Atomic             Coordinates (Angstroms)
 Number     Number       Type             X           Y           Z
 ---------------------------------------------------------------------
      1          8           0       -0.482395   -0.022160   -2.144649
      2          6           0        0.468085    0.277009   -1.406149
      3          7           0        0.320569    0.512907   -0.078213
      4          6           0       -0.980863    0.699051    0.535804
      5          6           0       -1.002061    2.046306    1.253547
      6          8           0       -2.257676    2.402560    1.604470
      7          8           0       -0.029347    2.724746    1.505873
      8          6           0       -1.365923   -0.425002    1.530883
      9          6           0       -1.548080   -1.788001    0.917387
     10          6           0       -1.739471   -3.015391    1.516061
     11          7           0       -1.914647   -4.003402    0.572843
     12          6           0       -1.828982   -3.384805   -0.588073
     13          7           0       -1.614764   -2.044261   -0.439019
     14          6           0        1.893475    0.348449   -1.944070
     15          6           0        2.734024    1.533939   -1.440011
     16          7           0        3.031153    1.405220   -0.001304
     17          1           0        1.158083    0.842680    0.414028
     18          1           0       -1.727905    0.739721   -0.263322
     19          1           0       -2.199986    3.252837    2.072836
     20          1           0       -0.594762   -0.476896    2.309386
     21          1           0       -2.294093   -0.120844    2.028293
     22          1           0       -1.764307   -3.238315    2.574438
     23          1           0       -1.909885   -3.849134   -1.560804
     24          1           0       -1.446796   -1.373340   -1.191303
     25          1           0        2.400140   -0.591196   -1.684097
     26          1           0        1.809275    0.376243   -3.033213
     27          1           0        2.176459    2.465420   -1.583481
     28          1           0        3.640290    1.606186   -2.057949
     29          1           0        3.826523    0.793974    0.162134
     30          1           0        3.243965    2.305487    0.417462
 ---------------------------------------------------------------------
                    Distance matrix (angstroms):
                    1          2          3          4          5
     1  O    0.000000
     2  C    1.240281   0.000000
     3  N    2.280615   1.356769   0.000000
     4  C    2.820185   2.459420   1.450997   0.000000
     5  C    4.012024   3.516492   2.423685   1.526663   0.000000
     6  O    4.804871   4.583838   3.612418   2.382067   1.351530
     7  O    4.590975   3.836498   2.742991   2.439233   1.212486
     8  C    3.801636   3.533066   2.512592   1.549822   2.513299
     9  C    3.691875   3.705132   3.126859   2.579295   3.887550
    10  C    4.892900   4.924684   4.385700   3.915797   5.121861
    11  N    5.028558   5.283534   5.081054   4.794412   6.155902
    12  C    3.942538   4.399392   4.480255   4.319755   5.794163
    13  N    2.877555   3.265256   3.227198   2.979576   4.469108
    14  C    2.412953   1.525189   2.445915   3.812416   4.635903
    15  C    3.641882   2.591428   2.953263   4.289670   4.634232
    16  N    4.356186   3.133012   2.854715   4.108945   4.272289
    17  H    3.160054   2.027097   1.025904   2.147219   2.611461
    18  H    2.381417   2.518437   2.069289   1.094682   2.129532
    19  H    5.609180   5.298820   4.299701   3.220335   1.887320
    20  H    4.478597   3.937412   2.741928   2.162757   2.765364
    21  H    4.550322   4.425302   3.416938   2.150424   2.639340
    22  H    5.852925   5.760742   5.045288   4.502517   5.500272
    23  H    4.126055   4.764842   5.118633   5.093607   6.595523
    24  H    1.914321   2.537041   2.814334   2.737662   4.227181
    25  H    2.974041   2.136323   2.850004   4.245454   5.211635
    26  H    2.489984   2.110918   3.311637   4.541690   5.391570
    27  H    3.684083   2.781930   3.085850   4.192865   4.281049
    28  H    4.433459   3.500634   4.016859   5.376384   5.719364
    29  H    4.955209   3.742442   3.525404   4.822821   5.106343
    30  H    5.086070   3.891759   3.464863   4.521484   4.335315
                    6          7          8          9         10
     6  O    0.000000
     7  O    2.253659   0.000000
     8  C    2.965763   3.421692   0.000000
     9  C    4.305393   4.797681   1.505763   0.000000
    10  C    5.443395   5.989474   2.617226   1.378959   0.000000
    11  N    6.497559   7.049317   3.744847   2.271802   1.377139
    12  C    6.203598   6.704469   3.669445   2.212487   2.138190
    13  N    4.935931   5.388839   2.562115   1.382011   2.186546
    14  C    5.834686   4.609353   4.826717   4.959501   6.040382
    15  C    5.911044   4.210994   5.428925   5.910078   7.031851
    16  N    5.616486   3.657784   5.003157   5.657740   6.678551
    17  H    3.939262   2.478767   3.037266   3.807514   4.949243
    18  H    2.556236   3.155230   2.169512   2.795673   4.155382
    19  H    0.972453   2.304779   3.809971   5.212494   6.309735
    20  H    3.399038   3.349005   1.097018   2.136696   2.895458
    21  H    2.559008   3.674150   1.096097   2.137770   2.991385
    22  H    5.744887   6.301588   3.026953   2.212687   1.081884
    23  H    7.015953   7.493786   4.645331   3.243548   3.192377
    24  H    4.767736   5.106685   2.883779   2.151459   3.179907
    25  H    6.439915   5.203247   4.954488   4.877346   5.766638
    26  H    6.492623   5.431325   5.617369   5.618097   6.692732
    27  H    5.461551   3.804857   5.531932   6.182081   7.414915
    28  H    6.988099   5.236242   6.485954   6.876940   7.941936
    29  H    6.456420   4.516773   5.506439   6.010271   6.879293
    30  H    5.629074   3.474908   5.472326   6.322204   7.372469
                   11         12         13         14         15
    11  N    0.000000
    12  C    1.318228   0.000000
    13  N    2.225315   1.365710   0.000000
    14  C    6.306762   5.443583   4.505328   0.000000
    15  C    7.504923   6.763199   5.719918   1.538176   0.000000
    16  N    7.351447   6.849054   5.803021   2.487049   1.474698
    17  H    5.740331   5.272418   4.092774   2.519066   2.529603
    18  H    4.819881   4.138525   2.791814   4.011534   4.682328
    19  H    7.415147   7.160752   5.891618   6.428641   6.295964
    20  H    4.146555   4.286548   3.324269   4.996439   5.402060
    21  H    4.163720   4.208935   3.201351   5.790995   6.328460
    22  H    2.148102   3.166562   3.244850   6.830897   7.689291
    23  H    2.139222   1.080904   2.145475   5.677336   7.110412
    24  H    3.201300   2.134466   1.021900   3.832574   5.098370
    25  H    5.945950   5.185653   4.447592   1.098739   2.165007
    26  H    6.786200   5.775907   4.930793   1.092746   2.175710
    27  H    7.951889   7.159576   6.001699   2.166027   1.095043
    28  H    8.321410   7.548739   6.600173   2.155512   1.099265
    29  H    7.492965   7.071756   6.166406   2.893313   2.075565
    30  H    8.150920   7.689299   6.577318   3.351217   2.074977
                   16         17         18         19         20
    16  N    0.000000
    17  H    1.999336   0.000000
    18  H    4.812502   2.966198   0.000000
    19  H    5.922885   4.453889   3.463560   0.000000
    20  H    4.693496   2.899332   3.063168   4.067384   0.000000
    21  H    5.899693   3.930871   2.512497   3.375288   1.758838
    22  H    7.154949   5.464636   4.886612   6.525065   3.010568
    23  H    7.379304   5.943526   4.772228   7.982825   5.299047
    24  H    5.402640   3.777992   2.324908   5.711692   3.712734
    25  H    2.686195   2.828575   4.564067   7.074765   4.993036
    26  H    3.426988   3.539079   4.507333   7.100754   5.920354
    27  H    2.087537   2.767746   4.468212   5.756905   5.611712
    28  H    2.154350   3.585382   5.726165   7.340550   6.430280
    29  H    1.016340   2.680745   5.570963   6.783480   5.076767
    30  H    1.015448   2.547690   5.256861   5.768392   5.104592
                   21         22         23         24         25
    21  H    0.000000
    22  H    3.208983   0.000000
    23  H    5.189352   4.182645   0.000000
    24  H    3.557029   4.214232   2.545690   0.000000
    25  H    6.003241   6.518051   5.404228   3.956452   0.000000
    26  H    6.534796   7.568438   5.818414   4.129850   1.762150
    27  H    6.302342   8.083967   7.521457   5.293190   3.066441
    28  H    7.409244   8.610334   7.798212   5.958782   2.550730
    29  H    6.463852   7.303146   7.578479   5.859772   2.713269
    30  H    6.257152   7.776187   8.267712   6.174555   3.676868
                   26         27         28         29         30
    26  H    0.000000
    27  H    2.569282   0.000000
    28  H    2.411745   1.762442   0.000000
    29  H    3.801845   2.926365   2.371315   0.000000
    30  H    4.205648   2.273526   2.602643   1.639889   0.000000
 Symmetry turned off by external request.
 Stoichiometry    C9H14N4O3
 Framework group  C1[X(C9H14N4O3)]
[...]
 4,0.02385759,-0.00452542,-0.22453458,0.17134948,0.00132197,-0.00035274
 ,0.00086170,0.00005749,-0.00034129,-0.00035712,0.00044034,0.00006994,0
 .00018720,-0.00086562,0.00025458,-0.00010490,0.00030554,-0.00160806,-0
 .00089091,0.00000407,0.00001297,-0.00005868,-0.00008170,-0.00036190,0.
 00005357,-0.00010422,-0.00050793,0.00002005,-0.00052401,0.00112713,-0.
 00026650,0.00032970,0.00033858,-0.00070153,0.00097238,0.22078398,-0.00
 589733,-0.00367906,-0.00758715,0.00511473,0.00185638,0.01082678,-0.000
 50901,-0.00079947,-0.00570610,-0.00186359,-0.00083070,0.00028306,-0.00
 006810,-0.00056425,-0.00011493,0.00020747,0.00002256,-0.00015308,0.000
 52371,0.00042702,0.00010211,-0.00011633,-0.00064720,0.00050766,0.00153
 116,0.02005645,-0.01119520,-0.00079835,-0.00293775,-0.00538355,0.00191
 157,-0.00645451,0.00432148,-0.00027175,0.00062672,0.01352002,-0.002557
 15,0.17073476,-0.27332287,-0.00075502,0.00022151,-0.00062737,0.0000367
 1,0.00017897,0.00031699,-0.00013714,-0.00003722,-0.00021426,0.00048028
 ,-0.00004392,-0.00012861,0.00019380,-0.00088338,0.00062912,0.00003869,
 -0.00003771,0.00001503,0.00002257,0.00033852,0.00032814,0.00009933,0.0
 0032701,-0.00006116,-0.00040838,0.00077952,0.00022132,-0.00012846,-0.0
 0019297,-0.00031752,0.00367668,-0.17825689,0.27387439,-0.00188765,-0.0
 0469178,0.00158880,-0.01127468,0.03084316,-0.00631676,-0.00061696,-0.0
 0146163,0.00108114,0.00016916,-0.00137975,0.00066233,0.00016982,-0.000
 28874,-0.00018083,-0.00005131,0.00005795,0.00003447,0.00004694,0.00016
 117,0.00007311,-0.00041349,0.00036620,0.00004580,-0.00005174,0.0001069
 0,-0.00002682,0.00001469,-0.00008425,0.00002256,0.00009684,-0.00012750
 ,0.00006473,-0.00003731,0.00003880,0.00001937,0.00007298,-0.00027977,0
 .00014325,-0.08069742,0.08920653,-0.01222795,0.00805715,-0.02240099,0.
 00224281,0.00125688,0.00070333,0.00160531,-0.00046534,0.00058122,-0.00
 009033,0.00004064,-0.00003182,-0.00010208,0.00000874,-0.00001049,-0.00
 000772,0.00000891,-0.00000700,0.00000919,-0.00005584,-0.00016934,0.000
 10516,-0.00000646,-0.00000366,0.00000038,-0.00005399,-0.00002689,-0.00
 001227,0.00009006,0.00057596,-0.00028369,0.08801647,-0.00019088,-0.000
 02332,-0.00030883,0.00111083,-0.00053108,-0.00044268,0.00031065,0.0006
 3403,0.00030226,0.00013237,-0.00003107,-0.00023138,-0.00009240,-0.0000
 6914,-0.00001159,0.00004032,0.00000901,0.00000081,0.00005602,0.0000797
 7,-0.00002140,0.00001371,-0.00003559,0.00004064,0.00000609,-0.00002111
 ,0.00000969,-0.00002765,0.00001142,0.00000044,-0.00001420,0.00001309,-
 0.00000050,0.00002554,-0.00003393,0.00000239,0.00003684,0.00002726,0.0
 0001498,0.08521223,-0.26218060,0.03215872,0.00734340,-0.02271964,0.002
 67241,0.00047292,0.00253285,0.00107930,0.00010022,-0.00033861,0.000058
 14,-0.00002014,0.00000117,0.00002796,-0.00000633,-0.00000383,0.0000118
 7,0.00000396,-0.00000222,-0.00000841,-0.00000697,0.00000563,-0.0000009
 0,0.00000525,0.00000067,-0.00000303,0.00000271,0.00000479,-0.00000110,
 0.00004360,0.00005180,-0.00007961,-0.09165595,0.28756087,-0.00078517,0
 .00044309,0.00007691,0.00558019,-0.01425312,0.00109634,0.00081482,0.00
 084863,-0.00123367,-0.00014646,0.00097522,-0.00041176,-0.00008819,0.00
 007023,0.00009608,0.00000947,-0.00000570,0.00000811,-0.00001207,-0.000
 02122,-0.00005802,0.00031047,-0.00019598,-0.00007027,-0.00004242,-0.00
 009448,-0.00005008,-0.00002579,0.00001327,-0.00001302,-0.00000736,0.00
 000347,0.00000817,0.00002872,0.00005531,0.00003887,-0.00005337,0.00000
 443,0.00003730,-0.01103967,0.03117213,-0.04840758,0.00366385,-0.013944
 31,0.00056309,0.00122574,-0.00013297,0.00138377,0.00057163,-0.00056854
 ,0.00007933,-0.00000613,-0.00000169,-0.00000615,-0.00000402,0.00000540
 ,0.00000023,-0.00000063,-0.00000788,-0.00001237,0.00003657,0.00009207,
 -0.00007675,0.00001137,-0.00000111,-0.00000810,-0.00001550,-0.00000861
 ,-0.00000157,0.00004452,0.00001531,0.00001744,0.01339780,-0.03356332,0
 .05053715,0.00182646,0.00114860,-0.00179635,0.00148817,-0.00544876,0.0
 3467498,-0.00618824,0.00036507,0.00084547,0.00058158,0.00104326,0.0008
 8088,-0.00049078,-0.00052724,-0.00004185,-0.00007643,0.00028382,0.0001
 4830,0.00013900,0.00019560,0.00008118,-0.00004645,0.00008425,-0.000007
 98,-0.00001448,0.00004344,0.00004376,-0.00000603,0.00002890,-0.0000276
 5,0.00000464,-0.00003208,-0.00004861,-0.00000140,-0.00004227,-0.000007
 61,0.00001664,0.00008463,-0.00003514,-0.04825778,0.00115320,-0.0232973
 9,-0.00113258,0.00578016,-0.01925334,-0.00217475,-0.00466721,-0.002030
 30,-0.00073384,-0.00043025,-0.00032020,-0.00000635,0.00001820,0.000034
 59,-0.00004196,0.00002070,0.00000969,0.00000155,-0.00001089,0.00001064
 ,-0.00001908,-0.00006075,0.00003806,-0.00000541,0.00000202,0.00000036,
 -0.00000383,-0.00001183,-0.00000019,0.00001479,-0.00012897,0.00014631,
 -0.00104552,0.00143116,-0.01169524,0.05594827,-0.00138659,-0.00073405,
 -0.00026213,0.00305528,-0.00056035,-0.00328102,0.00025264,0.00062721,0
 .00018322,0.00028100,0.00038304,-0.00033004,-0.00010183,-0.00006588,-0
 .00003404,-0.00001376,0.00005827,0.00005464,0.00002901,0.00003760,0.00
 004601,0.00006777,0.00000228,-0.00005181,-0.00002555,-0.00001957,-0.00
 002722,-0.00002162,0.00000365,-0.00001688,0.00000558,-0.00003872,-0.00
 000115,0.00001531,0.00004688,0.00004252,-0.00001951,-0.00005035,0.0000
 4738,0.00055066,-0.05279012,0.04021449,-0.00023162,0.00459097,-0.02173
 804,-0.00265578,-0.00334587,-0.00213426,-0.00046914,-0.00043414,0.0000
 6696,-0.00001465,0.00000894,-0.00000382,-0.00000655,0.00000337,-0.0000
 0518,0.00000536,-0.00000973,0.00000058,-0.00000271,0.00000190,-0.00000
 371,0.00000382,-0.00000093,-0.00000294,-0.00001403,-0.00001276,-0.0000
 0024,0.00004831,0.00010878,-0.00000171,0.00184053,-0.00427437,0.030140
 14,-0.00110443,0.05490892,-0.00188524,-0.00079496,0.00314848,-0.001870
 13,0.00155849,-0.01599416,0.00320280,0.00030895,0.00032025,-0.00055907
 ,-0.00025920,-0.00019613,0.00009164,0.00020808,0.00005923,0.00011040,-
 0.00014350,-0.00008735,0.00004640,-0.00006668,-0.00002358,0.00003551,-
 0.00005492,-0.00002946,0.00001002,-0.00003412,-0.00007096,0.00001600,-
 0.00003763,0.00002555,0.00001392,0.00000632,0.00006311,-0.00001743,0.0
 0007968,0.00001658,-0.00003577,-0.00014006,0.00004325,-0.01968140,0.03
 986111,-0.30997078,0.00052870,0.00299543,-0.00951951,-0.00134176,-0.00
 266428,-0.00017604,-0.00034117,0.00010188,0.00041696,0.00008653,-0.000
 02826,-0.00006050,0.00000778,0.00000564,-0.00000648,-0.00000642,0.0000
 0939,0.00000960,0.00001534,0.00004528,-0.00002231,-0.00000128,-0.00000
 570,0.00000579,0.00000694,0.00000750,0.00000099,0.00006652,0.00016995,
 -0.00012037,-0.00015942,0.00068867,-0.00312442,0.02215968,-0.04200913,
 0.33474986,0.00029472,0.00028446,-0.00008247,0.00135159,-0.00094054,0.
 00012147,0.00013799,0.00025773,0.00002232,-0.00014257,0.00014333,0.000
 10629,-0.00017861,0.00003396,0.00009611,0.00009567,-0.00004660,-0.0000
 3906,0.00006145,-0.00003921,-0.00008742,0.00004558,-0.00005187,-0.0000
 1197,0.00002204,-0.00002548,-0.00000831,0.00000546,0.00000181,0.000003
 97,-0.00001071,0.00003745,-0.00000091,0.00000341,-0.00000435,0.0000039
 9,-0.00001123,0.00003078,-0.00002230,0.00811848,-0.02183021,0.00129577
 ,-0.09249671,0.09656811,-0.00337077,-0.00269000,0.00601898,-0.00338822
 ,-0.00002774,-0.00029503,0.00020916,0.00001082,-0.00001564,-0.00000694
 ,-0.00001068,0.00001222,0.00001017,-0.00000428,0.00000728,0.00000098,0
 .00001210,0.00003022,-0.00001779,-0.00000130,-0.00000161,0.00000133,0.
 00000794,0.00000519,0.00000242,-0.00000295,-0.00006449,0.00001105,-0.0
 0256455,-0.00370057,-0.00167719,0.00053220,0.00083788,0.00026738,0.097
 42764,-0.00044369,0.00011781,0.00010370,0.00181299,0.00009450,-0.00089
 798,-0.00053394,0.00087715,0.00054774,-0.00010821,-0.00001089,0.000153
 70,-0.00029331,-0.00021340,0.00000355,0.00012676,0.00001016,-0.0000069
 8,0.00018428,0.00018297,-0.00011400,-0.00001411,-0.00002631,0.00002386
 ,0.00000719,-0.00003022,-0.00003374,-0.00000142,-0.00000401,0.00000741
 ,-0.00001988,0.00002197,0.00002131,-0.00000144,0.00003034,0.00001248,-
 0.00003872,-0.00002014,0.00000117,0.00628744,-0.02021465,0.00003939,0.
 09546702,-0.26684748,0.01336243,0.00259237,-0.00512144,0.00233417,0.00
 041722,-0.00057434,0.00035848,-0.00000834,-0.00002397,-0.00001836,-0.0
 0001748,0.00000018,0.00002456,0.00000408,0.00000322,-0.00000770,-0.000
 00511,0.00000838,-0.00000349,0.00000765,-0.00000102,-0.00000025,0.0000
 1624,0.00000724,0.00000192,0.00005211,-0.00000466,-0.00002374,-0.00307
 644,-0.00153526,-0.00215671,-0.00000738,0.00032381,-0.00026013,-0.1027
 3469,0.28987430,-0.00031619,0.00002699,-0.00018744,0.00092021,0.000641
 82,0.00027599,0.00007158,-0.00012999,0.00026023,0.00010717,-0.00007090
 ,0.00007477,0.00039452,0.00013891,0.00003383,-0.00023281,0.00004256,0.
 00002065,-0.00025849,-0.00016423,0.00010229,-0.00004426,0.00003135,-0.
 00003596,-0.00001136,0.00000516,-0.00002077,0.00000695,0.00000140,-0.0
 0000678,0.00000414,-0.00003798,0.00000822,-0.00000787,0.00003591,0.000
 00044,-0.00001225,-0.00004773,0.00004614,0.00485487,-0.01200536,0.0012
 6752,-0.00027397,0.00447196,-0.05002697,-0.01599072,0.03580450,-0.0088
 4733,-0.00066392,0.00045242,-0.00028388,0.00001754,-0.00001451,-0.0000
 1142,0.00002812,-0.00001726,-0.00001646,-0.00000260,0.00000550,0.00001
 072,-0.00000470,-0.00001702,0.00001842,-0.00000543,-0.00000135,0.00000
 690,0.00000760,0.00000245,0.00000117,0.00004561,0.00003938,-0.00002720
 ,-0.00228422,-0.00164486,-0.00057627,0.00041607,0.00021366,0.00012048,
 0.00866097,-0.01396364,0.06148827,-0.00248635,0.00017257,-0.00003918,0
 .00180311,-0.00361772,-0.00328907,0.00014591,-0.00003609,0.00057371,0.
 00043525,0.00014831,-0.00004788,0.00007371,-0.00026761,-0.00017699,-0.
 00016260,0.00016816,0.00011281,-0.00004592,0.00012068,0.00014412,-0.00
 002387,0.00008791,-0.00001263,-0.00004675,0.00001444,-0.00008220,-0.00
 000532,-0.00000394,-0.00000139,0.00002321,-0.00011266,0.00004146,-0.00
 001119,0.00013183,0.00000316,-0.00001764,-0.00014807,0.00014605,-0.019
 74433,0.00041715,0.01026395,-0.22768596,0.00499225,0.10928707,0.012417
 92,-0.00028927,-0.00529650,-0.00038236,0.00010937,-0.00037329,0.000020
 47,-0.00000745,-0.00003178,0.00000881,-0.00001491,-0.00001001,0.000008
 01,-0.00001767,0.00001484,-0.00002495,-0.00004510,0.00003199,0.0000025
 5,-0.00000076,0.00000542,0.00000079,0.00000045,-0.00000166,0.00012318,
 0.00023610,-0.00012737,0.00102974,-0.00014370,0.00034840,0.00000162,0.
 00028206,-0.00042847,-0.01069509,0.00040607,0.00635553,0.24307696,-0.0
 0240527,0.00032264,0.00009693,0.00016194,-0.00365607,-0.00409673,0.000
 13439,0.00070328,0.00076098,0.00001597,0.00008130,0.00008230,-0.000212
 25,-0.00023268,-0.00004867,0.00005878,0.00004520,0.00003240,0.00010454
 ,0.00019736,-0.00004359,-0.00000527,0.00001553,0.00001827,-0.00001092,
 0.00000021,-0.00006312,0.00000414,-0.00001453,0.00001252,0.00001841,-0
 .00004069,0.00003502,-0.00000800,0.00007733,0.00000261,-0.00001375,-0.
 00008976,0.00006814,-0.02297391,-0.00055928,0.01119268,0.00589899,-0.0
 5393569,-0.00263617,-0.00488384,0.00273628,0.00753829,-0.00003801,-0.0
 0024507,0.00029662,0.00002037,-0.00002191,-0.00002188,-0.00001306,-0.0
 0000027,0.00001417,0.00000091,-0.00000610,0.00000046,-0.00000944,-0.00
 001206,0.00000412,-0.00000054,-0.00000175,0.00000290,-0.00000312,0.000
 00082,-0.00000067,0.00005949,0.00014181,-0.00008771,0.00068477,0.00082
 800,0.00083692,0.00059875,0.00093147,-0.00002063,0.02554635,0.00071550
 ,-0.01576048,-0.00202555,0.05172550,-0.00114994,0.00034443,0.00020740,
 0.00016189,-0.00274810,-0.00153025,0.00026148,0.00017946,0.00150679,0.
 00022335,0.00017816,0.00029936,-0.00053377,-0.00021023,-0.00011567,0.0
 0023440,0.00002620,-0.00000864,0.00036087,0.00005455,0.00013254,-0.000
 07363,0.00001624,-0.00004736,0.00002094,-0.00001106,-0.00005990,0.0000
 2319,-0.00002527,0.00000483,0.00001313,0.00000187,0.00003616,-0.000013
 28,0.00005210,0.00001409,-0.00001210,-0.00004958,0.00003624,-0.0115017
 2,-0.00040430,0.00736724,0.10964450,-0.00198740,-0.11400379,0.02254765
 ,0.00321635,-0.03446106,-0.00274297,-0.00011011,-0.00097503,0.00010458
 ,-0.00002026,-0.00008328,-0.00004507,0.00003199,0.00000780,-0.00000948
 ,-0.00000285,0.00005158,0.00000530,-0.00000278,0.00002436,-0.00001249,
 -0.00000970,0.00001209,0.00000256,0.00000432,0.00000286,0.00002918,0.0
 0006879,-0.00006481,0.00046834,0.00024024,0.00003177,0.00008222,0.0004
 0196,0.00063705,-0.00028713,-0.00076878,0.00182821,-0.11840925,0.00204
 050,0.13757304,0.00013234,0.00003528,-0.00007292,-0.00054118,0.0002799
 3,0.00002419,-0.00146512,-0.00138080,0.00005583,-0.00023089,-0.0001570
 9,-0.00015114,0.00025939,0.00027707,0.00008979,-0.00011201,-0.00006136
 ,-0.00001835,-0.00022602,-0.00017272,0.00003598,-0.00008673,0.00006685
 ,-0.00009202,0.00003250,0.00006498,-0.00000333,0.00006676,-0.00004699,
 0.00001034,0.00004384,-0.00000505,-0.00001150,-0.00002209,-0.00001685,
 -0.00000211,0.00004784,-0.00001718,-0.00001254,-0.00046491,0.00089504,
 -0.00011670,-0.00444401,0.00219809,0.00611821,-0.15965442,0.20539655,-
 0.04511053,0.00114553,0.00313580,-0.00065896,-0.00005525,-0.00000157,0
 .00002479,0.00001024,0.00000489,-0.00001777,-0.00003225,0.00001826,0.0
 0006248,0.00002569,-0.00001509,0.00003087,-0.00003624,-0.00001064,0.00
 001972,-0.00001250,-0.00000370,0.00000259,-0.00005381,0.00003118,-0.00
 001724,-0.00003380,-0.00066510,-0.00063018,0.00018768,-0.00049753,0.00
 011325,0.00056519,-0.00032874,-0.00133894,0.00146531,-0.00124726,-0.00
 013287,0.15522677,-0.00009104,0.00000047,-0.00010900,-0.00011645,-0.00
 006102,0.00011780,-0.00078969,-0.00060503,-0.00020525,-0.00007353,-0.0
 0001757,-0.00010053,0.00004722,0.00006714,0.00003315,-0.00000653,-0.00
 002183,-0.00000522,-0.00005437,-0.00001597,-0.00000544,-0.00000639,0.0
 0003755,-0.00001688,0.00000994,0.00004460,-0.00001465,0.00003522,-0.00
 001685,0.00001574,0.00003967,-0.00002286,-0.00000574,-0.00001059,0.000
 00556,-0.00001787,0.00002827,-0.00002888,0.00001793,-0.00033202,0.0019
 3290,0.00007006,0.00428388,-0.00504556,-0.00010909,0.16257434,-0.29681
 206,0.02380230,0.00127674,0.00095701,-0.00002638,-0.00004095,0.0000064
 3,0.00000884,-0.00000076,0.00000562,-0.00000068,-0.00000977,0.00000751
 ,0.00001536,0.00000769,-0.00001170,0.00000731,-0.00002161,-0.00000246,
 0.00001049,-0.00001123,-0.00000271,0.00000011,-0.00001673,0.00004136,-
 0.00002430,0.00053345,-0.00030731,0.00012053,0.00004686,-0.00020067,0.
 00004556,-0.00048602,0.00168579,0.00160577,-0.00080266,0.00056975,-0.0
 0104341,-0.18748441,0.32105825,0.00036871,0.00007955,0.00005093,-0.000
 35578,-0.00005433,0.00026515,0.00091240,0.00066652,-0.00009104,-0.0000
 2342,0.00006088,0.00009354,-0.00030247,-0.00012383,-0.00002840,0.00022
 089,-0.00002201,-0.00004705,0.00029375,0.00008739,-0.00005264,0.000072
 74,-0.00005843,0.00009487,0.00000717,-0.00002251,0.00005304,-0.0000362
 2,0.00001439,0.00001893,-0.00002825,0.00004805,-0.00002183,0.00001736,
 -0.00005419,-0.00001023,-0.00000309,0.00007625,-0.00008433,0.00060395,
 0.00079529,0.00103604,-0.02226299,0.03413634,-0.00564549,-0.02934858,0
 .00779905,-0.05220030,-0.00094147,-0.00165891,0.00009849,0.00003854,0.
 00001574,-0.00000210,-0.00001971,0.00000635,0.00002254,0.00001784,-0.0
 0001370,-0.00004742,-0.00000576,0.00002266,-0.00003553,0.00002879,0.00
 001122,-0.00002333,-0.00000543,-0.00000208,-0.00000411,-0.00004585,-0.
 00008834,0.00005719,-0.00023637,-0.00110312,-0.00005270,0.00035273,-0.
 00021559,0.00006641,-0.00151461,0.00098719,-0.00710865,0.00053339,0.00
 039152,0.00149903,0.03894428,-0.02798960,0.06021896,-0.00035105,0.0000
 8404,0.00025343,0.00115505,-0.00018681,-0.00033558,-0.00215067,0.00057
 509,0.00059635,0.00013106,0.00007376,-0.00042361,-0.00142298,-0.001007
 62,-0.00042502,0.00075863,0.00011433,-0.00002151,0.00117356,0.00062393
 ,0.00028692,-0.00009382,0.00001258,0.00005389,0.00001402,-0.00002077,-
 0.00007068,0.00000428,-0.00001168,0.00000965,-0.00000450,0.00002245,0.
 00004590,-0.00000484,0.00005608,0.00001501,-0.00003111,-0.00002997,0.0
 0003084,-0.00013004,0.00117950,-0.00318913,-0.00588788,-0.00517953,0.0
 0473391,-0.12154006,-0.15671345,-0.11202555,0.00072572,-0.00235379,-0.
 00153510,-0.00014231,0.00005005,0.00006976,-0.00011782,0.00006428,0.00
 005245,0.00000628,-0.00003680,0.00003378,-0.00001693,-0.00001872,0.000
 02954,0.00000011,-0.00000862,0.00000588,0.00000746,0.00000698,0.000002
 41,0.00005327,0.00004217,-0.00005515,0.00017705,0.00017611,0.00018584,
 -0.00049769,-0.00070989,-0.00045127,0.00014413,0.00025152,-0.00044316,
 0.00069579,0.00054240,0.00074012,0.00826214,0.02147147,0.01271743,0.11
 908318,0.00018651,-0.00009777,-0.00005274,-0.00034741,0.00014419,0.000
 28279,0.00038660,0.00004414,-0.00011407,-0.00005794,0.00000373,-0.0000
 0410,0.00023408,0.00022134,0.00008179,-0.00013904,-0.00002650,-0.00000
 514,-0.00017190,-0.00025799,0.00000478,0.00002411,-0.00000475,-0.00003
 971,-0.00000964,-0.00000786,0.00001320,-0.00000720,0.00000752,-0.00001
 468,0.00000338,-0.00000767,-0.00000559,0.00000306,-0.00000528,0.000003
 03,0.00000928,0.00000876,0.00000838,0.00059271,0.00023202,0.00145135,0
 .00430586,0.00836245,0.00759373,-0.12589974,-0.28210451,-0.12697167,-0
 .00059078,-0.00016637,-0.00012051,0.00001641,-0.00000475,0.00001084,0.
 00002610,-0.00000035,-0.00001962,-0.00000654,-0.00000034,0.00000540,0.
 00000833,0.00000635,-0.00000123,-0.00000279,-0.00000086,0.00000146,-0.
 00000139,-0.00000123,0.00000067,-0.00000705,-0.00001178,0.00001268,-0.
 00000395,0.00034671,0.00015949,0.00014348,0.00050043,0.00042723,0.0004
 2059,0.00067446,0.00035559,0.00024581,-0.00027612,0.00053667,-0.020291
 85,-0.02324742,-0.01379171,0.14093092,0.29566942,-0.00004341,0.0000405
 7,0.00031282,0.00005867,0.00003967,-0.00078066,0.00137250,-0.00023627,
 0.00025882,-0.00007634,-0.00003761,0.00037740,0.00054047,0.00041224,0.
 00022110,-0.00028564,-0.00006431,0.00000158,-0.00046152,-0.00020006,-0
 .00030292,0.00003975,0.00000446,0.00000345,-0.00000405,0.00002211,0.00
 001535,0.00001627,-0.00000712,0.00001715,0.00000882,-0.00001322,-0.000
 01924,-0.00000361,-0.00001361,-0.00001502,0.00000931,-0.00001300,-0.00
 001853,0.00036209,0.00323056,-0.00660201,-0.01814557,-0.02887362,-0.01
 520685,-0.08341884,-0.10789126,-0.10767217,-0.00125044,0.00118339,0.00
 069121,0.00011643,-0.00003277,-0.00004225,0.00005114,-0.00003211,0.000
 00017,-0.00000576,0.00002737,-0.00001763,0.00000854,0.00000669,-0.0000
 1516,-0.00000254,0.00000592,-0.00000209,-0.00000396,-0.00000180,-0.000
 00197,-0.00001804,0.00000468,0.00000343,0.00036391,0.00011223,0.000128
 15,-0.00136308,-0.00129263,-0.00028153,-0.00029830,0.00027244,0.001584
 89,0.00046574,-0.00064769,0.00007736,0.00285477,0.00380309,0.00188002,
 0.09911267,0.13019168,0.12540515\\0.00000047,-0.00000291,0.00000469,-0
 .00000454,0.00000252,0.00000005,-0.00000587,-0.00000764,-0.00000235,0.
 00000507,0.00000572,-0.00000456,0.00000350,-0.00000011,-0.00000208,-0.
 00000169,0.00000068,-0.00000013,-0.00000104,-0.00000085,0.00000046,-0.
 00000654,-0.00000154,-0.00000228,0.00000437,-0.00000063,0.00000875,-0.
 00000194,0.00000345,-0.00000197,-0.00000096,0.00000101,-0.00000333,0.0
 0000199,-0.00000328,0.00000004,0.00000155,0.00000445,-0.00000456,0.000
 00423,0.00000095,0.00000264,0.00000185,-0.00000067,-0.00000204,-0.0000
 0028,0.00000087,0.00000143,0.00000182,0.00000272,0.00000002,0.00000003
 ,0.00000002,-0.00000035,0.00000020,-0.00000048,-0.00000125,-0.00000066
 ,0.00000029,-0.00000041,0.00000070,-0.00000211,0.00000055,-0.00000120,
 0.00000033,-0.00000008,-0.00000020,0.00000018,0.,-0.00000274,-0.000000
 57,0.00000192,-0.00000001,-0.00000094,0.00000101,-0.00000024,-0.000000
 04,0.00000112,0.00000022,-0.00000147,0.00000348,0.00000086,0.00000051,
 -0.00000021,-0.00000048,0.00000007,0.00000105,0.00000153,-0.00000053,-
 0.00000159\\\@


 In the beginning there was nothing, which exploded.
 Job cpu time:       0 days  2 hours 50 minutes 12.2 seconds.
 File lengths (MBytes):  RWF=    417 Int=      0 D2E=      0 Chk=     13 Scr=      1
 Normal termination of Gaussian 09 at Thu Jul 29 00:03:31 2021.
