 Entering Gaussian System, Link 0=g09
 Input=opt_freq-conf-273.com
 Output=opt_freq-conf-273.log
 Initial command:
 /aerosol/software/g09/l1.exe "/scratch/nicole/10577/Gau-27844.inp" -scrdir="/scratch/nicole/10577/"
 Entering Link 1 = /aerosol/software/g09/l1.exe PID=     27847.
  
 Copyright (c) 1988,1990,1992,1993,1995,1998,2003,2009,2013,
            Gaussian, Inc.  All Rights Reserved.
  
 This is part of the Gaussian(R) 09 program.  It is based on
 the Gaussian(R) 03 system (copyright 2003, Gaussian, Inc.),
 the Gaussian(R) 98 system (copyright 1998, Gaussian, Inc.),
 the Gaussian(R) 94 system (copyright 1995, Gaussian, Inc.),
 the Gaussian 92(TM) system (copyright 1992, Gaussian, Inc.),
 the Gaussian 90(TM) system (copyright 1990, Gaussian, Inc.),
 the Gaussian 88(TM) system (copyright 1988, Gaussian, Inc.),
 the Gaussian 86(TM) system (copyright 1986, Carnegie Mellon
 University), and the Gaussian 82(TM) system (copyright 1983,
 Carnegie Mellon University). Gaussian is a federally registered
 trademark of Gaussian, Inc.
  
 This software contains proprietary and confidential information,
 including trade secrets, belonging to Gaussian, Inc.
  
 This software is provided under written license and may be
 used, copied, transmitted, or stored only in accord with that
 written license.
  
 The following legend is applicable only to US Government
 contracts under FAR:
  
                    RESTRICTED RIGHTS LEGEND
  
 Use, reproduction and disclosure by the US Government is
 subject to restrictions as set forth in subparagraphs (a)
 and (c) of the Commercial Computer Software - Restricted
 Rights clause in FAR 52.227-19.
  
 Gaussian, Inc.
 340 Quinnipiac St., Bldg. 40, Wallingford CT 06492
  
  
 ---------------------------------------------------------------
 Warning -- This program may not be used in any manner that
 competes with the business of Gaussian, Inc. or will provide
 assistance to any competitor of Gaussian, Inc.  The licensee
 of this program is prohibited from giving any competitor of
 Gaussian, Inc. access to this program.  By using this program,
 the user acknowledges that Gaussian, Inc. is engaged in the
 business of creating and licensing software in the field of
 computational chemistry and represents and warrants to the
 licensee that it is not a competitor of Gaussian, Inc. and that
 it will not use this program in any manner prohibited above.
 ---------------------------------------------------------------
  

 Cite this work as:
 Gaussian 09, Revision D.01,
 M. J. Frisch, G. W. Trucks, H. B. Schlegel, G. E. Scuseria, 
 M. A. Robb, J. R. Cheeseman, G. Scalmani, V. Barone, B. Mennucci, 
 G. A. Petersson, H. Nakatsuji, M. Caricato, X. Li, H. P. Hratchian, 
 A. F. Izmaylov, J. Bloino, G. Zheng, J. L. Sonnenberg, M. Hada, 
 M. Ehara, K. Toyota, R. Fukuda, J. Hasegawa, M. Ishida, T. Nakajima, 
 Y. Honda, O. Kitao, H. Nakai, T. Vreven, J. A. Montgomery, Jr., 
 J. E. Peralta, F. Ogliaro, M. Bearpark, J. J. Heyd, E. Brothers, 
 K. N. Kudin, V. N. Staroverov, T. Keith, R. Kobayashi, J. Normand, 
 K. Raghavachari, A. Rendell, J. C. Burant, S. S. Iyengar, J. Tomasi, 
 M. Cossi, N. Rega, J. M. Millam, M. Klene, J. E. Knox, J. B. Cross, 
 V. Bakken, C. Adamo, J. Jaramillo, R. Gomperts, R. E. Stratmann, 
 O. Yazyev, A. J. Austin, R. Cammi, C. Pomelli, J. W. Ochterski, 
 R. L. Martin, K. Morokuma, V. G. Zakrzewski, G. A. Voth, 
 P. Salvador, J. J. Dannenberg, S. Dapprich, A. D. Daniels, 
 O. Farkas, J. B. Foresman, J. V. Ortiz, J. Cioslowski, 
 and D. J. Fox, Gaussian, Inc., Wallingford CT, 2013.
 
 ******************************************
 Gaussian 09:  ES64L-G09RevD.01 24-Apr-2013
                28-Jul-2021 
 ******************************************
 %mem=2gb
 %nproc=4
 Will use up to    4 processors via shared memory.
 %chk=conf-273.chk
 ----------------------------------------------------------------------
 # B3LYP/6-31+G(d,p) opt=calcfc freq=noraman nosymm integral(ultrafineg
 rid)
 ----------------------------------------------------------------------
 1/10=4,14=-1,18=20,19=15,26=4,38=1/1,3;
 2/9=110,12=2,15=1,17=6,18=5,40=1/2;
 3/5=1,6=6,7=111,11=2,16=1,25=1,30=1,71=2,74=-5,75=-5,140=1/1,2,3;
 4//1;
 5/5=2,38=5/2;
 8/6=4,10=90,11=11/1;
 11/6=1,8=1,9=11,15=111,16=1,31=1/1,2,10;
 10/6=1,13=1,31=1/2;
 6/7=2,8=2,9=2,10=2,28=1/1;
 7/10=1,18=20,25=1,30=1/1,2,3,16;
 1/10=4,14=-1,18=20,19=15,26=4/3(2);
 2/9=110,15=1/2;
 99//99;
 2/9=110,15=1/2;
 3/5=1,6=6,7=111,11=2,16=1,25=1,30=1,71=1,74=-5,75=-5/1,2,3;
 4/5=5,16=3,69=1/1;
 5/5=2,38=5/2;
 7/30=1/1,2,3,16;
 1/14=-1,18=20,19=15,26=4/3(-5);
 2/9=110,15=1/2;
 6/7=2,8=2,9=2,10=2,19=2,28=1/1;
 99/9=1/99;
 ------------------------------------------------------------
 Candidate Structure: Conf:273 OPT and FREQ calc in gas phase
 ------------------------------------------------------------
 Symbolic Z-matrix:
 Charge =  0 Multiplicity = 1
 O                     0.4812   -1.43972   1.72308 
 C                     0.87057  -0.53629   0.98255 
 N                     0.37138  -0.40017  -0.26514 
 C                    -0.75721  -1.20762  -0.73001 
 C                    -0.28914  -2.59703  -1.19228 
 O                     0.31533  -3.3194   -0.24345 
 O                    -0.45011  -3.01646  -2.30615 
 C                    -1.5072   -0.49074  -1.84649 
 C                    -2.27544   0.70244  -1.37059 
 C                    -2.84205   1.05063  -0.17757 
 N                    -3.45652   2.28666  -0.27192 
 C                    -3.26679   2.67362  -1.51053 
 N                    -2.55969   1.75405  -2.21919 
 C                     1.89393   0.48386   1.40872 
 C                     2.97956  -0.12216   2.28608 
 N                     3.8968    0.93726   2.718 
 H                     0.69071   0.34962  -0.85265 
 H                    -1.42108  -1.35943   0.12342 
 H                     0.33923  -2.81473   0.59778 
 H                    -2.17872  -1.20279  -2.32839 
 H                    -0.79593  -0.19651  -2.61834 
 H                    -2.8511    0.49833   0.75013 
 H                    -3.61409   3.59393  -1.94694 
 H                    -2.28316   1.82072  -3.18404 
 H                     2.33103   0.96023   0.52862 
 H                     1.38125   1.26432   1.97735 
 H                     2.50784  -0.56404   3.1651 
 H                     3.4804   -0.9333    1.74249 
 H                     4.56161   0.56728   3.38681 
 H                     4.44738   1.25773   1.92958 
 

 GradGradGradGradGradGradGradGradGradGradGradGradGradGradGradGradGradGrad
 Berny optimization.
 Initialization pass.
                           ----------------------------
                           !    Initial Parameters    !
                           ! (Angstroms and Degrees)  !
 --------------------------                            --------------------------
 ! Name  Definition              Value          Derivative Info.                !
 --------------------------------------------------------------------------------
 ! R1    R(1,2)                  1.2313         calculate D2E/DX2 analytically  !
 ! R2    R(2,3)                  1.3507         calculate D2E/DX2 analytically  !
 ! R3    R(2,14)                 1.5065         calculate D2E/DX2 analytically  !
 ! R4    R(3,4)                  1.4635         calculate D2E/DX2 analytically  !
 ! R5    R(3,17)                 1.0047         calculate D2E/DX2 analytically  !
 ! R6    R(4,5)                  1.5373         calculate D2E/DX2 analytically  !
 ! R7    R(4,8)                  1.5241         calculate D2E/DX2 analytically  !
 ! R8    R(4,18)                 1.0918         calculate D2E/DX2 analytically  !
 ! R9    R(5,6)                  1.337          calculate D2E/DX2 analytically  !
 ! R10   R(5,7)                  1.2011         calculate D2E/DX2 analytically  !
 ! R11   R(6,19)                 0.9813         calculate D2E/DX2 analytically  !
 ! R12   R(8,9)                  1.4968         calculate D2E/DX2 analytically  !
 ! R13   R(8,20)                 1.091          calculate D2E/DX2 analytically  !
 ! R14   R(8,21)                 1.0901         calculate D2E/DX2 analytically  !
 ! R15   R(9,10)                 1.3659         calculate D2E/DX2 analytically  !
 ! R16   R(9,13)                 1.3809         calculate D2E/DX2 analytically  !
 ! R17   R(10,11)                1.3836         calculate D2E/DX2 analytically  !
 ! R18   R(10,22)                1.0797         calculate D2E/DX2 analytically  !
 ! R19   R(11,12)                1.3114         calculate D2E/DX2 analytically  !
 ! R20   R(12,13)                1.3593         calculate D2E/DX2 analytically  !
 ! R21   R(12,23)                1.0761         calculate D2E/DX2 analytically  !
 ! R22   R(13,24)                1.0059         calculate D2E/DX2 analytically  !
 ! R23   R(14,15)                1.5217         calculate D2E/DX2 analytically  !
 ! R24   R(14,25)                1.092          calculate D2E/DX2 analytically  !
 ! R25   R(14,26)                1.0933         calculate D2E/DX2 analytically  !
 ! R26   R(15,16)                1.4664         calculate D2E/DX2 analytically  !
 ! R27   R(15,27)                1.0911         calculate D2E/DX2 analytically  !
 ! R28   R(15,28)                1.0974         calculate D2E/DX2 analytically  !
 ! R29   R(16,29)                1.013          calculate D2E/DX2 analytically  !
 ! R30   R(16,30)                1.0136         calculate D2E/DX2 analytically  !
 ! A1    A(1,2,3)              120.8376         calculate D2E/DX2 analytically  !
 ! A2    A(1,2,14)             122.7858         calculate D2E/DX2 analytically  !
 ! A3    A(3,2,14)             116.3669         calculate D2E/DX2 analytically  !
 ! A4    A(2,3,4)              121.5214         calculate D2E/DX2 analytically  !
 ! A5    A(2,3,17)             119.8628         calculate D2E/DX2 analytically  !
 ! A6    A(4,3,17)             118.1074         calculate D2E/DX2 analytically  !
 ! A7    A(3,4,5)              111.0619         calculate D2E/DX2 analytically  !
 ! A8    A(3,4,8)              110.6495         calculate D2E/DX2 analytically  !
 ! A9    A(3,4,18)             107.2961         calculate D2E/DX2 analytically  !
 ! A10   A(5,4,8)              110.7731         calculate D2E/DX2 analytically  !
 ! A11   A(5,4,18)             107.1284         calculate D2E/DX2 analytically  !
 ! A12   A(8,4,18)             109.8029         calculate D2E/DX2 analytically  !
 ! A13   A(4,5,6)              114.3675         calculate D2E/DX2 analytically  !
 ! A14   A(4,5,7)              123.6204         calculate D2E/DX2 analytically  !
 ! A15   A(6,5,7)              122.0113         calculate D2E/DX2 analytically  !
 ! A16   A(5,6,19)             109.9703         calculate D2E/DX2 analytically  !
 ! A17   A(4,8,9)              113.2417         calculate D2E/DX2 analytically  !
 ! A18   A(4,8,20)             108.631          calculate D2E/DX2 analytically  !
 ! A19   A(4,8,21)             108.9394         calculate D2E/DX2 analytically  !
 ! A20   A(9,8,20)             110.1707         calculate D2E/DX2 analytically  !
 ! A21   A(9,8,21)             110.1741         calculate D2E/DX2 analytically  !
 ! A22   A(20,8,21)            105.3689         calculate D2E/DX2 analytically  !
 ! A23   A(8,9,10)             133.9358         calculate D2E/DX2 analytically  !
 ! A24   A(8,9,13)             121.1542         calculate D2E/DX2 analytically  !
 ! A25   A(10,9,13)            104.9065         calculate D2E/DX2 analytically  !
 ! A26   A(9,10,11)            110.6353         calculate D2E/DX2 analytically  !
 ! A27   A(9,10,22)            128.5771         calculate D2E/DX2 analytically  !
 ! A28   A(11,10,22)           120.7875         calculate D2E/DX2 analytically  !
 ! A29   A(10,11,12)           105.2927         calculate D2E/DX2 analytically  !
 ! A30   A(11,12,13)           111.594          calculate D2E/DX2 analytically  !
 ! A31   A(11,12,23)           126.0626         calculate D2E/DX2 analytically  !
 ! A32   A(13,12,23)           122.3432         calculate D2E/DX2 analytically  !
 ! A33   A(9,13,12)            107.5703         calculate D2E/DX2 analytically  !
 ! A34   A(9,13,24)            125.686          calculate D2E/DX2 analytically  !
 ! A35   A(12,13,24)           126.7424         calculate D2E/DX2 analytically  !
 ! A36   A(2,14,15)            112.2127         calculate D2E/DX2 analytically  !
 ! A37   A(2,14,25)            109.8338         calculate D2E/DX2 analytically  !
 ! A38   A(2,14,26)            108.1789         calculate D2E/DX2 analytically  !
 ! A39   A(15,14,25)           110.6605         calculate D2E/DX2 analytically  !
 ! A40   A(15,14,26)           108.6005         calculate D2E/DX2 analytically  !
 ! A41   A(25,14,26)           107.1854         calculate D2E/DX2 analytically  !
 ! A42   A(14,15,16)           109.169          calculate D2E/DX2 analytically  !
 ! A43   A(14,15,27)           108.5023         calculate D2E/DX2 analytically  !
 ! A44   A(14,15,28)           109.5343         calculate D2E/DX2 analytically  !
 ! A45   A(16,15,27)           109.0103         calculate D2E/DX2 analytically  !
 ! A46   A(16,15,28)           113.2315         calculate D2E/DX2 analytically  !
 ! A47   A(27,15,28)           107.2794         calculate D2E/DX2 analytically  !
 ! A48   A(15,16,29)           109.9443         calculate D2E/DX2 analytically  !
 ! A49   A(15,16,30)           109.8204         calculate D2E/DX2 analytically  !
 ! A50   A(29,16,30)           105.8152         calculate D2E/DX2 analytically  !
 ! D1    D(1,2,3,4)              7.5256         calculate D2E/DX2 analytically  !
 ! D2    D(1,2,3,17)           179.1912         calculate D2E/DX2 analytically  !
 ! D3    D(14,2,3,4)          -171.3709         calculate D2E/DX2 analytically  !
 ! D4    D(14,2,3,17)            0.2946         calculate D2E/DX2 analytically  !
 ! D5    D(1,2,14,15)           37.429          calculate D2E/DX2 analytically  !
 ! D6    D(1,2,14,25)          160.9631         calculate D2E/DX2 analytically  !
 ! D7    D(1,2,14,26)          -82.3549         calculate D2E/DX2 analytically  !
 ! D8    D(3,2,14,15)         -143.698          calculate D2E/DX2 analytically  !
 ! D9    D(3,2,14,25)          -20.1639         calculate D2E/DX2 analytically  !
 ! D10   D(3,2,14,26)           96.5181         calculate D2E/DX2 analytically  !
 ! D11   D(2,3,4,5)            -81.7802         calculate D2E/DX2 analytically  !
 ! D12   D(2,3,4,8)            154.7647         calculate D2E/DX2 analytically  !
 ! D13   D(2,3,4,18)            34.9931         calculate D2E/DX2 analytically  !
 ! D14   D(17,3,4,5)           106.413          calculate D2E/DX2 analytically  !
 ! D15   D(17,3,4,8)           -17.0421         calculate D2E/DX2 analytically  !
 ! D16   D(17,3,4,18)         -136.8136         calculate D2E/DX2 analytically  !
 ! D17   D(3,4,5,6)             60.0601         calculate D2E/DX2 analytically  !
 ! D18   D(3,4,5,7)           -120.2636         calculate D2E/DX2 analytically  !
 ! D19   D(8,4,5,6)           -176.5556         calculate D2E/DX2 analytically  !
 ! D20   D(8,4,5,7)              3.1206         calculate D2E/DX2 analytically  !
 ! D21   D(18,4,5,6)           -56.816          calculate D2E/DX2 analytically  !
 ! D22   D(18,4,5,7)           122.8603         calculate D2E/DX2 analytically  !
 ! D23   D(3,4,8,9)            -70.7009         calculate D2E/DX2 analytically  !
 ! D24   D(3,4,8,20)           166.5599         calculate D2E/DX2 analytically  !
 ! D25   D(3,4,8,21)            52.268          calculate D2E/DX2 analytically  !
 ! D26   D(5,4,8,9)            165.6775         calculate D2E/DX2 analytically  !
 ! D27   D(5,4,8,20)            42.9384         calculate D2E/DX2 analytically  !
 ! D28   D(5,4,8,21)           -71.3536         calculate D2E/DX2 analytically  !
 ! D29   D(18,4,8,9)            47.5538         calculate D2E/DX2 analytically  !
 ! D30   D(18,4,8,20)          -75.1853         calculate D2E/DX2 analytically  !
 ! D31   D(18,4,8,21)          170.5227         calculate D2E/DX2 analytically  !
 ! D32   D(4,5,6,19)             0.5789         calculate D2E/DX2 analytically  !
 ! D33   D(7,5,6,19)          -179.1032         calculate D2E/DX2 analytically  !
 ! D34   D(4,8,9,10)           -26.9919         calculate D2E/DX2 analytically  !
 ! D35   D(4,8,9,13)           153.7973         calculate D2E/DX2 analytically  !
 ! D36   D(20,8,9,10)           94.8898         calculate D2E/DX2 analytically  !
 ! D37   D(20,8,9,13)          -84.3209         calculate D2E/DX2 analytically  !
 ! D38   D(21,8,9,10)         -149.2757         calculate D2E/DX2 analytically  !
 ! D39   D(21,8,9,13)           31.5136         calculate D2E/DX2 analytically  !
 ! D40   D(8,9,10,11)         -179.6436         calculate D2E/DX2 analytically  !
 ! D41   D(8,9,10,22)            0.4783         calculate D2E/DX2 analytically  !
 ! D42   D(13,9,10,11)          -0.3425         calculate D2E/DX2 analytically  !
 ! D43   D(13,9,10,22)         179.7794         calculate D2E/DX2 analytically  !
 ! D44   D(8,9,13,12)          179.6556         calculate D2E/DX2 analytically  !
 ! D45   D(8,9,13,24)           -0.7376         calculate D2E/DX2 analytically  !
 ! D46   D(10,9,13,12)           0.2438         calculate D2E/DX2 analytically  !
 ! D47   D(10,9,13,24)         179.8506         calculate D2E/DX2 analytically  !
 ! D48   D(9,10,11,12)           0.3093         calculate D2E/DX2 analytically  !
 ! D49   D(22,10,11,12)       -179.8017         calculate D2E/DX2 analytically  !
 ! D50   D(10,11,12,13)         -0.1475         calculate D2E/DX2 analytically  !
 ! D51   D(10,11,12,23)        179.6907         calculate D2E/DX2 analytically  !
 ! D52   D(11,12,13,9)          -0.0609         calculate D2E/DX2 analytically  !
 ! D53   D(11,12,13,24)       -179.6624         calculate D2E/DX2 analytically  !
 ! D54   D(23,12,13,9)        -179.9061         calculate D2E/DX2 analytically  !
 ! D55   D(23,12,13,24)          0.4924         calculate D2E/DX2 analytically  !
 ! D56   D(2,14,15,16)        -177.0867         calculate D2E/DX2 analytically  !
 ! D57   D(2,14,15,27)         -58.4021         calculate D2E/DX2 analytically  !
 ! D58   D(2,14,15,28)          58.4108         calculate D2E/DX2 analytically  !
 ! D59   D(25,14,15,16)         59.8434         calculate D2E/DX2 analytically  !
 ! D60   D(25,14,15,27)        178.5279         calculate D2E/DX2 analytically  !
 ! D61   D(25,14,15,28)        -64.6592         calculate D2E/DX2 analytically  !
 ! D62   D(26,14,15,16)        -57.549          calculate D2E/DX2 analytically  !
 ! D63   D(26,14,15,27)         61.1356         calculate D2E/DX2 analytically  !
 ! D64   D(26,14,15,28)        177.9485         calculate D2E/DX2 analytically  !
 ! D65   D(14,15,16,29)        173.5694         calculate D2E/DX2 analytically  !
 ! D66   D(14,15,16,30)        -70.3925         calculate D2E/DX2 analytically  !
 ! D67   D(27,15,16,29)         55.2023         calculate D2E/DX2 analytically  !
 ! D68   D(27,15,16,30)        171.2403         calculate D2E/DX2 analytically  !
 ! D69   D(28,15,16,29)        -64.1236         calculate D2E/DX2 analytically  !
 ! D70   D(28,15,16,30)         51.9144         calculate D2E/DX2 analytically  !
 --------------------------------------------------------------------------------
 Trust Radius=3.00D-01 FncErr=1.00D-07 GrdErr=1.00D-06
 Number of steps in this run=    160 maximum allowed number of steps=    180.
 GradGradGradGradGradGradGradGradGradGradGradGradGradGradGradGradGradGrad

                          Input orientation:                          
 ---------------------------------------------------------------------
 Center     Atomic      Atomic             Coordinates (Angstroms)
 Number     Number       Type             X           Y           Z
 ---------------------------------------------------------------------
      1          8           0        0.481202   -1.439721    1.723084
      2          6           0        0.870569   -0.536285    0.982547
      3          7           0        0.371376   -0.400166   -0.265140
      4          6           0       -0.757209   -1.207622   -0.730012
      5          6           0       -0.289136   -2.597034   -1.192279
      6          8           0        0.315334   -3.319401   -0.243452
      7          8           0       -0.450114   -3.016463   -2.306155
      8          6           0       -1.507203   -0.490736   -1.846491
      9          6           0       -2.275445    0.702441   -1.370589
     10          6           0       -2.842052    1.050633   -0.177570
     11          7           0       -3.456524    2.286661   -0.271915
     12          6           0       -3.266792    2.673623   -1.510526
     13          7           0       -2.559690    1.754054   -2.219192
     14          6           0        1.893930    0.483862    1.408723
     15          6           0        2.979560   -0.122160    2.286081
     16          7           0        3.896800    0.937264    2.718000
     17          1           0        0.690707    0.349622   -0.852654
     18          1           0       -1.421075   -1.359428    0.123420
     19          1           0        0.339230   -2.814735    0.597781
     20          1           0       -2.178716   -1.202789   -2.328392
     21          1           0       -0.795931   -0.196509   -2.618341
     22          1           0       -2.851101    0.498330    0.750134
     23          1           0       -3.614090    3.593930   -1.946937
     24          1           0       -2.283164    1.820720   -3.184039
     25          1           0        2.331031    0.960230    0.528621
     26          1           0        1.381250    1.264319    1.977355
     27          1           0        2.507837   -0.564041    3.165097
     28          1           0        3.480396   -0.933305    1.742493
     29          1           0        4.561608    0.567281    3.386808
     30          1           0        4.447377    1.257728    1.929579
 ---------------------------------------------------------------------
                    Distance matrix (angstroms):
                    1          2          3          4          5
     1  O    0.000000
     2  C    1.231340   0.000000
     3  N    2.246280   1.350721   0.000000
     4  C    2.757755   2.456260   1.463488   0.000000
     5  C    3.229882   3.212705   2.474287   1.537286   0.000000
     6  O    2.725431   3.091455   2.919854   2.417995   1.336963
     7  O    4.425860   4.325627   3.418421   2.418768   1.201064
     8  C    4.194782   3.695854   2.457221   1.524120   2.519559
     9  C    4.664631   4.119357   3.073015   2.522642   3.855354
    10  C    4.567096   4.200921   3.526840   3.122736   4.566453
    11  N    5.776819   5.316619   4.676741   4.439163   5.893208
    12  C    6.436093   5.799714   4.922949   4.687352   6.061975
    13  N    5.915131   5.221443   4.129180   3.773344   5.014174
    14  C    2.407239   1.506518   2.429299   3.803137   4.585075
    15  C    2.880056   2.513671   3.659049   4.923260   5.376650
    16  N    4.278577   3.786980   4.807958   6.176497   6.730795
    17  H    3.143258   2.045763   1.004653   2.129909   3.123815
    18  H    2.486772   2.582111   2.069793   1.091838   2.131671
    19  H    1.782449   2.371012   2.564334   2.355424   1.909595
    20  H    4.852398   4.550240   3.377008   2.139047   2.608675
    21  H    4.693040   3.982345   2.634699   2.142344   2.837784
    22  H    3.975792   3.869790   3.496060   3.079852   4.462949
    23  H    7.455074   6.764076   5.887714   5.718180   7.067735
    24  H    6.507846   5.732535   4.527570   4.185887   5.240211
    25  H    3.257049   2.139756   2.514156   3.977558   4.741403
    26  H    2.861218   2.119578   2.969703   4.244212   5.267525
    27  H    2.636942   2.728541   4.044483   5.123143   5.562629
    28  H    3.041710   2.747060   3.739096   4.913841   5.058681
    29  H    4.842080   4.541156   5.641872   6.956170   7.383132
    30  H    4.800980   4.112044   4.917234   6.343429   6.858553
                    6          7          8          9         10
     6  O    0.000000
     7  O    2.220906   0.000000
     8  C    3.727294   2.776333   0.000000
     9  C    4.915057   4.247042   1.496780   0.000000
    10  C    5.391718   5.176245   2.634945   1.365861   0.000000
    11  N    6.756897   6.426489   3.740732   2.260926   1.383561
    12  C    7.096015   6.398732   3.636233   2.210861   2.142725
    13  N    6.157049   5.216868   2.507133   1.380874   2.177785
    14  C    4.436943   5.616685   4.807699   5.015580   5.026637
    15  C    4.870215   6.420926   6.111059   6.454942   6.429322
    16  N    6.302087   7.731090   7.216440   7.407314   7.335482
    17  H    3.738150   3.839879   2.554354   3.031633   3.664361
    18  H    2.644089   3.096993   2.154668   2.685762   2.813923
    19  H    0.981292   3.016058   3.845094   4.804324   5.065845
    20  H    3.879085   2.505588   1.090953   2.134630   3.184959
    21  H    4.077678   2.858180   1.090059   2.134000   3.420429
    22  H    5.058517   5.240173   3.086547   2.206923   1.079701
    23  H    8.132428   7.337376   4.597125   3.238033   3.192971
    24  H    6.466846   5.246818   2.781003   2.130542   3.153450
    25  H    4.793159   5.620037   4.741150   4.989296   5.221845
    26  H    5.203715   6.326725   5.103447   4.989574   4.746118
    27  H    4.900744   6.685690   6.421988   6.712392   6.511674
    28  H    4.433402   6.014983   6.160586   6.745121   6.898986
    29  H    6.805581   8.388707   8.083148   8.330449   8.231196
    30  H    6.538039   7.758581   7.264493   7.509713   7.590701
                   11         12         13         14         15
    11  N    0.000000
    12  C    1.311447   0.000000
    13  N    2.209042   1.359341   0.000000
    14  C    5.890839   6.320611   5.883017   0.000000
    15  C    7.332730   7.826080   7.382476   1.521713   0.000000
    16  N    8.051822   8.497789   8.168798   2.435419   1.466377
    17  H    4.613990   4.636332   3.795384   2.565072   3.913194
    18  H    4.194438   4.726727   4.059316   4.004871   5.057027
    19  H    6.417815   6.897131   6.100238   3.735701   4.131786
    20  H    4.247135   4.108453   2.983285   5.779037   7.004922
    21  H    4.330197   3.945892   2.659861   4.890349   6.189767
    22  H    2.146916   3.164693   3.237076   4.790540   6.061415
    23  H    2.130605   1.076121   2.137996   7.160395   8.672023
    24  H    3.174010   2.120286   1.005903   6.350494   7.835385
    25  H    5.991333   6.199150   5.665667   1.092045   2.163521
    26  H    5.432168   5.979610   5.777703   1.093296   2.138277
    27  H    7.450715   8.104952   7.748804   2.135376   1.091078
    28  H    7.908659   8.313640   7.707106   2.153286   1.097397
    29  H    8.979586   9.471241   9.140490   3.322090   2.046901
    30  H    8.269034   8.564314   8.158286   2.718501   2.045892
                   16         17         18         19         20
    16  N    0.000000
    17  H    4.834659   0.000000
    18  H    6.347160   2.886728   0.000000
    19  H    5.588302   3.498636   2.332726   0.000000
    20  H    8.182774   3.580694   2.570980   4.183409   0.000000
    21  H    7.196090   2.371920   3.043097   4.299667   1.734578
    22  H    7.042679   3.890431   2.426728   4.601936   3.580954
    23  H    9.232171   5.500388   5.799263   7.948290   5.021387
    24  H    8.591072   4.055046   4.668600   6.531964   3.143986
    25  H    2.691754   2.229669   4.429820   4.268772   5.760121
    26  H    2.642634   3.053272   4.263115   4.430317   6.107326
    27  H    2.093569   4.503228   5.031977   4.044699   7.249151
    28  H    2.150356   4.020330   5.179518   3.836284   6.976409
    29  H    1.012996   5.744936   7.081978   6.086475   9.012692
    30  H    1.013627   4.762147   6.674612   5.935951   8.251640
                   21         22         23         24         25
    21  H    0.000000
    22  H    4.006638   0.000000
    23  H    4.770769   4.176013   0.000000
    24  H    2.569259   4.189151   2.538909   0.000000
    25  H    4.584682   5.207390   6.957674   5.984571   0.000000
    26  H    5.290989   4.472763   6.766134   6.354329   1.758802
    27  H    6.670691   5.973181   8.994420   8.303752   3.050519
    28  H    6.151969   6.566751   9.189096   8.066846   2.525866
    29  H    8.083837   7.867977  10.220150   9.570687   3.646795
    30  H    7.091591   7.432063   9.245132   8.471495   2.555408
                   26         27         28         29         30
    26  H    0.000000
    27  H    2.454145   0.000000
    28  H    3.048135   1.762393   0.000000
    29  H    3.547830   2.355211   2.474782   0.000000
    30  H    3.066506   2.933797   2.402223   1.616565   0.000000
 Symmetry turned off by external request.
 Stoichiometry    C9H14N4O3
 Framework group  C1[X(C9H14N4O3)]
 Deg. of freedom    84
 Full point group                 C1      NOp   1
 Rotational constants (GHZ):      0.6081288      0.3132744      0.2274180
 Standard basis: 6-31+G(d,p) (6D, 7F)
   374 basis functions,   610 primitive gaussians,   374 cartesian basis functions
    60 alpha electrons       60 beta electrons
       nuclear repulsion energy      1109.6886056220 Hartrees.
 NAtoms=   30 NActive=   30 NUniq=   30 SFac= 1.00D+00 NAtFMM=   60 NAOKFM=F Big=F
 Integral buffers will be    131072 words long.
 Raffenetti 2 integral format.
 Two-electron integral symmetry is turned off.
 One-electron integrals computed using PRISM.
 NBasis=   374 RedAO= T EigKep=  3.25D-06  NBF=   374
 NBsUse=   374 1.00D-06 EigRej= -1.00D+00 NBFU=   374
 ExpMin= 4.38D-02 ExpMax= 5.48D+03 ExpMxC= 8.25D+02 IAcc=3 IRadAn=         5 AccDes= 0.00D+00
 Harris functional with IExCor=  402 and IRadAn=       5 diagonalized for initial guess.
 HarFok:  IExCor=  402 AccDes= 0.00D+00 IRadAn=         5 IDoV= 1 UseB2=F ITyADJ=14
 ICtDFT=  3500011 ScaDFX=  1.000000  1.000000  1.000000  1.000000
 FoFCou: FMM=F IPFlag=           0 FMFlag=      100000 FMFlg1=           0
         NFxFlg=           0 DoJE=T BraDBF=F KetDBF=T FulRan=T
         wScrn=  0.000000 ICntrl=     500 IOpCl=  0 I1Cent=   200000004 NGrid=           0
         NMat0=    1 NMatS0=      1 NMatT0=    0 NMatD0=    1 NMtDS0=    0 NMtDT0=    0
 Symmetry not used in FoFCou.
 Requested convergence on RMS density matrix=1.00D-08 within 128 cycles.
 Requested convergence on MAX density matrix=1.00D-06.
 Requested convergence on             energy=1.00D-06.
 No special actions if energy rises.
 SCF Done:  E(RB3LYP) =  -796.146771991     A.U. after   15 cycles
            NFock= 15  Conv=0.27D-08     -V/T= 2.0089
 DoSCS=F DFT=T ScalE2(SS,OS)=  1.000000  1.000000
 Range of M.O.s used for correlation:     1   374
 NBasis=   374 NAE=    60 NBE=    60 NFC=     0 NFV=     0
 NROrb=    374 NOA=    60 NOB=    60 NVA=   314 NVB=   314

 **** Warning!!: The largest alpha MO coefficient is  0.10843512D+03

 Symmetrizing basis deriv contribution to polar:
 IMax=3 JMax=2 DiffMx= 0.00D+00
 G2DrvN: will do    31 centers at a time, making    1 passes.
 Calling FoFCou, ICntrl=  3107 FMM=F I1Cent=   0 AccDes= 0.00D+00.
 End of G2Drv F.D. properties file   721 does not exist.
 End of G2Drv F.D. properties file   722 does not exist.
 End of G2Drv F.D. properties file   788 does not exist.
          IDoAtm=111111111111111111111111111111
          Differentiating once with respect to nuclear coordinates.
          There are    93 degrees of freedom in the 1st order CPHF.  IDoFFX=6 NUNeed=     0.
     87 vectors produced by pass  0 Test12= 2.03D-14 1.08D-09 XBig12= 2.03D-01 1.13D-01.
 AX will form    87 AO Fock derivatives at one time.
     87 vectors produced by pass  1 Test12= 2.03D-14 1.08D-09 XBig12= 1.10D-02 2.45D-02.
     87 vectors produced by pass  2 Test12= 2.03D-14 1.08D-09 XBig12= 1.96D-04 2.39D-03.
     87 vectors produced by pass  3 Test12= 2.03D-14 1.08D-09 XBig12= 8.36D-07 8.79D-05.
     87 vectors produced by pass  4 Test12= 2.03D-14 1.08D-09 XBig12= 1.77D-09 3.07D-06.
     77 vectors produced by pass  5 Test12= 2.03D-14 1.08D-09 XBig12= 2.20D-12 1.03D-07.
     26 vectors produced by pass  6 Test12= 2.03D-14 1.08D-09 XBig12= 3.16D-15 5.14D-09.
      2 vectors produced by pass  7 Test12= 2.03D-14 1.08D-09 XBig12= 2.65D-16 1.63D-09.
 InvSVY:  IOpt=1 It=  1 EMax= 4.44D-16
 Solved reduced A of dimension   540 with    93 vectors.
 End of Minotr F.D. properties file   721 does not exist.
 End of Minotr F.D. properties file   722 does not exist.
 End of Minotr F.D. properties file   788 does not exist.

 **********************************************************************

            Population analysis using the SCF density.

 **********************************************************************

 Alpha  occ. eigenvalues --  -19.19771 -19.16161 -19.15405 -14.41176 -14.40640
 Alpha  occ. eigenvalues --  -14.33866 -14.33120 -10.33181 -10.32657 -10.27202
 Alpha  occ. eigenvalues --  -10.25503 -10.24098 -10.23080 -10.23026 -10.21951
 Alpha  occ. eigenvalues --  -10.21287  -1.11589  -1.08210  -1.03628  -1.03397
 Alpha  occ. eigenvalues --   -0.97014  -0.90580  -0.88960  -0.83337  -0.78849
 Alpha  occ. eigenvalues --   -0.75540  -0.69551  -0.65856  -0.63423  -0.62262
 Alpha  occ. eigenvalues --   -0.62063  -0.60577  -0.57524  -0.54709  -0.53895
 Alpha  occ. eigenvalues --   -0.52605  -0.51024  -0.48389  -0.47281  -0.46957
 Alpha  occ. eigenvalues --   -0.45861  -0.45199  -0.44610  -0.44169  -0.43577
 Alpha  occ. eigenvalues --   -0.42653  -0.42409  -0.41159  -0.40375  -0.38551
 Alpha  occ. eigenvalues --   -0.38315  -0.37192  -0.32837  -0.31927  -0.29974
 Alpha  occ. eigenvalues --   -0.29802  -0.28412  -0.27914  -0.26181  -0.24420
 Alpha virt. eigenvalues --   -0.02660  -0.02289  -0.01241  -0.00718  -0.00038
 Alpha virt. eigenvalues --    0.00324   0.00955   0.01661   0.02407   0.02715
 Alpha virt. eigenvalues --    0.03382   0.04333   0.04493   0.05057   0.05256
 Alpha virt. eigenvalues --    0.06249   0.06675   0.07338   0.07532   0.08129
 Alpha virt. eigenvalues --    0.08291   0.09222   0.09597   0.09930   0.10890
 Alpha virt. eigenvalues --    0.11291   0.11987   0.12398   0.13083   0.13495
 Alpha virt. eigenvalues --    0.13928   0.14433   0.15249   0.15616   0.15763
 Alpha virt. eigenvalues --    0.15903   0.16437   0.16676   0.17178   0.17331
 Alpha virt. eigenvalues --    0.17860   0.18487   0.18661   0.18984   0.19363
 Alpha virt. eigenvalues --    0.20073   0.20676   0.20738   0.21184   0.21693
 Alpha virt. eigenvalues --    0.21952   0.22241   0.22782   0.23532   0.23603
 Alpha virt. eigenvalues --    0.23825   0.24789   0.25331   0.25374   0.25465
 Alpha virt. eigenvalues --    0.26072   0.26445   0.26772   0.27215   0.27961
 Alpha virt. eigenvalues --    0.28419   0.28995   0.29581   0.30178   0.30249
 Alpha virt. eigenvalues --    0.31168   0.31419   0.31814   0.32061   0.32595
 Alpha virt. eigenvalues --    0.33002   0.33271   0.34195   0.34309   0.34730
 Alpha virt. eigenvalues --    0.35975   0.36241   0.37452   0.37715   0.37818
 Alpha virt. eigenvalues --    0.38377   0.39250   0.40240   0.40869   0.41816
 Alpha virt. eigenvalues --    0.42299   0.44191   0.45544   0.46681   0.48638
 Alpha virt. eigenvalues --    0.50311   0.50482   0.53243   0.61407   0.63045
 Alpha virt. eigenvalues --    0.65579   0.66590   0.68452   0.68598   0.70171
 Alpha virt. eigenvalues --    0.70942   0.71364   0.73084   0.73775   0.76031
 Alpha virt. eigenvalues --    0.76417   0.77334   0.77877   0.79255   0.80054
 Alpha virt. eigenvalues --    0.82066   0.83025   0.84812   0.85223   0.86100
 Alpha virt. eigenvalues --    0.87407   0.88970   0.90190   0.91556   0.92227
 Alpha virt. eigenvalues --    0.92687   0.93351   0.93842   0.96457   0.97067
 Alpha virt. eigenvalues --    0.97777   0.98510   0.99600   1.00332   1.00871
 Alpha virt. eigenvalues --    1.03210   1.04544   1.05619   1.06375   1.06832
 Alpha virt. eigenvalues --    1.08013   1.08471   1.09301   1.10860   1.11664
 Alpha virt. eigenvalues --    1.12395   1.14638   1.15217   1.16927   1.18472
 Alpha virt. eigenvalues --    1.19557   1.21345   1.22007   1.23166   1.23540
 Alpha virt. eigenvalues --    1.24274   1.26516   1.28431   1.28821   1.29932
 Alpha virt. eigenvalues --    1.31177   1.31414   1.33442   1.33696   1.35349
 Alpha virt. eigenvalues --    1.35976   1.37134   1.38819   1.39881   1.40645
 Alpha virt. eigenvalues --    1.41119   1.42078   1.42554   1.43670   1.46300
 Alpha virt. eigenvalues --    1.47953   1.49046   1.50789   1.51617   1.56664
 Alpha virt. eigenvalues --    1.57912   1.58818   1.60415   1.63680   1.65062
 Alpha virt. eigenvalues --    1.65980   1.67728   1.69364   1.70685   1.72868
 Alpha virt. eigenvalues --    1.73882   1.76047   1.76333   1.79562   1.80379
 Alpha virt. eigenvalues --    1.82934   1.84313   1.85435   1.86353   1.87045
 Alpha virt. eigenvalues --    1.89650   1.90956   1.92071   1.92453   1.92971
 Alpha virt. eigenvalues --    1.93899   1.97987   1.99068   2.01243   2.01660
 Alpha virt. eigenvalues --    2.02056   2.05814   2.07329   2.07927   2.08353
 Alpha virt. eigenvalues --    2.08741   2.10328   2.11046   2.11856   2.12847
 Alpha virt. eigenvalues --    2.16439   2.17514   2.20041   2.22050   2.22569
 Alpha virt. eigenvalues --    2.22997   2.23848   2.26239   2.27023   2.27401
 Alpha virt. eigenvalues --    2.31461   2.31706   2.35856   2.37715   2.40330
 Alpha virt. eigenvalues --    2.41565   2.43389   2.43636   2.44514   2.45631
 Alpha virt. eigenvalues --    2.46491   2.49214   2.50206   2.50691   2.52903
 Alpha virt. eigenvalues --    2.53270   2.56513   2.58350   2.59275   2.59487
 Alpha virt. eigenvalues --    2.60361   2.62933   2.63735   2.64047   2.66114
 Alpha virt. eigenvalues --    2.66957   2.68066   2.69535   2.70959   2.71448
 Alpha virt. eigenvalues --    2.72311   2.75491   2.77124   2.79046   2.80013
 Alpha virt. eigenvalues --    2.83428   2.83776   2.85464   2.86234   2.88284
 Alpha virt. eigenvalues --    2.89495   2.91821   2.94199   2.95892   2.97719
 Alpha virt. eigenvalues --    2.99999   3.03343   3.04143   3.08158   3.09457
 Alpha virt. eigenvalues --    3.13434   3.18849   3.22736   3.27802   3.30879
 Alpha virt. eigenvalues --    3.32883   3.34249   3.34799   3.35718   3.41027
 Alpha virt. eigenvalues --    3.41423   3.51142   3.53352   3.56403   3.57375
 Alpha virt. eigenvalues --    3.59751   3.63508   3.70720   4.17423   4.20727
 Alpha virt. eigenvalues --    4.26268   4.26856   4.31284   4.34086   4.35839
 Alpha virt. eigenvalues --    4.41010   4.45712   4.53205   4.57860   4.61581
 Alpha virt. eigenvalues --    4.64778   4.72120   4.75924   4.82346
          Condensed to atoms (all electrons):
               1          2          3          4          5          6
     1  O    8.270869   0.353560  -0.161727   0.064254  -0.111855  -0.029245
     2  C    0.353560   7.997876   0.179142  -0.071840  -0.087030  -0.035139
     3  N   -0.161727   0.179142   7.403618  -0.602870   0.366571   0.062021
     4  C    0.064254  -0.071840  -0.602870  11.347752  -2.524027  -0.582039
     5  C   -0.111855  -0.087030   0.366571  -2.524027   7.457062   0.526643
     6  O   -0.029245  -0.035139   0.062021  -0.582039   0.526643   8.341147
     7  O   -0.000781  -0.015205   0.005408  -0.194797   0.469993  -0.095918
     8  C    0.000289  -0.002029   0.013489  -2.111703   0.300657   0.045393
     9  C    0.000887   0.182072  -0.023465   0.525958  -0.364187   0.020583
    10  C    0.012644  -0.182403   0.001498   0.112196  -0.216124   0.003056
    11  N   -0.000169   0.004565  -0.000844  -0.009124   0.004362  -0.000008
    12  C   -0.000008   0.014762   0.016926  -0.107508  -0.060016  -0.000366
    13  N    0.000475  -0.016865   0.003675   0.043810  -0.009449   0.000364
    14  C    0.030179  -2.416769  -0.171820  -0.417635   0.010483  -0.002236
    15  C    0.023311  -0.173095  -0.000655  -0.062056   0.005123   0.002113
    16  N   -0.002003   0.111800  -0.004936   0.005973  -0.001460  -0.000127
    17  H    0.009944  -0.013435   0.298991  -0.005859  -0.030431  -0.000063
    18  H    0.006386  -0.017203  -0.081028   0.413863  -0.021050   0.003225
    19  H    0.049948   0.005165  -0.021827   0.131626  -0.121358   0.175947
    20  H   -0.000094   0.003708   0.006028  -0.077035   0.001399  -0.000519
    21  H    0.000152   0.001776   0.003661  -0.035930   0.010219   0.000075
    22  H   -0.000401   0.011955   0.001604  -0.012775   0.001072   0.000018
    23  H    0.000000   0.000158   0.000079  -0.003162  -0.000066   0.000000
    24  H   -0.000001   0.000662   0.000102   0.008257  -0.000488   0.000000
    25  H    0.007567  -0.085054   0.003640   0.015912   0.001852   0.000239
    26  H   -0.002472  -0.022748  -0.003521  -0.003306  -0.001530   0.000017
    27  H    0.002766   0.031867   0.000886   0.001189   0.000254   0.000081
    28  H   -0.001794  -0.002596   0.002893  -0.003513   0.000034   0.000074
    29  H    0.000129  -0.019942   0.000028  -0.000105  -0.000011   0.000000
    30  H   -0.000001   0.014515   0.000167  -0.000009  -0.000020   0.000001
               7          8          9         10         11         12
     1  O   -0.000781   0.000289   0.000887   0.012644  -0.000169  -0.000008
     2  C   -0.015205  -0.002029   0.182072  -0.182403   0.004565   0.014762
     3  N    0.005408   0.013489  -0.023465   0.001498  -0.000844   0.016926
     4  C   -0.194797  -2.111703   0.525958   0.112196  -0.009124  -0.107508
     5  C    0.469993   0.300657  -0.364187  -0.216124   0.004362  -0.060016
     6  O   -0.095918   0.045393   0.020583   0.003056  -0.000008  -0.000366
     7  O    8.218760  -0.018247   0.075292   0.006102   0.000143   0.000086
     8  C   -0.018247  14.494109  -4.238054  -1.528076  -0.137375   0.056341
     9  C    0.075292  -4.238054   9.889969  -0.889309  -0.188514   0.097794
    10  C    0.006102  -1.528076  -0.889309   8.514477   0.592633  -0.611192
    11  N    0.000143  -0.137375  -0.188514   0.592633   6.737657   0.386393
    12  C    0.000086   0.056341   0.097794  -0.611192   0.386393   5.443855
    13  N    0.000427  -0.149793   0.376207  -0.149754  -0.010613   0.109916
    14  C   -0.007545  -0.239515  -0.060970   0.080574  -0.000270  -0.012429
    15  C   -0.000999  -0.051624   0.028745  -0.008836   0.001002   0.002259
    16  N    0.000023   0.000106   0.000657  -0.000081   0.000021   0.000101
    17  H   -0.000234  -0.065183   0.025305   0.008485   0.000151   0.001428
    18  H    0.005409  -0.024411  -0.028064   0.028959  -0.000650   0.000001
    19  H    0.008710   0.006814   0.001915   0.002201  -0.000015   0.000071
    20  H   -0.003420   0.512016  -0.118651   0.006027  -0.001494  -0.003441
    21  H    0.000999   0.411664  -0.109163   0.017793  -0.000561   0.002054
    22  H    0.000026   0.032537  -0.008985   0.302120  -0.054415   0.029352
    23  H    0.000000   0.032964   0.038609  -0.048125  -0.061049   0.444633
    24  H   -0.000003  -0.066361   0.069440  -0.009398   0.011084  -0.015687
    25  H   -0.000014  -0.012971   0.002843  -0.003166   0.000051  -0.000015
    26  H    0.000002  -0.004269   0.003275   0.000073   0.000102   0.000208
    27  H   -0.000001  -0.000668   0.000242  -0.000226   0.000002   0.000004
    28  H   -0.000001  -0.000100   0.000206   0.000020   0.000000   0.000001
    29  H    0.000000   0.000016  -0.000031   0.000008   0.000000   0.000000
    30  H    0.000000  -0.000081   0.000072  -0.000020   0.000000   0.000001
              13         14         15         16         17         18
     1  O    0.000475   0.030179   0.023311  -0.002003   0.009944   0.006386
     2  C   -0.016865  -2.416769  -0.173095   0.111800  -0.013435  -0.017203
     3  N    0.003675  -0.171820  -0.000655  -0.004936   0.298991  -0.081028
     4  C    0.043810  -0.417635  -0.062056   0.005973  -0.005859   0.413863
     5  C   -0.009449   0.010483   0.005123  -0.001460  -0.030431  -0.021050
     6  O    0.000364  -0.002236   0.002113  -0.000127  -0.000063   0.003225
     7  O    0.000427  -0.007545  -0.000999   0.000023  -0.000234   0.005409
     8  C   -0.149793  -0.239515  -0.051624   0.000106  -0.065183  -0.024411
     9  C    0.376207  -0.060970   0.028745   0.000657   0.025305  -0.028064
    10  C   -0.149754   0.080574  -0.008836  -0.000081   0.008485   0.028959
    11  N   -0.010613  -0.000270   0.001002   0.000021   0.000151  -0.000650
    12  C    0.109916  -0.012429   0.002259   0.000101   0.001428   0.000001
    13  N    6.990427   0.004121   0.001048   0.000043   0.000297   0.001577
    14  C    0.004121   8.873930   0.023701  -0.170655   0.056434  -0.013552
    15  C    0.001048   0.023701   5.419124   0.233480   0.006577   0.000594
    16  N    0.000043  -0.170655   0.233480   6.877893  -0.000223   0.000012
    17  H    0.000297   0.056434   0.006577  -0.000223   0.387254   0.003405
    18  H    0.001577  -0.013552   0.000594   0.000012   0.003405   0.532072
    19  H   -0.000008   0.021316  -0.004283   0.000124   0.000097  -0.002757
    20  H   -0.001466  -0.000014   0.000009   0.000000   0.000106  -0.002817
    21  H   -0.002240   0.000133   0.000255   0.000002   0.002451   0.004769
    22  H    0.000944  -0.003409   0.000341   0.000002  -0.000036   0.000884
    23  H   -0.099614  -0.000106  -0.000001   0.000000   0.000000   0.000000
    24  H    0.282312  -0.000118  -0.000012   0.000000  -0.000004   0.000002
    25  H    0.000040   0.378511   0.008834  -0.009960   0.002837  -0.000016
    26  H    0.000022   0.370461  -0.009717   0.003879   0.000083   0.000058
    27  H    0.000001  -0.123675   0.472086  -0.050598   0.000002  -0.000001
    28  H    0.000000  -0.055816   0.435872  -0.097741   0.000014   0.000002
    29  H    0.000000   0.058655  -0.065478   0.355719   0.000000   0.000000
    30  H    0.000000  -0.033968  -0.015867   0.352585   0.000002   0.000000
              19         20         21         22         23         24
     1  O    0.049948  -0.000094   0.000152  -0.000401   0.000000  -0.000001
     2  C    0.005165   0.003708   0.001776   0.011955   0.000158   0.000662
     3  N   -0.021827   0.006028   0.003661   0.001604   0.000079   0.000102
     4  C    0.131626  -0.077035  -0.035930  -0.012775  -0.003162   0.008257
     5  C   -0.121358   0.001399   0.010219   0.001072  -0.000066  -0.000488
     6  O    0.175947  -0.000519   0.000075   0.000018   0.000000   0.000000
     7  O    0.008710  -0.003420   0.000999   0.000026   0.000000  -0.000003
     8  C    0.006814   0.512016   0.411664   0.032537   0.032964  -0.066361
     9  C    0.001915  -0.118651  -0.109163  -0.008985   0.038609   0.069440
    10  C    0.002201   0.006027   0.017793   0.302120  -0.048125  -0.009398
    11  N   -0.000015  -0.001494  -0.000561  -0.054415  -0.061049   0.011084
    12  C    0.000071  -0.003441   0.002054   0.029352   0.444633  -0.015687
    13  N   -0.000008  -0.001466  -0.002240   0.000944  -0.099614   0.282312
    14  C    0.021316  -0.000014   0.000133  -0.003409  -0.000106  -0.000118
    15  C   -0.004283   0.000009   0.000255   0.000341  -0.000001  -0.000012
    16  N    0.000124   0.000000   0.000002   0.000002   0.000000   0.000000
    17  H    0.000097   0.000106   0.002451  -0.000036   0.000000  -0.000004
    18  H   -0.002757  -0.002817   0.004769   0.000884   0.000000   0.000002
    19  H    0.349375   0.000026  -0.000029   0.000000   0.000000   0.000000
    20  H    0.000026   0.503368  -0.029302   0.000009   0.000002   0.000199
    21  H   -0.000029  -0.029302   0.568638  -0.000077  -0.000010   0.001962
    22  H    0.000000   0.000009  -0.000077   0.571669  -0.000046  -0.000079
    23  H    0.000000   0.000002  -0.000010  -0.000046   0.558681   0.000251
    24  H    0.000000   0.000199   0.001962  -0.000079   0.000251   0.415840
    25  H   -0.000070   0.000000   0.000004   0.000000   0.000000   0.000000
    26  H    0.000006   0.000000   0.000001   0.000001   0.000000   0.000000
    27  H   -0.000021   0.000000   0.000000   0.000000   0.000000   0.000000
    28  H   -0.000054   0.000000   0.000000   0.000000   0.000000   0.000000
    29  H    0.000000   0.000000   0.000000   0.000000   0.000000   0.000000
    30  H    0.000000   0.000000   0.000000   0.000000   0.000000   0.000000
              25         26         27         28         29         30
     1  O    0.007567  -0.002472   0.002766  -0.001794   0.000129  -0.000001
     2  C   -0.085054  -0.022748   0.031867  -0.002596  -0.019942   0.014515
     3  N    0.003640  -0.003521   0.000886   0.002893   0.000028   0.000167
     4  C    0.015912  -0.003306   0.001189  -0.003513  -0.000105  -0.000009
     5  C    0.001852  -0.001530   0.000254   0.000034  -0.000011  -0.000020
     6  O    0.000239   0.000017   0.000081   0.000074   0.000000   0.000001
     7  O   -0.000014   0.000002  -0.000001  -0.000001   0.000000   0.000000
     8  C   -0.012971  -0.004269  -0.000668  -0.000100   0.000016  -0.000081
     9  C    0.002843   0.003275   0.000242   0.000206  -0.000031   0.000072
    10  C   -0.003166   0.000073  -0.000226   0.000020   0.000008  -0.000020
    11  N    0.000051   0.000102   0.000002   0.000000   0.000000   0.000000
    12  C   -0.000015   0.000208   0.000004   0.000001   0.000000   0.000001
    13  N    0.000040   0.000022   0.000001   0.000000   0.000000   0.000000
    14  C    0.378511   0.370461  -0.123675  -0.055816   0.058655  -0.033968
    15  C    0.008834  -0.009717   0.472086   0.435872  -0.065478  -0.015867
    16  N   -0.009960   0.003879  -0.050598  -0.097741   0.355719   0.352585
    17  H    0.002837   0.000083   0.000002   0.000014   0.000000   0.000002
    18  H   -0.000016   0.000058  -0.000001   0.000002   0.000000   0.000000
    19  H   -0.000070   0.000006  -0.000021  -0.000054   0.000000   0.000000
    20  H    0.000000   0.000000   0.000000   0.000000   0.000000   0.000000
    21  H    0.000004   0.000001   0.000000   0.000000   0.000000   0.000000
    22  H    0.000000   0.000001   0.000000   0.000000   0.000000   0.000000
    23  H    0.000000   0.000000   0.000000   0.000000   0.000000   0.000000
    24  H    0.000000   0.000000   0.000000   0.000000   0.000000   0.000000
    25  H    0.589389  -0.029056   0.004973  -0.006726  -0.000028   0.004420
    26  H   -0.029056   0.495905  -0.005873   0.004864  -0.000003  -0.000391
    27  H    0.004973  -0.005873   0.533444  -0.039194  -0.004955   0.005487
    28  H   -0.006726   0.004864  -0.039194   0.634608  -0.000422  -0.005288
    29  H   -0.000028  -0.000003  -0.004955  -0.000422   0.427010  -0.041328
    30  H    0.004420  -0.000391   0.005487  -0.005288  -0.041328   0.446371
 Mulliken charges:
               1
     1  O   -0.522811
     2  C    0.247772
     3  N   -0.297734
     4  C    0.154500
     5  C    0.393381
     6  O   -0.435335
     7  O   -0.454214
     8  C   -1.255931
     9  C    0.689321
    10  C   -0.042156
    11  N   -0.273065
    12  C    0.204477
    13  N   -0.375902
    14  C   -0.177996
    15  C   -0.271849
    16  N   -0.604637
    17  H    0.311605
    18  H    0.190333
    19  H    0.397082
    20  H    0.205355
    21  H    0.150705
    22  H    0.127689
    23  H    0.136802
    24  H    0.302040
    25  H    0.125964
    26  H    0.203928
    27  H    0.171931
    28  H    0.134658
    29  H    0.290737
    30  H    0.273351
 Sum of Mulliken charges =   0.00000
 Mulliken charges with hydrogens summed into heavy atoms:
               1
     1  O   -0.522811
     2  C    0.247772
     3  N    0.013871
     4  C    0.344834
     5  C    0.393381
     6  O   -0.038253
     7  O   -0.454214
     8  C   -0.899871
     9  C    0.689321
    10  C    0.085533
    11  N   -0.273065
    12  C    0.341278
    13  N   -0.073862
    14  C    0.151896
    15  C    0.034740
    16  N   -0.040549
 APT charges:
               1
     1  O   -0.434023
     2  C    0.251591
     3  N   -0.315280
     4  C   -0.222774
     5  C   -0.283419
     6  O   -0.209667
     7  O    0.120688
     8  C   -1.659359
     9  C    0.138425
    10  C   -0.103383
    11  N   -0.553572
    12  C   -0.280131
    13  N   -0.684997
    14  C   -0.570056
    15  C   -0.676918
    16  N   -1.859797
    17  H    0.444977
    18  H    0.378776
    19  H    0.298327
    20  H    0.685921
    21  H    0.347774
    22  H    0.240610
    23  H    1.032867
    24  H    0.757847
    25  H    0.282390
    26  H    0.396951
    27  H    0.425826
    28  H    0.406258
    29  H    1.128716
    30  H    0.515432
 Sum of APT charges =   0.00000
 APT charges with hydrogens summed into heavy atoms:
               1
     1  O   -0.434023
     2  C    0.251591
     3  N    0.129697
     4  C    0.156003
     5  C   -0.283419
     6  O    0.088660
     7  O    0.120688
     8  C   -0.625664
     9  C    0.138425
    10  C    0.137227
    11  N   -0.553572
    12  C    0.752736
    13  N    0.072850
    14  C    0.109285
    15  C    0.155165
    16  N   -0.215649
 Electronic spatial extent (au):  <R**2>=           4815.6315
 Charge=              0.0000 electrons
 Dipole moment (field-independent basis, Debye):
    X=              3.0615    Y=              3.8507    Z=             -2.7312  Tot=              5.6267
 Quadrupole moment (field-independent basis, Debye-Ang):
   XX=            -91.5831   YY=           -117.0588   ZZ=            -93.3323
   XY=              4.3853   XZ=             10.3136   YZ=            -20.3867
 Traceless Quadrupole moment (field-independent basis, Debye-Ang):
   XX=              9.0750   YY=            -16.4007   ZZ=              7.3258
   XY=              4.3853   XZ=             10.3136   YZ=            -20.3867
 Octapole moment (field-independent basis, Debye-Ang**2):
  XXX=            202.2450  YYY=            114.5835  ZZZ=             13.4884  XYY=             24.0621
  XXY=            -10.9519  XXZ=             12.4677  XZZ=             13.2005  YZZ=             57.5079
  YYZ=             12.4032  XYZ=             14.7864
 Hexadecapole moment (field-independent basis, Debye-Ang**3):
 XXXX=          -2833.4095 YYYY=          -2097.7361 ZZZZ=          -1513.0179 XXXY=            458.6138
 XXXZ=           -581.7151 YYYX=            323.8902 YYYZ=           -254.1701 ZZZX=           -682.3397
 ZZZY=           -222.6121 XXYY=           -837.9678 XXZZ=           -619.4144 YYZZ=           -641.2627
 XXYZ=           -125.8767 YYXZ=           -222.6900 ZZXY=             -2.8786
 N-N= 1.109688605622D+03 E-N=-4.074167131274D+03  KE= 7.891030254732D+02
  Exact polarizability:   0.000   0.000   0.000   0.000   0.000   0.000
 Approx polarizability: 168.733 -11.542 202.592   0.532  -5.901 233.043
 Calling FoFJK, ICntrl=    100147 FMM=F ISym2X=0 I1Cent= 0 IOpClX= 0 NMat=1 NMatS=1 NMatT=0.
 -------------------------------------------------------------------
 Center     Atomic                   Forces (Hartrees/Bohr)
 Number     Number              X              Y              Z
 -------------------------------------------------------------------
      1        8          -0.002317317   -0.012313706    0.008628403
      2        6           0.003178914    0.011153285   -0.003245661
      3        7          -0.005038748   -0.005249429   -0.002019661
      4        6          -0.002632228    0.002807642   -0.004994608
      5        6           0.004105170    0.000800701    0.011344026
      6        8           0.000977366   -0.004664921   -0.001773379
      7        8          -0.002448590   -0.005064971   -0.015551688
      8        6          -0.005246501    0.001720458    0.001796756
      9        6           0.007388737   -0.004323522   -0.006627035
     10        6          -0.004627754    0.006086648    0.006593019
     11        7          -0.001584869   -0.001188799    0.003884866
     12        6          -0.003926878    0.004662163    0.002632466
     13        7           0.003377754   -0.003082345   -0.001954013
     14        6          -0.000756708   -0.000140692    0.000824558
     15        6           0.002540857    0.001572023    0.002186007
     16        7          -0.000792953   -0.001784868    0.000557341
     17        1           0.001752638    0.003831177   -0.002576092
     18        1          -0.001448059   -0.000647652    0.002898483
     19        1           0.000574697    0.001217112    0.006745683
     20        1          -0.000163590   -0.003551425   -0.000705182
     21        1           0.003431562    0.000552475   -0.004467941
     22        1           0.000403400   -0.000351092    0.000732771
     23        1          -0.001385201    0.003391431   -0.001062909
     24        1           0.000243030    0.000643845   -0.003510158
     25        1           0.001679887    0.002478519   -0.002261453
     26        1          -0.001324887    0.002285450    0.000865058
     27        1           0.000262217   -0.000572961    0.001270025
     28        1           0.000467301   -0.003058497   -0.001309464
     29        1           0.001467012   -0.000285755    0.003888896
     30        1           0.001843739    0.003077703   -0.002789114
 -------------------------------------------------------------------
 Cartesian Forces:  Max     0.015551688 RMS     0.004092913
 FormGI is forming the generalized inverse of G from B-inverse, IUseBI=4.
 GSVD:  received Info=                   1 from GESDD.

 GradGradGradGradGradGradGradGradGradGradGradGradGradGradGradGradGradGrad
 Berny optimization.
 Internal  Forces:  Max     0.016519778 RMS     0.003183617
 Search for a local minimum.
 Step number   1 out of a maximum of  160
 All quantities printed in internal units (Hartrees-Bohrs-Radians)
 Mixed Optimization -- RFO/linear search
 Second derivative matrix not updated -- analytic derivatives used.
 ITU=  0
     Eigenvalues ---    0.00016   0.00071   0.00223   0.00234   0.00272
     Eigenvalues ---    0.00309   0.00453   0.00528   0.00920   0.01109
     Eigenvalues ---    0.02010   0.02105   0.02520   0.03338   0.03375
     Eigenvalues ---    0.03783   0.03988   0.04102   0.04343   0.04367
     Eigenvalues ---    0.04620   0.04880   0.05133   0.05180   0.05351
     Eigenvalues ---    0.06105   0.06506   0.07074   0.07649   0.08293
     Eigenvalues ---    0.08322   0.10352   0.10800   0.11039   0.11833
     Eigenvalues ---    0.11947   0.12193   0.13599   0.15136   0.16191
     Eigenvalues ---    0.16724   0.17686   0.18631   0.19286   0.19910
     Eigenvalues ---    0.21134   0.21507   0.22484   0.23333   0.23606
     Eigenvalues ---    0.24191   0.24827   0.27140   0.29180   0.30467
     Eigenvalues ---    0.31476   0.32103   0.32836   0.33847   0.33994
     Eigenvalues ---    0.34212   0.34488   0.34569   0.34603   0.34761
     Eigenvalues ---    0.35355   0.36659   0.37779   0.38128   0.38411
     Eigenvalues ---    0.41611   0.42047   0.45139   0.45796   0.46240
     Eigenvalues ---    0.46857   0.48664   0.48934   0.48980   0.50598
     Eigenvalues ---    0.59054   0.61686   0.82430   0.93528
 RFO step:  Lambda=-4.69174847D-03 EMin= 1.64970629D-04
 Linear search not attempted -- first point.
 Iteration  1 RMS(Cart)=  0.10709676 RMS(Int)=  0.00429182
 Iteration  2 RMS(Cart)=  0.00684836 RMS(Int)=  0.00010250
 Iteration  3 RMS(Cart)=  0.00002801 RMS(Int)=  0.00010175
 Iteration  4 RMS(Cart)=  0.00000000 RMS(Int)=  0.00010175
 Variable       Old X    -DE/DX   Delta X   Delta X   Delta X     New X
                                 (Linear)    (Quad)   (Total)
    R1        2.32689   0.01496   0.00000   0.02045   0.02045   2.34735
    R2        2.55249   0.01002   0.00000   0.01166   0.01166   2.56415
    R3        2.84691   0.00699   0.00000   0.01596   0.01596   2.86287
    R4        2.76559   0.00411   0.00000   0.01041   0.01041   2.77600
    R5        1.89852   0.00492   0.00000   0.01093   0.01093   1.90945
    R6        2.90505   0.00772   0.00000   0.02560   0.02560   2.93065
    R7        2.88017   0.00514   0.00000   0.01216   0.01216   2.89233
    R8        2.06327   0.00324   0.00000   0.01143   0.01143   2.07471
    R9        2.52649   0.00609   0.00000  -0.00134  -0.00134   2.52515
   R10        2.26968   0.01652   0.00000   0.01862   0.01862   2.28830
   R11        1.85437   0.00642   0.00000   0.02087   0.02087   1.87525
   R12        2.82850   0.00493   0.00000   0.00741   0.00741   2.83592
   R13        2.06160   0.00273   0.00000   0.00817   0.00817   2.06977
   R14        2.05991   0.00555   0.00000   0.01551   0.01551   2.07543
   R15        2.58110   0.01096   0.00000   0.02211   0.02212   2.60322
   R16        2.60947   0.00461   0.00000   0.00855   0.00859   2.61806
   R17        2.61455   0.00026   0.00000  -0.00677  -0.00681   2.60774
   R18        2.04034   0.00081   0.00000   0.00254   0.00254   2.04288
   R19        2.47828   0.00304   0.00000   0.00517   0.00515   2.48342
   R20        2.56878   0.01007   0.00000   0.01938   0.01940   2.58818
   R21        2.03357   0.00378   0.00000   0.00912   0.00912   2.04270
   R22        1.90088   0.00348   0.00000   0.00739   0.00739   1.90827
   R23        2.87562   0.00674   0.00000   0.02052   0.02052   2.89615
   R24        2.06367   0.00358   0.00000   0.01017   0.01017   2.07384
   R25        2.06603   0.00270   0.00000   0.00779   0.00779   2.07382
   R26        2.77105   0.00279   0.00000  -0.00094  -0.00094   2.77011
   R27        2.06184   0.00114   0.00000   0.00328   0.00328   2.06512
   R28        2.07378   0.00312   0.00000   0.00938   0.00938   2.08316
   R29        1.91429   0.00363   0.00000   0.00545   0.00545   1.91973
   R30        1.91548   0.00414   0.00000   0.00675   0.00675   1.92223
    A1        2.10901  -0.00027   0.00000  -0.00074  -0.00074   2.10827
    A2        2.14302  -0.00210   0.00000  -0.01123  -0.01123   2.13178
    A3        2.03098   0.00239   0.00000   0.01206   0.01206   2.04304
    A4        2.12095   0.00556   0.00000   0.02243   0.02220   2.14315
    A5        2.09200  -0.00291   0.00000  -0.01730  -0.01752   2.07448
    A6        2.06136  -0.00265   0.00000  -0.01026  -0.01050   2.05086
    A7        1.93840   0.00047   0.00000   0.00502   0.00502   1.94341
    A8        1.93120  -0.00113   0.00000   0.00046   0.00045   1.93164
    A9        1.87267  -0.00022   0.00000  -0.00599  -0.00598   1.86669
   A10        1.93336   0.00139   0.00000   0.00155   0.00154   1.93489
   A11        1.86974  -0.00079   0.00000  -0.00490  -0.00489   1.86485
   A12        1.91642   0.00024   0.00000   0.00348   0.00349   1.91991
   A13        1.99609   0.00269   0.00000   0.01029   0.01027   2.00636
   A14        2.15758  -0.00221   0.00000  -0.01518  -0.01520   2.14238
   A15        2.12950  -0.00048   0.00000   0.00484   0.00482   2.13432
   A16        1.91934   0.00433   0.00000   0.01297   0.01297   1.93232
   A17        1.97644   0.00108   0.00000   0.00643   0.00646   1.98290
   A18        1.89597  -0.00269   0.00000  -0.02421  -0.02427   1.87170
   A19        1.90135   0.00031   0.00000  -0.00236  -0.00243   1.89892
   A20        1.92284   0.00210   0.00000   0.02000   0.02005   1.94289
   A21        1.92290  -0.00083   0.00000   0.00415   0.00414   1.92704
   A22        1.83903  -0.00009   0.00000  -0.00540  -0.00560   1.83343
   A23        2.33762   0.00044   0.00000  -0.00040  -0.00048   2.33714
   A24        2.11454   0.00291   0.00000   0.01071   0.01063   2.12517
   A25        1.83096  -0.00335   0.00000  -0.01048  -0.01045   1.82051
   A26        1.93095   0.00271   0.00000   0.00876   0.00876   1.93971
   A27        2.24409  -0.00151   0.00000  -0.00989  -0.00989   2.23420
   A28        2.10814  -0.00120   0.00000   0.00113   0.00113   2.10927
   A29        1.83770   0.00042   0.00000   0.00124   0.00119   1.83889
   A30        1.94768  -0.00022   0.00000  -0.00212  -0.00210   1.94558
   A31        2.20021  -0.00042   0.00000   0.00005   0.00003   2.20024
   A32        2.13529   0.00064   0.00000   0.00208   0.00207   2.13736
   A33        1.87746   0.00044   0.00000   0.00264   0.00260   1.88005
   A34        2.19363   0.00044   0.00000   0.00612   0.00594   2.19957
   A35        2.21207  -0.00088   0.00000  -0.00858  -0.00875   2.20332
   A36        1.95848   0.00142   0.00000   0.00569   0.00567   1.96415
   A37        1.91696   0.00033   0.00000   0.00830   0.00828   1.92524
   A38        1.88808  -0.00079   0.00000  -0.00665  -0.00664   1.88144
   A39        1.93139  -0.00080   0.00000  -0.00135  -0.00140   1.92999
   A40        1.89544   0.00001   0.00000   0.00157   0.00158   1.89702
   A41        1.87074  -0.00025   0.00000  -0.00848  -0.00847   1.86227
   A42        1.90536   0.00182   0.00000   0.00768   0.00765   1.91301
   A43        1.89372   0.00003   0.00000  -0.00098  -0.00097   1.89275
   A44        1.91173  -0.00088   0.00000  -0.00405  -0.00414   1.90759
   A45        1.90259  -0.00137   0.00000  -0.00979  -0.00976   1.89283
   A46        1.97626   0.00046   0.00000   0.01269   0.01268   1.98895
   A47        1.87238  -0.00012   0.00000  -0.00635  -0.00633   1.86605
   A48        1.91889   0.00124   0.00000   0.01465   0.01427   1.93316
   A49        1.91673   0.00232   0.00000   0.02543   0.02505   1.94178
   A50        1.84682  -0.00004   0.00000   0.01993   0.01920   1.86603
    D1        0.13135   0.00208   0.00000   0.05790   0.05785   0.18920
    D2        3.12748   0.00192   0.00000   0.01522   0.01529  -3.14042
    D3       -2.99099   0.00119   0.00000   0.05259   0.05252  -2.93847
    D4        0.00514   0.00103   0.00000   0.00991   0.00996   0.01510
    D5        0.65326  -0.00040   0.00000  -0.00095  -0.00097   0.65229
    D6        2.80934  -0.00019   0.00000   0.00736   0.00740   2.81673
    D7       -1.43736  -0.00076   0.00000  -0.00201  -0.00200  -1.43937
    D8       -2.50800   0.00053   0.00000   0.00460   0.00457  -2.50343
    D9       -0.35193   0.00075   0.00000   0.01292   0.01294  -0.33899
   D10        1.68456   0.00017   0.00000   0.00354   0.00354   1.68809
   D11       -1.42733   0.00146   0.00000   0.05059   0.05057  -1.37676
   D12        2.70115   0.00014   0.00000   0.04473   0.04471   2.74586
   D13        0.61075   0.00063   0.00000   0.04391   0.04388   0.65463
   D14        1.85726   0.00165   0.00000   0.09318   0.09321   1.95046
   D15       -0.29744   0.00033   0.00000   0.08732   0.08734  -0.21010
   D16       -2.38785   0.00082   0.00000   0.08649   0.08652  -2.30133
   D17        1.04825   0.00088   0.00000   0.01026   0.01023   1.05848
   D18       -2.09900   0.00028   0.00000  -0.00037  -0.00036  -2.09936
   D19       -3.08148   0.00075   0.00000   0.01550   0.01549  -3.06599
   D20        0.05447   0.00016   0.00000   0.00487   0.00490   0.05936
   D21       -0.99163   0.00136   0.00000   0.01761   0.01759  -0.97403
   D22        2.14432   0.00076   0.00000   0.00698   0.00700   2.15131
   D23       -1.23396   0.00170   0.00000   0.08877   0.08875  -1.14522
   D24        2.90702   0.00023   0.00000   0.07639   0.07646   2.98348
   D25        0.91225   0.00160   0.00000   0.09680   0.09675   1.00900
   D26        2.89162   0.00091   0.00000   0.08092   0.08090   2.97252
   D27        0.74942  -0.00056   0.00000   0.06855   0.06862   0.81803
   D28       -1.24535   0.00081   0.00000   0.08896   0.08891  -1.15645
   D29        0.82997   0.00089   0.00000   0.08384   0.08382   0.91379
   D30       -1.31223  -0.00058   0.00000   0.07147   0.07153  -1.24070
   D31        2.97618   0.00079   0.00000   0.09188   0.09183   3.06801
   D32        0.01010   0.00038   0.00000  -0.04311  -0.04316  -0.03306
   D33       -3.12594   0.00097   0.00000  -0.03260  -0.03255   3.12470
   D34       -0.47110   0.00082   0.00000   0.06069   0.06063  -0.41047
   D35        2.68427   0.00110   0.00000   0.08077   0.08080   2.76507
   D36        1.65614  -0.00036   0.00000   0.04854   0.04850   1.70464
   D37       -1.47168  -0.00009   0.00000   0.06862   0.06867  -1.40301
   D38       -2.60535   0.00028   0.00000   0.05613   0.05609  -2.54926
   D39        0.55002   0.00055   0.00000   0.07621   0.07627   0.62628
   D40       -3.13537   0.00072   0.00000   0.02515   0.02513  -3.11024
   D41        0.00835   0.00039   0.00000   0.02586   0.02581   0.03416
   D42       -0.00598   0.00051   0.00000   0.00748   0.00754   0.00156
   D43        3.13774   0.00018   0.00000   0.00820   0.00822  -3.13722
   D44        3.13558  -0.00067   0.00000  -0.02344  -0.02347   3.11211
   D45       -0.01287  -0.00007   0.00000   0.00549   0.00562  -0.00725
   D46        0.00425  -0.00048   0.00000  -0.00850  -0.00850  -0.00425
   D47        3.13898   0.00011   0.00000   0.02043   0.02060  -3.12360
   D48        0.00540  -0.00035   0.00000  -0.00352  -0.00358   0.00182
   D49       -3.13813  -0.00005   0.00000  -0.00418  -0.00422   3.14084
   D50       -0.00257   0.00005   0.00000  -0.00208  -0.00205  -0.00463
   D51        3.13619   0.00004   0.00000   0.00166   0.00175   3.13794
   D52       -0.00106   0.00026   0.00000   0.00679   0.00683   0.00577
   D53       -3.13570  -0.00034   0.00000  -0.02261  -0.02242   3.12506
   D54       -3.13995   0.00027   0.00000   0.00322   0.00319  -3.13676
   D55        0.00859  -0.00033   0.00000  -0.02618  -0.02606  -0.01746
   D56       -3.09075   0.00099   0.00000   0.02288   0.02287  -3.06787
   D57       -1.01931   0.00040   0.00000   0.01493   0.01492  -1.00439
   D58        1.01946  -0.00021   0.00000   0.00454   0.00455   1.02401
   D59        1.04446   0.00013   0.00000   0.00904   0.00904   1.05350
   D60        3.11590  -0.00045   0.00000   0.00109   0.00108   3.11698
   D61       -1.12852  -0.00107   0.00000  -0.00931  -0.00929  -1.13781
   D62       -1.00442   0.00089   0.00000   0.01917   0.01916  -0.98526
   D63        1.06702   0.00030   0.00000   0.01121   0.01121   1.07823
   D64        3.10579  -0.00031   0.00000   0.00082   0.00083   3.10662
   D65        3.02936  -0.00124   0.00000  -0.05286  -0.05310   2.97626
   D66       -1.22858   0.00078   0.00000  -0.00550  -0.00536  -1.23394
   D67        0.96346  -0.00153   0.00000  -0.05044  -0.05064   0.91282
   D68        2.98871   0.00049   0.00000  -0.00308  -0.00290   2.98581
   D69       -1.11917  -0.00073   0.00000  -0.04380  -0.04394  -1.16311
   D70        0.90608   0.00129   0.00000   0.00355   0.00380   0.90988
         Item               Value     Threshold  Converged?
 Maximum Force            0.016520     0.000450     NO 
 RMS     Force            0.003184     0.000300     NO 
 Maximum Displacement     0.456112     0.001800     NO 
 RMS     Displacement     0.109361     0.001200     NO 
 Predicted change in Energy=-2.703635D-03
 GradGradGradGradGradGradGradGradGradGradGradGradGradGradGradGradGradGrad

                          Input orientation:                          
 ---------------------------------------------------------------------
 Center     Atomic      Atomic             Coordinates (Angstroms)
 Number     Number       Type             X           Y           Z
 ---------------------------------------------------------------------
      1          8           0        0.597948   -1.590978    1.674638
      2          6           0        0.888153   -0.605420    0.976483
      3          7           0        0.335956   -0.437141   -0.251487
      4          6           0       -0.787156   -1.250063   -0.737006
      5          6           0       -0.307690   -2.642670   -1.222643
      6          8           0        0.285857   -3.391818   -0.288808
      7          8           0       -0.472205   -3.033236   -2.356977
      8          6           0       -1.544878   -0.517040   -1.846572
      9          6           0       -2.233517    0.732115   -1.380208
     10          6           0       -2.687903    1.172514   -0.156581
     11          7           0       -3.298807    2.404963   -0.266787
     12          6           0       -3.223695    2.718048   -1.540907
     13          7           0       -2.584714    1.743109   -2.259945
     14          6           0        1.848526    0.465057    1.452804
     15          6           0        3.014741   -0.110631    2.263551
     16          7           0        3.845199    0.983386    2.775670
     17          1           0        0.593595    0.374787   -0.794974
     18          1           0       -1.451095   -1.423179    0.120067
     19          1           0        0.344355   -2.899787    0.570969
     20          1           0       -2.258257   -1.228046   -2.276913
     21          1           0       -0.844845   -0.287211   -2.661021
     22          1           0       -2.609737    0.676110    0.800570
     23          1           0       -3.604999    3.620322   -1.998027
     24          1           0       -2.417427    1.748556   -3.255790
     25          1           0        2.221458    1.048392    0.601340
     26          1           0        1.286885    1.160324    2.089587
     27          1           0        2.605854   -0.661786    3.114010
     28          1           0        3.564804   -0.838126    1.644370
     29          1           0        4.529686    0.635047    3.440611
     30          1           0        4.363873    1.434703    2.026012
 ---------------------------------------------------------------------
                    Distance matrix (angstroms):
                    1          2          3          4          5
     1  O    0.000000
     2  C    1.242162   0.000000
     3  N    2.260517   1.356889   0.000000
     4  C    2.801921   2.481586   1.468997   0.000000
     5  C    3.212549   3.227473   2.494350   1.550834   0.000000
     6  O    2.682451   3.118932   2.955337   2.437079   1.336252
     7  O    4.413531   4.342444   3.438884   2.429652   1.210917
     8  C    4.259573   3.727880   2.467431   1.530556   2.537365
     9  C    4.769281   4.133741   3.040290   2.536671   3.888805
    10  C    4.667662   4.151272   3.426912   3.133467   4.621421
    11  N    5.909432   5.304598   4.614033   4.459676   5.944665
    12  C    6.596392   5.855765   4.928381   4.725345   6.110783
    13  N    6.060232   5.296306   4.161455   3.809152   5.049345
    14  C    2.416700   1.514965   2.450804   3.831935   4.633061
    15  C    2.894674   2.534509   3.688891   4.975547   5.440893
    16  N    4.287687   3.808608   4.847304   6.227833   6.810380
    17  H    3.156459   2.045881   1.010437   2.133067   3.178091
    18  H    2.577484   2.621881   2.074579   1.097888   2.144156
    19  H    1.730714   2.392546   2.596368   2.390126   1.925700
    20  H    4.889210   4.568604   3.384941   2.129774   2.630087
    21  H    4.751778   4.041778   2.687494   2.152266   2.811699
    22  H    4.024044   3.729410   3.320130   3.065303   4.517424
    23  H    7.636156   6.847847   5.919842   5.766373   7.120290
    24  H    6.674885   5.863462   4.624308   4.241907   5.278971
    25  H    3.279333   2.157203   2.547398   4.015697   4.831919
    26  H    2.866441   2.125050   2.989446   4.254555   5.289263
    27  H    2.639485   2.742754   4.065646   5.166132   5.587415
    28  H    3.061036   2.768517   3.765703   4.977972   5.145129
    29  H    4.851023   4.568528   5.689336   7.019611   7.475933
    30  H    4.843594   4.164642   4.991484   6.432366   7.000159
                    6          7          8          9         10
     6  O    0.000000
     7  O    2.231718   0.000000
     8  C    3.747341   2.782514   0.000000
     9  C    4.954313   4.270148   1.500702   0.000000
    10  C    5.449207   5.238263   2.648994   1.377564   0.000000
    11  N    6.815642   6.475537   3.756340   2.274417   1.379956
    12  C    7.156477   6.427591   3.657547   2.224906   2.142920
    13  N    6.204275   5.223559   2.521985   1.385419   2.181827
    14  C    4.511168   5.669064   4.833797   4.975978   4.865163
    15  C    4.972679   6.484574   6.152106   6.444487   6.326425
    16  N    6.418906   7.817755   7.257364   7.367852   7.163469
    17  H    3.812902   3.897487   2.544461   2.909080   3.436881
    18  H    2.657013   3.112275   2.167384   2.740128   2.888573
    19  H    0.992337   3.042606   3.884738   4.862430   5.129089
    20  H    3.886771   2.540689   1.095277   2.155672   3.231577
    21  H    4.067489   2.787823   1.098269   2.146606   3.435095
    22  H    5.110700   5.319624   3.092716   2.213701   1.081048
    23  H    8.199408   7.362952   4.624370   3.256440   3.197459
    24  H    6.521822   5.239970   2.807163   2.141210   3.163870
    25  H    4.924873   5.715518   4.756904   4.886038   4.969072
    26  H    5.232668   6.360210   5.130865   4.961459   4.565563
    27  H    4.941117   6.710435   6.469691   6.749850   6.487318
    28  H    4.583668   6.093171   6.196662   6.725641   6.810466
    29  H    6.937889   8.490421   8.135228   8.306060   8.082219
    30  H    6.729332   7.909534   7.329362   7.457983   7.386474
                   11         12         13         14         15
    11  N    0.000000
    12  C    1.314171   0.000000
    13  N    2.218256   1.369605   0.000000
    14  C    5.763269   6.306005   5.922123   0.000000
    15  C    7.252015   7.835395   7.433187   1.532575   0.000000
    16  N    7.893938   8.462337   8.202340   2.450579   1.465878
    17  H    4.421696   4.540814   3.757672   2.575948   3.930923
    18  H    4.268298   4.801115   4.120064   4.028539   5.124548
    19  H    6.489595   6.982196   6.176569   3.789768   4.216063
    20  H    4.280432   4.128611   2.989084   5.800264   7.047619
    21  H    4.359138   3.993139   2.703739   4.974305   6.259313
    22  H    2.145460   3.166854   3.241275   4.510662   5.864643
    23  H    2.137297   1.080948   2.152559   7.183653   8.712176
    24  H    3.184625   2.128568   1.009812   6.482020   7.964179
    25  H    5.750414   6.084954   5.636389   1.097428   2.176138
    26  H    5.303791   5.996026   5.852124   1.097419   2.151994
    27  H    7.463228   8.189944   7.848880   2.145443   1.092813
    28  H    7.828110   8.299161   7.728067   2.163468   1.102362
    29  H    8.840968   9.448245   9.183618   3.341989   2.058292
    30  H    8.056984   8.481808   8.169908   2.756038   2.065100
                   16         17         18         19         20
    16  N    0.000000
    17  H    4.867527   0.000000
    18  H    6.394881   2.872410   0.000000
    19  H    5.674120   3.556790   2.367979   0.000000
    20  H    8.226251   3.591418   2.536750   4.204609   0.000000
    21  H    7.291676   2.447342   3.064704   4.322674   1.740817
    22  H    6.757340   3.591364   2.492499   4.643966   3.635966
    23  H    9.232933   5.441417   5.878990   8.044187   5.039659
    24  H    8.728372   4.124210   4.731819   6.624093   3.137466
    25  H    2.714493   2.247971   4.452856   4.371790   5.790886
    26  H    2.654616   3.068943   4.248533   4.436109   6.110537
    27  H    2.087352   4.517060   5.099240   4.073093   7.283013
    28  H    2.162490   4.031084   5.274943   3.971640   7.031112
    29  H    1.015878   5.787981   7.143672   6.184407   9.068482
    30  H    1.017201   4.826632   6.753811   6.087814   8.334146
                   21         22         23         24         25
    21  H    0.000000
    22  H    4.003179   0.000000
    23  H    4.829785   4.182232   0.000000
    24  H    2.640286   4.200140   2.548686   0.000000
    25  H    4.672157   4.849612   6.878890   6.073461   0.000000
    26  H    5.404434   4.132759   6.833059   6.530007   1.760919
    27  H    6.737849   5.860407   9.112852   8.462709   3.063655
    28  H    6.187479   6.413257   9.195155   8.154114   2.539968
    29  H    8.183279   7.612022  10.230530   9.713087   3.682422
    30  H    7.215539   7.120984   9.190904   8.601276   2.601704
                   26         27         28         29         30
    26  H    0.000000
    27  H    2.471681   0.000000
    28  H    3.062831   1.763667   0.000000
    29  H    3.552033   2.342984   2.515496   0.000000
    30  H    3.089851   2.944425   2.439244   1.633412   0.000000
 Symmetry turned off by external request.
 Stoichiometry    C9H14N4O3
[...]
 00005461,0.00001954,-0.00001037,0.00001496,-0.00001596,-0.00002275,-0.
 00001885,-0.00004380,0.00007907,0.00003064,-0.00007930,0.00010302,-0.0
 0011963,0.00004400,0.00005995,0.00011922,-0.00002456,-0.00082907,0.000
 12979,0.00064334,-0.00008388,-0.00011816,0.00034250,0.00124950,0.00077
 409,-0.00023406,-0.00054250,0.00066021,-0.01955413,0.05199466,0.000035
 73,-0.00011317,0.00012502,-0.00010642,0.00009857,-0.00028629,0.0001857
 5,-0.00009175,0.00019707,-0.00005172,-0.00013931,-0.00024617,-0.000048
 72,0.00028359,0.00024314,0.00008183,-0.00017637,-0.00000665,0.00005171
 ,-0.00015915,-0.00015556,0.00004275,-0.00018726,0.00078073,0.00373386,
 -0.00713025,-0.00843537,-0.00083224,0.00119619,-0.00147686,0.00050615,
 -0.00155570,0.00030313,-0.00251540,0.00462941,-0.00615000,-0.00337257,
 -0.03951803,-0.45532511,0.00002175,-0.00000236,0.00002711,-0.00005825,
 0.00000834,-0.00002157,0.00003827,0.00001015,0.00002655,-0.00009903,0.
 00004488,-0.00002219,0.00002413,-0.00000737,0.00001942,-0.00002601,0.0
 0004930,-0.00001558,-0.00011973,0.00021874,0.00013900,-0.00009336,0.00
 038395,0.00016761,0.00007943,-0.00038012,-0.00010159,0.00016426,-0.000
 09258,0.00017983,0.00235465,0.04263348,0.47004256,-0.00135509,-0.00566
 403,-0.00282123,-0.00433741,-0.00723065,0.01941539,0.00018706,0.000330
 92,-0.00130266,0.00013143,0.00023851,0.00019078,0.00042586,-0.00039383
 ,0.00054189,-0.00033379,-0.00011228,-0.00094557,-0.00014108,0.00007118
 ,-0.00030920,0.00004904,0.00000469,0.00000676,0.00004110,-0.00002441,-
 0.00008887,0.00006617,0.00001001,0.00007995,0.00001168,0.00007791,-0.0
 0001245,-0.00002479,0.00001849,-0.00001962,0.00000183,0.00001902,0.000
 02286,-0.07004959,-0.04470845,0.05027985,0.00779421,0.01751880,-0.0222
 2994,0.00194243,0.00050602,0.00129788,-0.00097586,-0.00080421,-0.00126
 091,0.00005845,0.00001722,0.00005252,0.00017408,0.00078890,0.00101518,
 0.00001253,-0.00000110,0.00001284,-0.00002297,-0.00000384,-0.00002526,
 -0.00002161,-0.00004858,0.00002072,-0.00000822,-0.00000082,-0.00000005
 ,-0.00001235,-0.00001517,-0.00000879,0.07469594,-0.00437515,-0.0045802
 6,-0.00290118,-0.00332303,-0.01454921,0.02179825,0.00181155,0.00096166
 ,-0.00057255,0.00003196,0.00003055,-0.00038517,0.00035435,-0.00045421,
 0.00053982,-0.00021480,-0.00006573,-0.00089205,-0.00010610,0.00009145,
 -0.00028113,0.00001111,0.00003747,0.00001881,0.00001230,0.00002637,0.0
 0001017,0.00001170,0.00001721,0.00001419,0.00000490,-0.00001693,-0.000
 01583,-0.00000474,-0.00000207,0.00001864,0.00000808,0.00000693,-0.0000
 2502,-0.04520790,-0.14143232,0.11371950,-0.00373446,-0.00778241,0.0094
 4273,0.00010420,0.00081681,-0.00113471,-0.00140993,0.00051867,-0.00072
 366,0.00019357,0.00011430,0.00010065,-0.00002287,0.00065869,0.00095573
 ,0.00002617,-0.00001990,0.00000896,-0.00002008,-0.00001209,-0.00003764
 ,-0.00000538,-0.00000638,0.00000171,-0.00000045,-0.00000039,0.00000033
 ,-0.00001280,-0.00000034,-0.00000218,0.04909800,0.15397628,-0.00146042
 ,-0.00346796,0.00043260,-0.00424769,-0.00763468,0.00789312,-0.00049855
 ,-0.00070802,-0.00024960,0.00025179,0.00003905,0.00065466,-0.00000274,
 0.00000695,-0.00011306,0.00005735,-0.00004165,-0.00006088,0.00000823,0
 .00000814,0.00007515,0.00005784,0.00011037,0.00001109,-0.00002375,0.00
 002384,0.00005435,-0.00006154,0.00000386,-0.00005691,-0.00001214,-0.00
 006086,0.00001128,0.00001584,-0.00001480,0.00001444,-0.00000565,-0.000
 00583,-0.00001548,0.05374185,0.11738136,-0.18982382,0.00446929,0.00952
 833,-0.01215917,0.00055381,-0.00066730,0.00122863,-0.00035366,-0.00056
 764,0.00018917,-0.00007962,-0.00009137,0.00000987,-0.00007130,0.000047
 29,0.00015691,0.00001925,-0.00002771,0.00002714,0.00000405,-0.00000239
 ,0.00000609,0.00001684,0.00002245,-0.00001728,0.00000795,0.00000073,0.
 00000032,0.00000944,0.00001210,0.00000355,-0.05370198,-0.12773004,0.20
 640197,-0.00168272,0.00036729,0.00133734,0.01319038,-0.01142030,-0.015
 00515,-0.00205993,-0.00049535,-0.00041679,-0.00081115,0.00077301,0.000
 32481,0.00003682,0.00037085,0.00024912,0.00003415,-0.00007428,0.000068
 33,-0.00000316,-0.00009390,-0.00014094,-0.00018053,-0.00023433,-0.0000
 0066,0.00005551,-0.00011831,-0.00009722,0.00003296,0.00008222,-0.00010
 205,-0.00000585,0.00005162,0.00004373,-0.00001663,0.00002279,0.0000161
 7,0.00000838,-0.00002238,0.00012786,-0.11243272,0.06876359,0.09010064,
 -0.01741226,0.01715413,0.01753861,0.00276506,-0.00101145,0.00100404,0.
 00009555,-0.00026707,-0.00040594,-0.00015593,-0.00010601,-0.00014007,-
 0.00003428,0.00008232,-0.00005061,-0.00004644,0.00008216,-0.00008420,0
 .00001379,0.00002694,0.00000141,-0.00009019,-0.00007116,-0.00001690,-0
 .00000287,0.00000171,0.00001007,0.00000377,-0.00002027,0.00000292,-0.0
 0476054,0.00480412,0.00597596,0.12560042,-0.00303648,0.00103577,0.0019
 7849,0.01328658,-0.01405580,-0.01695592,-0.00118905,-0.00049017,0.0007
 3494,-0.00046527,0.00027899,-0.00022459,0.00002245,0.00021444,0.000070
 55,0.00004757,0.00004884,0.00019522,-0.00000046,-0.00003473,-0.0000142
 5,-0.00014308,-0.00012263,0.00001621,0.00001713,-0.00004977,-0.0000220
 9,-0.00003488,0.00006465,-0.00010800,-0.00001056,-0.00002333,0.0000286
 7,0.00000126,-0.00000703,0.00002606,0.00000626,0.00000404,0.00004280,0
 .07257705,-0.12227463,-0.09497962,0.00992247,-0.00871637,-0.00800311,-
 0.00171526,0.00097435,0.00009316,-0.00021746,-0.00004387,-0.00011660,-
 0.00000657,-0.00000503,-0.00012136,-0.00007621,-0.00014443,-0.00016136
 ,-0.00002412,0.00004245,-0.00004470,0.00000370,0.00000685,-0.00000571,
 -0.00004672,0.00000643,-0.00000861,0.00000174,0.00000130,0.00000683,0.
 00000369,-0.00000648,0.00000153,-0.01033715,0.01154096,0.01397867,-0.0
 8001035,0.13198548,0.00001366,0.00154495,0.00040689,0.00455240,-0.0065
 8570,-0.00953095,-0.00184984,-0.00093103,0.00032499,-0.00059862,0.0003
 2365,0.00029158,-0.00001421,0.00029958,-0.00003853,0.00009560,0.000009
 55,0.00020978,-0.00000256,-0.00004164,0.00002331,-0.00006163,-0.000151
 17,-0.00001169,0.00003323,-0.00010031,-0.00015627,0.00007193,0.0000971
 6,-0.00009138,0.00002433,0.00009083,0.00005603,-0.00001327,0.00001266,
 -0.00000615,0.00000704,-0.00002489,0.00016634,0.09389180,-0.09416493,-
 0.16055984,-0.00978787,0.00900317,0.01002348,0.00100742,0.00049244,0.0
 0046983,0.00079103,-0.00046116,-0.00042925,-0.00016419,-0.00012447,-0.
 00015966,-0.00012425,-0.00017513,-0.00021237,-0.00003915,0.00006128,-0
 .00003207,-0.00000282,0.00002334,0.00001512,-0.00013499,-0.00009523,0.
 00003709,-0.00000460,-0.00000086,0.00001171,0.00000417,-0.00001998,-0.
 00000958,0.01159448,-0.01257811,-0.01542708,-0.09674583,0.10247938,0.1
 7415813,-0.00081017,-0.00069129,0.00083224,0.00090133,0.00111476,-0.00
 158110,0.00009706,-0.00041967,0.00065305,-0.00002168,-0.00012749,0.000
 00727,-0.00011206,0.00005799,-0.00014544,0.00006184,0.00007024,0.00022
 221,0.00003100,-0.00000410,0.00007615,0.00000461,0.00002129,-0.0000002
 1,-0.00001172,0.00000873,0.00001826,-0.00001660,0.00000207,-0.00002558
 ,-0.00000123,-0.00002291,0.00000956,0.00000802,-0.00000887,0.00000309,
 -0.00000088,-0.00000656,0.00000277,0.00730563,0.01747181,-0.02174381,-
 0.07312909,-0.04625339,0.06252413,-0.00822604,-0.01533933,0.01240972,0
 .00031938,0.00017733,0.00031002,-0.00002506,-0.00001741,-0.00001501,-0
 .00000595,-0.00024804,-0.00022160,0.00000239,-0.00000462,0.00000340,0.
 00000433,0.00000119,0.00000877,0.00000706,0.00001295,-0.00000567,0.000
 00255,-0.00000023,0.00000043,0.00000425,0.00000497,0.00000056,-0.00470
 456,0.00190907,-0.00335326,0.00153695,-0.00012232,0.00043080,0.0827341
 5,-0.00064283,-0.00012846,-0.00118021,-0.00054902,-0.00059425,-0.00017
 319,0.00004697,-0.00004393,0.00039063,-0.00006873,0.00000665,-0.000012
 23,0.00001801,0.00000263,-0.00005434,0.00001350,-0.00002456,0.00004112
 ,-0.00000337,0.00001108,0.00004512,0.00000356,0.00000309,-0.00000743,0
 .00000279,0.00000828,0.00000025,0.00000755,-0.00000164,0.00001698,0.00
 000532,0.00000256,-0.00000996,-0.00000017,-0.00000306,0.00000489,0.000
 00312,-0.00000023,-0.00001429,-0.00135132,-0.00737637,0.01088617,-0.04
 594054,-0.14042140,0.11330604,-0.01048420,-0.01956210,0.01773514,0.000
 01436,0.00006910,-0.00006354,0.00000886,0.00001387,-0.00001355,-0.0000
 4282,0.00002657,-0.00005242,0.00000414,-0.00000212,0.00000265,0.,-0.00
 000265,-0.00000476,-0.00000354,0.00000093,0.00000887,-0.00000172,-0.00
 000064,-0.00000053,-0.00000337,-0.00000032,-0.00000186,0.00167679,-0.0
 0033432,0.00073056,-0.00050992,0.00019847,0.00003084,0.05515360,0.1586
 4599,0.00090906,-0.00158585,0.00190772,0.00096159,0.00339877,-0.001991
 75,-0.00013004,-0.00046844,0.00069399,0.00002853,-0.00009164,-0.000053
 44,-0.00014130,0.00014771,-0.00026990,0.00010406,-0.00001915,0.0003002
 5,0.00003853,-0.00002591,0.00013328,-0.00001899,-0.00000039,-0.0000025
 3,-0.00001310,0.00001235,0.00002102,-0.00001560,-0.00000502,-0.0000078
 6,-0.00000414,-0.00001972,0.00000004,0.00000809,-0.00000986,0.00000606
 ,-0.00000223,-0.00000664,-0.00001114,0.00291137,0.00838503,-0.01245594
 ,0.06376480,0.12031527,-0.20283412,-0.00629393,-0.01224720,0.01307172,
 0.00015479,-0.00002392,0.00023139,-0.00003785,-0.00000658,-0.00001844,
 -0.00006605,-0.00019441,-0.00027155,-0.00000376,-0.00000069,-0.0000016
 5,0.00001203,-0.00000373,0.00001533,0.00001127,0.00001737,-0.00000136,
 0.00000319,0.00000020,-0.00000054,0.00000640,0.00000630,0.00000053,-0.
 00302702,0.00066359,-0.00008000,-0.00003835,-0.00044129,0.00112033,-0.
 06334081,-0.12595591,0.21420505,0.00022514,-0.00164032,-0.00003324,0.0
 0077733,0.00334180,0.00109292,-0.00018186,-0.00062098,-0.00077325,0.00
 001992,0.00006334,0.00002093,-0.00026796,0.00027985,-0.00012017,0.0002
 5736,-0.00018777,0.00002360,0.00008579,-0.00008777,0.00000341,-0.00004
 688,-0.00003615,0.00000485,-0.00000768,0.00001439,0.00005775,-0.000016
 15,-0.00004311,0.00004046,-0.00001520,-0.00002202,-0.00003093,0.000002
 60,0.00000484,0.00000413,-0.00000379,0.00000779,-0.00006772,-0.0173858
 9,0.01333050,0.01631344,-0.12307975,0.06852429,0.08465229,0.01083575,-
 0.01657108,-0.01690653,-0.00007449,0.00008150,0.00018955,-0.00003198,-
 0.00000436,-0.00000620,-0.00020890,0.00013534,0.00013769,-0.00001366,0
 .00000593,-0.00001615,0.00001116,0.00000672,-0.00000135,0.00004464,0.0
 0003222,-0.00000802,0.00000115,0.00000130,-0.00000523,-0.00000059,0.00
 000579,0.00000903,0.00133717,-0.00027879,-0.00033156,-0.00398278,0.001
 94061,-0.00313511,-0.00456766,0.00543767,0.00614183,0.13374211,0.00009
 645,0.00056403,-0.00021251,-0.00032254,-0.00105253,-0.00020297,0.00004
 693,0.00034521,0.00045542,0.00003538,0.00000309,0.00004839,0.00014139,
 -0.00011278,0.00003793,-0.00012622,0.00004636,-0.00002351,-0.00005573,
 0.00003410,0.00000743,0.00003086,0.00000991,-0.00000682,-0.00000497,-0
 .00001672,-0.00002768,0.00001029,0.00000826,-0.00001463,0.00000216,0.0
 0002519,0.00002315,-0.00000090,0.00000009,-0.00002068,-0.00000504,0.00
 000185,0.00004336,0.00986103,-0.00542848,-0.00680998,0.06971735,-0.117
 06051,-0.07692310,0.00278673,-0.02148268,-0.02177836,0.00014061,-0.000
 07102,-0.00010261,0.00000196,-0.00000935,0.00000919,0.00007460,0.00000
 309,-0.00004348,0.00000070,0.00000097,0.00000658,-0.00000358,-0.000001
 39,0.00000877,-0.00001312,-0.00001697,-0.00000135,-0.00000081,-0.00000
 063,0.00000083,0.00000607,-0.00000460,-0.00000246,-0.00058195,0.000033
 36,-0.00048935,0.00168233,-0.00031206,0.00087757,-0.00967476,0.0114967
 9,0.01130289,-0.07467973,0.13220764,-0.00008922,0.00050039,0.00033903,
 0.00036500,0.00003381,0.00099547,0.00030238,0.00009311,-0.00012757,0.0
 0003348,0.00006395,0.00001600,0.00015804,-0.00015686,0.00018169,-0.000
 19813,0.00012187,-0.00008288,-0.00005527,0.00003115,-0.00007418,0.0000
 0337,0.00000823,0.00001141,-0.00000095,-0.00000807,0.00000159,-0.00000
 145,-0.00001911,0.00001299,-0.00000652,0.00001348,0.00000465,-0.000002
 48,0.00000727,-0.00001924,-0.00000456,0.00001456,0.00000107,-0.0104855
 9,0.00909958,0.00944712,0.08664815,-0.07697555,-0.15032879,-0.00061161
 ,-0.01463326,-0.00824558,-0.00001688,-0.00002739,-0.00000885,0.0000038
 3,0.00000325,0.00002032,0.00015882,-0.00007727,-0.00003456,0.00000297,
 -0.00000006,-0.00000002,0.00000034,-0.00000397,0.00000196,0.00001857,0
 .00000494,-0.00001084,-0.00000200,0.00000005,-0.00000212,0.00000063,-0
 .00000461,0.00000229,0.00073987,-0.00033051,0.00101047,-0.00358727,0.0
 0137393,-0.00063730,0.01438118,-0.01350711,-0.01516907,-0.08688447,0.0
 9377608,0.16193747,-0.00003500,-0.00063703,0.00034305,-0.00043427,0.00
 204452,-0.00116057,-0.00056696,-0.00070137,-0.00036886,0.00014072,0.00
 005912,-0.00012084,-0.00008233,0.00013151,0.00010115,-0.00000371,-0.00
 009189,-0.00006519,0.00001174,-0.00007740,-0.00011416,-0.00002920,-0.0
 0007003,0.00000312,-0.00000063,-0.00002853,0.00000172,-0.00000365,-0.0
 0001809,-0.00000212,-0.00001680,0.00001838,0.00000728,-0.00000661,0.00
 001788,-0.00002059,-0.00000859,0.00001156,0.00001447,-0.00305175,-0.00
 554664,-0.00180190,-0.01336911,0.01359918,-0.00710009,-0.22445719,0.07
 693258,-0.19662805,-0.00000681,-0.00003854,0.00009909,-0.00001084,-0.0
 0000992,0.00000609,0.00001981,0.00013244,0.00008000,-0.00002351,0.0000
 2058,-0.00002367,0.00000193,0.00000943,0.00000574,0.00001942,-0.000000
 10,-0.00001854,0.00000079,0.00000204,-0.00000154,0.00000550,-0.0000049
 9,0.00000753,0.00029862,0.00005911,0.00009144,0.00050034,-0.00025291,0
 .00005030,0.00019294,-0.00011809,0.00050201,0.00109033,0.00024766,0.00
 034565,0.22785704,0.00015459,-0.00012220,0.00008310,-0.00085619,0.0012
 3463,-0.00041378,-0.00014399,-0.00031423,-0.00015853,0.00006182,-0.000
 05423,-0.00008952,-0.00008426,0.00007387,-0.00003513,0.00004917,-0.000
 05212,0.00002386,0.00002828,-0.00002850,-0.00000816,-0.00001139,-0.000
 02009,0.00000245,0.00000541,-0.00000146,-0.00000052,0.00000394,0.00000
 125,0.00000307,0.00000590,0.00000142,-0.00000312,-0.00000325,0.0000051
 9,0.00000142,0.00000262,-0.00000089,-0.00000113,-0.00179585,-0.0037472
 6,-0.00146495,-0.02215623,0.00725198,-0.02351968,0.08511181,-0.0967688
 1,0.12097804,-0.00006008,-0.00001568,0.00005339,0.00000237,0.00000894,
 0.00000116,-0.00001888,0.00003842,0.00000635,-0.00000501,0.00000354,-0
 .00000511,0.00000064,0.00000027,-0.00000136,-0.00000225,-0.00000208,0.
 00000032,-0.00000100,0.00000014,0.00000050,-0.00000400,-0.00000077,-0.
 00000073,0.00008323,-0.00000032,-0.00033893,-0.00006080,-0.00008946,0.
 00029643,-0.00006033,0.00111596,0.00044692,-0.00030788,-0.00023193,-0.
 00058529,-0.07815217,0.09964849,0.00018141,-0.00006437,-0.00006033,-0.
 00029443,0.00046176,0.00026203,0.00005173,0.00004515,0.00009105,-0.000
 01819,-0.00000746,0.00000118,-0.00003054,0.00000326,-0.00005241,0.0000
 5774,-0.00000217,0.00001689,0.00002120,0.00000967,0.00003101,-0.000000
 68,0.00000827,-0.00000260,0.00000258,0.00001113,0.00000185,0.00000559,
 0.00000889,0.00000399,0.00001201,-0.00000810,-0.00001005,0.00000058,-0
 .00000335,0.00001487,0.00000747,-0.00000554,-0.00001393,0.00045941,-0.
 00235039,0.00022149,-0.00971511,0.00435472,-0.00919943,-0.15759757,0.0
 9194064,-0.18509362,-0.00002953,0.00001537,-0.00001724,0.00000782,0.00
 000581,-0.00000162,-0.00004254,-0.00000992,0.00001336,0.00000501,-0.00
 000449,0.00000428,0.00000009,-0.00000268,-0.00000511,-0.00001208,-0.00
 000118,0.00000982,-0.00000158,-0.00000083,0.00000100,-0.00000739,0.000
 00116,-0.00000245,0.00024154,-0.00014584,0.00014465,-0.00005161,0.0000
 8858,0.00017732,0.00072433,0.00051605,0.00131612,0.00013938,0.00039843
 ,-0.00059229,0.18732586,-0.10558573,0.21126635,0.00005494,0.00094144,-
 0.00040850,-0.00031686,-0.00099992,-0.00037394,0.00002752,0.00013346,0
 .00001332,-0.00004723,-0.00000673,-0.00002973,0.00007379,-0.00011956,0
 .00000976,-0.00005727,0.00008277,0.00000184,-0.00002565,0.00005312,0.0
 0002314,0.00001159,0.00000129,0.00000090,0.00000730,-0.00000628,-0.000
 02717,0.00002183,0.00000845,0.00000606,0.00002123,0.00002398,0.0000155
 3,-0.00000533,0.00000271,-0.00001931,0.00000582,0.00000658,0.00002518,
 0.00026403,-0.00099821,0.00174628,-0.00921945,-0.00493640,0.01776108,-
 0.13649053,-0.12685318,0.12507765,-0.00007310,-0.00004042,-0.00007796,
 0.00001730,0.00001347,0.00000287,0.00002632,-0.00007066,-0.00005112,0.
 00000635,0.00000119,0.00000299,-0.00000593,-0.00000535,-0.00000660,-0.
 00001687,-0.00001571,0.00000434,-0.00000583,-0.00000247,0.00000064,-0.
 00001029,-0.00000670,-0.00000806,-0.00047971,0.00027631,-0.00107707,-0
 .00019608,-0.00014169,0.00011078,-0.00158078,-0.00267663,-0.00242438,0
 .00145477,0.00058687,-0.00121587,0.01196779,0.01821377,-0.02144249,0.1
 3457035,-0.00013127,0.00004035,-0.00022422,-0.00012973,-0.00031888,0.0
 0015806,0.00007650,-0.00002350,-0.00011442,-0.00001467,0.00000221,-0.0
 0000818,-0.00007573,0.00007767,-0.00003204,0.00007890,-0.00005619,0.00
 000841,0.00003599,-0.00002391,0.00000824,-0.00001324,0.00000590,-0.000
 00124,-0.00000211,0.00001372,0.00001777,-0.00001502,0.00000638,-0.0000
 0609,-0.00000905,-0.00003085,-0.00001525,0.00000388,-0.00000673,0.0000
 2684,0.00000116,-0.00001030,-0.00002439,0.00065906,0.00074999,-0.00030
 053,-0.01488080,-0.01791329,0.02135089,-0.09249637,-0.12446585,0.12667
 854,-0.00003557,0.00007404,0.00002866,0.00000413,0.00000335,0.00000158
 ,-0.00004697,0.00003703,0.00004268,0.00000086,-0.00000459,-0.00000059,
 0.00000191,0.00000172,-0.00000303,0.00000445,0.00000972,0.00000341,0.0
 0000567,0.00000174,0.00000111,0.00000283,0.00000857,0.00000251,-0.0005
 3322,0.00042616,-0.00004518,0.00025081,-0.00002723,-0.00018821,-0.0030
 0469,-0.00310593,-0.00359006,0.00126606,0.00102170,0.00118339,-0.00753
 827,-0.00793408,0.01032316,0.11653451,0.15144108,-0.00018965,0.0001727
 1,-0.00023015,0.00003832,-0.00027946,0.00011828,0.00006338,0.00003843,
 -0.00008443,-0.00004035,-0.00001556,-0.00001881,-0.00000424,-0.0000220
 9,-0.00001079,0.00001849,0.00000778,-0.00000276,0.00000951,0.00001693,
 0.00001576,-0.00000349,0.00000870,0.00000146,0.00000627,0.00000726,0.0
 0000099,0.00000017,0.00000863,0.00000018,0.00000584,-0.00001146,-0.000
 00598,-0.00000128,-0.00000200,0.00001253,0.00000614,-0.00000247,-0.000
 00921,0.00057524,-0.00063656,0.00143637,-0.00899500,-0.01434720,0.0112
 6186,0.11017160,0.16246057,-0.24427682,-0.00007312,0.00001248,-0.00001
 176,0.00001011,0.00000844,0.00000279,-0.00001916,-0.00000647,0.0000047
 9,0.00000560,-0.00000357,0.00000125,-0.00000131,-0.00000337,-0.0000065
 6,-0.00000509,0.00000027,0.00000456,-0.00000020,-0.00000022,0.00000113
 ,-0.00000607,0.00000124,-0.00000262,0.00024105,0.00046254,-0.00032219,
 0.00008258,0.00009217,-0.00018980,-0.00218546,-0.00266397,0.00014647,-
 0.00051135,-0.00033655,0.00134975,0.01844164,0.01031464,-0.01852618,-0
 .11764014,-0.15528184,0.24933990\\0.00000021,0.00000180,0.00000237,-0.
 00000028,0.00000056,-0.00000098,-0.00000192,0.00000089,0.00000087,0.00
 000010,-0.00000025,-0.00000006,0.00000061,-0.00000179,0.00000073,-0.00
 000210,-0.00000161,-0.00000409,-0.00000061,0.00000068,-0.00000095,-0.0
 0000063,-0.00000037,0.00000045,0.00000070,0.00000088,-0.00000025,0.000
 00080,-0.00000002,-0.00000023,0.,0.00000037,0.00000056,0.00000010,0.00
 000005,0.00000070,-0.00000019,-0.00000060,0.00000007,-0.00000001,-0.00
 000030,-0.00000004,0.00000035,-0.00000019,-0.00000013,0.00000058,-0.00
 000073,-0.00000040,0.00000045,0.00000054,0.00000013,-0.00000002,-0.000
 00030,0.00000004,0.00000059,0.00000093,0.00000070,-0.00000044,0.000000
 16,0.00000015,0.00000002,0.00000032,0.00000004,0.00000060,-0.00000023,
 0.00000065,0.00000006,0.00000040,0.00000048,-0.00000006,0.00000051,0.0
 0000028,0.00000010,-0.00000022,-0.00000016,0.00000021,-0.00000029,-0.0
 0000007,0.00000024,-0.00000038,-0.00000022,0.00000008,-0.00000025,-0.0
 0000030,0.00000022,-0.00000033,-0.00000009,0.00000025,-0.00000024,-0.0
 0000023\\\@


 IN THE UNIVERSE THE DIFFICULT THINGS ARE DONE AS IF THEY WERE EASY.

                                                          -- LAO-TSU
 Job cpu time:       0 days  2 hours 36 minutes 27.0 seconds.
 File lengths (MBytes):  RWF=    417 Int=      0 D2E=      0 Chk=     13 Scr=      1
 Normal termination of Gaussian 09 at Wed Jul 28 23:47:51 2021.
