 Entering Gaussian System, Link 0=g09
 Input=opt_freq-conf-455.com
 Output=opt_freq-conf-455.log
 Initial command:
 /aerosol/software/g09/l1.exe "/scratch/nicole/10594/Gau-82964.inp" -scrdir="/scratch/nicole/10594/"
 Entering Link 1 = /aerosol/software/g09/l1.exe PID=     82968.
  
 Copyright (c) 1988,1990,1992,1993,1995,1998,2003,2009,2013,
            Gaussian, Inc.  All Rights Reserved.
  
 This is part of the Gaussian(R) 09 program.  It is based on
 the Gaussian(R) 03 system (copyright 2003, Gaussian, Inc.),
 the Gaussian(R) 98 system (copyright 1998, Gaussian, Inc.),
 the Gaussian(R) 94 system (copyright 1995, Gaussian, Inc.),
 the Gaussian 92(TM) system (copyright 1992, Gaussian, Inc.),
 the Gaussian 90(TM) system (copyright 1990, Gaussian, Inc.),
 the Gaussian 88(TM) system (copyright 1988, Gaussian, Inc.),
 the Gaussian 86(TM) system (copyright 1986, Carnegie Mellon
 University), and the Gaussian 82(TM) system (copyright 1983,
 Carnegie Mellon University). Gaussian is a federally registered
 trademark of Gaussian, Inc.
  
 This software contains proprietary and confidential information,
 including trade secrets, belonging to Gaussian, Inc.
  
 This software is provided under written license and may be
 used, copied, transmitted, or stored only in accord with that
 written license.
  
 The following legend is applicable only to US Government
 contracts under FAR:
  
                    RESTRICTED RIGHTS LEGEND
  
 Use, reproduction and disclosure by the US Government is
 subject to restrictions as set forth in subparagraphs (a)
 and (c) of the Commercial Computer Software - Restricted
 Rights clause in FAR 52.227-19.
  
 Gaussian, Inc.
 340 Quinnipiac St., Bldg. 40, Wallingford CT 06492
  
  
 ---------------------------------------------------------------
 Warning -- This program may not be used in any manner that
 competes with the business of Gaussian, Inc. or will provide
 assistance to any competitor of Gaussian, Inc.  The licensee
 of this program is prohibited from giving any competitor of
 Gaussian, Inc. access to this program.  By using this program,
 the user acknowledges that Gaussian, Inc. is engaged in the
 business of creating and licensing software in the field of
 computational chemistry and represents and warrants to the
 licensee that it is not a competitor of Gaussian, Inc. and that
 it will not use this program in any manner prohibited above.
 ---------------------------------------------------------------
  

 Cite this work as:
 Gaussian 09, Revision D.01,
 M. J. Frisch, G. W. Trucks, H. B. Schlegel, G. E. Scuseria, 
 M. A. Robb, J. R. Cheeseman, G. Scalmani, V. Barone, B. Mennucci, 
 G. A. Petersson, H. Nakatsuji, M. Caricato, X. Li, H. P. Hratchian, 
 A. F. Izmaylov, J. Bloino, G. Zheng, J. L. Sonnenberg, M. Hada, 
 M. Ehara, K. Toyota, R. Fukuda, J. Hasegawa, M. Ishida, T. Nakajima, 
 Y. Honda, O. Kitao, H. Nakai, T. Vreven, J. A. Montgomery, Jr., 
 J. E. Peralta, F. Ogliaro, M. Bearpark, J. J. Heyd, E. Brothers, 
 K. N. Kudin, V. N. Staroverov, T. Keith, R. Kobayashi, J. Normand, 
 K. Raghavachari, A. Rendell, J. C. Burant, S. S. Iyengar, J. Tomasi, 
 M. Cossi, N. Rega, J. M. Millam, M. Klene, J. E. Knox, J. B. Cross, 
 V. Bakken, C. Adamo, J. Jaramillo, R. Gomperts, R. E. Stratmann, 
 O. Yazyev, A. J. Austin, R. Cammi, C. Pomelli, J. W. Ochterski, 
 R. L. Martin, K. Morokuma, V. G. Zakrzewski, G. A. Voth, 
 P. Salvador, J. J. Dannenberg, S. Dapprich, A. D. Daniels, 
 O. Farkas, J. B. Foresman, J. V. Ortiz, J. Cioslowski, 
 and D. J. Fox, Gaussian, Inc., Wallingford CT, 2013.
 
 ******************************************
 Gaussian 09:  ES64L-G09RevD.01 24-Apr-2013
                28-Jul-2021 
 ******************************************
 %mem=2gb
 %nproc=4
 Will use up to    4 processors via shared memory.
 %chk=conf-455.chk
 ----------------------------------------------------------------------
 # B3LYP/6-31G(d) opt=calcfc freq=noraman nosymm integral(ultrafinegrid
 )
 ----------------------------------------------------------------------
 1/10=4,14=-1,18=20,19=15,26=4,38=1/1,3;
 2/9=110,12=2,15=1,17=6,18=5,40=1/2;
 3/5=1,6=6,7=1,11=2,16=1,25=1,30=1,71=2,74=-5,75=-5,140=1/1,2,3;
 4//1;
 5/5=2,38=5/2;
 8/6=4,10=90,11=11/1;
 11/6=1,8=1,9=11,15=111,16=1,31=1/1,2,10;
 10/6=1,13=1,31=1/2;
 6/7=2,8=2,9=2,10=2,28=1/1;
 7/10=1,18=20,25=1,30=1/1,2,3,16;
 1/10=4,14=-1,18=20,19=15,26=4/3(2);
 2/9=110,15=1/2;
 99//99;
 2/9=110,15=1/2;
 3/5=1,6=6,7=1,11=2,16=1,25=1,30=1,71=1,74=-5,75=-5/1,2,3;
 4/5=5,16=3,69=1/1;
 5/5=2,38=5/2;
 7/30=1/1,2,3,16;
 1/14=-1,18=20,19=15,26=4/3(-5);
 2/9=110,15=1/2;
 6/7=2,8=2,9=2,10=2,19=2,28=1/1;
 99/9=1/99;
 ------------------------------------------------------------
 Candidate Structure: Conf:455 OPT and FREQ calc in gas phase
 ------------------------------------------------------------
 Symbolic Z-matrix:
 Charge =  0 Multiplicity = 1
 O                     0.28008  -0.25923  -1.27944 
 C                     0.9495   -0.15887  -0.2498 
 N                     0.4937   -0.52865   0.97949 
 C                    -0.61605  -1.43415   1.23982 
 C                    -0.16578  -2.89331   1.09177 
 O                    -1.0117   -3.80859   1.62216 
 O                     0.85198  -3.23587   0.56269 
 C                    -1.87574  -1.18421   0.39051 
 C                    -2.39463   0.209     0.52312 
 C                    -3.31851   0.77342   1.35646 
 N                    -3.40808   2.13496   1.12826 
 C                    -2.54901   2.37777   0.1668 
 N                    -1.91356   1.2507   -0.23435 
 C                     2.35746   0.42422  -0.24031 
 C                     2.66699   1.2558   -1.48472 
 N                     3.99632   1.85969  -1.50811 
 H                     1.17862  -0.50482   1.71547 
 H                    -0.87804  -1.28132   2.29154 
 H                    -1.75658  -3.37408   2.04376 
 H                    -2.65134  -1.87719   0.72534 
 H                    -1.66079  -1.41998  -0.64787 
 H                    -3.9224    0.28943   2.11093 
 H                    -2.33695   3.33354  -0.27858 
 H                    -1.20225   1.15599  -0.94843 
 H                     2.49242   1.02514   0.66613 
 H                     3.07123  -0.40887  -0.17155 
 H                     2.56078   0.62307  -2.36526 
 H                     1.9279    2.05322  -1.57997 
 H                     4.12507   2.46199  -0.70287 
 H                     4.70929   1.14111  -1.45005 
 

 GradGradGradGradGradGradGradGradGradGradGradGradGradGradGradGradGradGrad
 Berny optimization.
 Initialization pass.
                           ----------------------------
                           !    Initial Parameters    !
                           ! (Angstroms and Degrees)  !
 --------------------------                            --------------------------
 ! Name  Definition              Value          Derivative Info.                !
 --------------------------------------------------------------------------------
 ! R1    R(1,2)                  1.2322         calculate D2E/DX2 analytically  !
 ! R2    R(2,3)                  1.3622         calculate D2E/DX2 analytically  !
 ! R3    R(2,14)                 1.524          calculate D2E/DX2 analytically  !
 ! R4    R(3,4)                  1.4558         calculate D2E/DX2 analytically  !
 ! R5    R(3,17)                 1.0057         calculate D2E/DX2 analytically  !
 ! R6    R(4,5)                  1.5342         calculate D2E/DX2 analytically  !
 ! R7    R(4,8)                  1.5397         calculate D2E/DX2 analytically  !
 ! R8    R(4,18)                 1.0946         calculate D2E/DX2 analytically  !
 ! R9    R(5,6)                  1.3545         calculate D2E/DX2 analytically  !
 ! R10   R(5,7)                  1.1971         calculate D2E/DX2 analytically  !
 ! R11   R(6,19)                 0.9599         calculate D2E/DX2 analytically  !
 ! R12   R(8,9)                  1.4926         calculate D2E/DX2 analytically  !
 ! R13   R(8,20)                 1.0927         calculate D2E/DX2 analytically  !
 ! R14   R(8,21)                 1.0863         calculate D2E/DX2 analytically  !
 ! R15   R(9,10)                 1.3662         calculate D2E/DX2 analytically  !
 ! R16   R(9,13)                 1.3749         calculate D2E/DX2 analytically  !
 ! R17   R(10,11)                1.3834         calculate D2E/DX2 analytically  !
 ! R18   R(10,22)                1.0808         calculate D2E/DX2 analytically  !
 ! R19   R(11,12)                1.312          calculate D2E/DX2 analytically  !
 ! R20   R(12,13)                1.3546         calculate D2E/DX2 analytically  !
 ! R21   R(12,23)                1.0756         calculate D2E/DX2 analytically  !
 ! R22   R(13,24)                1.0123         calculate D2E/DX2 analytically  !
 ! R23   R(14,15)                1.5284         calculate D2E/DX2 analytically  !
 ! R24   R(14,25)                1.0959         calculate D2E/DX2 analytically  !
 ! R25   R(14,26)                1.0992         calculate D2E/DX2 analytically  !
 ! R26   R(15,16)                1.4603         calculate D2E/DX2 analytically  !
 ! R27   R(15,27)                1.0895         calculate D2E/DX2 analytically  !
 ! R28   R(15,28)                1.0914         calculate D2E/DX2 analytically  !
 ! R29   R(16,29)                1.0138         calculate D2E/DX2 analytically  !
 ! R30   R(16,30)                1.0139         calculate D2E/DX2 analytically  !
 ! A1    A(1,2,3)              123.3788         calculate D2E/DX2 analytically  !
 ! A2    A(1,2,14)             122.5669         calculate D2E/DX2 analytically  !
 ! A3    A(3,2,14)             114.0402         calculate D2E/DX2 analytically  !
 ! A4    A(2,3,4)              125.8242         calculate D2E/DX2 analytically  !
 ! A5    A(2,3,17)             115.2206         calculate D2E/DX2 analytically  !
 ! A6    A(4,3,17)             113.7692         calculate D2E/DX2 analytically  !
 ! A7    A(3,4,5)              110.5236         calculate D2E/DX2 analytically  !
 ! A8    A(3,4,8)              115.0915         calculate D2E/DX2 analytically  !
 ! A9    A(3,4,18)             105.512          calculate D2E/DX2 analytically  !
 ! A10   A(5,4,8)              109.9549         calculate D2E/DX2 analytically  !
 ! A11   A(5,4,18)             107.2037         calculate D2E/DX2 analytically  !
 ! A12   A(8,4,18)             108.1509         calculate D2E/DX2 analytically  !
 ! A13   A(4,5,6)              114.9362         calculate D2E/DX2 analytically  !
 ! A14   A(4,5,7)              124.355          calculate D2E/DX2 analytically  !
 ! A15   A(6,5,7)              120.707          calculate D2E/DX2 analytically  !
 ! A16   A(5,6,19)             110.5326         calculate D2E/DX2 analytically  !
 ! A17   A(4,8,9)              112.7642         calculate D2E/DX2 analytically  !
 ! A18   A(4,8,20)             107.9844         calculate D2E/DX2 analytically  !
 ! A19   A(4,8,21)             109.2787         calculate D2E/DX2 analytically  !
 ! A20   A(9,8,20)             108.5416         calculate D2E/DX2 analytically  !
 ! A21   A(9,8,21)             110.8736         calculate D2E/DX2 analytically  !
 ! A22   A(20,8,21)            107.201          calculate D2E/DX2 analytically  !
 ! A23   A(8,9,10)             132.4452         calculate D2E/DX2 analytically  !
 ! A24   A(8,9,13)             122.4539         calculate D2E/DX2 analytically  !
 ! A25   A(10,9,13)            105.0494         calculate D2E/DX2 analytically  !
 ! A26   A(9,10,11)            110.4721         calculate D2E/DX2 analytically  !
 ! A27   A(9,10,22)            128.2159         calculate D2E/DX2 analytically  !
 ! A28   A(11,10,22)           121.311          calculate D2E/DX2 analytically  !
 ! A29   A(10,11,12)           105.1067         calculate D2E/DX2 analytically  !
 ! A30   A(11,12,13)           111.7273         calculate D2E/DX2 analytically  !
 ! A31   A(11,12,23)           126.6557         calculate D2E/DX2 analytically  !
 ! A32   A(13,12,23)           121.6167         calculate D2E/DX2 analytically  !
 ! A33   A(9,13,12)            107.644          calculate D2E/DX2 analytically  !
 ! A34   A(9,13,24)            124.304          calculate D2E/DX2 analytically  !
 ! A35   A(12,13,24)           128.0481         calculate D2E/DX2 analytically  !
 ! A36   A(2,14,15)            112.968          calculate D2E/DX2 analytically  !
 ! A37   A(2,14,25)            109.1919         calculate D2E/DX2 analytically  !
 ! A38   A(2,14,26)            108.079          calculate D2E/DX2 analytically  !
 ! A39   A(15,14,25)           110.4976         calculate D2E/DX2 analytically  !
 ! A40   A(15,14,26)           109.3782         calculate D2E/DX2 analytically  !
 ! A41   A(25,14,26)           106.4924         calculate D2E/DX2 analytically  !
 ! A42   A(14,15,16)           114.9869         calculate D2E/DX2 analytically  !
 ! A43   A(14,15,27)           108.8035         calculate D2E/DX2 analytically  !
 ! A44   A(14,15,28)           109.3562         calculate D2E/DX2 analytically  !
 ! A45   A(16,15,27)           108.4196         calculate D2E/DX2 analytically  !
 ! A46   A(16,15,28)           108.2352         calculate D2E/DX2 analytically  !
 ! A47   A(27,15,28)           106.7251         calculate D2E/DX2 analytically  !
 ! A48   A(15,16,29)           110.4008         calculate D2E/DX2 analytically  !
 ! A49   A(15,16,30)           110.2504         calculate D2E/DX2 analytically  !
 ! A50   A(29,16,30)           106.6351         calculate D2E/DX2 analytically  !
 ! D1    D(1,2,3,4)             19.7155         calculate D2E/DX2 analytically  !
 ! D2    D(1,2,3,17)           172.5228         calculate D2E/DX2 analytically  !
 ! D3    D(14,2,3,4)          -161.625          calculate D2E/DX2 analytically  !
 ! D4    D(14,2,3,17)           -8.8176         calculate D2E/DX2 analytically  !
 ! D5    D(1,2,14,15)           18.4503         calculate D2E/DX2 analytically  !
 ! D6    D(1,2,14,25)          141.8325         calculate D2E/DX2 analytically  !
 ! D7    D(1,2,14,26)         -102.7103         calculate D2E/DX2 analytically  !
 ! D8    D(3,2,14,15)         -160.2215         calculate D2E/DX2 analytically  !
 ! D9    D(3,2,14,25)          -36.8393         calculate D2E/DX2 analytically  !
 ! D10   D(3,2,14,26)           78.6178         calculate D2E/DX2 analytically  !
 ! D11   D(2,3,4,5)             79.9655         calculate D2E/DX2 analytically  !
 ! D12   D(2,3,4,8)            -45.3216         calculate D2E/DX2 analytically  !
 ! D13   D(2,3,4,18)          -164.4618         calculate D2E/DX2 analytically  !
 ! D14   D(17,3,4,5)           -73.1791         calculate D2E/DX2 analytically  !
 ! D15   D(17,3,4,8)           161.5337         calculate D2E/DX2 analytically  !
 ! D16   D(17,3,4,18)           42.3935         calculate D2E/DX2 analytically  !
 ! D17   D(3,4,5,6)            164.5717         calculate D2E/DX2 analytically  !
 ! D18   D(3,4,5,7)            -14.9493         calculate D2E/DX2 analytically  !
 ! D19   D(8,4,5,6)            -67.2837         calculate D2E/DX2 analytically  !
 ! D20   D(8,4,5,7)            113.1952         calculate D2E/DX2 analytically  !
 ! D21   D(18,4,5,6)            50.062          calculate D2E/DX2 analytically  !
 ! D22   D(18,4,5,7)          -129.4591         calculate D2E/DX2 analytically  !
 ! D23   D(3,4,8,9)            -56.2643         calculate D2E/DX2 analytically  !
 ! D24   D(3,4,8,20)          -176.1842         calculate D2E/DX2 analytically  !
 ! D25   D(3,4,8,21)            67.5248         calculate D2E/DX2 analytically  !
 ! D26   D(5,4,8,9)            178.1539         calculate D2E/DX2 analytically  !
 ! D27   D(5,4,8,20)            58.234          calculate D2E/DX2 analytically  !
 ! D28   D(5,4,8,21)           -58.057          calculate D2E/DX2 analytically  !
 ! D29   D(18,4,8,9)            61.3994         calculate D2E/DX2 analytically  !
 ! D30   D(18,4,8,20)          -58.5205         calculate D2E/DX2 analytically  !
 ! D31   D(18,4,8,21)         -174.8115         calculate D2E/DX2 analytically  !
 ! D32   D(4,5,6,19)            -2.2359         calculate D2E/DX2 analytically  !
 ! D33   D(7,5,6,19)           177.3042         calculate D2E/DX2 analytically  !
 ! D34   D(4,8,9,10)           -91.9136         calculate D2E/DX2 analytically  !
 ! D35   D(4,8,9,13)            85.0596         calculate D2E/DX2 analytically  !
 ! D36   D(20,8,9,10)           27.6848         calculate D2E/DX2 analytically  !
 ! D37   D(20,8,9,13)         -155.3421         calculate D2E/DX2 analytically  !
 ! D38   D(21,8,9,10)          145.1832         calculate D2E/DX2 analytically  !
 ! D39   D(21,8,9,13)          -37.8436         calculate D2E/DX2 analytically  !
 ! D40   D(8,9,10,11)          177.1271         calculate D2E/DX2 analytically  !
 ! D41   D(8,9,10,22)           -2.4995         calculate D2E/DX2 analytically  !
 ! D42   D(13,9,10,11)          -0.2284         calculate D2E/DX2 analytically  !
 ! D43   D(13,9,10,22)        -179.855          calculate D2E/DX2 analytically  !
 ! D44   D(8,9,13,12)         -177.4772         calculate D2E/DX2 analytically  !
 ! D45   D(8,9,13,24)            1.8542         calculate D2E/DX2 analytically  !
 ! D46   D(10,9,13,12)           0.2103         calculate D2E/DX2 analytically  !
 ! D47   D(10,9,13,24)         179.5417         calculate D2E/DX2 analytically  !
 ! D48   D(9,10,11,12)           0.157          calculate D2E/DX2 analytically  !
 ! D49   D(22,10,11,12)        179.8136         calculate D2E/DX2 analytically  !
 ! D50   D(10,11,12,13)         -0.0184         calculate D2E/DX2 analytically  !
 ! D51   D(10,11,12,23)       -179.8148         calculate D2E/DX2 analytically  !
 ! D52   D(11,12,13,9)          -0.1235         calculate D2E/DX2 analytically  !
 ! D53   D(11,12,13,24)       -179.4222         calculate D2E/DX2 analytically  !
 ! D54   D(23,12,13,9)         179.6847         calculate D2E/DX2 analytically  !
 ! D55   D(23,12,13,24)          0.386          calculate D2E/DX2 analytically  !
 ! D56   D(2,14,15,16)         178.7562         calculate D2E/DX2 analytically  !
 ! D57   D(2,14,15,27)         -59.4451         calculate D2E/DX2 analytically  !
 ! D58   D(2,14,15,28)          56.7759         calculate D2E/DX2 analytically  !
 ! D59   D(25,14,15,16)         56.0991         calculate D2E/DX2 analytically  !
 ! D60   D(25,14,15,27)        177.8978         calculate D2E/DX2 analytically  !
 ! D61   D(25,14,15,28)        -65.8812         calculate D2E/DX2 analytically  !
 ! D62   D(26,14,15,16)        -60.8223         calculate D2E/DX2 analytically  !
 ! D63   D(26,14,15,27)         60.9764         calculate D2E/DX2 analytically  !
 ! D64   D(26,14,15,28)        177.1974         calculate D2E/DX2 analytically  !
 ! D65   D(14,15,16,29)        -58.4127         calculate D2E/DX2 analytically  !
 ! D66   D(14,15,16,30)         59.1529         calculate D2E/DX2 analytically  !
 ! D67   D(27,15,16,29)        179.5809         calculate D2E/DX2 analytically  !
 ! D68   D(27,15,16,30)        -62.8534         calculate D2E/DX2 analytically  !
 ! D69   D(28,15,16,29)         64.1716         calculate D2E/DX2 analytically  !
 ! D70   D(28,15,16,30)       -178.2628         calculate D2E/DX2 analytically  !
 --------------------------------------------------------------------------------
 Trust Radius=3.00D-01 FncErr=1.00D-07 GrdErr=1.00D-06
 Number of steps in this run=    160 maximum allowed number of steps=    180.
 GradGradGradGradGradGradGradGradGradGradGradGradGradGradGradGradGradGrad

                          Input orientation:                          
 ---------------------------------------------------------------------
 Center     Atomic      Atomic             Coordinates (Angstroms)
 Number     Number       Type             X           Y           Z
 ---------------------------------------------------------------------
      1          8           0        0.280076   -0.259227   -1.279438
      2          6           0        0.949501   -0.158872   -0.249798
      3          7           0        0.493702   -0.528654    0.979487
      4          6           0       -0.616052   -1.434154    1.239824
      5          6           0       -0.165782   -2.893307    1.091772
      6          8           0       -1.011697   -3.808590    1.622156
      7          8           0        0.851977   -3.235870    0.562694
      8          6           0       -1.875739   -1.184206    0.390509
      9          6           0       -2.394627    0.209002    0.523119
     10          6           0       -3.318514    0.773416    1.356456
     11          7           0       -3.408081    2.134965    1.128260
     12          6           0       -2.549011    2.377768    0.166802
     13          7           0       -1.913559    1.250695   -0.234345
     14          6           0        2.357461    0.424218   -0.240307
     15          6           0        2.666987    1.255801   -1.484724
     16          7           0        3.996323    1.859687   -1.508106
     17          1           0        1.178621   -0.504817    1.715468
     18          1           0       -0.878044   -1.281316    2.291542
     19          1           0       -1.756579   -3.374081    2.043759
     20          1           0       -2.651343   -1.877186    0.725335
     21          1           0       -1.660789   -1.419981   -0.647874
     22          1           0       -3.922403    0.289426    2.110935
     23          1           0       -2.336948    3.333540   -0.278585
     24          1           0       -1.202253    1.155990   -0.948429
     25          1           0        2.492418    1.025139    0.666134
     26          1           0        3.071227   -0.408875   -0.171547
     27          1           0        2.560782    0.623066   -2.365263
     28          1           0        1.927898    2.053224   -1.579966
     29          1           0        4.125069    2.461991   -0.702866
     30          1           0        4.709286    1.141108   -1.450048
 ---------------------------------------------------------------------
                    Distance matrix (angstroms):
                    1          2          3          4          5
     1  O    0.000000
     2  C    1.232217   0.000000
     3  N    2.284943   1.362216   0.000000
     4  C    2.920647   2.509237   1.455768   0.000000
     5  C    3.572087   3.243578   2.457460   1.534205   0.000000
     6  O    4.762972   4.546531   3.665682   2.437346   1.354482
     7  O    3.546961   3.183955   2.762444   2.420701   1.197125
     8  C    2.879558   3.072993   2.528022   1.539683   2.517289
     9  C    3.259216   3.451945   3.015767   2.525264   3.862051
    10  C    4.578661   4.654585   4.046045   3.491457   4.842997
    11  N    5.013150   5.113634   4.726617   4.532823   5.983088
    12  C    4.129053   4.341391   4.285539   4.406638   5.858291
    13  N    2.860790   3.191274   3.230228   3.326427   4.688930
    14  C    2.421243   1.523954   2.422696   3.806062   4.375747
    15  C    2.834571   2.544819   3.738955   5.043547   5.646062
    16  N    4.283990   3.865365   4.915348   6.298770   6.831796
    17  H    3.136425   2.008593   1.005660   2.076236   2.810925
    18  H    3.890734   3.325389   2.041979   1.094583   2.131965
    19  H    4.989381   4.787572   3.780595   2.389651   1.915217
    20  H    3.902579   4.107257   3.431390   2.145550   2.710127
    21  H    2.348017   2.926171   2.843343   2.157564   2.726189
    22  H    5.427382   5.432262   4.631567   3.829037   5.027989
    23  H    4.556149   4.795677   4.950946   5.291310   6.735388
    24  H    2.075983   2.616676   3.071017   3.441065   4.651182
    25  H    3.213923   2.149746   2.550947   4.004975   4.754095
    26  H    3.006715   2.137837   2.825396   4.079117   4.271605
    27  H    2.675644   2.771795   4.097148   5.226956   5.634724
    28  H    2.855356   2.760430   3.908172   5.156035   5.999154
    29  H    4.745674   4.142273   4.996108   6.436786   7.093049
    30  H    4.648434   4.155301   5.144112   6.498200   6.819358
                    6          7          8          9         10
     6  O    0.000000
     7  O    2.218952   0.000000
     8  C    3.025048   3.417515   0.000000
     9  C    4.388784   4.733831   1.492602   0.000000
    10  C    5.136806   5.839300   2.616665   1.366228   0.000000
    11  N    6.427475   6.878505   3.729510   2.258897   1.383442
    12  C    6.538533   6.575438   3.631941   2.203256   2.140410
    13  N    5.464094   5.330360   2.514084   1.374883   2.175395
    14  C    5.721595   4.038259   4.572192   4.817829   5.906630
    15  C    6.988095   5.259401   5.486939   5.545012   6.643133
    16  N    8.185851   6.335600   6.881216   6.906147   7.930481
    17  H    3.964986   2.982321   3.397970   3.833971   4.689028
    18  H    2.617834   3.130842   2.149128   2.765573   3.324485
    19  H    0.959894   3.002869   2.746450   3.944355   4.484836
    20  H    2.687573   3.761080   1.092652   2.111628   2.805195
    21  H    3.358543   3.328202   1.086293   2.136195   3.402407
    22  H    5.050233   6.133471   3.052915   2.204932   1.080818
    23  H    7.508604   7.350792   4.590254   3.226266   3.192345
    24  H    5.593860   5.078562   2.779003   2.117545   3.152367
    25  H    6.046300   4.567051   4.902854   4.956787   5.857204
    26  H    5.607647   3.668254   5.038802   5.544357   6.675432
    27  H    6.949941   5.136568   5.526593   5.750676   6.959879
    28  H    7.297648   5.807161   5.369486   5.148625   6.146976
    29  H    8.432809   6.691815   7.106330   7.006099   7.905632
    30  H    8.165022   6.171539   7.222000   7.431540   8.512181
                   11         12         13         14         15
    11  N    0.000000
    12  C    1.312005   0.000000
    13  N    2.207312   1.354626   0.000000
    14  C    6.167747   5.296749   4.350254   0.000000
    15  C    6.671362   5.585068   4.748144   1.528369   0.000000
    16  N    7.864566   6.776069   6.076186   2.520666   1.460259
    17  H    5.324574   4.960130   4.055264   2.465324   3.944140
    18  H    4.407413   4.549236   3.723370   4.448325   5.767530
    19  H    5.823674   6.102022   5.157806   6.047260   7.311220
    20  H    4.102725   4.292675   3.353946   5.596162   6.556264
    21  H    4.341120   3.984411   2.714297   4.439990   5.156528
    22  H    2.153181   3.166548   3.234166   6.706951   7.568534
    23  H    2.136147   1.075566   2.125902   5.522960   5.550778
    24  H    3.183820   2.133129   1.012344   3.702498   3.907505
    25  H    6.021724   5.243561   4.502707   1.095881   2.170224
    26  H    7.081105   6.282271   5.254161   1.099197   2.158469
    27  H    7.079398   5.966600   4.995443   2.143903   1.089487
    28  H    5.984467   4.816559   4.148679   2.152411   1.091424
    29  H    7.759402   6.731029   6.176712   2.736954   2.047485
    30  H    8.574793   7.538328   6.734390   2.740162   2.045810
                   16         17         18         19         20
    16  N    0.000000
    17  H    4.890987   0.000000
    18  H    6.932725   2.272594   0.000000
    19  H    8.550085   4.117749   2.283175   0.000000
    20  H    7.946316   4.187168   2.439806   2.186216   0.000000
    21  H    6.595388   3.805938   3.045010   3.327548   1.753835
    22  H    8.846999   5.177611   3.430448   4.256359   2.868743
    23  H    6.617725   5.573908   5.480041   7.121958   5.315859
    24  H    5.275757   3.939948   4.067307   5.457290   3.755197
    25  H    2.772277   2.273308   4.395646   6.269368   5.906375
    26  H    2.790800   2.674321   4.735473   6.083399   5.975629
    27  H    2.079598   4.453634   6.094098   7.352296   6.555097
    28  H    2.078702   4.238499   5.829326   7.494157   6.460029
    29  H    1.013783   4.830305   6.928922   8.729116   8.172390
    30  H    1.013925   5.019478   7.147439   8.625603   8.247499
                   21         22         23         24         25
    21  H    0.000000
    22  H    3.955755   0.000000
    23  H    4.815551   4.182117   0.000000
    24  H    2.633669   4.184478   2.545182   0.000000
    25  H    4.995434   6.616543   5.435437   4.034170   0.000000
    26  H    4.862222   7.389737   6.577650   4.616815   1.758729
    27  H    4.994510   7.885388   5.973998   4.056089   3.058709
    28  H    5.080416   7.138610   4.639150   3.316883   2.533891
    29  H    6.967703   8.797688   6.534315   5.490564   2.569874
    30  H    6.912345   9.376140   7.471847   5.932801   3.066949
                   26         27         28         29         30
    26  H    0.000000
    27  H    2.477467   0.000000
    28  H    3.058230   1.750024   0.000000
    29  H    3.103989   2.931245   2.400823   0.000000
    30  H    2.592343   2.392081   2.930009   1.626137   0.000000
 Symmetry turned off by external request.
 Stoichiometry    C9H14N4O3
 Framework group  C1[X(C9H14N4O3)]
 Deg. of freedom    84
 Full point group                 C1      NOp   1
 Rotational constants (GHZ):      0.5402563      0.4097795      0.2497933
 Standard basis: 6-31G(d) (6D, 7F)
   268 basis functions,   504 primitive gaussians,   268 cartesian basis functions
    60 alpha electrons       60 beta electrons
       nuclear repulsion energy      1133.9479686227 Hartrees.
 NAtoms=   30 NActive=   30 NUniq=   30 SFac= 1.00D+00 NAtFMM=   60 NAOKFM=F Big=F
 Integral buffers will be    131072 words long.
 Raffenetti 2 integral format.
 Two-electron integral symmetry is turned off.
 One-electron integrals computed using PRISM.
 NBasis=   268 RedAO= T EigKep=  1.14D-03  NBF=   268
 NBsUse=   268 1.00D-06 EigRej= -1.00D+00 NBFU=   268
 ExpMin= 1.61D-01 ExpMax= 5.48D+03 ExpMxC= 8.25D+02 IAcc=3 IRadAn=         5 AccDes= 0.00D+00
 Harris functional with IExCor=  402 and IRadAn=       5 diagonalized for initial guess.
 HarFok:  IExCor=  402 AccDes= 0.00D+00 IRadAn=         5 IDoV= 1 UseB2=F ITyADJ=14
 ICtDFT=  3500011 ScaDFX=  1.000000  1.000000  1.000000  1.000000
 FoFCou: FMM=F IPFlag=           0 FMFlag=      100000 FMFlg1=           0
         NFxFlg=           0 DoJE=T BraDBF=F KetDBF=T FulRan=T
         wScrn=  0.000000 ICntrl=     500 IOpCl=  0 I1Cent=   200000004 NGrid=           0
         NMat0=    1 NMatS0=      1 NMatT0=    0 NMatD0=    1 NMtDS0=    0 NMtDT0=    0
 Symmetry not used in FoFCou.
 Requested convergence on RMS density matrix=1.00D-08 within 128 cycles.
 Requested convergence on MAX density matrix=1.00D-06.
 Requested convergence on             energy=1.00D-06.
 No special actions if energy rises.
 Integral accuracy reduced to 1.0D-05 until final iterations.
 Initial convergence to 1.0D-05 achieved.  Increase integral accuracy.
 SCF Done:  E(RB3LYP) =  -796.066294758     A.U. after   14 cycles
            NFock= 14  Conv=0.85D-08     -V/T= 2.0088
 DoSCS=F DFT=T ScalE2(SS,OS)=  1.000000  1.000000
 Range of M.O.s used for correlation:     1   268
 NBasis=   268 NAE=    60 NBE=    60 NFC=     0 NFV=     0
 NROrb=    268 NOA=    60 NOB=    60 NVA=   208 NVB=   208
 Symmetrizing basis deriv contribution to polar:
 IMax=3 JMax=2 DiffMx= 0.00D+00
 G2DrvN: will do    31 centers at a time, making    1 passes.
 Calling FoFCou, ICntrl=  3107 FMM=F I1Cent=   0 AccDes= 0.00D+00.
 End of G2Drv F.D. properties file   721 does not exist.
 End of G2Drv F.D. properties file   722 does not exist.
 End of G2Drv F.D. properties file   788 does not exist.
          IDoAtm=111111111111111111111111111111
          Differentiating once with respect to nuclear coordinates.
          There are    93 degrees of freedom in the 1st order CPHF.  IDoFFX=6 NUNeed=     0.
     87 vectors produced by pass  0 Test12= 1.34D-14 1.08D-09 XBig12= 1.77D-01 9.03D-02.
 AX will form    87 AO Fock derivatives at one time.
     87 vectors produced by pass  1 Test12= 1.34D-14 1.08D-09 XBig12= 2.68D-02 4.28D-02.
     87 vectors produced by pass  2 Test12= 1.34D-14 1.08D-09 XBig12= 2.40D-04 3.59D-03.
     87 vectors produced by pass  3 Test12= 1.34D-14 1.08D-09 XBig12= 8.65D-07 1.36D-04.
     87 vectors produced by pass  4 Test12= 1.34D-14 1.08D-09 XBig12= 1.15D-09 3.49D-06.
     72 vectors produced by pass  5 Test12= 1.34D-14 1.08D-09 XBig12= 9.80D-13 8.01D-08.
     12 vectors produced by pass  6 Test12= 1.34D-14 1.08D-09 XBig12= 7.20D-16 2.41D-09.
 InvSVY:  IOpt=1 It=  1 EMax= 6.11D-16
 Solved reduced A of dimension   519 with    93 vectors.
 End of Minotr F.D. properties file   721 does not exist.
 End of Minotr F.D. properties file   722 does not exist.
 End of Minotr F.D. properties file   788 does not exist.

 **********************************************************************

            Population analysis using the SCF density.

 **********************************************************************

 Alpha  occ. eigenvalues --  -19.21512 -19.15364 -19.13774 -14.38624 -14.37866
 Alpha  occ. eigenvalues --  -14.31975 -14.30371 -10.33482 -10.31193 -10.27065
 Alpha  occ. eigenvalues --  -10.23057 -10.22120 -10.21595 -10.21571 -10.20801
 Alpha  occ. eigenvalues --  -10.19208  -1.12324  -1.05699  -1.04131  -1.00923
 Alpha  occ. eigenvalues --   -0.95362  -0.89108  -0.86235  -0.82119  -0.77017
 Alpha  occ. eigenvalues --   -0.74089  -0.68455  -0.64959  -0.62969  -0.60709
 Alpha  occ. eigenvalues --   -0.60045  -0.58771  -0.56323  -0.53759  -0.52944
 Alpha  occ. eigenvalues --   -0.51399  -0.49387  -0.47017  -0.46224  -0.45507
 Alpha  occ. eigenvalues --   -0.45142  -0.43921  -0.43289  -0.42614  -0.41658
 Alpha  occ. eigenvalues --   -0.40908  -0.40485  -0.40204  -0.39301  -0.38780
 Alpha  occ. eigenvalues --   -0.38085  -0.35496  -0.33560  -0.29986  -0.28352
 Alpha  occ. eigenvalues --   -0.27467  -0.26999  -0.25789  -0.23957  -0.22252
 Alpha virt. eigenvalues --   -0.01123   0.00034   0.02538   0.03798   0.05850
 Alpha virt. eigenvalues --    0.06764   0.07209   0.10401   0.11832   0.12401
 Alpha virt. eigenvalues --    0.13025   0.14095   0.14734   0.15205   0.16288
 Alpha virt. eigenvalues --    0.16942   0.17360   0.18084   0.19536   0.20023
 Alpha virt. eigenvalues --    0.21008   0.22553   0.23833   0.25202   0.25309
 Alpha virt. eigenvalues --    0.28156   0.28402   0.32065   0.32809   0.33713
 Alpha virt. eigenvalues --    0.36456   0.38713   0.40491   0.45760   0.48773
 Alpha virt. eigenvalues --    0.50382   0.50851   0.52502   0.53740   0.54230
 Alpha virt. eigenvalues --    0.54875   0.55871   0.56175   0.57992   0.58534
 Alpha virt. eigenvalues --    0.59576   0.61351   0.61650   0.63746   0.64109
 Alpha virt. eigenvalues --    0.64640   0.65656   0.66655   0.67577   0.69367
 Alpha virt. eigenvalues --    0.70228   0.70541   0.71976   0.73040   0.73855
 Alpha virt. eigenvalues --    0.74888   0.77157   0.79014   0.80639   0.81007
 Alpha virt. eigenvalues --    0.81449   0.82447   0.83072   0.84073   0.84334
 Alpha virt. eigenvalues --    0.85374   0.85974   0.86866   0.87461   0.88183
 Alpha virt. eigenvalues --    0.89148   0.90658   0.91659   0.91950   0.92467
 Alpha virt. eigenvalues --    0.92703   0.93905   0.94738   0.97003   0.97356
 Alpha virt. eigenvalues --    0.99516   1.00433   1.01706   1.04756   1.06273
 Alpha virt. eigenvalues --    1.07171   1.08338   1.10614   1.12743   1.17279
 Alpha virt. eigenvalues --    1.17758   1.21910   1.23447   1.25447   1.29766
 Alpha virt. eigenvalues --    1.30397   1.33278   1.35870   1.36150   1.36995
 Alpha virt. eigenvalues --    1.38093   1.39706   1.39774   1.42272   1.43694
 Alpha virt. eigenvalues --    1.48247   1.49462   1.50403   1.51635   1.53867
 Alpha virt. eigenvalues --    1.54693   1.56326   1.57582   1.62575   1.66111
 Alpha virt. eigenvalues --    1.67465   1.69652   1.73415   1.74575   1.75616
 Alpha virt. eigenvalues --    1.77315   1.77572   1.78382   1.79635   1.83491
 Alpha virt. eigenvalues --    1.84366   1.85197   1.86533   1.88391   1.89502
 Alpha virt. eigenvalues --    1.90912   1.92099   1.93733   1.95143   1.95858
 Alpha virt. eigenvalues --    1.97142   1.99285   2.00189   2.05370   2.07277
 Alpha virt. eigenvalues --    2.07715   2.09222   2.09967   2.11342   2.12537
 Alpha virt. eigenvalues --    2.13345   2.20296   2.21617   2.25047   2.25415
 Alpha virt. eigenvalues --    2.27128   2.28002   2.31105   2.32378   2.33946
 Alpha virt. eigenvalues --    2.36154   2.37074   2.39560   2.41325   2.41769
 Alpha virt. eigenvalues --    2.44746   2.45290   2.47978   2.48556   2.53289
 Alpha virt. eigenvalues --    2.55388   2.59468   2.60055   2.60574   2.61646
 Alpha virt. eigenvalues --    2.63375   2.68125   2.69437   2.71082   2.75473
 Alpha virt. eigenvalues --    2.77412   2.79104   2.83995   2.85495   2.92485
 Alpha virt. eigenvalues --    2.98545   3.00575   3.01580   3.05065   3.09358
 Alpha virt. eigenvalues --    3.14467   3.16158   3.77491   3.82688   3.93624
 Alpha virt. eigenvalues --    4.01866   4.06046   4.09980   4.10605   4.16414
 Alpha virt. eigenvalues --    4.22373   4.25378   4.32242   4.37964   4.44564
 Alpha virt. eigenvalues --    4.50153   4.55791   4.64875
          Condensed to atoms (all electrons):
               1          2          3          4          5          6
     1  O    8.154256   0.512961  -0.085939   0.000638  -0.000470  -0.000003
     2  C    0.512961   4.394437   0.270797  -0.029034   0.001575   0.000131
     3  N   -0.085939   0.270797   7.085173   0.237165  -0.047968   0.003178
     4  C    0.000638  -0.029034   0.237165   5.278176   0.265790  -0.096795
     5  C   -0.000470   0.001575  -0.047968   0.265790   4.401252   0.253666
     6  O   -0.000003   0.000131   0.003178  -0.096795   0.253666   8.241795
     7  O   -0.000867   0.010912  -0.005651  -0.086318   0.618312  -0.076046
     8  C   -0.000932  -0.003223  -0.035313   0.314153  -0.038230   0.001594
     9  C   -0.006790  -0.002486   0.001915  -0.046565   0.003239   0.000258
    10  C    0.000048  -0.000083  -0.000477  -0.002446  -0.000008   0.000001
    11  N   -0.000008  -0.000022   0.000006  -0.000014   0.000001   0.000000
    12  C    0.000328   0.000212   0.000121   0.000102   0.000001   0.000000
    13  N   -0.011966   0.003847  -0.000276  -0.002282  -0.000047  -0.000001
    14  C   -0.087974   0.280249  -0.110409   0.005642  -0.000216   0.000000
    15  C    0.006446  -0.022947   0.002833  -0.000151   0.000000   0.000000
    16  N    0.000263   0.005478  -0.000071   0.000001   0.000000   0.000000
    17  H    0.003557  -0.024235   0.308332  -0.035946   0.000764   0.000055
    18  H   -0.000050   0.003934  -0.040069   0.354688  -0.040656   0.003395
    19  H    0.000001  -0.000025   0.000358   0.007453  -0.022307   0.225900
    20  H    0.000717   0.000392   0.004085  -0.042492  -0.003499   0.004981
    21  H    0.012682   0.002477  -0.006248  -0.038518  -0.001685  -0.000091
    22  H    0.000001   0.000000   0.000001   0.000108  -0.000004   0.000000
    23  H   -0.000007  -0.000001   0.000005  -0.000002   0.000000   0.000000
    24  H    0.036213  -0.000538  -0.002607   0.000107  -0.000041   0.000000
    25  H    0.001815  -0.029998   0.003186   0.000515  -0.000005   0.000000
    26  H    0.000121  -0.015153  -0.002071  -0.000463   0.000119   0.000000
    27  H    0.006232  -0.001182   0.000235   0.000012  -0.000001   0.000000
    28  H    0.002105   0.000866   0.000041  -0.000003   0.000000   0.000000
    29  H    0.000003   0.000099  -0.000004   0.000000   0.000000   0.000000
    30  H    0.000005   0.000162  -0.000002   0.000000   0.000000   0.000000
               7          8          9         10         11         12
     1  O   -0.000867  -0.000932  -0.006790   0.000048  -0.000008   0.000328
     2  C    0.010912  -0.003223  -0.002486  -0.000083  -0.000022   0.000212
     3  N   -0.005651  -0.035313   0.001915  -0.000477   0.000006   0.000121
     4  C   -0.086318   0.314153  -0.046565  -0.002446  -0.000014   0.000102
     5  C    0.618312  -0.038230   0.003239  -0.000008   0.000001   0.000001
     6  O   -0.076046   0.001594   0.000258   0.000001   0.000000   0.000000
     7  O    7.961283  -0.002442  -0.000118   0.000000   0.000000   0.000000
     8  C   -0.002442   5.261602   0.326813  -0.069318   0.007523   0.006939
     9  C   -0.000118   0.326813   4.723310   0.569352  -0.040196  -0.091651
    10  C    0.000000  -0.069318   0.569352   4.962761   0.423737  -0.123530
    11  N    0.000000   0.007523  -0.040196   0.423737   6.670538   0.536003
    12  C    0.000000   0.006939  -0.091651  -0.123530   0.536003   4.738063
    13  N    0.000000  -0.064822   0.371619  -0.068764  -0.087184   0.360371
    14  C   -0.000635   0.000132  -0.000174   0.000001   0.000000   0.000022
    15  C    0.000005   0.000010   0.000001   0.000000   0.000000  -0.000004
    16  N    0.000000   0.000000   0.000000   0.000000   0.000000   0.000000
    17  H    0.001729   0.004696  -0.000167  -0.000024   0.000000   0.000014
    18  H    0.001793  -0.033769  -0.003978   0.002835  -0.000065  -0.000069
    19  H    0.004744  -0.000186  -0.000178   0.000003   0.000000   0.000000
    20  H   -0.000073   0.345383  -0.028528  -0.002602   0.000002   0.000010
    21  H    0.001073   0.353348  -0.017592   0.002976  -0.000180   0.000060
    22  H    0.000000  -0.001211  -0.062726   0.380714  -0.042709   0.007622
    23  H    0.000000  -0.000189   0.003434   0.007550  -0.039411   0.381632
    24  H    0.000001  -0.002786  -0.025045   0.008239   0.004311  -0.021872
    25  H    0.000004  -0.000041   0.000020   0.000000   0.000000  -0.000003
    26  H    0.000643  -0.000003   0.000001   0.000000   0.000000   0.000000
    27  H   -0.000001  -0.000002   0.000001   0.000000   0.000000   0.000000
    28  H    0.000000  -0.000001   0.000000   0.000000   0.000000   0.000005
    29  H    0.000000   0.000000   0.000000   0.000000   0.000000   0.000000
    30  H    0.000000   0.000000   0.000000   0.000000   0.000000   0.000000
              13         14         15         16         17         18
     1  O   -0.011966  -0.087974   0.006446   0.000263   0.003557  -0.000050
     2  C    0.003847   0.280249  -0.022947   0.005478  -0.024235   0.003934
     3  N   -0.000276  -0.110409   0.002833  -0.000071   0.308332  -0.040069
     4  C   -0.002282   0.005642  -0.000151   0.000001  -0.035946   0.354688
     5  C   -0.000047  -0.000216   0.000000   0.000000   0.000764  -0.040656
     6  O   -0.000001   0.000000   0.000000   0.000000   0.000055   0.003395
     7  O    0.000000  -0.000635   0.000005   0.000000   0.001729   0.001793
     8  C   -0.064822   0.000132   0.000010   0.000000   0.004696  -0.033769
     9  C    0.371619  -0.000174   0.000001   0.000000  -0.000167  -0.003978
    10  C   -0.068764   0.000001   0.000000   0.000000  -0.000024   0.002835
    11  N   -0.087184   0.000000   0.000000   0.000000   0.000000  -0.000065
    12  C    0.360371   0.000022  -0.000004   0.000000   0.000014  -0.000069
    13  N    6.878577   0.000051  -0.000080   0.000000   0.000027  -0.000260
    14  C    0.000051   5.444794   0.342389  -0.061607   0.002713  -0.000207
    15  C   -0.000080   0.342389   4.854377   0.334655   0.000081   0.000002
    16  N    0.000000  -0.061607   0.334655   6.865288  -0.000010   0.000000
    17  H    0.000027   0.002713   0.000081  -0.000010   0.404287  -0.004435
    18  H   -0.000260  -0.000207   0.000002   0.000000  -0.004435   0.591741
    19  H    0.000003   0.000000   0.000000   0.000000  -0.000020   0.001779
    20  H    0.003606   0.000012   0.000000   0.000000  -0.000100  -0.004874
    21  H   -0.004254   0.000239  -0.000005   0.000000  -0.000136   0.005490
    22  H    0.005046   0.000000   0.000000   0.000000   0.000000   0.000065
    23  H   -0.058696   0.000000   0.000000   0.000000   0.000000  -0.000001
    24  H    0.273588  -0.000568   0.000388   0.000003  -0.000034   0.000037
    25  H    0.000052   0.345937  -0.035578   0.001069   0.001919  -0.000005
    26  H   -0.000003   0.346581  -0.029952   0.000407   0.000732  -0.000002
    27  H    0.000004  -0.048686   0.386609  -0.036836  -0.000008   0.000000
    28  H   -0.000014  -0.056301   0.386675  -0.038153   0.000003   0.000000
    29  H    0.000000  -0.003402  -0.044118   0.315645   0.000003   0.000000
    30  H    0.000000  -0.002585  -0.045491   0.317946   0.000001   0.000000
              19         20         21         22         23         24
     1  O    0.000001   0.000717   0.012682   0.000001  -0.000007   0.036213
     2  C   -0.000025   0.000392   0.002477   0.000000  -0.000001  -0.000538
     3  N    0.000358   0.004085  -0.006248   0.000001   0.000005  -0.002607
     4  C    0.007453  -0.042492  -0.038518   0.000108  -0.000002   0.000107
     5  C   -0.022307  -0.003499  -0.001685  -0.000004   0.000000  -0.000041
     6  O    0.225900   0.004981  -0.000091   0.000000   0.000000   0.000000
     7  O    0.004744  -0.000073   0.001073   0.000000   0.000000   0.000001
     8  C   -0.000186   0.345383   0.353348  -0.001211  -0.000189  -0.002786
     9  C   -0.000178  -0.028528  -0.017592  -0.062726   0.003434  -0.025045
    10  C    0.000003  -0.002602   0.002976   0.380714   0.007550   0.008239
    11  N    0.000000   0.000002  -0.000180  -0.042709  -0.039411   0.004311
    12  C    0.000000   0.000010   0.000060   0.007622   0.381632  -0.021872
    13  N    0.000003   0.003606  -0.004254   0.005046  -0.058696   0.273588
    14  C    0.000000   0.000012   0.000239   0.000000   0.000000  -0.000568
    15  C    0.000000   0.000000  -0.000005   0.000000   0.000000   0.000388
    16  N    0.000000   0.000000   0.000000   0.000000   0.000000   0.000003
    17  H   -0.000020  -0.000100  -0.000136   0.000000   0.000000  -0.000034
    18  H    0.001779  -0.004874   0.005490   0.000065  -0.000001   0.000037
    19  H    0.359812   0.005823  -0.000059   0.000010   0.000000   0.000000
    20  H    0.005823   0.594725  -0.025439   0.002391   0.000005  -0.000064
    21  H   -0.000059  -0.025439   0.503013  -0.000037  -0.000007   0.001226
    22  H    0.000010   0.002391  -0.000037   0.590177  -0.000159  -0.000094
    23  H    0.000000   0.000005  -0.000007  -0.000159   0.554118   0.000238
    24  H    0.000000  -0.000064   0.001226  -0.000094   0.000238   0.369265
    25  H    0.000000   0.000000  -0.000004   0.000000   0.000000  -0.000132
    26  H    0.000000   0.000000  -0.000009   0.000000   0.000000   0.000019
    27  H    0.000000   0.000000   0.000000   0.000000   0.000000  -0.000019
    28  H    0.000000   0.000000  -0.000002   0.000000   0.000002   0.000563
    29  H    0.000000   0.000000   0.000000   0.000000   0.000000   0.000000
    30  H    0.000000   0.000000   0.000000   0.000000   0.000000   0.000000
              25         26         27         28         29         30
     1  O    0.001815   0.000121   0.006232   0.002105   0.000003   0.000005
     2  C   -0.029998  -0.015153  -0.001182   0.000866   0.000099   0.000162
     3  N    0.003186  -0.002071   0.000235   0.000041  -0.000004  -0.000002
     4  C    0.000515  -0.000463   0.000012  -0.000003   0.000000   0.000000
     5  C   -0.000005   0.000119  -0.000001   0.000000   0.000000   0.000000
     6  O    0.000000   0.000000   0.000000   0.000000   0.000000   0.000000
     7  O    0.000004   0.000643  -0.000001   0.000000   0.000000   0.000000
     8  C   -0.000041  -0.000003  -0.000002  -0.000001   0.000000   0.000000
     9  C    0.000020   0.000001   0.000001   0.000000   0.000000   0.000000
    10  C    0.000000   0.000000   0.000000   0.000000   0.000000   0.000000
    11  N    0.000000   0.000000   0.000000   0.000000   0.000000   0.000000
    12  C   -0.000003   0.000000   0.000000   0.000005   0.000000   0.000000
    13  N    0.000052  -0.000003   0.000004  -0.000014   0.000000   0.000000
    14  C    0.345937   0.346581  -0.048686  -0.056301  -0.003402  -0.002585
    15  C   -0.035578  -0.029952   0.386609   0.386675  -0.044118  -0.045491
    16  N    0.001069   0.000407  -0.036836  -0.038153   0.315645   0.317946
    17  H    0.001919   0.000732  -0.000008   0.000003   0.000003   0.000001
    18  H   -0.000005  -0.000002   0.000000   0.000000   0.000000   0.000000
    19  H    0.000000   0.000000   0.000000   0.000000   0.000000   0.000000
    20  H    0.000000   0.000000   0.000000   0.000000   0.000000   0.000000
    21  H   -0.000004  -0.000009   0.000000  -0.000002   0.000000   0.000000
    22  H    0.000000   0.000000   0.000000   0.000000   0.000000   0.000000
    23  H    0.000000   0.000000   0.000000   0.000002   0.000000   0.000000
    24  H   -0.000132   0.000019  -0.000019   0.000563   0.000000   0.000000
    25  H    0.592672  -0.033236   0.005504  -0.004031   0.005284  -0.000266
    26  H   -0.033236   0.548018  -0.005020   0.005333  -0.000384   0.004838
    27  H    0.005504  -0.005020   0.546959  -0.030386   0.006218  -0.004722
    28  H   -0.004031   0.005333  -0.030386   0.582973  -0.004593   0.006581
    29  H    0.005284  -0.000384   0.006218  -0.004593   0.466912  -0.034803
    30  H   -0.000266   0.004838  -0.004722   0.006581  -0.034803   0.462291
 Mulliken charges:
               1
     1  O   -0.543385
     2  C    0.640398
     3  N   -0.580327
     4  C   -0.083521
     5  C    0.610419
     6  O   -0.562018
     7  O   -0.428350
     8  C   -0.369725
     9  C    0.326231
    10  C   -0.090963
    11  N   -0.432332
    12  C    0.205624
    13  N   -0.598142
    14  C   -0.395999
    15  C   -0.136146
    16  N   -0.704079
    17  H    0.336201
    18  H    0.162681
    19  H    0.416891
    20  H    0.145540
    21  H    0.211682
    22  H    0.120806
    23  H    0.151489
    24  H    0.359603
    25  H    0.145324
    26  H    0.179483
    27  H    0.175091
    28  H    0.148337
    29  H    0.293139
    30  H    0.296045
 Sum of Mulliken charges =   0.00000
 Mulliken charges with hydrogens summed into heavy atoms:
               1
     1  O   -0.543385
     2  C    0.640398
     3  N   -0.244126
     4  C    0.079160
     5  C    0.610419
     6  O   -0.145127
     7  O   -0.428350
     8  C   -0.012503
     9  C    0.326231
    10  C    0.029843
    11  N   -0.432332
    12  C    0.357113
    13  N   -0.238538
    14  C   -0.071191
    15  C    0.187282
    16  N   -0.114894
 APT charges:
               1
     1  O   -0.443697
     2  C    0.222995
     3  N   -0.673419
     4  C   -0.536149
     5  C   -0.200781
     6  O   -0.171923
     7  O   -0.044727
     8  C   -0.916669
     9  C   -0.432617
    10  C   -0.282095
    11  N    0.286854
    12  C   -0.515441
    13  N   -0.642562
    14  C   -0.753172
    15  C   -0.670118
    16  N   -1.144609
    17  H    0.654029
    18  H    0.477311
    19  H    0.582267
    20  H    0.582539
    21  H    0.306921
    22  H    0.735911
    23  H    0.613943
    24  H    0.264928
    25  H    0.349487
    26  H    0.500796
    27  H    0.401522
    28  H    0.254785
    29  H    0.530447
    30  H    0.663246
 Sum of APT charges =   0.00000
 APT charges with hydrogens summed into heavy atoms:
               1
     1  O   -0.443697
     2  C    0.222995
     3  N   -0.019390
     4  C   -0.058838
     5  C   -0.200781
     6  O    0.410344
     7  O   -0.044727
     8  C   -0.027209
     9  C   -0.432617
    10  C    0.453816
    11  N    0.286854
    12  C    0.098501
    13  N   -0.377635
    14  C    0.097111
    15  C   -0.013811
    16  N    0.049084
 Electronic spatial extent (au):  <R**2>=           4356.5835
 Charge=              0.0000 electrons
 Dipole moment (field-independent basis, Debye):
    X=              1.9353    Y=             -0.4067    Z=              3.1593  Tot=              3.7273
 Quadrupole moment (field-independent basis, Debye-Ang):
   XX=            -97.0305   YY=           -108.4570   ZZ=            -92.5721
   XY=             15.0469   XZ=              7.6683   YZ=             -6.0996
 Traceless Quadrupole moment (field-independent basis, Debye-Ang):
   XX=              2.3227   YY=             -9.1038   ZZ=              6.7811
   XY=             15.0469   XZ=              7.6683   YZ=             -6.0996
 Octapole moment (field-independent basis, Debye-Ang**2):
  XXX=            153.0363  YYY=            100.5080  ZZZ=            -37.9927  XYY=             11.9898
  XXY=            -49.5922  XXZ=             -8.4977  XZZ=              9.1276  YZZ=            -17.1045
  YYZ=            -28.4735  XYZ=             50.7839
 Hexadecapole moment (field-independent basis, Debye-Ang**3):
 XXXX=          -2925.6168 YYYY=          -2274.9837 ZZZZ=           -712.8605 XXXY=            152.8526
 XXXZ=            528.0931 YYYX=             78.2280 YYYZ=            290.7566 ZZZX=            454.8408
 ZZZY=            246.2459 XXYY=           -911.7829 XXZZ=           -645.3765 YYZZ=           -480.3136
 XXYZ=             73.7958 YYXZ=            209.8525 ZZXY=              1.7696
 N-N= 1.133947968623D+03 E-N=-4.124131011027D+03  KE= 7.891101651952D+02
  Exact polarizability:   0.000   0.000   0.000   0.000   0.000   0.000
 Approx polarizability: 180.670  -6.887 181.096 -31.953  -7.729 173.023
 Calling FoFJK, ICntrl=    100147 FMM=F ISym2X=0 I1Cent= 0 IOpClX= 0 NMat=1 NMatS=1 NMatT=0.
 -------------------------------------------------------------------
 Center     Atomic                   Forces (Hartrees/Bohr)
 Number     Number              X              Y              Z
 -------------------------------------------------------------------
      1        8           0.002651308    0.002258706    0.000312837
      2        6           0.003316524   -0.003051932   -0.005314190
      3        7          -0.006657096   -0.003118284    0.001094756
      4        6           0.005365269   -0.000543566    0.002026400
      5        6          -0.001722719    0.000658338    0.003496476
      6        8           0.005918858   -0.007354913   -0.003846055
      7        8           0.009832507   -0.003269820   -0.005235653
      8        6          -0.006042161    0.004924513    0.000063141
      9        6           0.003458427   -0.007522998   -0.003793278
     10        6          -0.003663535    0.011077136    0.002330535
     11        7          -0.006580360   -0.001185880    0.007007981
     12        6          -0.000978107   -0.000707212    0.000899968
     13        7           0.004299894   -0.000737349   -0.005701128
     14        6          -0.001593868   -0.001797256    0.001001986
     15        6           0.003194197    0.001356279   -0.000099222
     16        7          -0.002264092    0.001573383   -0.004610921
     17        1           0.003894868    0.000404924    0.004023636
     18        1          -0.002311180    0.001266980    0.002084119
     19        1          -0.009672364    0.004253571    0.005097049
     20        1          -0.001812621   -0.001502774    0.001300957
     21        1           0.000801018   -0.001058825   -0.002710816
     22        1          -0.001271719   -0.000387967    0.000639314
     23        1          -0.000744045    0.005124621   -0.001166387
     24        1           0.001055469   -0.002234393   -0.000985454
     25        1           0.001119404    0.001545759    0.001689623
     26        1          -0.000705937   -0.001252360    0.000669823
     27        1          -0.001195569   -0.000752377   -0.002838524
     28        1          -0.001798706    0.002354814   -0.001242297
     29        1           0.000935386    0.002396961    0.003520227
     30        1           0.003170948   -0.002718078    0.000285096
 -------------------------------------------------------------------
 Cartesian Forces:  Max     0.011077136 RMS     0.003627453
 FormGI is forming the generalized inverse of G from B-inverse, IUseBI=4.

 GradGradGradGradGradGradGradGradGradGradGradGradGradGradGradGradGradGrad
 Berny optimization.
 Internal  Forces:  Max     0.011669796 RMS     0.003175774
 Search for a local minimum.
 Step number   1 out of a maximum of  160
 All quantities printed in internal units (Hartrees-Bohrs-Radians)
 Mixed Optimization -- RFO/linear search
 Second derivative matrix not updated -- analytic derivatives used.
 ITU=  0
     Eigenvalues ---    0.00032   0.00123   0.00248   0.00327   0.00336
     Eigenvalues ---    0.00369   0.00611   0.00873   0.01014   0.01105
     Eigenvalues ---    0.01169   0.02027   0.02409   0.02735   0.03130
     Eigenvalues ---    0.03560   0.04198   0.04341   0.04517   0.04521
     Eigenvalues ---    0.04581   0.04827   0.04914   0.05338   0.05490
     Eigenvalues ---    0.06213   0.06279   0.07185   0.07953   0.08345
     Eigenvalues ---    0.08918   0.10555   0.10962   0.11122   0.11995
     Eigenvalues ---    0.12532   0.12961   0.13899   0.14990   0.16544
     Eigenvalues ---    0.17116   0.18348   0.18542   0.18880   0.19237
     Eigenvalues ---    0.20836   0.22046   0.22197   0.23166   0.23757
     Eigenvalues ---    0.23955   0.24650   0.25309   0.27472   0.28930
     Eigenvalues ---    0.30786   0.32893   0.33171   0.33244   0.33898
     Eigenvalues ---    0.34129   0.34277   0.34657   0.35068   0.35303
     Eigenvalues ---    0.36450   0.37359   0.37738   0.38002   0.38760
     Eigenvalues ---    0.42867   0.42901   0.44820   0.45384   0.45653
     Eigenvalues ---    0.46462   0.46707   0.48199   0.49478   0.54568
     Eigenvalues ---    0.59600   0.62650   0.79440   0.95967
 RFO step:  Lambda=-4.11179454D-03 EMin= 3.15246946D-04
 Linear search not attempted -- first point.
 Iteration  1 RMS(Cart)=  0.09220976 RMS(Int)=  0.00288025
 Iteration  2 RMS(Cart)=  0.00415580 RMS(Int)=  0.00008108
 Iteration  3 RMS(Cart)=  0.00001018 RMS(Int)=  0.00008094
 Iteration  4 RMS(Cart)=  0.00000000 RMS(Int)=  0.00008094
 Variable       Old X    -DE/DX   Delta X   Delta X   Delta X     New X
                                 (Linear)    (Quad)   (Total)
    R1        2.32855  -0.00189   0.00000  -0.00285  -0.00285   2.32570
    R2        2.57421   0.00878   0.00000   0.01775   0.01775   2.59197
    R3        2.87986   0.00182   0.00000   0.00185   0.00185   2.88171
    R4        2.75100   0.00287   0.00000   0.00046   0.00046   2.75147
    R5        1.90042   0.00561   0.00000   0.01206   0.01206   1.91248
    R6        2.89923   0.00676   0.00000   0.02253   0.02253   2.92176
    R7        2.90958   0.01150   0.00000   0.03327   0.03327   2.94284
    R8        2.06846   0.00273   0.00000   0.00734   0.00734   2.07580
    R9        2.55960   0.00493   0.00000   0.00578   0.00578   2.56538
   R10        2.26224   0.01161   0.00000   0.01166   0.01166   2.27390
   R11        1.81394   0.01167   0.00000   0.02129   0.02129   1.83523
   R12        2.82061   0.00467   0.00000   0.00345   0.00345   2.82406
   R13        2.06481   0.00264   0.00000   0.00792   0.00792   2.07274
   R14        2.05280   0.00298   0.00000   0.00982   0.00982   2.06262
   R15        2.58180   0.01145   0.00000   0.02096   0.02102   2.60281
   R16        2.59815   0.00372   0.00000   0.01000   0.01006   2.60821
   R17        2.61433  -0.00332   0.00000  -0.01470  -0.01473   2.59960
   R18        2.04245   0.00133   0.00000   0.00433   0.00433   2.04678
   R19        2.47933   0.00566   0.00000   0.01165   0.01158   2.49091
   R20        2.55987   0.00929   0.00000   0.01425   0.01422   2.57409
   R21        2.03252   0.00489   0.00000   0.01181   0.01181   2.04434
   R22        1.91305   0.00165   0.00000   0.00502   0.00502   1.91807
   R23        2.88820   0.00676   0.00000   0.02078   0.02078   2.90898
   R24        2.07091   0.00238   0.00000   0.00637   0.00637   2.07729
   R25        2.07718   0.00053   0.00000   0.00194   0.00194   2.07912
   R26        2.75949   0.00221   0.00000   0.00335   0.00335   2.76284
   R27        2.05883   0.00285   0.00000   0.00756   0.00756   2.06639
   R28        2.06249   0.00305   0.00000   0.00908   0.00908   2.07157
   R29        1.91577   0.00434   0.00000   0.00995   0.00995   1.92572
   R30        1.91604   0.00417   0.00000   0.00956   0.00956   1.92560
    A1        2.15337   0.00232   0.00000  -0.00002  -0.00003   2.15334
    A2        2.13920  -0.00398   0.00000  -0.01023  -0.01024   2.12896
    A3        1.99038   0.00164   0.00000   0.01012   0.01012   2.00049
    A4        2.19605   0.00616   0.00000   0.00299   0.00276   2.19881
    A5        2.01098  -0.00319   0.00000  -0.01189  -0.01213   1.99885
    A6        1.98565  -0.00273   0.00000  -0.00760  -0.00786   1.97778
    A7        1.92900  -0.00601   0.00000  -0.01907  -0.01911   1.90989
    A8        2.00873   0.00653   0.00000   0.01019   0.01025   2.01897
    A9        1.84153   0.00001   0.00000   0.00721   0.00727   1.84881
   A10        1.91907   0.00122   0.00000   0.01421   0.01426   1.93333
   A11        1.87106   0.00189   0.00000   0.00797   0.00806   1.87912
   A12        1.88759  -0.00390   0.00000  -0.02107  -0.02108   1.86651
   A13        2.00601   0.00076   0.00000   0.00923   0.00923   2.01525
   A14        2.17040  -0.00045   0.00000  -0.00676  -0.00676   2.16365
   A15        2.10674  -0.00031   0.00000  -0.00247  -0.00247   2.10427
   A16        1.92916   0.00207   0.00000   0.00596   0.00596   1.93512
   A17        1.96811   0.00967   0.00000   0.03329   0.03329   2.00140
   A18        1.88468  -0.00353   0.00000  -0.01182  -0.01185   1.87283
   A19        1.90727  -0.00241   0.00000  -0.00894  -0.00901   1.89826
   A20        1.89441  -0.00308   0.00000  -0.00641  -0.00636   1.88805
   A21        1.93511  -0.00244   0.00000  -0.00643  -0.00645   1.92866
   A22        1.87101   0.00138   0.00000  -0.00146  -0.00159   1.86942
   A23        2.31160   0.00018   0.00000   0.00907   0.00875   2.32035
   A24        2.13722   0.00221   0.00000  -0.00030  -0.00062   2.13660
   A25        1.83346  -0.00235   0.00000  -0.00718  -0.00724   1.82622
   A26        1.92810   0.00412   0.00000   0.01103   0.01107   1.93917
   A27        2.23779  -0.00171   0.00000  -0.00750  -0.00761   2.23018
   A28        2.11728  -0.00240   0.00000  -0.00342  -0.00353   2.11375
   A29        1.83446  -0.00199   0.00000  -0.00398  -0.00402   1.83044
   A30        1.95001   0.00228   0.00000   0.00460   0.00457   1.95458
   A31        2.21056  -0.00317   0.00000  -0.01729  -0.01729   2.19327
   A32        2.12261   0.00090   0.00000   0.01272   0.01272   2.13533
   A33        1.87874  -0.00205   0.00000  -0.00445  -0.00438   1.87436
   A34        2.16951  -0.00095   0.00000  -0.01605  -0.01612   2.15339
   A35        2.23486   0.00301   0.00000   0.02035   0.02026   2.25512
   A36        1.97166   0.00087   0.00000   0.00140   0.00137   1.97303
   A37        1.90576   0.00092   0.00000   0.01615   0.01617   1.92193
   A38        1.88634  -0.00187   0.00000  -0.01980  -0.01977   1.86657
   A39        1.92855  -0.00112   0.00000  -0.00498  -0.00503   1.92351
   A40        1.90901   0.00114   0.00000   0.00800   0.00797   1.91698
   A41        1.85864  -0.00001   0.00000  -0.00126  -0.00119   1.85745
   A42        2.00690   0.00139   0.00000   0.00784   0.00781   2.01471
   A43        1.89898   0.00009   0.00000   0.00230   0.00228   1.90125
   A44        1.90863   0.00015   0.00000  -0.00056  -0.00055   1.90808
   A45        1.89228  -0.00049   0.00000   0.00136   0.00132   1.89360
   A46        1.88906  -0.00077   0.00000  -0.00302  -0.00302   1.88604
   A47        1.86271  -0.00052   0.00000  -0.00924  -0.00924   1.85346
   A48        1.92686   0.00036   0.00000   0.00016   0.00016   1.92702
   A49        1.92423   0.00044   0.00000  -0.00019  -0.00020   1.92404
   A50        1.86113  -0.00040   0.00000  -0.00584  -0.00585   1.85529
    D1        0.34410   0.00111   0.00000   0.06048   0.06044   0.40454
    D2        3.01109   0.00069   0.00000   0.01733   0.01738   3.02848
    D3       -2.82089   0.00044   0.00000   0.05403   0.05398  -2.76691
    D4       -0.15390   0.00002   0.00000   0.01088   0.01092  -0.14298
    D5        0.32202   0.00015   0.00000   0.03684   0.03684   0.35886
    D6        2.47544  -0.00001   0.00000   0.04329   0.04335   2.51880
    D7       -1.79263  -0.00055   0.00000   0.03960   0.03956  -1.75308
    D8       -2.79639   0.00072   0.00000   0.04308   0.04306  -2.75333
    D9       -0.64297   0.00056   0.00000   0.04952   0.04957  -0.59340
   D10        1.37214   0.00002   0.00000   0.04583   0.04578   1.41792
   D11        1.39566   0.00002   0.00000  -0.01272  -0.01274   1.38292
   D12       -0.79101  -0.00176   0.00000  -0.02408  -0.02404  -0.81505
   D13       -2.87040  -0.00068   0.00000  -0.00869  -0.00870  -2.87910
   D14       -1.27722   0.00058   0.00000   0.03095   0.03092  -1.24630
   D15        2.81930  -0.00120   0.00000   0.01959   0.01962   2.83891
   D16        0.73991  -0.00012   0.00000   0.03497   0.03496   0.77486
   D17        2.87232  -0.00162   0.00000   0.05789   0.05791   2.93023
   D18       -0.26091  -0.00219   0.00000   0.05723   0.05725  -0.20366
   D19       -1.17432   0.00331   0.00000   0.06764   0.06757  -1.10675
   D20        1.97563   0.00274   0.00000   0.06697   0.06691   2.04254
   D21        0.87375   0.00040   0.00000   0.05469   0.05473   0.92847
   D22       -2.25949  -0.00018   0.00000   0.05403   0.05406  -2.20542
   D23       -0.98200  -0.00191   0.00000   0.02083   0.02087  -0.96113
   D24       -3.07499  -0.00166   0.00000   0.01626   0.01636  -3.05863
   D25        1.17853  -0.00007   0.00000   0.02928   0.02930   1.20783
   D26        3.10937   0.00009   0.00000   0.02679   0.02670   3.13607
   D27        1.01637   0.00035   0.00000   0.02221   0.02219   1.03857
   D28       -1.01329   0.00194   0.00000   0.03524   0.03514  -0.97815
   D29        1.07162  -0.00061   0.00000   0.02147   0.02147   1.09309
   D30       -1.02138  -0.00036   0.00000   0.01689   0.01696  -1.00442
   D31       -3.05104   0.00123   0.00000   0.02992   0.02990  -3.02113
   D32       -0.03902   0.00004   0.00000   0.02073   0.02073  -0.01829
   D33        3.09454   0.00059   0.00000   0.02135   0.02135   3.11589
   D34       -1.60419   0.00105   0.00000  -0.02312  -0.02319  -1.62738
   D35        1.48457   0.00197   0.00000   0.02323   0.02331   1.50788
   D36        0.48319   0.00059   0.00000  -0.02145  -0.02152   0.46167
   D37       -2.71123   0.00151   0.00000   0.02489   0.02497  -2.68626
   D38        2.53392  -0.00100   0.00000  -0.03081  -0.03089   2.50303
   D39       -0.66050  -0.00008   0.00000   0.01553   0.01560  -0.64490
   D40        3.09145   0.00096   0.00000   0.04346   0.04360   3.13505
   D41       -0.04363   0.00030   0.00000   0.02309   0.02317  -0.02046
   D42       -0.00399   0.00007   0.00000   0.00289   0.00297  -0.00101
   D43       -3.13906  -0.00060   0.00000  -0.01747  -0.01746   3.12666
   D44       -3.09756  -0.00089   0.00000  -0.03815  -0.03796  -3.13552
   D45        0.03236  -0.00036   0.00000  -0.05111  -0.05075  -0.01839
   D46        0.00367  -0.00015   0.00000  -0.00234  -0.00239   0.00128
   D47        3.13359   0.00038   0.00000  -0.01530  -0.01518   3.11841
   D48        0.00274   0.00002   0.00000  -0.00237  -0.00241   0.00033
   D49        3.13834   0.00063   0.00000   0.01634   0.01643  -3.12841
   D50       -0.00032  -0.00012   0.00000   0.00085   0.00084   0.00052
   D51       -3.13836  -0.00045   0.00000  -0.00713  -0.00693   3.13790
   D52       -0.00216   0.00016   0.00000   0.00093   0.00098  -0.00117
   D53       -3.13151  -0.00036   0.00000   0.01485   0.01510  -3.11641
   D54        3.13609   0.00047   0.00000   0.00838   0.00839  -3.13871
   D55        0.00674  -0.00005   0.00000   0.02230   0.02250   0.02924
   D56        3.11988   0.00077   0.00000   0.03874   0.03873  -3.12457
   D57       -1.03751   0.00117   0.00000   0.04766   0.04766  -0.98985
   D58        0.99093   0.00068   0.00000   0.03759   0.03759   1.02851
   D59        0.97911  -0.00022   0.00000   0.02044   0.02044   0.99955
   D60        3.10490   0.00018   0.00000   0.02936   0.02937   3.13427
   D61       -1.14984  -0.00031   0.00000   0.01929   0.01930  -1.13055
   D62       -1.06155  -0.00023   0.00000   0.02010   0.02009  -1.04146
   D63        1.06424   0.00017   0.00000   0.02902   0.02902   1.09326
   D64        3.09268  -0.00032   0.00000   0.01896   0.01895   3.11162
   D65       -1.01949   0.00013   0.00000   0.01489   0.01490  -1.00459
   D66        1.03241   0.00012   0.00000   0.00769   0.00770   1.04011
   D67        3.13428  -0.00058   0.00000   0.00551   0.00551   3.13979
   D68       -1.09700  -0.00058   0.00000  -0.00169  -0.00169  -1.09869
   D69        1.12001   0.00069   0.00000   0.01726   0.01726   1.13726
   D70       -3.11127   0.00068   0.00000   0.01006   0.01006  -3.10122
         Item               Value     Threshold  Converged?
 Maximum Force            0.011670     0.000450     NO 
 RMS     Force            0.003176     0.000300     NO 
 Maximum Displacement     0.399418     0.001800     NO 
 RMS     Displacement     0.093970     0.001200     NO 
 Predicted change in Energy=-2.222596D-03
 GradGradGradGradGradGradGradGradGradGradGradGradGradGradGradGradGradGrad

                          Input orientation:                          
 ---------------------------------------------------------------------
 Center     Atomic      Atomic             Coordinates (Angstroms)
 Number     Number       Type             X           Y           Z
 ---------------------------------------------------------------------
      1          8           0        0.286078   -0.171998   -1.248634
      2          6           0        0.972307   -0.128255   -0.227937
      3          7           0        0.511703   -0.505422    1.007743
      4          6           0       -0.593963   -1.416595    1.267049
      5          6           0       -0.110334   -2.874791    1.093030
      6          8           0       -0.959944   -3.829980    1.549864
      7          8           0        0.943746   -3.179068    0.598812
      8          6           0       -1.887474   -1.161120    0.438374
      9          6           0       -2.436255    0.224420    0.549862
     10          6           0       -3.383412    0.795366    1.370842
     11          7           0       -3.540487    2.132954    1.090492
     12          6           0       -2.696528    2.373984    0.107077
     13          7           0       -2.006395    1.257746   -0.257870
     14          6           0        2.404558    0.395148   -0.239468
     15          6           0        2.709393    1.289973   -1.454378
     16          7           0        4.076466    1.802850   -1.529217
     17          1           0        1.216248   -0.513450    1.734229
     18          1           0       -0.858156   -1.276922    2.324082
     19          1           0       -1.753960   -3.429089    1.939706
     20          1           0       -2.650281   -1.861408    0.800026
     21          1           0       -1.690772   -1.411569   -0.605627
     22          1           0       -3.970628    0.312581    2.142345
     23          1           0       -2.548311    3.330130   -0.376807
     24          1           0       -1.285175    1.151572   -0.964120
     25          1           0        2.616885    0.936275    0.693515
     26          1           0        3.066957   -0.483290   -0.247247
     27          1           0        2.498488    0.729768   -2.369474
     28          1           0        2.024681    2.146058   -1.455288
     29          1           0        4.303697    2.332828   -0.689010
     30          1           0        4.740775    1.031203   -1.569015
 ---------------------------------------------------------------------
                    Distance matrix (angstroms):
                    1          2          3          4          5
     1  O    0.000000
     2  C    1.230709   0.000000
     3  N    2.292011   1.371611   0.000000
     4  C    2.941454   2.519525   1.456013   0.000000
     5  C    3.598002   3.234274   2.451145   1.546129   0.000000
     6  O    4.771267   4.538385   3.675912   2.457306   1.357542
     7  O    3.589993   3.160979   2.739027   2.432571   1.203296
     8  C    2.923813   3.112737   2.551504   1.557286   2.554109
     9  C    3.286766   3.513922   3.071284   2.569305   3.912806
    10  C    4.611139   4.730905   4.122598   3.561540   4.925471
    11  N    5.042510   5.216956   4.836126   4.616543   6.069881
    12  C    4.149207   4.453514   4.403967   4.487182   5.933813
    13  N    2.877710   3.285508   3.324358   3.387099   4.743189
    14  C    2.414131   1.524935   2.439151   3.813546   4.335058
    15  C    2.837631   2.555973   3.757037   5.063975   5.637855
    16  N    4.283199   3.880502   4.946900   6.324305   6.803367
    17  H    3.143132   2.014443   1.012042   2.076245   2.783322
    18  H    3.910809   3.344075   2.050482   1.098466   2.151258
    19  H    4.993586   4.798616   3.814396   2.418304   1.930185
    20  H    3.958954   4.145319   3.446736   2.155089   2.750296
    21  H    2.420316   2.980191   2.876624   2.170237   2.743035
    22  H    5.463800   5.499563   4.695503   3.893336   5.114907
    23  H    4.588980   4.937341   5.098247   5.390096   6.826799
    24  H    2.074035   2.697434   3.140485   3.471509   4.671586
    25  H    3.229996   2.164933   2.570801   4.021751   4.703356
    26  H    2.972030   2.124613   2.846895   4.070195   4.196522
    27  H    2.638981   2.766155   4.108358   5.233969   5.638061
    28  H    2.904967   2.790409   3.922496   5.192390   6.021722
    29  H    4.767452   4.167454   5.031287   6.470813   7.055397
    30  H    4.625437   4.164635   5.185166   6.518774   6.773222
                    6          7          8          9         10
     6  O    0.000000
     7  O    2.225359   0.000000
     8  C    3.036205   3.480469   0.000000
     9  C    4.429183   4.796930   1.494427   0.000000
    10  C    5.224851   5.925913   2.633470   1.377350   0.000000
    11  N    6.513586   6.969051   3.742810   2.270266   1.375649
    12  C    6.602010   6.658062   3.641605   2.210074   2.135637
    13  N    5.499811   5.396532   2.519883   1.380207   2.182354
    14  C    5.689753   3.951165   4.615515   4.907714   6.021118
    15  C    6.978784   5.225460   5.542703   5.624063   6.734150
    16  N    8.159347   6.257951   6.944430   7.016377   8.066917
    17  H    3.971042   2.910146   3.425172   3.909982   4.796032
    18  H    2.669809   3.137127   2.151465   2.809321   3.402934
    19  H    0.971160   3.022933   2.723143   3.968038   4.563413
    20  H    2.700884   3.833242   1.096845   2.111650   2.814562
    21  H    3.320988   3.393437   1.091492   2.137138   3.412040
    22  H    5.155198   6.222956   3.068362   2.213160   1.083108
    23  H    7.583017   7.450902   4.612217   3.242947   3.190094
    24  H    5.589432   5.115202   2.770974   2.115830   3.159356
    25  H    6.020318   4.443468   4.975280   5.105056   6.040048
    26  H    5.535871   3.534269   5.047367   5.605495   6.772033
    27  H    6.936372   5.148489   5.540409   5.755831   6.970725
    28  H    7.324750   5.809020   5.461533   5.254833   6.249708
    29  H    8.408250   6.582458   7.197865   7.169878   8.105456
    30  H    8.115215   6.069867   7.264267   7.526640   8.642962
                   11         12         13         14         15
    11  N    0.000000
    12  C    1.318131   0.000000
    13  N    2.222050   1.362152   0.000000
    14  C    6.335007   5.482423   4.494544   0.000000
    15  C    6.800587   5.730376   4.865320   1.539365   0.000000
    16  N    8.061626   6.991216   6.238162   2.537785   1.462030
    17  H    5.481275   5.127837   4.182227   2.476512   3.955886
    18  H    4.510421   4.650144   3.795981   4.473579   5.795958
    19  H    5.903318   6.158135   5.182614   6.055316   7.328770
    20  H    4.102653   4.291953   3.356017   5.632405   6.613595
    21  H    4.343030   3.981194   2.710313   4.491105   5.232606
    22  H    2.145967   3.164654   3.242311   6.806089   7.649471
    23  H    2.137899   1.081816   2.145365   5.758810   5.741677
    24  H    3.204836   2.152597   1.014998   3.835548   4.026920
    25  H    6.285130   5.535636   4.731088   1.099254   2.178786
    26  H    7.231361   6.442617   5.363788   1.100221   2.174737
    27  H    7.099966   5.985394   5.003160   2.158175   1.093486
    28  H    6.119825   4.978227   4.297963   2.165228   1.096227
    29  H    8.045980   7.045466   6.415524   2.750168   2.053080
    30  H    8.767333   7.741177   6.877117   2.762277   2.051003
                   16         17         18         19         20
    16  N    0.000000
    17  H    4.918961   0.000000
    18  H    6.977350   2.287787   0.000000
    19  H    8.567408   4.167170   2.362633   0.000000
    20  H    8.006327   4.199972   2.424063   2.135389   0.000000
    21  H    6.666824   3.838269   3.048701   3.248553   1.760361
    22  H    8.969783   5.268071   3.499576   4.353709   2.875998
    23  H    6.895528   5.779402   5.601460   7.189177   5.324227
    24  H    5.430534   4.038627   4.110013   5.443751   3.748836
    25  H    2.796761   2.268606   4.430903   6.301879   5.965015
    26  H    2.808735   2.711509   4.759002   6.058195   5.973507
    27  H    2.085079   4.475501   6.109283   7.344960   6.577974
    28  H    2.081605   4.230789   5.857575   7.542306   6.557552
    29  H    1.019048   4.848271   6.982389   8.763849   8.256310
    30  H    1.018984   5.071457   7.199422   8.624785   8.282950
                   21         22         23         24         25
    21  H    0.000000
    22  H    3.965071   0.000000
    23  H    4.824048   4.180277   0.000000
    24  H    2.619679   4.191145   2.585839   0.000000
    25  H    5.075042   6.773731   5.792700   4.245018   0.000000
    26  H    4.860671   7.474702   6.788975   4.704012   1.761467
    27  H    5.024577   7.898103   6.016875   4.058207   3.072226
    28  H    5.213754   7.228301   4.845348   3.490759   2.536067
    29  H    7.068318   8.975658   6.931240   5.718964   2.589802
    30  H    6.946946   9.496271   7.735451   6.057430   3.104669
                   26         27         28         29         30
    26  H    0.000000
    27  H    2.509684   0.000000
    28  H    3.075577   1.751030   0.000000
    29  H    3.107282   2.941520   2.411634   0.000000
    30  H    2.615804   2.399885   2.938197   1.630850   0.000000
 Symmetry turned off by external request.
 Stoichiometry    C9H14N4O3
 Framework group  C1[X(C9H14N4O3)]
 Deg. of freedom    84
 Full point group                 C1      NOp   1
 Rotational constants (GHZ):      0.5391566      0.3966943      0.2440378
 Standard basis: 6-31G(d) (6D, 7F)
   268 basis functions,   504 primitive gaussians,   268 cartesian basis functions
    60 alpha electrons       60 beta electrons
       nuclear repulsion energy      1125.9960902957 Hartrees.
 NAtoms=   30 NActive=   30 NUniq=   30 SFac= 1.00D+00 NAtFMM=   60 NAOKFM=F Big=F
 Integral buffers will be    131072 words long.
 Raffenetti 2 integral format.
 Two-electron integral symmetry is turned off.
 One-electron integrals computed using PRISM.
 NBasis=   268 RedAO= T EigKep=  1.17D-03  NBF=   268
 NBsUse=   268 1.00D-06 EigRej= -1.00D+00 NBFU=   268
 Initial guess from the checkpoint file:  "conf-455.chk"
 B after Tr=    -0.002474    0.023018    0.003957
         Rot=    0.999988    0.001670    0.002544   -0.003910 Ang=   0.57 deg.
 ExpMin= 1.61D-01 ExpMax= 5.48D+03 ExpMxC= 8.25D+02 IAcc=2 IRadAn=         4 AccDes= 0.00D+00
 Harris functional with IExCor=  402 and IRadAn=       4 diagonalized for initial guess.
 HarFok:  IExCor=  402 AccDes= 0.00D+00 IRadAn=         4 IDoV= 1 UseB2=F ITyADJ=14
 ICtDFT=  3500011 ScaDFX=  1.000000  1.000000  1.000000  1.000000
 FoFCou: FMM=F IPFlag=           0 FMFlag=      100000 FMFlg1=           0
         NFxFlg=           0 DoJE=T BraDBF=F KetDBF=T FulRan=T
         wScrn=  0.000000 ICntrl=     500 IOpCl=  0 I1Cent=   200000004 NGrid=           0
         NMat0=    1 NMatS0=      1 NMatT0=    0 NMatD0=    1 NMtDS0=    0 NMtDT0=    0
 Symmetry not used in FoFCou.
 Requested convergence on RMS density matrix=1.00D-08 within 128 cycles.
[...]
 4,0.00786753,-0.02113102,0.05849137,-0.08179267,-0.03821522,-0.0002823
 0,-0.00066363,-0.00052855,-0.00037494,0.00092851,-0.00032166,-0.000038
 35,-0.00051810,0.00024189,0.00005304,0.00046732,-0.00007971,-0.0000925
 3,0.00013087,-0.00017634,-0.00009176,-0.00005821,0.00004907,0.00012792
 ,0.00006296,-0.00044793,-0.00014607,-0.00138200,-0.00017530,-0.0003653
 6,0.00126143,0.00099298,-0.00067883,-0.00044919,0.00033885,-0.05253111
 ,0.06857967,0.00060527,-0.00116642,-0.00353448,-0.00180075,0.00118590,
 0.00232219,0.00072847,-0.00056261,-0.00186008,-0.00025978,0.00069638,-
 0.00027824,-0.00009576,0.00031326,0.00013467,0.00001626,-0.00013476,-0
 .00000209,0.00015474,-0.00020136,-0.00010731,-0.00109605,0.00011002,0.
 00003372,0.00816213,-0.00834825,-0.01126706,0.00168032,0.00349940,-0.0
 0125037,0.00140546,0.00128603,0.00540932,-0.00496244,-0.00361970,-0.00
 250698,0.20526647,-0.03379583,-0.22842319,-0.00029896,0.00009249,-0.00
 014270,-0.00003885,0.00014868,0.00034541,0.00006383,0.00004317,-0.0002
 0755,0.00003537,-0.00002453,-0.00002423,-0.00001408,-0.00002349,0.0000
 0659,0.00001203,0.00011288,-0.00002935,0.00004130,-0.00042298,0.000115
 39,0.00007280,-0.00001669,0.00012826,0.00116182,-0.00020276,0.00070428
 ,-0.00057647,-0.00017883,-0.00058309,-0.21034902,0.04140114,0.24107675
 ,-0.00872519,-0.00273779,-0.00023112,-0.00370169,-0.00816162,-0.031861
 26,0.00016526,0.00161107,0.00127085,0.00027191,0.00011884,-0.00002771,
 0.00007363,-0.00000564,-0.00010869,0.00001298,0.00006073,0.00001896,0.
 00000906,0.00001570,0.00005967,-0.00000938,0.00001217,-0.00019242,0.00
 006809,0.00003441,-0.00008834,-0.00001368,0.00002262,0.00002433,-0.000
 06323,0.00005139,0.00009724,0.00002842,-0.00014235,-0.00001966,-0.0000
 7884,0.00017394,0.00006111,-0.06922679,-0.02540689,-0.06089127,0.00017
 807,0.00050379,0.00313539,0.00098810,0.00119463,0.00026230,-0.00077407
 ,-0.00176744,0.00099091,0.00000096,0.00001278,0.00001324,-0.00001699,-
 0.00000158,-0.00001914,0.00002216,-0.00001035,0.00010619,0.00012381,0.
 00011547,0.00006020,-0.00000992,0.00000085,0.00000393,-0.00001261,0.00
 000833,-0.00001157,0.00020128,-0.00034062,-0.00004000,0.07375934,-0.00
 417611,0.00107200,0.00009645,0.00271640,-0.00470197,-0.01225287,-0.000
 40395,0.00036943,0.00107053,0.00036857,-0.00002509,0.00005540,-0.00010
 082,0.00005014,-0.00006767,0.00000286,-0.00005071,0.00000804,0.0000974
 2,-0.00001342,0.00018333,0.00001402,0.00005038,-0.00013336,0.00006230,
 0.00006080,-0.00009075,-0.00000875,0.00002393,0.00000557,-0.00007498,0
 .00003773,0.00007851,0.00003986,-0.00016657,-0.00000803,-0.00016521,0.
 00016722,0.00004334,-0.02652034,-0.07962879,-0.07650257,0.00721478,0.0
 0877481,0.02436055,0.00177291,0.00137538,-0.00114750,-0.00137082,-0.00
 064491,0.00091713,-0.00003572,0.00000045,0.00000796,-0.00000151,0.0000
 1896,-0.00002771,0.00001249,-0.00001365,0.00007500,0.00006555,0.000057
 58,0.00004302,-0.00000707,-0.00000034,0.00000675,-0.00000148,0.0000077
 2,0.00000355,0.00019799,-0.00027598,0.00002683,0.02953901,0.08399056,0
 .00065249,-0.00081885,0.00228852,0.00142242,0.00268350,-0.00116861,0.0
 0108121,0.00123029,0.00006320,-0.00029435,-0.00013512,0.00072646,0.000
 08619,0.00000037,-0.00004152,0.00000204,0.00005876,0.00000332,0.000005
 71,0.00003202,0.00008846,0.00000939,0.00005442,-0.00004890,0.00002437,
 0.00002587,-0.00004142,-0.00001514,0.00001600,0.00002508,-0.00003085,0
 .00000406,0.00007004,0.00004444,-0.00006118,-0.00004435,-0.00001102,0.
 00001685,0.00003418,-0.06429477,-0.07904408,-0.25426407,-0.00762847,-0
 .00850414,-0.02155780,0.00019403,-0.00039735,0.00242664,0.00078681,-0.
 00027006,0.00075174,-0.00008698,-0.00008103,0.00001015,-0.00001525,-0.
 00000363,-0.00001414,-0.00000889,-0.00000027,0.00005604,0.00005454,0.0
 0001997,0.00002862,-0.00000746,-0.00000189,0.00000257,0.00000095,-0.00
 000780,-0.00000899,0.00007637,-0.00001174,-0.00007115,0.06861150,0.082
 82805,0.27892952,0.00109135,-0.00457147,-0.00107836,-0.02159216,0.0266
 8832,0.00888831,-0.00167404,-0.00271944,-0.00010640,0.00088327,-0.0008
 8985,0.00017031,-0.00149337,0.00046191,0.00049690,0.00037647,-0.000197
 14,-0.00011514,0.00089922,-0.00011519,-0.00043887,0.00008976,-0.000002
 92,-0.00004211,0.00007057,0.00001659,-0.00006100,-0.00000138,0.0000057
 8,-0.00000400,-0.00004417,0.00003202,0.00004175,0.00004885,-0.00008414
 ,-0.00002666,-0.00008916,-0.00003243,-0.00000437,-0.14413288,0.1201384
 6,0.03913498,0.00113496,-0.00212109,-0.00092480,0.00166251,-0.00084041
 ,-0.00085286,-0.00035006,0.00031594,0.00028023,-0.00003246,-0.00009407
 ,0.00005876,0.00007399,0.00008880,-0.00001967,-0.00004561,-0.00000481,
 0.00003058,0.00004005,0.00005280,-0.00001327,-0.00000211,-0.00000117,0
 .00000487,0.00000190,0.00000258,0.00000134,0.00016551,0.00002020,0.000
 05716,0.00670790,-0.00776830,-0.00234636,0.15524969,-0.00001355,-0.001
 24860,-0.00049789,-0.00797441,0.01179629,0.00306283,-0.00047290,-0.000
 98913,0.00046681,0.00059964,-0.00086455,0.00001889,-0.00083981,0.00026
 564,0.00026735,0.00013502,-0.00018281,-0.00006256,0.00047304,-0.000009
 75,-0.00019047,0.00007968,0.00001367,-0.00002470,0.00004365,-0.0000163
 8,-0.00002572,0.00000489,-0.00000028,-0.00001251,-0.00000391,0.0000489
 5,0.00001308,-0.00000806,-0.00003246,0.00001568,-0.00003816,0.00003343
 ,0.00000359,0.11603813,-0.18903501,-0.05086497,0.01590399,-0.02152075,
 -0.00475658,0.00035266,0.00321615,-0.00152836,-0.00012090,-0.00007045,
 0.00026424,0.00002731,-0.00000085,0.00000785,0.00004556,0.00003179,-0.
 00000835,-0.00000852,0.00000371,0.00001538,0.00002889,0.00002983,-0.00
 000731,0.00000010,0.00000128,-0.00000222,-0.00001862,0.00001427,-0.000
 00919,0.00007506,-0.00011006,0.00001786,0.00643571,-0.00815059,-0.0027
 9844,-0.12827302,0.20856057,-0.00068115,-0.00086291,-0.00051073,0.0015
 0698,-0.00101830,-0.00143628,0.00111886,0.00132975,0.00000973,-0.00047
 598,0.00055439,0.00015015,0.00094169,-0.00021049,-0.00024578,-0.000239
 05,0.00011597,0.00005683,-0.00061646,0.00004976,0.00009534,-0.00004827
 ,0.00001008,-0.00001568,0.00000377,0.00001026,-0.00001156,-0.00001287,
 0.00001328,0.00002204,-0.00001476,-0.00000310,0.00003579,0.00001445,-0
 .00002389,-0.00002347,-0.00002117,0.00002729,0.00000999,0.03794574,-0.
 05080407,-0.06194614,-0.01472635,0.02105494,0.00478750,-0.00173738,-0.
 00190039,0.00113321,0.00026993,-0.00092972,-0.00014254,0.00000262,0.00
 000329,-0.00001149,-0.00004107,-0.00004124,0.00001773,0.00002040,-0.00
 000147,0.00000927,0.00002620,0.00000554,0.00000746,-0.00000325,-0.0000
 0033,0.00000157,0.00000429,-0.00000397,-0.00000104,0.00010398,-0.00001
 908,-0.00002116,0.01893494,-0.02194368,-0.00744604,-0.04361513,0.05174
 973,0.06703944,-0.00134712,-0.00052604,-0.00021871,0.00065746,0.000389
 73,0.00149718,0.00003744,-0.00012145,-0.00088902,-0.00014394,-0.000054
 69,0.00002718,0.00006756,-0.00010655,0.00000763,0.00000133,0.00006546,
 -0.00000523,-0.00005547,0.00005818,0.00000375,-0.00000308,0.00002489,0
 .00003835,-0.00003099,-0.00004823,0.00005281,0.00001493,-0.00000821,-0
 .00001245,0.00004397,-0.00002931,-0.00006113,-0.00004246,0.00008321,0.
 00002408,0.00002429,-0.00000621,-0.00004494,0.00188124,0.00165507,0.00
 025174,-0.07540590,-0.02347161,-0.07047934,-0.01676079,-0.01844729,-0.
 02864860,0.00019421,0.00014447,-0.00009339,0.00001575,0.00001921,-0.00
 001550,-0.00000918,-0.00002022,0.00000981,0.00001399,0.00000434,-0.000
 02297,-0.00002298,-0.00003287,-0.00001076,0.00000371,-0.00000025,-0.00
 000386,0.00000552,0.00000250,0.00001156,-0.00017925,0.00003169,0.00012
 656,0.00001580,-0.00097196,0.00057166,0.00016367,-0.00032026,-0.000336
 77,0.08924481,-0.00050360,-0.00113298,-0.00083596,0.00080695,0.0009680
 7,0.00147952,-0.00025821,0.00003350,-0.00048968,-0.00012331,0.00000249
 ,-0.00008198,-0.00000007,0.00001241,0.00002948,0.00000086,-0.00000306,
 -0.00000175,-0.00000681,-0.00002196,-0.00005071,-0.00003028,-0.0000247
 8,0.00006784,-0.00001085,0.00002385,-0.00000507,-0.00001336,-0.0000000
 6,0.00001505,-0.00000180,-0.00001890,0.00002849,0.00002407,0.00001184,
 -0.00003139,0.00003674,-0.00003511,0.00002138,0.00708633,0.00704035,0.
 02434336,-0.02611363,-0.08267118,-0.08254487,-0.00635818,-0.00591624,-
 0.01040103,0.00030252,0.00025008,-0.00027379,0.00001063,0.00000332,-0.
 00000468,-0.00000005,0.00000104,0.00000408,-0.00001666,-0.00000225,-0.
 00002311,-0.00002046,-0.00001605,-0.00001285,-0.00000186,-0.00000115,0
 .00000129,0.00000154,-0.00001351,-0.00001444,-0.00000983,0.00012308,-0
 .00009914,-0.00096386,-0.00342915,0.00429582,0.00052747,0.00140361,-0.
 00067839,0.03599251,0.09020723,0.00004128,-0.00098380,0.00360024,-0.00
 327063,-0.00109133,-0.00399320,0.00032471,0.00029415,0.00072885,0.0001
 2941,-0.00008918,-0.00004566,-0.00005228,0.00001327,-0.00003205,0.0000
 2237,0.00000218,0.00000612,0.00006003,0.00000704,0.00005000,0.00000166
 ,0.00001337,-0.00007241,0.00002994,0.00005378,-0.00005136,-0.00001709,
 0.00001324,0.00002225,-0.00004526,0.00001567,0.00007119,0.00004967,-0.
 00008664,-0.00003586,-0.00002779,0.00001603,0.00005129,-0.00488841,-0.
 00554466,-0.02282796,-0.07506434,-0.08339238,-0.26043230,0.00149578,0.
 00258482,0.00814157,-0.00008668,-0.00015385,0.00037464,0.00001461,0.00
 001377,-0.00000276,-0.00000434,0.00000775,-0.00001725,-0.00000177,-0.0
 0000525,0.00004793,0.00004578,0.00003108,0.00002800,-0.00000679,-0.000
 00035,0.00000423,-0.00000140,-0.00000625,-0.00001009,0.00017375,-0.000
 03471,-0.00011284,0.00041333,0.00399629,-0.00188310,-0.00017630,-0.000
 05564,0.00122893,0.08122320,0.08593349,0.27931193,0.00015164,0.0003116
 0,0.00014528,0.00027915,-0.00031749,-0.00035553,0.00027163,0.00009122,
 -0.00015554,-0.00002644,-0.00004432,-0.00000878,0.00001021,-0.00003096
 ,0.00000669,0.00000901,0.00002669,-0.00000537,-0.00000198,0.00000293,0
 .00000133,-0.00000404,0.00002353,-0.00001051,-0.00000667,-0.00002374,0
 .00004183,0.00001210,0.00000053,-0.00001527,0.00002050,-0.00001948,-0.
 00002654,-0.00003974,0.00008099,0.00001518,0.00006643,-0.00003774,-0.0
 0003177,0.00272285,-0.00070670,-0.00104772,-0.13115984,0.11067986,0.03
 478155,-0.02796899,0.02187992,0.01519732,-0.00000281,0.00009125,0.0000
 2702,0.00001649,0.00001640,-0.00001097,-0.00000579,-0.00000436,0.00000
 201,0.00000776,-0.00000087,0.00000122,-0.00000682,-0.00000781,-0.00000
 326,-0.00000147,-0.00000045,-0.00000071,0.00000197,-0.00000021,0.00000
 776,-0.00004121,0.00002623,-0.00001034,-0.00009158,0.00016850,-0.00005
 486,0.00055782,-0.00089893,0.00071368,0.00753650,-0.00821301,-0.001776
 24,0.15364939,-0.00142628,0.00048086,-0.00085389,0.00332137,0.00011845
 ,0.00063737,-0.00087500,0.00002972,0.00040992,0.00009200,0.00004996,0.
 00004122,0.00026350,-0.00001577,-0.00009909,-0.00013983,-0.00008880,0.
 00002937,-0.00022965,0.00001424,0.00009016,0.00003968,-0.00009460,0.00
 001415,-0.00001861,-0.00017582,0.00011460,0.00005031,-0.00003918,-0.00
 007002,0.00010496,0.00008922,-0.00010866,-0.00018308,0.00020759,0.0001
 1520,0.00022285,0.00010286,0.00002521,0.01155048,-0.02038501,-0.005114
 03,0.11673862,-0.20655585,-0.05488379,-0.00954921,0.01243671,0.0052104
 4,0.00013717,-0.00012785,-0.00014698,-0.00002813,-0.00003301,0.0000250
 2,0.00001427,-0.00001509,0.00001061,-0.00001446,0.00002790,-0.00001543
 ,0.00000003,0.00002083,0.00000030,0.00001039,0.00000159,-0.00001867,-0
 .00004206,0.00004019,-0.00002206,-0.00029393,-0.00036783,-0.00010314,-
 0.00006782,0.00122140,0.00018781,-0.00096334,-0.00248808,0.00385611,0.
 00633180,-0.00812209,-0.00263365,-0.12188075,0.22223442,-0.00009766,0.
 00024963,0.00035212,-0.00144227,-0.00025218,0.00070492,0.00020122,-0.0
 0038754,-0.00027703,-0.00004526,0.00001699,-0.00000744,-0.00012756,-0.
 00002785,0.00003346,0.00006237,0.00004785,-0.00001669,0.00009163,0.000
 02953,-0.00003540,0.00000248,-0.00000772,0.00000429,0.00000414,-0.0000
 3489,0.00002932,0.00001687,0.00000091,-0.00002647,0.00003174,0.0000127
 6,-0.00006752,-0.00004421,-0.00001153,0.00006801,-0.00001655,0.0000366
 1,-0.00004348,-0.01245170,0.02141004,0.00461262,0.03720874,-0.05387959
 ,-0.07029289,0.00410507,-0.00298046,-0.00095661,-0.00004703,0.00011399
 ,0.00004319,0.00000651,0.00000442,-0.00000499,-0.00000038,-0.00000454,
 0.00000425,0.00000050,0.00000701,-0.00000565,-0.00000532,-0.00000419,0
 .00000004,0.00000482,0.00000380,-0.00000574,-0.00001823,0.00002292,0.0
 0001210,-0.00010657,-0.00013248,0.00009463,-0.00048354,-0.00090590,0.0
 0125289,0.00052435,0.00429048,-0.00270117,0.01785680,-0.02207482,-0.00
 626894,-0.04560628,0.05284526,0.07186433,0.00028884,-0.00030842,0.0009
 3555,-0.00088363,0.00022014,-0.00086937,0.00014758,0.00012749,0.000173
 02,-0.00001400,-0.00003418,-0.00003210,0.00000298,-0.00004906,-0.00000
 399,0.00001319,0.00003531,-0.00000217,-0.00000257,0.00002898,0.0000046
 7,-0.00000296,-0.00000182,-0.00001321,0.00000359,0.00001427,-0.0000095
 5,-0.00000857,0.00000342,0.00001319,0.00000204,0.00000788,0.00002223,0
 .00001154,-0.00001655,-0.00000838,0.00001919,-0.00000604,0.00001834,0.
 00164141,0.00077961,-0.00093232,-0.01437685,-0.01346941,-0.03674132,-0
 .10700056,-0.04291378,-0.10583778,0.00000520,-0.00007281,0.00004426,0.
 00001288,0.00001043,-0.00000511,-0.00000605,-0.00000911,-0.00000047,0.
 00000536,0.00000194,0.00000463,0.00000438,0.00000383,0.00000431,-0.000
 00238,0.00000109,-0.00000156,-0.00000913,-0.00000232,-0.00001156,0.000
 02655,0.00000806,-0.00005854,0.00007763,-0.00053243,0.00116660,0.00001
 576,-0.00002245,0.00021875,-0.00685823,-0.00230870,0.00203507,0.000682
 96,0.00076054,-0.00008368,0.11604376,0.00099067,0.00012596,0.00068622,
 -0.00187755,-0.00011227,-0.00009179,0.00079159,0.00010294,-0.00046848,
 -0.00019742,-0.00018660,0.00002558,-0.00015842,-0.00019991,0.00008484,
 0.00014328,0.00021732,-0.00004299,0.00012658,0.00010193,-0.00005525,-0
 .00003188,0.00009505,-0.00002821,-0.00003917,-0.00002095,0.00006590,-0
 .00000747,0.00001042,0.00001678,0.00004388,-0.00010078,-0.00003385,-0.
 00002697,0.00009185,-0.00000771,0.00010482,-0.00004420,-0.00004990,0.0
 0187606,0.00090302,-0.00232460,-0.00985957,-0.00828464,-0.01060155,-0.
 02589607,-0.06341260,-0.09694305,-0.00007380,0.00002405,0.00014956,0.0
 0004780,0.00005632,-0.00003577,-0.00003494,-0.00003420,0.00000885,0.00
 004835,-0.00000230,-0.00000209,-0.00002417,-0.00003828,-0.00000522,-0.
 00000311,0.00000160,0.00000004,0.00001138,-0.00000704,0.00001184,-0.00
 014368,0.00013686,-0.00001067,-0.00038823,-0.00010931,0.00072236,-0.00
 011193,-0.00045614,0.00002171,-0.00145398,0.00089803,0.00113005,0.0007
 6113,0.00044571,0.00072019,0.04752350,0.08258849,-0.00014356,-0.000028
 14,-0.00008822,0.00058632,0.00028100,-0.00029131,-0.00022153,-0.000046
 04,0.00019022,0.00009451,0.00007621,-0.00004575,0.00005730,0.00009807,
 -0.00003482,-0.00005927,-0.00010081,0.00002123,-0.00004286,-0.00005280
 ,0.00002738,0.00000981,-0.00003676,0.00001224,0.00001857,0.00002071,-0
 .00003306,0.00000117,-0.00000232,-0.00000543,-0.00002902,0.00003730,0.
 00002150,0.00002369,-0.00005106,-0.00000495,-0.00005359,0.00001253,0.0
 0002540,0.00126526,0.00031198,0.00267309,0.00621491,0.00840651,0.00248
 363,-0.11543410,-0.14709362,-0.32467429,0.00003933,0.00002382,-0.00007
 624,-0.00001250,-0.00001569,0.00001172,0.00001536,0.00001863,-0.000007
 34,-0.00002142,-0.00000191,0.00000178,0.00001091,0.00001492,-0.0000004
 7,0.00000078,-0.00000122,0.00000180,-0.00000068,-0.00000097,-0.0000036
 1,0.00007589,-0.00003607,-0.00000807,-0.00024848,-0.00072395,0.0000208
 2,-0.00004765,-0.00003776,-0.00009313,0.00001833,0.00090254,0.00186821
 ,-0.00070318,-0.00010298,0.00011967,0.11571930,0.13529725,0.33088000,0
 .00033186,-0.00012888,0.00021293,-0.00033187,-0.00011386,-0.00066856,0
 .00037742,0.00014554,-0.00010304,-0.00006717,-0.00001644,-0.00003695,-
 0.00006617,-0.00003911,0.00003587,0.00005106,0.00006292,-0.00001555,0.
 00005776,0.00001466,-0.00004114,-0.00002223,0.00003390,-0.00000284,-0.
 00000519,0.00003202,-0.00000969,-0.00001212,0.00000698,0.00002028,-0.0
 0001317,-0.00003699,0.00001735,0.00003366,-0.00002033,-0.00002966,-0.0
 0001824,-0.00002947,-0.00001255,0.00190393,0.00081588,-0.00015407,-0.0
 2496827,0.03146224,0.01077943,-0.18750403,0.15188174,0.06569695,-0.000
 01655,0.00000963,0.00003053,0.00001950,0.00002188,-0.00001620,-0.00001
 096,-0.00000534,0.00000229,0.00001098,-0.00000643,0.00000224,-0.000004
 93,-0.00001135,0.00000023,-0.00000299,-0.00000034,0.00000399,0.0000157
 2,-0.00001255,0.00000748,0.00003870,0.00011092,0.00001105,0.00001960,-
 0.00013319,0.00000366,0.00022414,-0.00122987,0.00074337,0.00093721,0.0
 0016493,-0.00064127,-0.00663900,-0.00392580,0.00045900,0.01016007,-0.0
 1214067,-0.00713360,0.20550130,0.00033414,0.00004432,0.00018307,-0.000
 75678,-0.00049072,-0.00003600,0.00032224,0.00011293,-0.00018935,-0.000
 13640,-0.00004893,0.00001956,-0.00008052,-0.00012023,0.00003896,0.0000
 8194,0.00012966,-0.00002440,0.00006655,0.00006226,-0.00003869,-0.00001
 438,0.00002822,-0.00001031,-0.00001702,-0.00001082,0.00002828,-0.00000
 497,0.00000357,0.00000982,0.00003328,-0.00002864,-0.00001554,-0.000017
 73,0.00003484,0.00001009,0.00006911,-0.00001220,-0.00001544,-0.0013476
 6,0.00226670,-0.00005102,-0.01462904,0.00725566,0.00984228,0.17352072,
 -0.24569621,-0.12093536,-0.00001487,-0.00000403,0.00005679,0.00001915,
 0.00001925,-0.00001600,-0.00001895,-0.00002333,0.00000712,0.00002085,0
 .00000349,-0.00000573,-0.00001427,-0.00001540,-0.00000114,-0.00000127,
 0.00000236,-0.00000363,-0.00000835,-0.00000077,-0.00000491,-0.00007843
 ,0.00002892,-0.00002290,0.00008273,-0.00006801,-0.00004059,0.00043988,
 -0.00024331,-0.00036106,0.00081606,0.00042957,-0.00004829,-0.00197396,
 0.00098730,0.00089129,0.01022058,-0.01279033,0.00283065,-0.16691262,0.
 24814388,-0.00057768,-0.00023845,-0.00054262,0.00107214,0.00063723,0.0
 0059604,-0.00066696,-0.00022118,0.00021155,0.00019907,0.00011552,0.000
 00812,0.00010476,0.00021199,-0.00004237,-0.00012185,-0.00020511,0.0000
 2693,-0.00009191,-0.00011552,0.00002206,0.00002503,-0.00005357,0.00002
 713,0.00002750,0.00002251,-0.00005295,0.00000453,-0.00000647,-0.000012
 89,-0.00005059,0.00005240,0.00002288,0.00003126,-0.00006784,-0.0000099
 6,-0.00012006,0.00001446,0.00001594,-0.00078599,-0.00192587,-0.0001981
 2,0.00722362,-0.00034432,-0.00308165,0.04010969,-0.07925794,-0.0618798
 2,0.00004244,0.00000079,-0.00010014,-0.00004194,-0.00004754,0.00002964
 ,0.00003209,0.00003751,-0.00000363,-0.00003766,-0.00000390,0.00000566,
 0.00002096,0.00002651,0.00000275,0.00000312,-0.00000230,0.00000507,0.0
 0001055,0.00000227,0.00000659,0.00015167,-0.00004112,0.00005874,0.0001
 5910,-0.00000232,-0.00018816,0.00018341,0.00068888,0.00000124,-0.00087
 797,0.00050130,0.00025040,-0.00111799,0.00055968,0.00151416,0.02425118
 ,-0.02824004,-0.01299200,-0.06916152,0.10790245,0.07629942\\0.00000061
 ,0.00000120,-0.00000007,0.00000072,-0.00000154,-0.00000023,-0.00000047
 ,-0.00000025,0.00000056,-0.00000024,0.00000018,-0.00000038,-0.00000029
 ,0.00000039,-0.00000043,-0.00000014,0.00000042,0.00000028,-0.00000029,
 0.,0.00000039,-0.00000099,0.00000027,-0.00000014,0.00000009,-0.0000002
 2,-0.00000035,-0.00000003,0.00000035,-0.00000057,0.00000004,0.00000066
 ,-0.00000071,0.00000035,0.00000023,-0.00000060,0.00000024,0.00000005,-
 0.00000047,0.00000049,-0.00000158,0.00000050,0.00000030,0.00000040,0.0
 0000022,0.00000023,-0.00000063,0.00000068,-0.00000031,0.00000005,0.000
 00020,-0.00000090,0.00000006,0.00000007,-0.00000066,0.00000002,-0.0000
 0009,-0.00000078,0.00000094,-0.00000057,-0.00000030,0.00000005,0.00000
 004,-0.00000032,0.00000052,-0.00000067,0.00000046,0.00000030,-0.000000
 57,0.00000079,0.,-0.00000024,0.,0.00000019,0.00000068,-0.00000038,-0.0
 0000021,0.00000046,0.00000059,-0.00000055,0.00000021,0.00000028,-0.000
 00023,0.00000033,0.00000041,-0.00000046,0.00000070,0.00000049,-0.00000
 061,0.00000075\\\@


 IN THE WOODS WE RETURN TO REASON AND FAITH.

                                 -- EMERSON
 Job cpu time:       0 days  1 hours  4 minutes 14.9 seconds.
 File lengths (MBytes):  RWF=    260 Int=      0 D2E=      0 Chk=      8 Scr=      1
 Normal termination of Gaussian 09 at Wed Jul 28 22:40:54 2021.
