 Entering Gaussian System, Link 0=g09
 Input=opt_freq-conf-599.com
 Output=opt_freq-conf-599.log
 Initial command:
 /aerosol/software/g09/l1.exe "/scratch/nicole/10596/Gau-82966.inp" -scrdir="/scratch/nicole/10596/"
 Entering Link 1 = /aerosol/software/g09/l1.exe PID=     82970.
  
 Copyright (c) 1988,1990,1992,1993,1995,1998,2003,2009,2013,
            Gaussian, Inc.  All Rights Reserved.
  
 This is part of the Gaussian(R) 09 program.  It is based on
 the Gaussian(R) 03 system (copyright 2003, Gaussian, Inc.),
 the Gaussian(R) 98 system (copyright 1998, Gaussian, Inc.),
 the Gaussian(R) 94 system (copyright 1995, Gaussian, Inc.),
 the Gaussian 92(TM) system (copyright 1992, Gaussian, Inc.),
 the Gaussian 90(TM) system (copyright 1990, Gaussian, Inc.),
 the Gaussian 88(TM) system (copyright 1988, Gaussian, Inc.),
 the Gaussian 86(TM) system (copyright 1986, Carnegie Mellon
 University), and the Gaussian 82(TM) system (copyright 1983,
 Carnegie Mellon University). Gaussian is a federally registered
 trademark of Gaussian, Inc.
  
 This software contains proprietary and confidential information,
 including trade secrets, belonging to Gaussian, Inc.
  
 This software is provided under written license and may be
 used, copied, transmitted, or stored only in accord with that
 written license.
  
 The following legend is applicable only to US Government
 contracts under FAR:
  
                    RESTRICTED RIGHTS LEGEND
  
 Use, reproduction and disclosure by the US Government is
 subject to restrictions as set forth in subparagraphs (a)
 and (c) of the Commercial Computer Software - Restricted
 Rights clause in FAR 52.227-19.
  
 Gaussian, Inc.
 340 Quinnipiac St., Bldg. 40, Wallingford CT 06492
  
  
 ---------------------------------------------------------------
 Warning -- This program may not be used in any manner that
 competes with the business of Gaussian, Inc. or will provide
 assistance to any competitor of Gaussian, Inc.  The licensee
 of this program is prohibited from giving any competitor of
 Gaussian, Inc. access to this program.  By using this program,
 the user acknowledges that Gaussian, Inc. is engaged in the
 business of creating and licensing software in the field of
 computational chemistry and represents and warrants to the
 licensee that it is not a competitor of Gaussian, Inc. and that
 it will not use this program in any manner prohibited above.
 ---------------------------------------------------------------
  

 Cite this work as:
 Gaussian 09, Revision D.01,
 M. J. Frisch, G. W. Trucks, H. B. Schlegel, G. E. Scuseria, 
 M. A. Robb, J. R. Cheeseman, G. Scalmani, V. Barone, B. Mennucci, 
 G. A. Petersson, H. Nakatsuji, M. Caricato, X. Li, H. P. Hratchian, 
 A. F. Izmaylov, J. Bloino, G. Zheng, J. L. Sonnenberg, M. Hada, 
 M. Ehara, K. Toyota, R. Fukuda, J. Hasegawa, M. Ishida, T. Nakajima, 
 Y. Honda, O. Kitao, H. Nakai, T. Vreven, J. A. Montgomery, Jr., 
 J. E. Peralta, F. Ogliaro, M. Bearpark, J. J. Heyd, E. Brothers, 
 K. N. Kudin, V. N. Staroverov, T. Keith, R. Kobayashi, J. Normand, 
 K. Raghavachari, A. Rendell, J. C. Burant, S. S. Iyengar, J. Tomasi, 
 M. Cossi, N. Rega, J. M. Millam, M. Klene, J. E. Knox, J. B. Cross, 
 V. Bakken, C. Adamo, J. Jaramillo, R. Gomperts, R. E. Stratmann, 
 O. Yazyev, A. J. Austin, R. Cammi, C. Pomelli, J. W. Ochterski, 
 R. L. Martin, K. Morokuma, V. G. Zakrzewski, G. A. Voth, 
 P. Salvador, J. J. Dannenberg, S. Dapprich, A. D. Daniels, 
 O. Farkas, J. B. Foresman, J. V. Ortiz, J. Cioslowski, 
 and D. J. Fox, Gaussian, Inc., Wallingford CT, 2013.
 
 ******************************************
 Gaussian 09:  ES64L-G09RevD.01 24-Apr-2013
                28-Jul-2021 
 ******************************************
 %mem=2gb
 %nproc=4
 Will use up to    4 processors via shared memory.
 %chk=conf-599.chk
 ----------------------------------------------------------------------
 # B3LYP/6-31G(d) opt=calcfc freq=noraman nosymm integral(ultrafinegrid
 )
 ----------------------------------------------------------------------
 1/10=4,14=-1,18=20,19=15,26=4,38=1/1,3;
 2/9=110,12=2,15=1,17=6,18=5,40=1/2;
 3/5=1,6=6,7=1,11=2,16=1,25=1,30=1,71=2,74=-5,75=-5,140=1/1,2,3;
 4//1;
 5/5=2,38=5/2;
 8/6=4,10=90,11=11/1;
 11/6=1,8=1,9=11,15=111,16=1,31=1/1,2,10;
 10/6=1,13=1,31=1/2;
 6/7=2,8=2,9=2,10=2,28=1/1;
 7/10=1,18=20,25=1,30=1/1,2,3,16;
 1/10=4,14=-1,18=20,19=15,26=4/3(2);
 2/9=110,15=1/2;
 99//99;
 2/9=110,15=1/2;
 3/5=1,6=6,7=1,11=2,16=1,25=1,30=1,71=1,74=-5,75=-5/1,2,3;
 4/5=5,16=3,69=1/1;
 5/5=2,38=5/2;
 7/30=1/1,2,3,16;
 1/14=-1,18=20,19=15,26=4/3(-5);
 2/9=110,15=1/2;
 6/7=2,8=2,9=2,10=2,19=2,28=1/1;
 99/9=1/99;
 ------------------------------------------------------------
 Candidate Structure: Conf:599 OPT and FREQ calc in gas phase
 ------------------------------------------------------------
 Symbolic Z-matrix:
 Charge =  0 Multiplicity = 1
 O                     2.72597   1.58442   0.80496 
 C                     1.89025   0.7942    0.39654 
 N                     1.01823   1.17937  -0.59685 
 C                    -0.22342   0.51242  -0.94559 
 C                    -0.35346   0.36518  -2.47029 
 O                     0.79938   0.38118  -3.14534 
 O                    -1.40833   0.21685  -3.03333 
 C                    -1.43812   1.22132  -0.31345 
 C                    -2.59983   0.32156  -0.04955 
 C                    -3.27608   0.03772   1.09941 
 N                    -4.28908  -0.87107   0.85532 
 C                    -4.21717  -1.12742  -0.42721 
 N                    -3.2084   -0.43415  -1.01823 
 C                     1.79286  -0.63724   0.89213 
 C                     2.89167  -0.97889   1.89448 
 N                     4.25342  -0.88716   1.38912 
 H                     1.0638    2.17973  -0.7571 
 H                    -0.16805  -0.50709  -0.56088 
 H                     1.5207    0.5465   -2.51517 
 H                    -1.72582   2.06197  -0.94728 
 H                    -1.14041   1.63792   0.64684 
 H                    -3.10629   0.4317    2.08936 
 H                    -4.85382  -1.7908   -0.98585 
 H                    -2.91886  -0.4383   -1.98574 
 H                     0.81068  -0.78591   1.35308 
 H                     1.8427   -1.31413   0.03058 
 H                     2.81273  -0.30246   2.7475 
 H                     2.7276   -1.99298   2.26837 
 H                     4.36042  -1.47269   0.5682 
 H                     4.41663   0.06831   1.08825 
 

 GradGradGradGradGradGradGradGradGradGradGradGradGradGradGradGradGradGrad
 Berny optimization.
 Initialization pass.
                           ----------------------------
                           !    Initial Parameters    !
                           ! (Angstroms and Degrees)  !
 --------------------------                            --------------------------
 ! Name  Definition              Value          Derivative Info.                !
 --------------------------------------------------------------------------------
 ! R1    R(1,2)                  1.2205         calculate D2E/DX2 analytically  !
 ! R2    R(2,3)                  1.3768         calculate D2E/DX2 analytically  !
 ! R3    R(2,14)                 1.5179         calculate D2E/DX2 analytically  !
 ! R4    R(3,4)                  1.4519         calculate D2E/DX2 analytically  !
 ! R5    R(3,17)                 1.0141         calculate D2E/DX2 analytically  !
 ! R6    R(4,5)                  1.5373         calculate D2E/DX2 analytically  !
 ! R7    R(4,8)                  1.542          calculate D2E/DX2 analytically  !
 ! R8    R(4,18)                 1.0911         calculate D2E/DX2 analytically  !
 ! R9    R(5,6)                  1.336          calculate D2E/DX2 analytically  !
 ! R10   R(5,7)                  1.2049         calculate D2E/DX2 analytically  !
 ! R11   R(6,19)                 0.972          calculate D2E/DX2 analytically  !
 ! R12   R(8,9)                  1.4929         calculate D2E/DX2 analytically  !
 ! R13   R(8,20)                 1.0914         calculate D2E/DX2 analytically  !
 ! R14   R(8,21)                 1.0883         calculate D2E/DX2 analytically  !
 ! R15   R(9,10)                 1.3631         calculate D2E/DX2 analytically  !
 ! R16   R(9,13)                 1.3711         calculate D2E/DX2 analytically  !
 ! R17   R(10,11)                1.3826         calculate D2E/DX2 analytically  !
 ! R18   R(10,22)                1.0789         calculate D2E/DX2 analytically  !
 ! R19   R(11,12)                1.3099         calculate D2E/DX2 analytically  !
 ! R20   R(12,13)                1.3592         calculate D2E/DX2 analytically  !
 ! R21   R(12,23)                1.0759         calculate D2E/DX2 analytically  !
 ! R22   R(13,24)                1.0099         calculate D2E/DX2 analytically  !
 ! R23   R(14,15)                1.526          calculate D2E/DX2 analytically  !
 ! R24   R(14,25)                1.0951         calculate D2E/DX2 analytically  !
 ! R25   R(14,26)                1.0968         calculate D2E/DX2 analytically  !
 ! R26   R(15,16)                1.4554         calculate D2E/DX2 analytically  !
 ! R27   R(15,27)                1.0915         calculate D2E/DX2 analytically  !
 ! R28   R(15,28)                1.0932         calculate D2E/DX2 analytically  !
 ! R29   R(16,29)                1.014          calculate D2E/DX2 analytically  !
 ! R30   R(16,30)                1.0149         calculate D2E/DX2 analytically  !
 ! A1    A(1,2,3)              119.6035         calculate D2E/DX2 analytically  !
 ! A2    A(1,2,14)             123.04           calculate D2E/DX2 analytically  !
 ! A3    A(3,2,14)             117.3065         calculate D2E/DX2 analytically  !
 ! A4    A(2,3,4)              125.904          calculate D2E/DX2 analytically  !
 ! A5    A(2,3,17)             111.1928         calculate D2E/DX2 analytically  !
 ! A6    A(4,3,17)             116.9738         calculate D2E/DX2 analytically  !
 ! A7    A(3,4,5)              110.7664         calculate D2E/DX2 analytically  !
 ! A8    A(3,4,8)              111.347          calculate D2E/DX2 analytically  !
 ! A9    A(3,4,18)             107.5253         calculate D2E/DX2 analytically  !
 ! A10   A(5,4,8)              112.5815         calculate D2E/DX2 analytically  !
 ! A11   A(5,4,18)             105.3371         calculate D2E/DX2 analytically  !
 ! A12   A(8,4,18)             108.9662         calculate D2E/DX2 analytically  !
 ! A13   A(4,5,6)              115.2759         calculate D2E/DX2 analytically  !
 ! A14   A(4,5,7)              123.32           calculate D2E/DX2 analytically  !
 ! A15   A(6,5,7)              121.3869         calculate D2E/DX2 analytically  !
 ! A16   A(5,6,19)             108.3499         calculate D2E/DX2 analytically  !
 ! A17   A(4,8,9)              114.1036         calculate D2E/DX2 analytically  !
 ! A18   A(4,8,20)             108.8859         calculate D2E/DX2 analytically  !
 ! A19   A(4,8,21)             108.7983         calculate D2E/DX2 analytically  !
 ! A20   A(9,8,20)             111.2071         calculate D2E/DX2 analytically  !
 ! A21   A(9,8,21)             106.7145         calculate D2E/DX2 analytically  !
 ! A22   A(20,8,21)            106.8403         calculate D2E/DX2 analytically  !
 ! A23   A(8,9,10)             131.3425         calculate D2E/DX2 analytically  !
 ! A24   A(8,9,13)             123.5522         calculate D2E/DX2 analytically  !
 ! A25   A(10,9,13)            105.1028         calculate D2E/DX2 analytically  !
 ! A26   A(9,10,11)            110.5822         calculate D2E/DX2 analytically  !
 ! A27   A(9,10,22)            128.2644         calculate D2E/DX2 analytically  !
 ! A28   A(11,10,22)           121.1521         calculate D2E/DX2 analytically  !
 ! A29   A(10,11,12)           105.1456         calculate D2E/DX2 analytically  !
 ! A30   A(11,12,13)           111.5099         calculate D2E/DX2 analytically  !
 ! A31   A(11,12,23)           126.6264         calculate D2E/DX2 analytically  !
 ! A32   A(13,12,23)           121.8634         calculate D2E/DX2 analytically  !
 ! A33   A(9,13,12)            107.6581         calculate D2E/DX2 analytically  !
 ! A34   A(9,13,24)            123.4952         calculate D2E/DX2 analytically  !
 ! A35   A(12,13,24)           128.8467         calculate D2E/DX2 analytically  !
 ! A36   A(2,14,15)            112.2951         calculate D2E/DX2 analytically  !
 ! A37   A(2,14,25)            108.844          calculate D2E/DX2 analytically  !
 ! A38   A(2,14,26)            108.8205         calculate D2E/DX2 analytically  !
 ! A39   A(15,14,25)           109.8114         calculate D2E/DX2 analytically  !
 ! A40   A(15,14,26)           110.1863         calculate D2E/DX2 analytically  !
 ! A41   A(25,14,26)           106.7147         calculate D2E/DX2 analytically  !
 ! A42   A(14,15,16)           115.5643         calculate D2E/DX2 analytically  !
 ! A43   A(14,15,27)           108.8135         calculate D2E/DX2 analytically  !
 ! A44   A(14,15,28)           108.9203         calculate D2E/DX2 analytically  !
 ! A45   A(16,15,27)           107.4558         calculate D2E/DX2 analytically  !
 ! A46   A(16,15,28)           108.521          calculate D2E/DX2 analytically  !
 ! A47   A(27,15,28)           107.2617         calculate D2E/DX2 analytically  !
 ! A48   A(15,16,29)           110.0871         calculate D2E/DX2 analytically  !
 ! A49   A(15,16,30)           108.224          calculate D2E/DX2 analytically  !
 ! A50   A(29,16,30)           106.6573         calculate D2E/DX2 analytically  !
 ! D1    D(1,2,3,4)           -163.0385         calculate D2E/DX2 analytically  !
 ! D2    D(1,2,3,17)           -11.2382         calculate D2E/DX2 analytically  !
 ! D3    D(14,2,3,4)            19.4548         calculate D2E/DX2 analytically  !
 ! D4    D(14,2,3,17)          171.2551         calculate D2E/DX2 analytically  !
 ! D5    D(1,2,14,15)           -2.7675         calculate D2E/DX2 analytically  !
 ! D6    D(1,2,14,25)          119.0351         calculate D2E/DX2 analytically  !
 ! D7    D(1,2,14,26)         -125.0281         calculate D2E/DX2 analytically  !
 ! D8    D(3,2,14,15)          174.6464         calculate D2E/DX2 analytically  !
 ! D9    D(3,2,14,25)          -63.5511         calculate D2E/DX2 analytically  !
 ! D10   D(3,2,14,26)           52.3857         calculate D2E/DX2 analytically  !
 ! D11   D(2,3,4,5)           -134.8834         calculate D2E/DX2 analytically  !
 ! D12   D(2,3,4,8)             99.0215         calculate D2E/DX2 analytically  !
 ! D13   D(2,3,4,18)           -20.2766         calculate D2E/DX2 analytically  !
 ! D14   D(17,3,4,5)            74.7447         calculate D2E/DX2 analytically  !
 ! D15   D(17,3,4,8)           -51.3504         calculate D2E/DX2 analytically  !
 ! D16   D(17,3,4,18)         -170.6486         calculate D2E/DX2 analytically  !
 ! D17   D(3,4,5,6)             23.8293         calculate D2E/DX2 analytically  !
 ! D18   D(3,4,5,7)           -157.6646         calculate D2E/DX2 analytically  !
 ! D19   D(8,4,5,6)            149.2328         calculate D2E/DX2 analytically  !
 ! D20   D(8,4,5,7)            -32.2611         calculate D2E/DX2 analytically  !
 ! D21   D(18,4,5,6)           -92.1433         calculate D2E/DX2 analytically  !
 ! D22   D(18,4,5,7)            86.3628         calculate D2E/DX2 analytically  !
 ! D23   D(3,4,8,9)           -152.0728         calculate D2E/DX2 analytically  !
 ! D24   D(3,4,8,20)            83.0445         calculate D2E/DX2 analytically  !
 ! D25   D(3,4,8,21)           -33.0524         calculate D2E/DX2 analytically  !
 ! D26   D(5,4,8,9)             82.84           calculate D2E/DX2 analytically  !
 ! D27   D(5,4,8,20)           -42.0426         calculate D2E/DX2 analytically  !
 ! D28   D(5,4,8,21)          -158.1396         calculate D2E/DX2 analytically  !
 ! D29   D(18,4,8,9)           -33.6364         calculate D2E/DX2 analytically  !
 ! D30   D(18,4,8,20)         -158.519          calculate D2E/DX2 analytically  !
 ! D31   D(18,4,8,21)           85.384          calculate D2E/DX2 analytically  !
 ! D32   D(4,5,6,19)            -3.6863         calculate D2E/DX2 analytically  !
 ! D33   D(7,5,6,19)           177.776          calculate D2E/DX2 analytically  !
 ! D34   D(4,8,9,10)           122.7649         calculate D2E/DX2 analytically  !
 ! D35   D(4,8,9,13)           -56.5688         calculate D2E/DX2 analytically  !
 ! D36   D(20,8,9,10)         -113.596          calculate D2E/DX2 analytically  !
 ! D37   D(20,8,9,13)           67.0704         calculate D2E/DX2 analytically  !
 ! D38   D(21,8,9,10)            2.5702         calculate D2E/DX2 analytically  !
 ! D39   D(21,8,9,13)         -176.7635         calculate D2E/DX2 analytically  !
 ! D40   D(8,9,10,11)         -179.668          calculate D2E/DX2 analytically  !
 ! D41   D(8,9,10,22)            0.7448         calculate D2E/DX2 analytically  !
 ! D42   D(13,9,10,11)          -0.2431         calculate D2E/DX2 analytically  !
 ! D43   D(13,9,10,22)        -179.8304         calculate D2E/DX2 analytically  !
 ! D44   D(8,9,13,12)          179.8357         calculate D2E/DX2 analytically  !
 ! D45   D(8,9,13,24)           -0.1672         calculate D2E/DX2 analytically  !
 ! D46   D(10,9,13,12)           0.3539         calculate D2E/DX2 analytically  !
 ! D47   D(10,9,13,24)        -179.6491         calculate D2E/DX2 analytically  !
 ! D48   D(9,10,11,12)           0.0335         calculate D2E/DX2 analytically  !
 ! D49   D(22,10,11,12)        179.6548         calculate D2E/DX2 analytically  !
 ! D50   D(10,11,12,13)          0.1996         calculate D2E/DX2 analytically  !
 ! D51   D(10,11,12,23)       -179.6095         calculate D2E/DX2 analytically  !
 ! D52   D(11,12,13,9)          -0.3581         calculate D2E/DX2 analytically  !
 ! D53   D(11,12,13,24)        179.6451         calculate D2E/DX2 analytically  !
 ! D54   D(23,12,13,9)         179.4615         calculate D2E/DX2 analytically  !
 ! D55   D(23,12,13,24)         -0.5354         calculate D2E/DX2 analytically  !
 ! D56   D(2,14,15,16)         -61.6341         calculate D2E/DX2 analytically  !
 ! D57   D(2,14,15,27)          59.314          calculate D2E/DX2 analytically  !
 ! D58   D(2,14,15,28)         175.9403         calculate D2E/DX2 analytically  !
 ! D59   D(25,14,15,16)        177.1165         calculate D2E/DX2 analytically  !
 ! D60   D(25,14,15,27)        -61.9354         calculate D2E/DX2 analytically  !
 ! D61   D(25,14,15,28)         54.6909         calculate D2E/DX2 analytically  !
 ! D62   D(26,14,15,16)         59.8484         calculate D2E/DX2 analytically  !
 ! D63   D(26,14,15,27)       -179.2034         calculate D2E/DX2 analytically  !
 ! D64   D(26,14,15,28)        -62.5771         calculate D2E/DX2 analytically  !
 ! D65   D(14,15,16,29)        -55.923          calculate D2E/DX2 analytically  !
 ! D66   D(14,15,16,30)         60.2916         calculate D2E/DX2 analytically  !
 ! D67   D(27,15,16,29)       -177.6021         calculate D2E/DX2 analytically  !
 ! D68   D(27,15,16,30)        -61.3876         calculate D2E/DX2 analytically  !
 ! D69   D(28,15,16,29)         66.7147         calculate D2E/DX2 analytically  !
 ! D70   D(28,15,16,30)       -177.0708         calculate D2E/DX2 analytically  !
 --------------------------------------------------------------------------------
 Trust Radius=3.00D-01 FncErr=1.00D-07 GrdErr=1.00D-06
 Number of steps in this run=    160 maximum allowed number of steps=    180.
 GradGradGradGradGradGradGradGradGradGradGradGradGradGradGradGradGradGrad

                          Input orientation:                          
 ---------------------------------------------------------------------
 Center     Atomic      Atomic             Coordinates (Angstroms)
 Number     Number       Type             X           Y           Z
 ---------------------------------------------------------------------
      1          8           0        2.725971    1.584423    0.804964
      2          6           0        1.890253    0.794201    0.396535
      3          7           0        1.018228    1.179373   -0.596848
      4          6           0       -0.223423    0.512422   -0.945592
      5          6           0       -0.353465    0.365177   -2.470292
      6          8           0        0.799382    0.381175   -3.145336
      7          8           0       -1.408327    0.216853   -3.033330
      8          6           0       -1.438118    1.221322   -0.313451
      9          6           0       -2.599832    0.321563   -0.049549
     10          6           0       -3.276084    0.037720    1.099414
     11          7           0       -4.289075   -0.871068    0.855325
     12          6           0       -4.217169   -1.127420   -0.427213
     13          7           0       -3.208396   -0.434153   -1.018235
     14          6           0        1.792865   -0.637241    0.892133
     15          6           0        2.891674   -0.978892    1.894484
     16          7           0        4.253425   -0.887160    1.389122
     17          1           0        1.063800    2.179732   -0.757100
     18          1           0       -0.168050   -0.507092   -0.560880
     19          1           0        1.520703    0.546501   -2.515168
     20          1           0       -1.725825    2.061974   -0.947285
     21          1           0       -1.140410    1.637918    0.646836
     22          1           0       -3.106286    0.431698    2.089360
     23          1           0       -4.853822   -1.790798   -0.985847
     24          1           0       -2.918858   -0.438301   -1.985735
     25          1           0        0.810684   -0.785913    1.353080
     26          1           0        1.842697   -1.314126    0.030580
     27          1           0        2.812732   -0.302459    2.747501
     28          1           0        2.727601   -1.992983    2.268367
     29          1           0        4.360421   -1.472691    0.568202
     30          1           0        4.416630    0.068305    1.088249
 ---------------------------------------------------------------------
                    Distance matrix (angstroms):
                    1          2          3          4          5
     1  O    0.000000
     2  C    1.220528   0.000000
     3  N    2.246225   1.376806   0.000000
     4  C    3.593404   2.519590   1.451945   0.000000
     5  C    4.657981   3.665655   2.460538   1.537303   0.000000
     6  O    4.556799   3.729000   2.679516   2.429450   1.336037
     7  O    5.804754   4.793531   3.570863   2.418679   1.204885
     8  C    4.326931   3.429952   2.472997   1.541956   2.561527
     9  C    5.539781   4.536875   3.758421   2.546888   3.302736
    10  C    6.205131   5.268523   4.756237   3.704879   4.625119
    11  N    7.432553   6.416207   5.872017   4.656917   5.298779
    12  C    7.555100   6.455369   5.723588   4.348311   4.618466
    13  N    6.528048   5.432002   4.543719   3.132306   3.301217
    14  C    2.411239   1.517936   2.473300   2.960469   4.113086
    15  C    2.790178   2.527955   3.791391   4.471452   5.602564
    16  N    2.963626   3.065418   4.322167   5.239455   6.138962
    17  H    2.357381   1.983328   1.014138   2.114804   2.869891
    18  H    3.822999   2.616605   2.062211   1.091090   2.107388
    19  H    3.681471   2.945495   2.081576   2.346637   1.883453
    20  H    4.808005   4.060680   2.903725   2.158316   2.661211
    21  H    3.869982   3.155856   2.533126   2.154862   3.457692
    22  H    6.082241   5.287955   4.978589   4.186687   5.326619
    23  H    8.488367   7.353622   6.591981   5.171754   5.206248
    24  H    6.613888   5.506526   4.477335   3.041569   2.731596
    25  H    3.096328   2.139441   2.776264   2.835303   4.159138
    26  H    3.127527   2.140381   2.700176   2.925413   3.727942
    27  H    2.709483   2.753302   4.074401   4.849867   6.139699
    28  H    3.865150   3.460246   4.603830   5.031415   6.124441
    29  H    3.474684   3.357083   4.422786   5.219567   5.901773
    30  H    2.288491   2.718083   3.952614   5.085651   5.958620
                    6          7          8          9         10
     6  O    0.000000
     7  O    2.216648   0.000000
     8  C    3.705648   2.899585   0.000000
     9  C    4.598055   3.214592   1.492913   0.000000
    10  C    5.894513   4.538742   2.602925   1.363084   0.000000
    11  N    6.592859   4.960234   3.724525   2.257146   1.382616
    12  C    5.901681   4.060605   3.640420   2.204078   2.138640
    13  N    4.609946   2.779328   2.524124   1.371061   2.170640
    14  C    4.280810   5.136767   3.917518   4.593675   5.117888
    15  C    5.623812   6.648547   5.335075   5.968843   6.301339
    16  N    5.839554   7.268587   6.303817   7.106188   7.591629
    17  H    3.001399   3.891726   2.715690   4.168407   5.183575
    18  H    2.899026   2.859264   2.159099   2.619482   3.565567
    19  H    0.971981   2.992721   3.749342   4.807149   6.027704
    20  H    3.746089   2.803010   1.091429   2.144493   3.269539
    21  H    4.441031   3.954090   1.088270   2.085103   2.706763
    22  H    6.531373   5.401035   3.029816   2.200808   1.078908
    23  H    6.429586   4.482665   4.603479   3.227877   3.190775
    24  H    3.980141   1.951509   2.782710   2.104279   3.142030
    25  H    4.647362   5.016986   3.444333   3.850388   4.176648
    26  H    3.748199   4.722352   4.160602   4.734761   5.401093
    27  H    6.264700   7.176701   5.455371   6.124438   6.317088
    28  H    6.217945   7.077943   5.860952   6.253911   6.444722
    29  H    5.468838   7.007429   6.454307   7.214297   7.802547
    30  H    5.577241   7.137199   6.129624   7.112627   7.692783
                   11         12         13         14         15
    11  N    0.000000
    12  C    1.309881   0.000000
    13  N    2.206578   1.359246   0.000000
    14  C    6.086545   6.172638   5.357551   0.000000
    15  C    7.256352   7.479839   6.781705   1.526046   0.000000
    16  N    8.559176   8.666473   7.853620   2.522659   1.455393
    17  H    6.368718   6.239769   5.015201   3.344674   4.510978
    18  H    4.372752   4.098541   3.075417   2.444049   3.951370
    19  H    6.864637   6.331251   5.056369   3.617322   4.863273
    20  H    4.292131   4.080381   2.904084   4.801083   6.216415
    21  H    4.031448   4.274006   3.367863   3.720299   4.966088
    22  H    2.149194   3.161969   3.227579   5.155353   6.164679
    23  H    2.134187   1.075857   2.132829   7.002568   8.303506
    24  H    3.183772   2.142309   1.009904   5.524675   7.007898
    25  H    5.124700   5.344659   4.679730   1.095105   2.158908
    26  H    6.202833   6.080001   5.233345   1.096781   2.164919
    27  H    7.371521   7.757505   7.102964   2.143502   1.091527
    28  H    7.244938   7.499679   6.961879   2.146110   1.093201
    29  H    8.675147   8.642055   7.802713   2.719421   2.039627
    30  H    8.759337   8.846970   7.926586   2.724042   2.017951
                   16         17         18         19         20
    16  N    0.000000
    17  H    4.917906   0.000000
    18  H    4.847309   2.962259   0.000000
    19  H    4.976609   2.442745   2.789478   0.000000
    20  H    7.064532   2.798579   3.029203   3.910864   0.000000
    21  H    6.001704   2.668921   2.646720   4.274456   1.750358
    22  H    7.509664   5.342993   4.066734   6.528697   3.712773
    23  H    9.455104   7.129915   4.876982   6.959624   4.962832
    24  H    7.939318   4.921911   3.098691   4.578191   2.958561
    25  H    3.444418   3.648558   2.167696   4.152445   4.453764
    26  H    2.799918   3.665264   2.245938   3.169613   5.008854
    27  H    2.064622   4.637053   4.457839   5.485049   6.311932
    28  H    2.079436   5.416016   4.312460   5.548675   6.827599
    29  H    1.014004   5.095520   4.765949   4.652775   7.199511
    30  H    1.014926   4.370915   4.906119   4.647546   6.771105
                   21         22         23         24         25
    21  H    0.000000
    22  H    2.720388   0.000000
    23  H    5.311419   4.177351   0.000000
    24  H    3.795259   4.171142   2.563808   0.000000
    25  H    3.190690   4.167413   6.210234   5.017769   0.000000
    26  H    4.241846   5.637278   6.789972   5.244522   1.758712
    27  H    4.879056   6.000576   8.656160   7.434589   2.487235
    28  H    5.547460   6.320234   8.252804   7.238572   2.443224
    29  H    6.319906   7.854447   9.349788   7.783346   3.699775
    30  H    5.791306   7.597930   9.679847   7.969656   3.715195
                   26         27         28         29         30
    26  H    0.000000
    27  H    3.057139   0.000000
    28  H    2.500318   1.759173   0.000000
    29  H    2.579363   2.917898   2.413994   0.000000
    30  H    3.107235   2.337322   2.914517   1.627353   0.000000
 Symmetry turned off by external request.
 Stoichiometry    C9H14N4O3
 Framework group  C1[X(C9H14N4O3)]
 Deg. of freedom    84
 Full point group                 C1      NOp   1
 Rotational constants (GHZ):      0.7676288      0.2889335      0.2376474
 Standard basis: 6-31G(d) (6D, 7F)
   268 basis functions,   504 primitive gaussians,   268 cartesian basis functions
    60 alpha electrons       60 beta electrons
       nuclear repulsion energy      1119.2355079682 Hartrees.
 NAtoms=   30 NActive=   30 NUniq=   30 SFac= 1.00D+00 NAtFMM=   60 NAOKFM=F Big=F
 Integral buffers will be    131072 words long.
 Raffenetti 2 integral format.
 Two-electron integral symmetry is turned off.
 One-electron integrals computed using PRISM.
 NBasis=   268 RedAO= T EigKep=  1.19D-03  NBF=   268
 NBsUse=   268 1.00D-06 EigRej= -1.00D+00 NBFU=   268
 ExpMin= 1.61D-01 ExpMax= 5.48D+03 ExpMxC= 8.25D+02 IAcc=3 IRadAn=         5 AccDes= 0.00D+00
 Harris functional with IExCor=  402 and IRadAn=       5 diagonalized for initial guess.
 HarFok:  IExCor=  402 AccDes= 0.00D+00 IRadAn=         5 IDoV= 1 UseB2=F ITyADJ=14
 ICtDFT=  3500011 ScaDFX=  1.000000  1.000000  1.000000  1.000000
 FoFCou: FMM=F IPFlag=           0 FMFlag=      100000 FMFlg1=           0
         NFxFlg=           0 DoJE=T BraDBF=F KetDBF=T FulRan=T
         wScrn=  0.000000 ICntrl=     500 IOpCl=  0 I1Cent=   200000004 NGrid=           0
         NMat0=    1 NMatS0=      1 NMatT0=    0 NMatD0=    1 NMtDS0=    0 NMtDT0=    0
 Symmetry not used in FoFCou.
 Requested convergence on RMS density matrix=1.00D-08 within 128 cycles.
 Requested convergence on MAX density matrix=1.00D-06.
 Requested convergence on             energy=1.00D-06.
 No special actions if energy rises.
 Integral accuracy reduced to 1.0D-05 until final iterations.
 Initial convergence to 1.0D-05 achieved.  Increase integral accuracy.
 SCF Done:  E(RB3LYP) =  -796.072508082     A.U. after   15 cycles
            NFock= 15  Conv=0.49D-08     -V/T= 2.0087
 DoSCS=F DFT=T ScalE2(SS,OS)=  1.000000  1.000000
 Range of M.O.s used for correlation:     1   268
 NBasis=   268 NAE=    60 NBE=    60 NFC=     0 NFV=     0
 NROrb=    268 NOA=    60 NOB=    60 NVA=   208 NVB=   208
 Symmetrizing basis deriv contribution to polar:
 IMax=3 JMax=2 DiffMx= 0.00D+00
 G2DrvN: will do    31 centers at a time, making    1 passes.
 Calling FoFCou, ICntrl=  3107 FMM=F I1Cent=   0 AccDes= 0.00D+00.
 End of G2Drv F.D. properties file   721 does not exist.
 End of G2Drv F.D. properties file   722 does not exist.
 End of G2Drv F.D. properties file   788 does not exist.
          IDoAtm=111111111111111111111111111111
          Differentiating once with respect to nuclear coordinates.
          There are    93 degrees of freedom in the 1st order CPHF.  IDoFFX=6 NUNeed=     0.
     87 vectors produced by pass  0 Test12= 1.34D-14 1.08D-09 XBig12= 1.83D-01 9.34D-02.
 AX will form    87 AO Fock derivatives at one time.
     87 vectors produced by pass  1 Test12= 1.34D-14 1.08D-09 XBig12= 2.10D-02 4.06D-02.
     87 vectors produced by pass  2 Test12= 1.34D-14 1.08D-09 XBig12= 1.97D-04 2.57D-03.
     87 vectors produced by pass  3 Test12= 1.34D-14 1.08D-09 XBig12= 7.30D-07 1.40D-04.
     87 vectors produced by pass  4 Test12= 1.34D-14 1.08D-09 XBig12= 1.00D-09 3.62D-06.
     69 vectors produced by pass  5 Test12= 1.34D-14 1.08D-09 XBig12= 8.61D-13 1.07D-07.
      9 vectors produced by pass  6 Test12= 1.34D-14 1.08D-09 XBig12= 6.06D-16 2.68D-09.
 InvSVY:  IOpt=1 It=  1 EMax= 6.66D-16
 Solved reduced A of dimension   513 with    93 vectors.
 End of Minotr F.D. properties file   721 does not exist.
 End of Minotr F.D. properties file   722 does not exist.
 End of Minotr F.D. properties file   788 does not exist.

 **********************************************************************

            Population analysis using the SCF density.

 **********************************************************************

 Alpha  occ. eigenvalues --  -19.22599 -19.17261 -19.14923 -14.40091 -14.37868
 Alpha  occ. eigenvalues --  -14.31130 -14.30533 -10.35487 -10.32233 -10.28073
 Alpha  occ. eigenvalues --  -10.23271 -10.22804 -10.21887 -10.21867 -10.21822
 Alpha  occ. eigenvalues --  -10.19352  -1.14064  -1.07256  -1.05843  -1.01192
 Alpha  occ. eigenvalues --   -0.96874  -0.88879  -0.86538  -0.81918  -0.77960
 Alpha  occ. eigenvalues --   -0.75130  -0.69098  -0.66362  -0.64731  -0.60750
 Alpha  occ. eigenvalues --   -0.59901  -0.59084  -0.57769  -0.54669  -0.53677
 Alpha  occ. eigenvalues --   -0.51532  -0.49158  -0.48750  -0.48258  -0.47280
 Alpha  occ. eigenvalues --   -0.45900  -0.44191  -0.43698  -0.43365  -0.42983
 Alpha  occ. eigenvalues --   -0.41791  -0.40756  -0.40565  -0.40130  -0.38978
 Alpha  occ. eigenvalues --   -0.38192  -0.36618  -0.35060  -0.32351  -0.29918
 Alpha  occ. eigenvalues --   -0.28202  -0.27398  -0.25950  -0.23758  -0.22542
 Alpha virt. eigenvalues --   -0.02690  -0.01466   0.02947   0.04715   0.06641
 Alpha virt. eigenvalues --    0.07115   0.08622   0.09196   0.10209   0.11707
 Alpha virt. eigenvalues --    0.12707   0.12959   0.13427   0.15243   0.15494
 Alpha virt. eigenvalues --    0.15964   0.16793   0.17489   0.19080   0.19432
 Alpha virt. eigenvalues --    0.21860   0.22727   0.23165   0.24230   0.24698
 Alpha virt. eigenvalues --    0.26375   0.28818   0.31417   0.31995   0.34059
 Alpha virt. eigenvalues --    0.34516   0.36236   0.38705   0.45118   0.48417
 Alpha virt. eigenvalues --    0.49076   0.50507   0.51499   0.52578   0.54108
 Alpha virt. eigenvalues --    0.55089   0.55922   0.56886   0.58250   0.58704
 Alpha virt. eigenvalues --    0.59736   0.60208   0.62858   0.63242   0.64205
 Alpha virt. eigenvalues --    0.64541   0.65126   0.65742   0.66714   0.67397
 Alpha virt. eigenvalues --    0.67816   0.70214   0.70766   0.72602   0.74294
 Alpha virt. eigenvalues --    0.75735   0.76970   0.77414   0.79224   0.80829
 Alpha virt. eigenvalues --    0.81121   0.82503   0.82765   0.83562   0.84042
 Alpha virt. eigenvalues --    0.84129   0.84808   0.86167   0.86997   0.87627
 Alpha virt. eigenvalues --    0.88107   0.89308   0.90924   0.91854   0.92692
 Alpha virt. eigenvalues --    0.93504   0.93904   0.95892   0.97513   0.97950
 Alpha virt. eigenvalues --    0.98822   0.98995   1.02096   1.04048   1.04948
 Alpha virt. eigenvalues --    1.06800   1.09183   1.11037   1.12072   1.15452
 Alpha virt. eigenvalues --    1.17018   1.19143   1.20681   1.24060   1.27801
 Alpha virt. eigenvalues --    1.31450   1.32683   1.34202   1.34921   1.35212
 Alpha virt. eigenvalues --    1.37588   1.38677   1.39912   1.41723   1.44630
 Alpha virt. eigenvalues --    1.45766   1.47378   1.51080   1.52739   1.54132
 Alpha virt. eigenvalues --    1.54797   1.56746   1.60254   1.62354   1.63729
 Alpha virt. eigenvalues --    1.65564   1.69244   1.70687   1.73728   1.74499
 Alpha virt. eigenvalues --    1.76551   1.76675   1.77369   1.77981   1.79009
 Alpha virt. eigenvalues --    1.81184   1.82319   1.85717   1.86049   1.89269
 Alpha virt. eigenvalues --    1.90491   1.91759   1.92262   1.94154   1.95681
 Alpha virt. eigenvalues --    1.98014   1.99074   2.00980   2.03304   2.05703
 Alpha virt. eigenvalues --    2.06875   2.07201   2.08969   2.10548   2.12227
 Alpha virt. eigenvalues --    2.16267   2.16878   2.18339   2.21635   2.24079
 Alpha virt. eigenvalues --    2.25695   2.26165   2.32704   2.33006   2.33714
 Alpha virt. eigenvalues --    2.35001   2.37085   2.38670   2.41516   2.42437
 Alpha virt. eigenvalues --    2.44007   2.44241   2.47414   2.50331   2.54389
 Alpha virt. eigenvalues --    2.56134   2.57645   2.58575   2.59251   2.61430
 Alpha virt. eigenvalues --    2.62006   2.63698   2.68356   2.70954   2.73289
 Alpha virt. eigenvalues --    2.73838   2.76678   2.82435   2.89003   2.92016
 Alpha virt. eigenvalues --    2.98565   3.00630   3.01998   3.04699   3.05304
 Alpha virt. eigenvalues --    3.14507   3.15033   3.79094   3.83673   3.93452
 Alpha virt. eigenvalues --    3.97297   4.02270   4.05320   4.13437   4.20688
 Alpha virt. eigenvalues --    4.22683   4.24371   4.29356   4.39587   4.42271
 Alpha virt. eigenvalues --    4.52356   4.57393   4.63854
          Condensed to atoms (all electrons):
               1          2          3          4          5          6
     1  O    8.052245   0.585824  -0.090655   0.002465  -0.000042   0.000007
     2  C    0.585824   4.361860   0.260069  -0.027168   0.001414   0.000427
     3  N   -0.090655   0.260069   7.256977   0.172017  -0.034375  -0.012717
     4  C    0.002465  -0.027168   0.172017   5.331862   0.287577  -0.099137
     5  C   -0.000042   0.001414  -0.034375   0.287577   4.365837   0.307737
     6  O    0.000007   0.000427  -0.012717  -0.099137   0.307737   8.201820
     7  O    0.000000  -0.000036   0.001943  -0.089023   0.548924  -0.070333
     8  C   -0.000046   0.000479  -0.056964   0.307198  -0.034766   0.001954
     9  C   -0.000002   0.000179   0.003771  -0.032912  -0.002592   0.000031
    10  C    0.000000   0.000008  -0.000092  -0.001113   0.000117   0.000001
    11  N    0.000000   0.000000   0.000000  -0.000077  -0.000008   0.000000
    12  C    0.000000   0.000000   0.000001   0.000194   0.000017   0.000000
    13  N    0.000000   0.000001   0.000108  -0.001495   0.002183  -0.000025
    14  C   -0.094401   0.311493  -0.127655   0.004417  -0.000203  -0.000144
    15  C    0.008598  -0.030227   0.004102   0.000388  -0.000002   0.000000
    16  N   -0.013418  -0.001798  -0.000182  -0.000001   0.000001   0.000000
    17  H    0.011320  -0.007167   0.275995  -0.032369  -0.000927   0.000812
    18  H    0.000127  -0.009323  -0.036484   0.359854  -0.030570   0.000574
    19  H   -0.000369   0.000817   0.038592  -0.005141  -0.028377   0.223074
    20  H    0.000004  -0.000214   0.000115  -0.051554  -0.004165   0.000157
    21  H   -0.000125   0.001285  -0.001431  -0.037612   0.003844  -0.000060
    22  H    0.000000   0.000000   0.000002   0.000025  -0.000001   0.000000
    23  H    0.000000   0.000000   0.000000  -0.000002   0.000004   0.000000
    24  H    0.000000   0.000001   0.000009  -0.001009  -0.002125   0.000261
    25  H    0.000658  -0.021976  -0.001017  -0.002332   0.000333   0.000000
    26  H    0.001391  -0.029927   0.002417  -0.003044  -0.000298   0.000242
    27  H    0.004449  -0.005682   0.000230  -0.000042   0.000000   0.000000
    28  H    0.000368   0.005050  -0.000094  -0.000005   0.000000   0.000000
    29  H    0.000248  -0.000505   0.000001  -0.000005   0.000000   0.000000
    30  H    0.020274   0.005210   0.000114  -0.000008   0.000001   0.000000
               7          8          9         10         11         12
     1  O    0.000000  -0.000046  -0.000002   0.000000   0.000000   0.000000
     2  C   -0.000036   0.000479   0.000179   0.000008   0.000000   0.000000
     3  N    0.001943  -0.056964   0.003771  -0.000092   0.000000   0.000001
     4  C   -0.089023   0.307198  -0.032912  -0.001113  -0.000077   0.000194
     5  C    0.548924  -0.034766  -0.002592   0.000117  -0.000008   0.000017
     6  O   -0.070333   0.001954   0.000031   0.000001   0.000000   0.000000
     7  O    8.035181   0.009686  -0.004568   0.000079  -0.000016   0.000609
     8  C    0.009686   5.225439   0.341488  -0.057180   0.007226   0.006504
     9  C   -0.004568   0.341488   4.698900   0.573069  -0.042876  -0.092613
    10  C    0.000079  -0.057180   0.573069   4.949344   0.427171  -0.121908
    11  N   -0.000016   0.007226  -0.042876   0.427171   6.667945   0.535939
    12  C    0.000609   0.006504  -0.092613  -0.121908   0.535939   4.735233
    13  N   -0.018574  -0.074370   0.371667  -0.072788  -0.087500   0.358167
    14  C    0.000005  -0.000859  -0.000295  -0.000078   0.000000   0.000002
    15  C    0.000000  -0.000012   0.000000   0.000000   0.000000   0.000000
    16  N    0.000000   0.000000   0.000000   0.000000   0.000000   0.000000
    17  H    0.000031  -0.001902   0.000153   0.000003   0.000000   0.000000
    18  H   -0.000408  -0.037424   0.005212   0.001592  -0.000116  -0.000194
    19  H    0.004144   0.001096  -0.000043   0.000000   0.000000   0.000000
    20  H    0.002344   0.353736  -0.021392   0.000605  -0.000138   0.000243
    21  H    0.000238   0.366195  -0.029487  -0.004084   0.000049  -0.000050
    22  H    0.000001  -0.001953  -0.060710   0.380746  -0.043097   0.007644
    23  H   -0.000010  -0.000195   0.003129   0.007636  -0.039470   0.381936
    24  H    0.042868  -0.002492  -0.024171   0.008233   0.003950  -0.018469
    25  H    0.000000   0.000263   0.000572   0.000314  -0.000001  -0.000007
    26  H   -0.000003   0.000348  -0.000017  -0.000001   0.000000   0.000000
    27  H    0.000000   0.000003   0.000000   0.000000   0.000000   0.000000
    28  H    0.000000   0.000000   0.000000   0.000000   0.000000   0.000000
    29  H    0.000000   0.000000   0.000000   0.000000   0.000000   0.000000
    30  H    0.000000   0.000000   0.000000   0.000000   0.000000   0.000000
              13         14         15         16         17         18
     1  O    0.000000  -0.094401   0.008598  -0.013418   0.011320   0.000127
     2  C    0.000001   0.311493  -0.030227  -0.001798  -0.007167  -0.009323
     3  N    0.000108  -0.127655   0.004102  -0.000182   0.275995  -0.036484
     4  C   -0.001495   0.004417   0.000388  -0.000001  -0.032369   0.359854
     5  C    0.002183  -0.000203  -0.000002   0.000001  -0.000927  -0.030570
     6  O   -0.000025  -0.000144   0.000000   0.000000   0.000812   0.000574
     7  O   -0.018574   0.000005   0.000000   0.000000   0.000031  -0.000408
     8  C   -0.074370  -0.000859  -0.000012   0.000000  -0.001902  -0.037424
     9  C    0.371667  -0.000295   0.000000   0.000000   0.000153   0.005212
    10  C   -0.072788  -0.000078   0.000000   0.000000   0.000003   0.001592
    11  N   -0.087500   0.000000   0.000000   0.000000   0.000000  -0.000116
    12  C    0.358167   0.000002   0.000000   0.000000   0.000000  -0.000194
    13  N    6.913166   0.000001   0.000000   0.000000  -0.000001   0.000832
    14  C    0.000001   5.472431   0.321366  -0.065107   0.009084   0.009181
    15  C    0.000000   0.321366   4.842466   0.366147  -0.000149   0.000119
    16  N    0.000000  -0.065107   0.366147   6.865413   0.000015   0.000011
    17  H   -0.000001   0.009084  -0.000149   0.000015   0.397293   0.004325
    18  H    0.000832   0.009181   0.000119   0.000011   0.004325   0.513059
    19  H    0.000004   0.000082  -0.000001   0.000011  -0.000224   0.000227
    20  H   -0.002460  -0.000018   0.000000   0.000000   0.002345   0.005488
    21  H    0.004130   0.000071  -0.000002   0.000000   0.000348  -0.001316
    22  H    0.005110  -0.000002   0.000000   0.000000   0.000000   0.000000
    23  H   -0.057802   0.000000   0.000000   0.000000   0.000000   0.000001
    24  H    0.270829   0.000000   0.000000   0.000000   0.000000   0.000152
    25  H   -0.000015   0.322995  -0.018481   0.005129  -0.000334   0.001858
    26  H    0.000000   0.343947  -0.031748  -0.001465  -0.000236   0.002557
    27  H    0.000000  -0.051523   0.384622  -0.035705  -0.000008   0.000017
    28  H    0.000000  -0.048032   0.379557  -0.039187   0.000003   0.000015
    29  H    0.000000  -0.004228  -0.049154   0.314100   0.000000   0.000002
    30  H    0.000000  -0.007291  -0.042780   0.316172   0.000003  -0.000001
              19         20         21         22         23         24
     1  O   -0.000369   0.000004  -0.000125   0.000000   0.000000   0.000000
     2  C    0.000817  -0.000214   0.001285   0.000000   0.000000   0.000001
     3  N    0.038592   0.000115  -0.001431   0.000002   0.000000   0.000009
     4  C   -0.005141  -0.051554  -0.037612   0.000025  -0.000002  -0.001009
     5  C   -0.028377  -0.004165   0.003844  -0.000001   0.000004  -0.002125
     6  O    0.223074   0.000157  -0.000060   0.000000   0.000000   0.000261
     7  O    0.004144   0.002344   0.000238   0.000001  -0.000010   0.042868
     8  C    0.001096   0.353736   0.366195  -0.001953  -0.000195  -0.002492
     9  C   -0.000043  -0.021392  -0.029487  -0.060710   0.003129  -0.024171
    10  C    0.000000   0.000605  -0.004084   0.380746   0.007636   0.008233
    11  N    0.000000  -0.000138   0.000049  -0.043097  -0.039470   0.003950
    12  C    0.000000   0.000243  -0.000050   0.007644   0.381936  -0.018469
    13  N    0.000004  -0.002460   0.004130   0.005110  -0.057802   0.270829
    14  C    0.000082  -0.000018   0.000071  -0.000002   0.000000   0.000000
    15  C   -0.000001   0.000000  -0.000002   0.000000   0.000000   0.000000
    16  N    0.000011   0.000000   0.000000   0.000000   0.000000   0.000000
    17  H   -0.000224   0.002345   0.000348   0.000000   0.000000   0.000000
    18  H    0.000227   0.005488  -0.001316   0.000000   0.000001   0.000152
    19  H    0.336610  -0.000065  -0.000027   0.000000   0.000000  -0.000024
    20  H   -0.000065   0.571837  -0.030976  -0.000019  -0.000001   0.000567
    21  H   -0.000027  -0.030976   0.551428   0.003279   0.000004  -0.000069
    22  H    0.000000  -0.000019   0.003279   0.581979  -0.000156  -0.000105
    23  H    0.000000  -0.000001   0.000004  -0.000156   0.550514   0.000317
    24  H   -0.000024   0.000567  -0.000069  -0.000105   0.000317   0.352120
    25  H    0.000023   0.000005   0.000480   0.000021   0.000000   0.000000
    26  H    0.000344  -0.000003   0.000009   0.000000   0.000000  -0.000001
    27  H    0.000001   0.000000   0.000002   0.000000   0.000000   0.000000
    28  H    0.000000   0.000000   0.000000   0.000000   0.000000   0.000000
    29  H    0.000002   0.000000   0.000000   0.000000   0.000000   0.000000
    30  H   -0.000005   0.000000   0.000000   0.000000   0.000000   0.000000
              25         26         27         28         29         30
     1  O    0.000658   0.001391   0.004449   0.000368   0.000248   0.020274
     2  C   -0.021976  -0.029927  -0.005682   0.005050  -0.000505   0.005210
     3  N   -0.001017   0.002417   0.000230  -0.000094   0.000001   0.000114
     4  C   -0.002332  -0.003044  -0.000042  -0.000005  -0.000005  -0.000008
     5  C    0.000333  -0.000298   0.000000   0.000000   0.000000   0.000001
     6  O    0.000000   0.000242   0.000000   0.000000   0.000000   0.000000
     7  O    0.000000  -0.000003   0.000000   0.000000   0.000000   0.000000
     8  C    0.000263   0.000348   0.000003   0.000000   0.000000   0.000000
     9  C    0.000572  -0.000017   0.000000   0.000000   0.000000   0.000000
    10  C    0.000314  -0.000001   0.000000   0.000000   0.000000   0.000000
    11  N   -0.000001   0.000000   0.000000   0.000000   0.000000   0.000000
    12  C   -0.000007   0.000000   0.000000   0.000000   0.000000   0.000000
    13  N   -0.000015   0.000000   0.000000   0.000000   0.000000   0.000000
    14  C    0.322995   0.343947  -0.051523  -0.048032  -0.004228  -0.007291
    15  C   -0.018481  -0.031748   0.384622   0.379557  -0.049154  -0.042780
    16  N    0.005129  -0.001465  -0.035705  -0.039187   0.314100   0.316172
    17  H   -0.000334  -0.000236  -0.000008   0.000003   0.000000   0.000003
    18  H    0.001858   0.002557   0.000017   0.000015   0.000002  -0.000001
    19  H    0.000023   0.000344   0.000001   0.000000   0.000002  -0.000005
    20  H    0.000005  -0.000003   0.000000   0.000000   0.000000   0.000000
    21  H    0.000480   0.000009   0.000002   0.000000   0.000000   0.000000
    22  H    0.000021   0.000000   0.000000   0.000000   0.000000   0.000000
    23  H    0.000000   0.000000   0.000000   0.000000   0.000000   0.000000
    24  H    0.000000  -0.000001   0.000000   0.000000   0.000000   0.000000
    25  H    0.565104  -0.029975  -0.000308  -0.000275   0.000126   0.000077
    26  H   -0.029975   0.582000   0.005507  -0.003065   0.005505  -0.000399
    27  H   -0.000308   0.005507   0.564181  -0.032088   0.006994  -0.005657
    28  H   -0.000275  -0.003065  -0.032088   0.588345  -0.004315   0.006241
    29  H    0.000126   0.005505   0.006994  -0.004315   0.481044  -0.033132
    30  H    0.000077  -0.000399  -0.005657   0.006241  -0.033132   0.420795
 Mulliken charges:
               1
     1  O   -0.488919
     2  C    0.599908
     3  N   -0.654799
     4  C   -0.081949
     5  C    0.620464
     6  O   -0.554681
     7  O   -0.463082
     8  C   -0.353453
     9  C    0.313506
    10  C   -0.091674
    11  N   -0.428979
    12  C    0.206752
    13  N   -0.611172
    14  C   -0.395238
    15  C   -0.134811
    16  N   -0.710134
    17  H    0.341584
    18  H    0.210631
    19  H    0.429249
    20  H    0.173561
    21  H    0.173876
    22  H    0.127236
    23  H    0.154096
    24  H    0.369158
    25  H    0.176762
    26  H    0.155913
    27  H    0.165009
    28  H    0.147482
    29  H    0.283317
    30  H    0.320386
 Sum of Mulliken charges =   0.00000
 Mulliken charges with hydrogens summed into heavy atoms:
               1
     1  O   -0.488919
     2  C    0.599908
     3  N   -0.313214
     4  C    0.128683
     5  C    0.620464
     6  O   -0.125432
     7  O   -0.463082
     8  C   -0.006017
     9  C    0.313506
    10  C    0.035562
    11  N   -0.428979
    12  C    0.360848
    13  N   -0.242013
    14  C   -0.062562
    15  C    0.177680
    16  N   -0.106432
 APT charges:
               1
     1  O    0.289102
     2  C   -0.469984
     3  N   -0.810673
     4  C   -0.168311
     5  C   -0.422906
     6  O   -0.151142
     7  O    0.258089
     8  C   -0.974475
     9  C   -0.433760
    10  C   -0.328027
    11  N    0.112126
    12  C   -0.465447
    13  N   -0.674805
    14  C   -0.343267
    15  C   -1.108814
    16  N   -0.717701
    17  H    0.672196
    18  H    0.256549
    19  H    0.406904
    20  H    0.551566
    21  H    0.337653
    22  H    0.441210
    23  H    0.923380
    24  H    0.497718
    25  H    0.216396
    26  H    0.302838
    27  H    0.460510
    28  H    0.506767
    29  H    0.454742
    30  H    0.381568
 Sum of APT charges =   0.00000
 APT charges with hydrogens summed into heavy atoms:
               1
     1  O    0.289102
     2  C   -0.469984
     3  N   -0.138477
     4  C    0.088239
     5  C   -0.422906
     6  O    0.255761
     7  O    0.258089
     8  C   -0.085257
     9  C   -0.433760
    10  C    0.113183
    11  N    0.112126
    12  C    0.457933
    13  N   -0.177087
    14  C    0.175966
    15  C   -0.141537
    16  N    0.118609
 Electronic spatial extent (au):  <R**2>=           4651.2917
 Charge=              0.0000 electrons
 Dipole moment (field-independent basis, Debye):
    X=              1.4677    Y=              0.4965    Z=             -2.1969  Tot=              2.6883
 Quadrupole moment (field-independent basis, Debye-Ang):
   XX=           -121.6953   YY=            -90.5746   ZZ=           -105.3250
   XY=             -4.5286   XZ=             -3.5101   YZ=              2.1908
 Traceless Quadrupole moment (field-independent basis, Debye-Ang):
   XX=            -15.8303   YY=             15.2904   ZZ=              0.5399
   XY=             -4.5286   XZ=             -3.5101   YZ=              2.1908
 Octapole moment (field-independent basis, Debye-Ang**2):
  XXX=             86.8572  YYY=            -18.2453  ZZZ=            112.5017  XYY=             18.2274
  XXY=             -3.5214  XXZ=            -75.9486  XZZ=             20.6781  YZZ=             -3.9391
  YYZ=              5.7929  XYZ=            -15.9182
 Hexadecapole moment (field-independent basis, Debye-Ang**3):
 XXXX=          -4725.3563 YYYY=           -509.4108 ZZZZ=          -1581.8021 XXXY=            -49.2636
 XXXZ=           -308.8224 YYYX=            -98.7561 YYYZ=             98.0734 ZZZX=           -354.0468
 ZZZY=            137.7683 XXYY=           -787.6724 XXZZ=           -997.4101 YYZZ=           -315.9673
 XXYZ=            149.6317 YYXZ=           -100.3341 ZZXY=             -8.8562
 N-N= 1.119235507968D+03 E-N=-4.093860180721D+03  KE= 7.892009373069D+02
  Exact polarizability:   0.000   0.000   0.000   0.000   0.000   0.000
 Approx polarizability: 198.960  36.091 152.418   6.292   9.192 185.978
 Calling FoFJK, ICntrl=    100147 FMM=F ISym2X=0 I1Cent= 0 IOpClX= 0 NMat=1 NMatS=1 NMatT=0.
 -------------------------------------------------------------------
 Center     Atomic                   Forces (Hartrees/Bohr)
 Number     Number              X              Y              Z
 -------------------------------------------------------------------
      1        8           0.002062012    0.004004511    0.001816929
      2        6           0.005905075   -0.002886214    0.005450372
      3        7           0.002635161    0.000327673   -0.009181470
      4        6          -0.001006465    0.002951903    0.002614212
      5        6           0.008244517    0.002276614    0.004639227
      6        8          -0.001472881   -0.001972672   -0.007543418
      7        8          -0.008854359   -0.001633800   -0.007868915
      8        6          -0.007755920   -0.004285123   -0.000375814
      9        6           0.007227679    0.005294626   -0.004580749
     10        6          -0.010364072   -0.007627906    0.006662860
     11        7          -0.001798905    0.001840032    0.010574489
     12        6           0.002901158    0.001968069   -0.000837768
     13        7          -0.003162242   -0.002623310   -0.006976482
     14        6          -0.002594732   -0.000027694   -0.000672354
     15        6           0.005459692    0.000294377    0.001714120
     16        7           0.002680234   -0.000195340    0.002381845
     17        1          -0.001114144    0.003024340   -0.001119695
     18        1          -0.000692689   -0.001199421    0.000962881
     19        1           0.003929466    0.002328545    0.004993541
     20        1          -0.001026674    0.004038602   -0.002940396
     21        1           0.003500210    0.001341717    0.002845224
     22        1           0.000565829    0.001007176    0.002344700
     23        1          -0.003130463   -0.003412325   -0.001141176
     24        1           0.000808410    0.001020258   -0.004083001
     25        1          -0.003162559   -0.001366319    0.000743790
     26        1          -0.000632148   -0.002275704   -0.000951852
     27        1          -0.000487163    0.000677217    0.002369205
     28        1          -0.001271575   -0.001661948    0.000825562
     29        1           0.001353959   -0.003785628   -0.003172360
     30        1           0.001253588    0.002557746    0.000506495
 -------------------------------------------------------------------
 Cartesian Forces:  Max     0.010574489 RMS     0.003896015
 FormGI is forming the generalized inverse of G from B-inverse, IUseBI=4.
 GSVD:  received Info=                   1 from GESDD.

 GradGradGradGradGradGradGradGradGradGradGradGradGradGradGradGradGradGrad
 Berny optimization.
 Internal  Forces:  Max     0.015943714 RMS     0.003700919
 Search for a local minimum.
 Step number   1 out of a maximum of  160
 All quantities printed in internal units (Hartrees-Bohrs-Radians)
 Mixed Optimization -- RFO/linear search
 Second derivative matrix not updated -- analytic derivatives used.
 ITU=  0
     Eigenvalues ---    0.00046   0.00239   0.00305   0.00382   0.00404
     Eigenvalues ---    0.00514   0.00674   0.00906   0.00952   0.01559
     Eigenvalues ---    0.01612   0.02063   0.02632   0.03043   0.03632
     Eigenvalues ---    0.03661   0.04075   0.04311   0.04432   0.04524
     Eigenvalues ---    0.04595   0.04872   0.05063   0.05157   0.05492
     Eigenvalues ---    0.05723   0.06252   0.06451   0.07864   0.08311
     Eigenvalues ---    0.08907   0.10711   0.11116   0.11178   0.11685
     Eigenvalues ---    0.11933   0.12814   0.13057   0.15293   0.16471
     Eigenvalues ---    0.17240   0.18871   0.19050   0.19608   0.20233
     Eigenvalues ---    0.22094   0.22552   0.22704   0.23436   0.23867
     Eigenvalues ---    0.25044   0.25379   0.27916   0.28611   0.31673
     Eigenvalues ---    0.32559   0.33375   0.33915   0.34034   0.34304
     Eigenvalues ---    0.34370   0.35012   0.35250   0.35529   0.35748
     Eigenvalues ---    0.38099   0.38228   0.38703   0.38740   0.40347
     Eigenvalues ---    0.42896   0.44139   0.45321   0.45606   0.45725
     Eigenvalues ---    0.46072   0.47371   0.49354   0.49726   0.50847
     Eigenvalues ---    0.60365   0.70145   0.85492   0.92837
 RFO step:  Lambda=-5.32368061D-03 EMin= 4.59060193D-04
 Linear search not attempted -- first point.
 Iteration  1 RMS(Cart)=  0.07394103 RMS(Int)=  0.00128122
 Iteration  2 RMS(Cart)=  0.00195878 RMS(Int)=  0.00008700
 Iteration  3 RMS(Cart)=  0.00000238 RMS(Int)=  0.00008699
 Iteration  4 RMS(Cart)=  0.00000000 RMS(Int)=  0.00008699
 Variable       Old X    -DE/DX   Delta X   Delta X   Delta X     New X
                                 (Linear)    (Quad)   (Total)
    R1        2.30646   0.00461   0.00000   0.00073   0.00073   2.30719
    R2        2.60179   0.01594   0.00000   0.03804   0.03804   2.63983
    R3        2.86848   0.00651   0.00000   0.01022   0.01022   2.87870
    R4        2.74378   0.00990   0.00000   0.02434   0.02434   2.76811
    R5        1.91644   0.00311   0.00000   0.00749   0.00749   1.92393
    R6        2.90508   0.00548   0.00000   0.01643   0.01643   2.92151
    R7        2.91387   0.00959   0.00000   0.02372   0.02372   2.93760
    R8        2.06186   0.00143   0.00000   0.00599   0.00599   2.06785
    R9        2.52474   0.00341   0.00000   0.00500   0.00500   2.52974
   R10        2.27690   0.01163   0.00000   0.01319   0.01319   2.29009
   R11        1.83678   0.00655   0.00000   0.01660   0.01660   1.85338
   R12        2.82120   0.00728   0.00000   0.00723   0.00723   2.82842
   R13        2.06250   0.00509   0.00000   0.01390   0.01390   2.07640
   R14        2.05653   0.00398   0.00000   0.01194   0.01194   2.06848
   R15        2.57586   0.01483   0.00000   0.02661   0.02661   2.60247
   R16        2.59093   0.00827   0.00000   0.01815   0.01820   2.60913
   R17        2.61277  -0.00319   0.00000  -0.01371  -0.01376   2.59901
   R18        2.03884   0.00261   0.00000   0.00746   0.00746   2.04630
   R19        2.47532   0.00779   0.00000   0.01470   0.01466   2.48998
   R20        2.56860   0.00625   0.00000   0.00697   0.00698   2.57559
   R21        2.03308   0.00455   0.00000   0.01126   0.01126   2.04434
   R22        1.90844   0.00414   0.00000   0.00970   0.00970   1.91815
   R23        2.88381   0.00998   0.00000   0.03103   0.03103   2.91484
   R24        2.06945   0.00334   0.00000   0.00923   0.00923   2.07868
   R25        2.07262   0.00212   0.00000   0.00575   0.00575   2.07836
   R26        2.75029   0.00496   0.00000   0.00415   0.00415   2.75444
   R27        2.06269   0.00231   0.00000   0.00597   0.00597   2.06866
   R28        2.06585   0.00202   0.00000   0.00593   0.00593   2.07178
   R29        1.91619   0.00490   0.00000   0.00917   0.00917   1.92536
   R30        1.91793   0.00246   0.00000   0.00511   0.00511   1.92305
    A1        2.08747  -0.00356   0.00000  -0.00944  -0.00944   2.07803
    A2        2.14745  -0.00142   0.00000   0.00136   0.00136   2.14881
    A3        2.04738   0.00500   0.00000   0.00823   0.00823   2.05562
    A4        2.19744   0.00672   0.00000   0.00977   0.00941   2.20685
    A5        1.94068  -0.00190   0.00000  -0.00973  -0.01017   1.93051
    A6        2.04158  -0.00435   0.00000  -0.02259  -0.02292   2.01865
    A7        1.93324  -0.00648   0.00000  -0.02130  -0.02136   1.91187
    A8        1.94337   0.00449   0.00000   0.02789   0.02793   1.97130
    A9        1.87667  -0.00001   0.00000  -0.00233  -0.00233   1.87434
   A10        1.96492   0.00304   0.00000   0.00124   0.00134   1.96626
   A11        1.83848   0.00127   0.00000   0.00423   0.00417   1.84265
   A12        1.90182  -0.00260   0.00000  -0.01135  -0.01136   1.89046
   A13        2.01194  -0.00203   0.00000  -0.00372  -0.00372   2.00823
   A14        2.15234   0.00416   0.00000   0.00495   0.00495   2.15729
   A15        2.11860  -0.00213   0.00000  -0.00125  -0.00125   2.11735
   A16        1.89106  -0.00226   0.00000  -0.02304  -0.02304   1.86803
   A17        1.99148   0.00962   0.00000   0.02066   0.02067   2.01215
   A18        1.90042  -0.00166   0.00000  -0.00212  -0.00231   1.89811
   A19        1.89889  -0.00577   0.00000  -0.03040  -0.03046   1.86843
   A20        1.94093  -0.00257   0.00000   0.00121   0.00113   1.94206
   A21        1.86252  -0.00164   0.00000   0.00948   0.00969   1.87221
   A22        1.86471   0.00144   0.00000  -0.00090  -0.00109   1.86363
   A23        2.29236  -0.00294   0.00000  -0.00003  -0.00014   2.29222
   A24        2.15639   0.00543   0.00000   0.00757   0.00747   2.16386
   A25        1.83439  -0.00249   0.00000  -0.00736  -0.00734   1.82705
   A26        1.93002   0.00299   0.00000   0.00924   0.00925   1.93927
   A27        2.23864  -0.00166   0.00000  -0.01177  -0.01178   2.22686
   A28        2.11450  -0.00133   0.00000   0.00251   0.00251   2.11701
   A29        1.83514  -0.00161   0.00000  -0.00476  -0.00481   1.83032
   A30        1.94622   0.00393   0.00000   0.00945   0.00946   1.95568
   A31        2.21005  -0.00336   0.00000  -0.01631  -0.01633   2.19372
   A32        2.12692  -0.00057   0.00000   0.00689   0.00687   2.13379
   A33        1.87899  -0.00281   0.00000  -0.00651  -0.00653   1.87246
   A34        2.15540   0.00104   0.00000  -0.00451  -0.00467   2.15072
   A35        2.24880   0.00177   0.00000   0.01102   0.01084   2.25964
   A36        1.95992   0.00261   0.00000   0.00276   0.00274   1.96266
   A37        1.89969  -0.00103   0.00000   0.00176   0.00176   1.90145
   A38        1.89928   0.00026   0.00000   0.00838   0.00837   1.90764
   A39        1.91657  -0.00040   0.00000  -0.00179  -0.00180   1.91477
   A40        1.92311  -0.00127   0.00000  -0.00048  -0.00052   1.92259
   A41        1.86252  -0.00030   0.00000  -0.01124  -0.01125   1.85127
   A42        2.01698   0.00590   0.00000   0.02126   0.02124   2.03821
   A43        1.89915  -0.00121   0.00000  -0.00286  -0.00303   1.89612
   A44        1.90102  -0.00254   0.00000  -0.01799  -0.01802   1.88300
   A45        1.87546  -0.00126   0.00000   0.00338   0.00331   1.87877
   A46        1.89405  -0.00154   0.00000   0.00062   0.00074   1.89479
   A47        1.87207   0.00038   0.00000  -0.00590  -0.00600   1.86607
   A48        1.92138   0.00107   0.00000   0.01054   0.01044   1.93182
   A49        1.88886   0.00095   0.00000   0.01033   0.01023   1.89909
   A50        1.86152   0.00035   0.00000   0.01211   0.01190   1.87342
    D1       -2.84556   0.00083   0.00000   0.04117   0.04122  -2.80434
    D2       -0.19614   0.00027   0.00000  -0.01597  -0.01604  -0.21218
    D3        0.33955   0.00022   0.00000   0.03736   0.03742   0.37697
    D4        2.98897  -0.00034   0.00000  -0.01978  -0.01984   2.96913
    D5       -0.04830  -0.00052   0.00000  -0.00953  -0.00953  -0.05783
    D6        2.07755  -0.00003   0.00000  -0.00877  -0.00877   2.06878
    D7       -2.18215  -0.00081   0.00000  -0.01661  -0.01663  -2.19878
    D8        3.04815   0.00006   0.00000  -0.00586  -0.00584   3.04231
    D9       -1.10918   0.00055   0.00000  -0.00510  -0.00509  -1.11426
   D10        0.91430  -0.00023   0.00000  -0.01294  -0.01295   0.90136
   D11       -2.35416   0.00135   0.00000  -0.03806  -0.03805  -2.39221
   D12        1.72825  -0.00111   0.00000  -0.04453  -0.04434   1.68391
   D13       -0.35389  -0.00053   0.00000  -0.04543  -0.04533  -0.39922
   D14        1.30454   0.00110   0.00000   0.01816   0.01797   1.32251
   D15       -0.89623  -0.00136   0.00000   0.01169   0.01168  -0.88455
   D16       -2.97838  -0.00078   0.00000   0.01079   0.01070  -2.96768
   D17        0.41590  -0.00241   0.00000  -0.03209  -0.03207   0.38383
   D18       -2.75177  -0.00231   0.00000  -0.03274  -0.03272  -2.78449
   D19        2.60460   0.00080   0.00000  -0.01084  -0.01085   2.59375
   D20       -0.56306   0.00089   0.00000  -0.01149  -0.01150  -0.57456
   D21       -1.60820   0.00008   0.00000  -0.02127  -0.02128  -1.62948
   D22        1.50731   0.00017   0.00000  -0.02192  -0.02193   1.48539
   D23       -2.65417  -0.00008   0.00000  -0.01970  -0.01957  -2.67374
   D24        1.44940  -0.00241   0.00000  -0.03469  -0.03458   1.41482
   D25       -0.57687  -0.00006   0.00000  -0.01581  -0.01588  -0.59275
   D26        1.44583   0.00267   0.00000  -0.01419  -0.01415   1.43168
   D27       -0.73378   0.00034   0.00000  -0.02918  -0.02916  -0.76295
   D28       -2.76006   0.00270   0.00000  -0.01029  -0.01046  -2.77051
   D29       -0.58707   0.00097   0.00000  -0.01293  -0.01287  -0.59994
   D30       -2.76668  -0.00136   0.00000  -0.02792  -0.02789  -2.79457
   D31        1.49023   0.00099   0.00000  -0.00903  -0.00918   1.48105
   D32       -0.06434  -0.00093   0.00000  -0.02283  -0.02283  -0.08716
   D33        3.10278  -0.00112   0.00000  -0.02230  -0.02230   3.08048
   D34        2.14265  -0.00257   0.00000  -0.05198  -0.05193   2.09072
   D35       -0.98731  -0.00316   0.00000  -0.07612  -0.07613  -1.06344
   D36       -1.98262   0.00051   0.00000  -0.03807  -0.03800  -2.02063
   D37        1.17060  -0.00007   0.00000  -0.06221  -0.06220   1.10839
   D38        0.04486  -0.00007   0.00000  -0.03301  -0.03303   0.01182
   D39       -3.08511  -0.00065   0.00000  -0.05715  -0.05724   3.14084
   D40       -3.13580  -0.00023   0.00000  -0.01677  -0.01672   3.13067
   D41        0.01300  -0.00031   0.00000  -0.01379  -0.01375  -0.00075
   D42       -0.00424   0.00032   0.00000   0.00414   0.00410  -0.00014
   D43       -3.13863   0.00024   0.00000   0.00711   0.00707  -3.13156
   D44        3.13873  -0.00004   0.00000   0.01163   0.01172  -3.13274
   D45       -0.00292  -0.00013   0.00000   0.03857   0.03847   0.03555
   D46        0.00618  -0.00048   0.00000  -0.00715  -0.00708  -0.00091
   D47       -3.13547  -0.00056   0.00000   0.01979   0.01967  -3.11580
   D48        0.00058  -0.00005   0.00000   0.00055   0.00057   0.00116
   D49        3.13557   0.00002   0.00000  -0.00225  -0.00225   3.13332
   D50        0.00348  -0.00024   0.00000  -0.00520  -0.00525  -0.00177
   D51       -3.13478  -0.00007   0.00000  -0.01148  -0.01148   3.13693
   D52       -0.00625   0.00045   0.00000   0.00797   0.00799   0.00174
   D53        3.13540   0.00054   0.00000  -0.02088  -0.02100   3.11440
   D54        3.13219   0.00028   0.00000   0.01385   0.01392  -3.13707
   D55       -0.00934   0.00037   0.00000  -0.01499  -0.01507  -0.02441
   D56       -1.07572  -0.00107   0.00000  -0.01508  -0.01513  -1.09084
   D57        1.03523   0.00039   0.00000   0.00169   0.00166   1.03689
   D58        3.07074  -0.00123   0.00000  -0.01688  -0.01681   3.05393
   D59        3.09127  -0.00123   0.00000  -0.01791  -0.01795   3.07332
   D60       -1.08098   0.00023   0.00000  -0.00113  -0.00116  -1.08213
   D61        0.95454  -0.00139   0.00000  -0.01971  -0.01963   0.93491
   D62        1.04455   0.00013   0.00000  -0.00283  -0.00288   1.04167
   D63       -3.12769   0.00160   0.00000   0.01394   0.01391  -3.11378
   D64       -1.09218  -0.00003   0.00000  -0.00463  -0.00456  -1.09674
   D65       -0.97604  -0.00016   0.00000  -0.01066  -0.01070  -0.98674
   D66        1.05229   0.00139   0.00000   0.01549   0.01556   1.06785
   D67       -3.09974  -0.00155   0.00000  -0.02366  -0.02377  -3.12352
   D68       -1.07142  -0.00001   0.00000   0.00249   0.00249  -1.06892
   D69        1.16439  -0.00055   0.00000  -0.01883  -0.01885   1.14554
   D70       -3.09047   0.00099   0.00000   0.00732   0.00741  -3.08306
         Item               Value     Threshold  Converged?
 Maximum Force            0.015944     0.000450     NO 
 RMS     Force            0.003701     0.000300     NO 
 Maximum Displacement     0.314946     0.001800     NO 
 RMS     Displacement     0.074209     0.001200     NO 
 Predicted change in Energy=-2.813677D-03
 GradGradGradGradGradGradGradGradGradGradGradGradGradGradGradGradGradGrad

                          Input orientation:                          
 ---------------------------------------------------------------------
 Center     Atomic      Atomic             Coordinates (Angstroms)
 Number     Number       Type             X           Y           Z
 ---------------------------------------------------------------------
      1          8           0        2.737453    1.603629    0.778295
      2          6           0        1.919920    0.786986    0.384131
      3          7           0        1.035528    1.149551   -0.634606
      4          6           0       -0.230951    0.490739   -0.962793
      5          6           0       -0.360135    0.353653   -2.497271
      6          8           0        0.796237    0.400111   -3.170112
      7          8           0       -1.415423    0.186910   -3.069269
      8          6           0       -1.461704    1.187977   -0.318116
      9          6           0       -2.640063    0.300231   -0.065926
     10          6           0       -3.295768   -0.032100    1.098633
     11          7           0       -4.348115   -0.881821    0.849450
     12          6           0       -4.332204   -1.066257   -0.455121
     13          7           0       -3.323270   -0.375575   -1.057301
     14          6           0        1.846527   -0.639463    0.913695
     15          6           0        2.963826   -0.948280    1.931279
     16          7           0        4.335308   -0.874900    1.443205
     17          1           0        1.063296    2.154980   -0.792306
     18          1           0       -0.175987   -0.532884   -0.579938
     19          1           0        1.500791    0.597742   -2.517081
     20          1           0       -1.739838    2.054249   -0.934185
     21          1           0       -1.137264    1.580447    0.650819
     22          1           0       -3.069553    0.303664    2.102957
     23          1           0       -5.020484   -1.686814   -1.013248
     24          1           0       -3.057376   -0.344431   -2.036401
     25          1           0        0.863953   -0.796173    1.382702
     26          1           0        1.896994   -1.343411    0.070179
     27          1           0        2.873198   -0.253179    2.772088
     28          1           0        2.788284   -1.954729    2.329026
     29          1           0        4.466958   -1.494502    0.645185
     30          1           0        4.519787    0.073708    1.124321
 ---------------------------------------------------------------------
                    Distance matrix (angstroms):
                    1          2          3          4          5
     1  O    0.000000
     2  C    1.220915   0.000000
     3  N    2.258103   1.396935   0.000000
     4  C    3.616812   2.555036   1.464823   0.000000
     5  C    4.678336   3.699852   2.459847   1.545996   0.000000
     6  O    4.561436   3.747663   2.654752   2.436306   1.338682
     7  O    5.835856   4.838447   3.586282   2.435678   1.211865
     8  C    4.359794   3.476970   2.517500   1.554510   2.580362
     9  C    5.597252   4.607919   3.815063   2.577690   3.333521
    10  C    6.259232   5.327740   4.812540   3.730408   4.658033
    11  N    7.509181   6.503053   5.942432   4.703104   5.350787
    12  C    7.657001   6.574793   5.809868   4.416135   4.686561
    13  N    6.634684   5.560604   4.637219   3.212767   3.374234
    14  C    2.417342   1.523345   2.501105   3.019019   4.182143
    15  C    2.809423   2.548442   3.834449   4.544560   5.688216
    16  N    3.022971   3.117307   4.393661   5.338962   6.251710
    17  H    2.360843   1.997302   1.018100   2.115145   2.859693
    18  H    3.859743   2.657877   2.073968   1.094259   2.120382
    19  H    3.660689   2.937433   2.016104   2.329419   1.876971
    20  H    4.814747   4.091179   2.934430   2.173045   2.690511
    21  H    3.876883   3.169713   2.561057   2.147699   3.466904
    22  H    6.096389   5.299321   5.006143   4.182282   5.339058
    23  H    8.615233   7.499438   6.698031   5.261551   5.299498
    24  H    6.730342   5.649119   4.576994   3.136690   2.823974
    25  H    3.103927   2.149093   2.807991   2.890727   4.227845
    26  H    3.145290   2.153528   2.730148   2.993207   3.816603
    27  H    2.727888   2.773630   4.117068   4.913094   6.211991
    28  H    3.881915   3.471840   4.635928   5.092363   6.207601
    29  H    3.550679   3.429393   4.517034   5.347628   6.049093
    30  H    2.374259   2.795703   4.048620   5.205715   6.083415
                    6          7          8          9         10
     6  O    0.000000
     7  O    2.224199   0.000000
     8  C    3.721950   2.927989   0.000000
     9  C    4.631857   3.245405   1.496737   0.000000
    10  C    5.929038   4.577671   2.619076   1.377168   0.000000
    11  N    6.653163   5.009913   3.738802   2.269935   1.375337
    12  C    5.985175   4.112397   3.652412   2.209549   2.134908
    13  N    4.694251   2.829184   2.540968   1.380692   2.183297
    14  C    4.342960   5.214135   3.975083   4.687448   5.181341
    15  C    5.704454   6.743290   5.404506   6.078748   6.380847
    16  N    5.952594   7.386526   6.400239   7.232856   7.685205
    17  H    2.967296   3.898963   2.745100   4.205067   5.230718
    18  H    2.919709   2.872468   2.164020   2.651407   3.577908
    19  H    0.980767   2.996331   3.736336   4.821135   6.039625
    20  H    3.763937   2.854958   1.098784   2.154265   3.302441
    21  H    4.441974   3.982257   1.094591   2.100257   2.731297
    22  H    6.539028   5.431547   3.037891   2.211002   1.082857
    23  H    6.545346   4.553518   4.627370   3.242248   3.189478
    24  H    4.085336   2.011255   2.801241   2.114831   3.159560
    25  H    4.707844   5.097258   3.498330   3.946993   4.238842
    26  H    3.840706   4.813535   4.223690   4.827522   5.453627
    27  H    6.328530   7.259986   5.515221   6.225483   6.395739
    28  H    6.305080   7.169334   5.911544   6.347250   6.498158
    29  H    5.623188   7.157284   6.578197   7.364542   7.912278
    30  H    5.693287   7.268130   6.253035   7.261642   7.816314
                   11         12         13         14         15
    11  N    0.000000
    12  C    1.317641   0.000000
    13  N    2.223127   1.362942   0.000000
    14  C    6.199714   6.342912   5.539067   0.000000
    15  C    7.391837   7.677297   6.984782   1.542467   0.000000
    16  N    8.703702   8.875023   8.071907   2.555356   1.457589
    17  H    6.418792   6.292971   5.071084   3.366423   4.545344
    18  H    4.423975   4.192160   3.187164   2.516518   4.041930
    19  H    6.908860   6.406591   5.133212   3.663391   4.931386
    20  H    4.313348   4.085024   2.902836   4.851058   6.273000
    21  H    4.051146   4.293692   3.394454   3.728286   4.985277
    22  H    2.147412   3.164607   3.242372   5.145063   6.164292
    23  H    2.137695   1.081816   2.145186   7.208738   8.541949
    24  H    3.206701   2.155613   1.015040   5.730478   7.236159
    25  H    5.239975   5.518205   4.864499   1.099990   2.175671
    26  H    6.310445   6.257449   5.427622   1.099823   2.181274
    27  H    7.499273   7.936863   7.285288   2.157984   1.094686
    28  H    7.366713   7.696896   7.163241   2.149417   1.096339
    29  H    8.838699   8.878024   8.052211   2.769449   2.052267
    30  H    8.923467   9.063769   8.153212   2.774760   2.028954
                   16         17         18         19         20
    16  N    0.000000
    17  H    4.988361   0.000000
    18  H    4.955993   2.967413   0.000000
    19  H    5.087929   2.364581   2.800432   0.000000
    20  H    7.151175   2.808530   3.043744   3.889558   0.000000
    21  H    6.050261   2.693541   2.627734   4.238000   1.760631
    22  H    7.527035   5.374975   4.033666   6.505327   3.749256
    23  H    9.706916   7.198651   4.998847   7.071615   4.976388
    24  H    8.187847   4.977426   3.234069   4.679277   2.950331
    25  H    3.472775   3.671471   2.236683   4.190091   4.502510
    26  H    2.837266   3.698334   2.318805   3.258675   5.077342
    27  H    2.071288   4.666892   4.540027   5.530179   6.351440
    28  H    2.084225   5.441324   4.389831   5.626499   6.871997
    29  H    1.018858   5.193266   4.897200   4.814100   7.322047
    30  H    1.017633   4.466820   5.032171   4.759071   6.880618
                   21         22         23         24         25
    21  H    0.000000
    22  H    2.733609   0.000000
    23  H    5.340741   4.180775   0.000000
    24  H    3.822714   4.189805   2.588944   0.000000
    25  H    3.191997   4.147394   6.415639   5.222179   0.000000
    26  H    4.253565   5.613523   7.010225   5.475530   1.757658
    27  H    4.893442   6.006172   8.870981   7.635549   2.502460
    28  H    5.542904   6.282173   8.498202   7.471395   2.437382
    29  H    6.392390   7.884002   9.633221   8.070264   3.743426
    30  H    5.873389   7.655631   9.934053   8.220608   3.766773
                   26         27         28         29         30
    26  H    0.000000
    27  H    3.072766   0.000000
    28  H    2.504096   1.760338   0.000000
    29  H    2.637835   2.933371   2.421791   0.000000
    30  H    3.162038   2.352285   2.926427   1.640623   0.000000
 Symmetry turned off by external request.
 Stoichiometry    C9H14N4O3
 Framework group  C1[X(C9H14N4O3)]
 Deg. of freedom    84
 Full point group                 C1      NOp   1
 Rotational constants (GHZ):      0.7634253      0.2797888      0.2297562
 Standard basis: 6-31G(d) (6D, 7F)
   268 basis functions,   504 primitive gaussians,   268 cartesian basis functions
    60 alpha electrons       60 beta electrons
       nuclear repulsion energy      1109.0071069478 Hartrees.
 NAtoms=   30 NActive=   30 NUniq=   30 SFac= 1.00D+00 NAtFMM=   60 NAOKFM=F Big=F
 Integral buffers will be    131072 words long.
 Raffenetti 2 integral format.
 Two-electron integral symmetry is turned off.
 One-electron integrals computed using PRISM.
 NBasis=   268 RedAO= T EigKep=  1.25D-03  NBF=   268
 NBsUse=   268 1.00D-06 EigRej= -1.00D+00 NBFU=   268
 Initial guess from the checkpoint file:  "conf-599.chk"
 B after Tr=    -0.011838   -0.000480   -0.015247
         Rot=    0.999999    0.001551    0.000357    0.000031 Ang=   0.18 deg.
 ExpMin= 1.61D-01 ExpMax= 5.48D+03 ExpMxC= 8.25D+02 IAcc=2 IRadAn=         4 AccDes= 0.00D+00
 Harris functional with IExCor=  402 and IRadAn=       4 diagonalized for initial guess.
 HarFok:  IExCor=  402 AccDes= 0.00D+00 IRadAn=         4 IDoV= 1 UseB2=F ITyADJ=14
 ICtDFT=  3500011 ScaDFX=  1.000000  1.000000  1.000000  1.000000
 FoFCou: FMM=F IPFlag=           0 FMFlag=      100000 FMFlg1=           0
         NFxFlg=           0 DoJE=T BraDBF=F KetDBF=T FulRan=T
         wScrn=  0.000000 ICntrl=     500 IOpCl=  0 I1Cent=   200000004 NGrid=           0
         NMat0=    1 NMatS0=      1 NMatT0=    0 NMatD0=    1 NMtDS0=    0 NMtDT0=    0
 Symmetry not used in FoFCou.
[...]
 0.00783681,-0.00195784,0.01641009,-0.03514999,-0.03360410,0.01536293,0
 .00004471,-0.00002856,0.00004026,-0.00001884,0.00000656,-0.00002407,0.
 00001393,-0.00002225,0.00002253,-0.00004327,-0.00002888,-0.00005527,0.
 00031798,-0.00000129,0.00022390,0.00005870,0.00018503,-0.00026998,-0.0
 0056830,-0.00090587,0.00005093,0.00022700,-0.00018222,0.00022148,-0.00
 050723,0.00178145,-0.00061230,0.00043269,-0.00098099,-0.00036970,0.023
 69914,0.03529488,-0.00018183,-0.00001819,-0.00013110,0.00029370,-0.000
 22128,0.00027292,0.00033978,-0.00005830,-0.00124480,-0.00096614,0.0002
 7825,0.00034283,0.00432956,0.00004317,0.00451726,-0.00333530,-0.000106
 09,-0.00050106,-0.00082162,-0.00024219,-0.00893017,-0.00073336,-0.0000
 9078,0.00088680,0.00576460,0.00323856,-0.01376970,-0.00236418,-0.00228
 529,-0.00122533,0.00060815,-0.00031153,0.00456008,0.00166026,0.0023474
 2,-0.00175100,0.07786620,0.01349095,-0.42111941,-0.00009427,0.00005008
 ,0.00002698,-0.00001221,-0.00000489,0.00001281,0.00003035,0.00001228,-
 0.00002191,-0.00011399,0.00006073,0.00021786,-0.00030503,-0.00007503,-
 0.00018083,0.00004813,0.00016932,0.00075031,0.00004747,0.00009802,-0.0
 0000895,0.00046852,0.00021822,-0.00006207,0.00039095,0.00018347,0.0000
 2674,-0.00012918,0.00011972,0.00002577,-0.08278620,-0.01688503,0.43734
 133,0.00081364,0.00017022,0.00096351,-0.00126336,-0.00253836,-0.000884
 97,-0.00025092,-0.00004138,-0.00026724,-0.00038420,-0.00030171,-0.0011
 1381,-0.00004750,0.00024942,0.00043059,0.00012894,-0.00011069,-0.00025
 344,-0.00003510,-0.00006508,-0.00015294,0.00026838,0.00015041,-0.00006
 470,0.00002487,-0.00005133,-0.00009047,0.00004404,-0.00001883,0.000103
 85,-0.00004121,-0.00005396,-0.00003934,-0.00001127,-0.00000635,0.00005
 366,0.00003434,0.00004013,0.00003015,-0.24714910,-0.02902830,0.0984319
 2,-0.01913447,-0.00321967,0.01359587,-0.00545027,0.00125075,-0.0053757
 5,-0.00018897,-0.00000366,0.00048889,-0.00022522,0.00088171,-0.0010626
 2,-0.00010497,0.00006570,0.00007507,0.00000328,0.00001019,0.00001451,0
 .00000409,-0.00000886,0.00002806,-0.00001786,0.00002423,-0.00000215,-0
 .00000476,0.00000114,-0.00000040,0.00003721,0.00000258,-0.00000328,0.2
 7193384,0.00246919,-0.00647710,-0.00109801,-0.03292423,-0.00131070,0.0
 1337527,0.00179899,-0.00014131,-0.00019527,0.00036929,-0.00000714,0.00
 038323,0.00005122,0.00006097,0.00010146,0.00010327,0.00001931,-0.00004
 705,0.00003710,-0.00001838,0.00000497,0.00019867,0.00026971,0.00039419
 ,0.00010459,0.00001620,-0.00004098,0.00003187,0.00001580,0.00005940,-0
 .00003010,-0.00002408,-0.00001766,-0.00003683,-0.00002720,-0.00005258,
 -0.00003131,-0.00005109,-0.00001244,-0.03270574,-0.05131321,0.01867335
 ,0.00529636,0.00024342,-0.00404045,0.00184777,0.00071594,0.00160681,0.
 00042422,-0.00043090,-0.00065477,0.00026909,0.00012883,0.00054519,-0.0
 0002056,-0.00007824,-0.00016030,-0.00007448,-0.00006585,-0.00010340,0.
 00006772,-0.00028188,-0.00014433,0.00003194,-0.00000277,-0.00004082,-0
 .00000628,-0.00000209,-0.00000424,-0.00001925,0.00001627,0.00001053,0.
 03255134,0.05491733,-0.00079134,0.00113150,-0.00021534,0.01119493,-0.0
 0171401,-0.00453996,-0.00123544,0.00123078,-0.00063742,0.00031011,0.00
 097767,0.00008098,0.00027997,-0.00043742,-0.00081271,-0.00047054,0.000
 06512,0.00028559,-0.00004376,0.00007948,0.00019156,-0.00028756,-0.0001
 0742,-0.00001252,0.00004492,-0.00003166,-0.00005086,0.00000903,-0.0000
 5773,0.00018819,0.00004968,0.00000265,-0.00002552,0.00001595,0.0000262
 8,0.00000631,-0.00000394,-0.00005292,-0.00007479,0.09781502,0.01642650
 ,-0.09456125,-0.01962454,-0.00343737,0.01203059,-0.00423803,0.00085040
 ,-0.00241294,-0.00048002,0.00020554,0.00040951,-0.00066927,-0.00002817
 ,-0.00168640,0.00018965,-0.00000213,0.00023937,0.00009409,-0.00003514,
 -0.00001371,-0.00001414,0.00011418,0.00003360,-0.00000501,0.00000664,-
 0.00000241,-0.00000159,0.00000510,-0.00000031,-0.00002750,0.00001097,-
 0.00002404,-0.10567583,-0.01875070,0.10169819,-0.00035078,-0.00121616,
 0.00078584,-0.00148463,-0.00440633,-0.00120788,-0.00013691,0.00056016,
 -0.00134198,0.00019568,0.00091392,0.00041382,0.00013565,-0.00007567,-0
 .00051788,-0.00026359,-0.00006555,0.00010248,-0.00000950,-0.00000137,0
 .00009794,-0.00016319,-0.00009479,0.00023367,0.00002319,0.00004004,0.0
 0002202,0.00000276,0.00000966,0.00006544,0.00001421,-0.00000073,-0.000
 02097,-0.00002837,-0.00001407,-0.00001776,-0.00000806,-0.00004584,-0.0
 0005963,-0.04578303,0.01119190,0.00975625,0.00101662,-0.01630679,-0.01
 935136,0.00302446,-0.00072699,0.00078676,-0.00011695,-0.00009722,0.000
 07325,-0.00114924,0.00047141,-0.00025993,0.00017372,0.00012621,0.00012
 506,0.00006244,-0.00007305,-0.00009356,0.00005992,-0.00010311,-0.00006
 219,0.00001610,-0.00000915,-0.00002231,-0.00000389,0.00000054,-0.00000
 293,-0.00004273,0.00001878,0.00000351,-0.00179556,0.02057193,0.0221451
 8,0.04992203,-0.00197485,-0.00446678,0.00485954,0.00152107,-0.01869687
 ,-0.02909169,-0.00076674,0.00099178,0.00313779,0.00007610,-0.00040038,
 -0.00011096,0.00038346,0.00006614,0.00019933,-0.00006972,0.00030188,0.
 00016382,-0.00011611,-0.00003344,-0.00000852,0.00007710,0.00024004,-0.
 00016676,0.00004245,-0.00000723,-0.00001974,-0.00000010,-0.00000935,-0
 .00001141,-0.00001341,-0.00000787,0.00002505,0.00001801,0.00001201,-0.
 00001206,-0.00000998,0.00001117,0.00004039,0.01306716,-0.15940675,-0.1
 2601531,0.00008182,0.00524994,0.00565445,-0.00102448,0.00012046,0.0007
 5253,-0.00062803,0.00028266,0.00017243,0.00096921,0.00004836,-0.000047
 59,0.00012043,-0.00053949,0.00000804,-0.00008578,0.00002811,0.00006030
 ,-0.00005468,0.00002810,0.00005459,-0.00000209,0.00000175,0.00000482,-
 0.00000013,-0.00000005,0.00000002,0.00004461,0.00000199,-0.00001913,0.
 00004373,0.00366781,0.00363271,-0.01221029,0.17162386,0.00244571,0.001
 64423,-0.00129403,-0.00351052,0.00778675,0.01143735,0.00030329,-0.0000
 5998,-0.00140160,-0.00037608,-0.00002805,0.00009532,-0.00015085,0.0002
 1787,0.00021932,0.00009876,-0.00014795,-0.00011246,-0.00004579,-0.0000
 4713,-0.00010867,-0.00004576,-0.00001652,-0.00006197,-0.00000856,0.000
 03559,-0.00001224,-0.00000961,-0.00001427,-0.00006788,-0.00002394,-0.0
 0001325,0.00002613,0.00001438,0.00000809,0.00001599,0.00000289,0.00002
 949,0.00006494,0.01111160,-0.12439792,-0.18839782,0.00234767,-0.015389
 81,-0.01923169,0.00140164,0.00116139,0.00253048,0.00034302,-0.00040430
 ,0.00013469,-0.00045686,0.00058930,-0.00027932,-0.00005215,0.00021401,
 0.00008547,-0.00003504,0.00002684,0.00003700,0.00000284,0.00003897,0.0
 0001928,-0.00001326,0.00000973,0.00001664,0.00000318,-0.00000217,0.000
 00362,0.00003515,-0.00000713,-0.00000634,0.00092867,-0.00980981,-0.011
 09565,-0.00971412,0.13633825,0.20845104,0.00058801,0.00054285,0.000377
 95,-0.00006695,-0.00158466,-0.00000002,-0.00014140,0.00011173,0.000027
 17,0.00000825,-0.00006806,-0.00005216,0.00006695,0.00004331,0.00018163
 ,0.00000386,0.00001431,-0.00005997,-0.00008133,-0.00001645,-0.00007881
 ,0.00003228,0.00001278,-0.00007129,-0.00000981,0.00001458,-0.00000478,
 -0.00000300,-0.00000237,-0.00004596,-0.00002046,-0.00001571,0.00001826
 ,0.00000600,0.00000262,0.00000467,-0.00000030,0.00001313,0.00004573,0.
 00074616,-0.01478256,-0.01936403,-0.04897849,0.00749685,0.01002231,-0.
 01134981,0.02637460,0.02790634,-0.00002585,0.00004633,0.00002088,0.000
 16420,0.00003268,-0.00001468,-0.00003647,-0.00004348,0.00006939,-0.000
 02741,0.00001376,0.00002477,-0.00000869,0.00001291,0.00000347,-0.00000
 544,0.00000342,0.00000533,0.00000007,-0.00000081,0.00000145,0.00003158
 ,0.00000143,-0.00000832,0.00072749,-0.00042423,0.00077964,-0.00322212,
 0.00146634,-0.00379469,0.06589931,0.00023591,-0.00060138,0.00055935,-0
 .00025674,0.00022145,0.00103364,-0.00018061,0.00005655,-0.00042944,0.0
 0013342,0.00009929,0.00004326,0.00006274,-0.00000800,-0.00001128,-0.00
 007848,-0.00001989,-0.00002561,-0.00007109,-0.00000750,-0.00004034,-0.
 00001257,-0.00002893,-0.00002331,-0.00000821,0.00001926,-0.00001544,-0
 .00000060,-0.00000647,-0.00003624,-0.00001612,-0.00001686,0.00001851,0
 .00000047,0.00000059,-0.00000066,-0.00000353,0.00000266,0.00004472,-0.
 00013189,0.00519023,0.00603326,0.01244471,-0.16837488,-0.13256132,0.00
 128990,0.00279484,0.00161145,-0.00000878,-0.00002359,-0.00003313,-0.00
 003823,0.00002275,0.00001236,0.00001453,0.00003700,0.00006857,-0.00000
 388,-0.00000028,0.00000406,0.00001253,0.00000167,-0.00001093,-0.000004
 20,0.00000848,0.00000293,0.00000022,-0.00000060,0.00000169,0.00002166,
 0.00000478,-0.00001052,-0.00066250,0.00020709,-0.00054852,0.00088690,0
 .00039755,0.00188840,-0.01530194,0.17627472,0.00133549,0.00129006,0.00
 193485,-0.00153620,-0.00339406,-0.00099009,0.00046493,0.00032503,0.000
 74690,-0.00005514,-0.00024494,-0.00015487,0.00007181,0.00006785,0.0000
 9201,0.00002331,0.00006001,0.00004661,-0.00003753,-0.00001065,-0.00000
 448,0.00006511,0.00007188,-0.00005348,0.00000009,-0.00001252,-0.000002
 26,-0.00000740,-0.00000041,-0.00002682,-0.00000218,0.00000863,0.000015
 52,0.00001204,0.00000581,-0.00000182,-0.00000099,0.00001596,0.00002368
 ,-0.00201500,-0.01448675,-0.01946043,0.01418396,-0.12785398,-0.1963153
 2,0.00661348,-0.00875179,-0.00824071,-0.00006732,0.00009133,-0.0000782
 9,0.00017046,0.00009045,0.00001429,0.00000959,-0.00011902,-0.00007238,
 -0.00002757,0.00001350,0.00001908,-0.00002152,0.00000433,0.00001628,-0
 .00000191,-0.00000325,0.00000403,0.00000253,-0.00000050,0.00000092,0.0
 0001933,-0.00000625,-0.00000804,-0.00017452,0.00003988,0.00048407,-0.0
 0350033,0.00115600,-0.00211195,-0.01596126,0.14287085,0.21319625,0.000
 67806,0.00014985,0.00009209,-0.00384373,-0.00107402,-0.00371862,0.0001
 3247,0.00183928,-0.00064728,0.00034948,0.00021552,0.00010482,0.0000685
 8,0.00001170,0.00016354,-0.00003964,-0.00004814,-0.00012203,-0.0001004
 3,-0.00001701,-0.00011116,-0.00000339,-0.00003427,-0.00002645,-0.00000
 418,0.00003388,-0.00001162,0.00001017,0.00000006,-0.00002809,-0.000031
 64,-0.00003949,0.00001071,-0.00000872,-0.00000497,0.00000058,-0.000002
 64,-0.00000328,0.00004519,0.00245139,0.02187943,-0.00942775,-0.0526823
 1,-0.03048683,0.01336418,-0.01486203,-0.03511017,0.01242830,-0.0003550
 8,0.00017494,-0.00039892,0.00002898,-0.00003347,0.00002333,-0.00004467
 ,0.00005835,0.00015835,-0.00000973,-0.00000520,0.00000852,0.00001494,-
 0.00000328,-0.00001894,-0.00000193,0.00000992,0.00000170,-0.00000343,-
 0.00000069,0.00000045,0.00002895,0.00001242,-0.00000851,0.00084836,0.0
 0013357,0.00073982,0.00074283,-0.00052034,0.00041044,0.00049931,0.0021
 6082,-0.00152529,0.07085137,0.00093152,0.00026624,0.00096783,-0.000467
 33,0.00049047,-0.00048066,0.00020149,-0.00028499,0.00043795,-0.0001942
 2,-0.00016857,-0.00003860,-0.00015970,-0.00002895,-0.00014046,0.000102
 34,0.00003551,0.00007831,0.00015656,0.00003019,0.00011489,-0.00001484,
 0.00002816,0.00002989,0.00000471,-0.00004192,0.00002105,-0.00001391,0.
 00000132,0.00004071,0.00004018,0.00005579,-0.00002437,0.00000656,0.000
 00331,0.00000821,0.00000634,0.00000565,-0.00007231,-0.00065671,-0.0048
 4271,0.00088447,-0.03485174,-0.26933564,0.08741204,-0.00322039,0.00180
 160,-0.00014745,0.00005981,0.00009231,0.00004271,-0.00005235,-0.000015
 44,-0.00002110,-0.00001065,-0.00003682,-0.00014314,0.00002126,0.000003
 30,-0.00001284,-0.00001552,0.00000289,0.00001595,0.00000235,-0.0000172
 1,-0.00000066,0.00000452,-0.00000029,-0.00000016,-0.00004274,-0.000019
 00,0.00001764,0.00065641,-0.00002427,0.00010247,0.00008331,0.00060951,
 0.00037965,-0.00290363,-0.01853877,0.00807037,0.04027311,0.28725437,0.
 00070113,-0.00008760,0.00101555,-0.00483391,-0.00226978,-0.00244293,0.
 00006731,0.00172091,-0.00075787,0.00039359,0.00028844,0.00006217,0.000
 11337,0.00003253,0.00017611,-0.00006467,-0.00007158,-0.00011451,-0.000
 13208,-0.00002919,-0.00012571,-0.00000135,-0.00002647,-0.00002256,-0.0
 0000531,0.00003453,-0.00000435,0.00001067,0.00000723,-0.00001973,-0.00
 003390,-0.00004160,0.00000573,-0.00001023,-0.00000624,0.00000055,-0.00
 000185,-0.00000830,0.00003469,-0.00042917,0.02404876,-0.01085417,0.014
 60393,0.08501751,-0.08745381,0.00729987,0.01170604,-0.00298922,-0.0002
 5771,0.00014688,-0.00042797,0.00005968,-0.00002470,0.00006901,-0.00001
 161,0.00007420,0.00015645,-0.00001173,-0.00000672,0.00000864,0.0000131
 6,-0.00001282,-0.00002077,0.00000138,0.00000366,-0.00000150,-0.0000054
 3,-0.00000002,-0.00000103,0.00003002,0.00001819,-0.00000875,0.00026854
 ,-0.00032919,0.00093413,0.00107513,-0.00020721,0.00046857,-0.00436383,
 -0.02229628,0.01146729,-0.01629984,-0.09791519,0.09209440,0.00011699,-
 0.00037615,0.00006011,-0.00054764,0.00115165,-0.00081897,0.00021372,-0
 .00016065,0.00040100,-0.00016817,-0.00006734,-0.00000153,-0.00018230,-
 0.00003968,-0.00026033,0.00008153,-0.00000291,0.00013246,0.00018488,0.
 00002835,0.00017295,-0.00003063,0.00002797,0.00003517,0.00001814,-0.00
 004267,-0.00000748,-0.00000344,-0.00002420,0.00003952,0.00005923,0.000
 03685,-0.00000994,-0.00000219,0.00000421,-0.00000141,0.00001664,-0.000
 00742,-0.00004527,0.00233914,0.00119369,0.00129363,-0.01050452,0.02731
 731,0.03180597,-0.04173406,-0.00171384,0.03445733,0.00003781,0.0000126
 3,-0.00001463,-0.00007002,-0.00002491,-0.00003088,-0.00001216,0.000030
 04,-0.00019615,0.00002839,-0.00000774,-0.00000571,-0.00001276,0.000023
 70,0.00001592,-0.00001144,0.00000587,0.00000842,0.00000233,0.00000432,
 0.00000213,-0.00005405,-0.00000545,0.00000164,0.00077738,-0.00057847,-
 0.00011991,-0.00062851,-0.00047836,-0.00107143,-0.00600178,-0.00096282
 ,0.00224599,0.00119150,-0.00054497,-0.00058005,0.05546113,0.00068685,-
 0.00000975,0.00041337,0.00013464,-0.00112635,-0.00010541,-0.00000112,0
 .00017661,0.00009748,0.00009578,0.00004810,0.00002246,0.00023809,0.000
 03585,0.00007101,-0.00013916,0.00000661,0.00002177,-0.00016251,-0.0000
 2942,-0.00008110,0.00002419,-0.00000330,-0.00001286,-0.00000696,0.0000
 2460,-0.00000209,0.00000576,0.00001441,-0.00001750,-0.00003586,-0.0000
 3044,0.00000994,0.00000168,-0.00000110,-0.00000545,-0.00001189,-0.0000
 0338,0.00003250,-0.00103996,0.00000124,0.00041060,0.00053463,0.0027141
 8,0.00181814,0.01691838,-0.19647326,-0.16289747,0.00000237,0.00000074,
 -0.00005230,0.00003874,0.00001749,0.00001819,0.00011757,-0.00004211,0.
 00006683,-0.00001695,-0.00000005,0.00000256,0.00000476,-0.00001588,-0.
 00000871,0.00000740,-0.00000168,-0.00000590,-0.00000331,-0.00000108,-0
 .00000211,0.00003766,0.00001170,-0.00000900,-0.00037039,0.00025444,0.0
 0014522,0.00071020,0.00002553,0.00005211,-0.00121560,0.00182120,0.0009
 3006,0.00020533,0.00038192,0.00040738,-0.02162798,0.21375519,-0.000391
 96,0.00000261,0.00002894,-0.00020823,0.00080318,-0.00039728,0.00012568
 ,-0.00017209,0.00016296,-0.00009326,-0.00007888,-0.00000750,-0.0001674
 4,-0.00003649,-0.00013950,0.00008954,0.00000252,0.00005031,0.00013994,
 0.00002857,0.00010825,-0.00001983,0.00000857,0.00001188,0.00000701,-0.
 00002811,-0.00000307,-0.00000921,-0.00001827,0.00001038,0.00004089,0.0
 0003393,-0.00000252,0.00000076,0.00000300,0.00000272,0.00001190,0.0000
 0389,-0.00002369,-0.00054231,0.00105816,0.00268832,-0.00674193,-0.0076
 5473,-0.01315745,0.06550868,-0.20150943,-0.25655511,0.00004187,-0.0000
 0498,0.00000896,-0.00005993,-0.00001847,-0.00001546,-0.00004388,0.0000
 1881,-0.00010146,0.00001846,-0.00000157,-0.00000384,-0.00000698,0.0000
 1336,0.00001046,-0.00000896,0.00000232,0.00000727,0.00000385,0.0000017
 1,0.00000281,-0.00003505,-0.00001026,0.00000269,-0.00021556,0.00006034
 ,-0.00022563,0.00061957,-0.00039243,0.00063283,0.00433429,0.00131458,-
 0.00020579,0.00013405,0.00013995,-0.00039561,-0.05797750,0.19292831,0.
 25910135,0.00383273,0.00070908,0.00107047,-0.00579381,-0.00228770,-0.0
 0380370,0.00123115,0.00037360,0.00231007,-0.00050032,-0.00042369,-0.00
 002157,-0.00027929,0.00000253,-0.00045846,0.00020489,0.00009348,0.0003
 4899,0.00036729,0.00003751,0.00035972,0.00001425,0.00013782,0.00006350
 ,0.00004226,-0.00010411,-0.00000538,-0.00001317,-0.00003293,0.00007229
 ,0.00010953,0.00009032,-0.00001830,0.00000951,0.00001149,-0.00000737,0
 .00002245,-0.00000158,-0.00009527,0.00114889,-0.00104818,-0.00028788,-
 0.01401197,-0.03891452,0.01492253,-0.04579721,-0.03855888,0.03495398,0
 .00004690,0.00016244,-0.00024991,-0.00001666,0.00001834,-0.00003153,0.
 00002531,-0.00011489,-0.00050347,0.00003520,-0.00000529,-0.00000912,-0
 .00004021,0.00002440,0.00003942,-0.00001382,-0.00000009,0.00000885,0.0
 0000701,0.00000653,0.00000272,-0.00009741,-0.00002208,0.00001059,0.000
 45886,0.00049333,0.00002043,-0.00020254,0.00004359,-0.00014060,0.00120
 582,0.00047837,-0.00028396,-0.00590286,0.00059824,0.00240488,-0.000565
 12,0.00486766,-0.00455447,0.06447232,-0.00009522,-0.00314250,-0.000183
 41,0.00189806,0.00239590,0.00064383,-0.00064559,-0.00036019,-0.0007834
 7,0.00013824,0.00017189,-0.00000213,-0.00003627,-0.00001470,0.00007722
 ,-0.00001460,-0.00005787,-0.00011216,-0.00004483,-0.00001058,-0.000080
 67,-0.00003500,-0.00006470,-0.00002110,-0.00001064,0.00002595,0.000001
 70,0.00000611,-0.00000017,-0.00001211,-0.00001774,-0.00002520,0.000000
 42,-0.00000695,-0.00000321,0.00000584,0.00000174,-0.00000445,0.0000172
 0,0.00093191,-0.00015287,-0.00036716,0.00106078,-0.00000203,0.00285593
 ,-0.07382768,-0.37333280,0.09488139,-0.00003603,-0.00006914,0.00015553
 ,-0.00003865,-0.00002846,-0.00002075,-0.00006541,0.00010614,0.00014571
 ,0.00000231,-0.00000152,0.00000555,0.00001104,0.00000926,-0.00000954,-
 0.00000227,0.00000563,0.00000125,-0.00000264,-0.00000015,0.,0.00001104
 ,0.00000908,-0.00000112,0.00038313,-0.00027691,0.00019000,-0.00013787,
 -0.00014044,-0.00008240,0.00015588,0.00046707,-0.00022786,0.00022298,0
 .00229204,-0.00017334,-0.00317103,-0.02155202,0.01350191,0.07336519,0.
 39375696,-0.00089412,0.00009462,-0.00136195,-0.00064519,0.00147938,0.0
 0026973,-0.00008688,-0.00050033,0.00007788,-0.00019675,-0.00007412,-0.
 00007764,-0.00026996,-0.00003996,-0.00007835,0.00016286,0.00000072,-0.
 00000411,0.00018890,0.00002104,0.00009349,-0.00001143,0.00003116,0.000
 02756,0.00002007,-0.00003059,-0.00000378,0.00000205,-0.00001698,0.0000
 3078,0.00004351,0.00002175,-0.00001223,-0.00000620,-0.00000041,-0.0000
 0069,0.00001504,-0.00000599,-0.00003771,-0.00030891,-0.00175248,0.0010
 9199,-0.00297379,0.01457257,-0.00641873,0.05625569,0.12996771,-0.08510
 349,0.00007339,-0.00000214,0.00010057,-0.00004019,-0.00000604,-0.00002
 641,-0.00011942,0.00001592,-0.00010847,0.00001741,-0.00000389,-0.00000
 054,-0.00000644,0.00001667,0.00000773,-0.00000944,0.00000813,0.0000043
 3,0.00000058,0.00000357,0.00000140,-0.00004787,-0.00000437,0.00000912,
 -0.00003631,0.00024737,-0.00019061,-0.00013307,-0.00015724,-0.00005705
 ,-0.00000348,0.00053539,-0.00033507,0.00465840,0.00023284,-0.00085281,
 -0.00953103,-0.03424803,0.00840378,-0.04611745,-0.11040628,0.08455130\
 \0.00000019,-0.00000044,0.00000073,0.00000097,-0.00000008,0.00000066,-
 0.00000042,0.00000006,-0.00000025,-0.00000038,0.00000055,0.00000027,0.
 00000115,0.00000051,-0.00000019,-0.00000109,0.00000048,-0.00000039,0.0
 0000054,0.00000070,-0.00000079,-0.00000069,-0.00000036,0.00000030,-0.0
 0000001,-0.00000051,-0.00000021,-0.00000038,-0.00000083,-0.00000003,0.
 00000037,-0.00000021,0.00000007,0.00000072,0.00000030,-0.00000027,-0.0
 0000090,-0.00000008,0.,-0.00000006,-0.00000009,0.,-0.00000010,-0.00000
 023,0.00000007,-0.00000030,0.00000033,-0.00000029,-0.00000038,0.000000
 51,0.00000056,0.00000030,0.00000021,-0.00000009,0.00000055,0.,0.000000
 43,-0.00000011,0.00000006,0.00000027,-0.00000025,-0.00000032,0.0000002
 2,-0.00000009,-0.00000056,-0.00000009,0.00000016,-0.00000015,-0.000000
 39,0.00000021,0.00000020,0.00000014,-0.00000028,-0.00000011,-0.0000003
 8,0.00000031,0.00000004,0.,-0.00000006,-0.00000031,0.,0.00000006,-0.00
 000023,-0.00000031,0.00000009,0.00000022,-0.00000009,-0.00000011,0.000
 00033,0.00000007\\\@


 THERE ARE PEOPLE SO ADDICTED TO EXAGERATING THEY
 CAN'T TELL THE TRUTH WITHOUT LYING. -- FORTUNE COOKIE
 Job cpu time:       0 days  1 hours  2 minutes  3.6 seconds.
 File lengths (MBytes):  RWF=    260 Int=      0 D2E=      0 Chk=      8 Scr=      1
 Normal termination of Gaussian 09 at Wed Jul 28 22:38:40 2021.
