 Entering Gaussian System, Link 0=g09
 Input=opt_freq-conf-640.com
 Output=opt_freq-conf-640.log
 Initial command:
 /aerosol/software/g09/l1.exe "/scratch/nicole/10591/Gau-83966.inp" -scrdir="/scratch/nicole/10591/"
 Entering Link 1 = /aerosol/software/g09/l1.exe PID=     83968.
  
 Copyright (c) 1988,1990,1992,1993,1995,1998,2003,2009,2013,
            Gaussian, Inc.  All Rights Reserved.
  
 This is part of the Gaussian(R) 09 program.  It is based on
 the Gaussian(R) 03 system (copyright 2003, Gaussian, Inc.),
 the Gaussian(R) 98 system (copyright 1998, Gaussian, Inc.),
 the Gaussian(R) 94 system (copyright 1995, Gaussian, Inc.),
 the Gaussian 92(TM) system (copyright 1992, Gaussian, Inc.),
 the Gaussian 90(TM) system (copyright 1990, Gaussian, Inc.),
 the Gaussian 88(TM) system (copyright 1988, Gaussian, Inc.),
 the Gaussian 86(TM) system (copyright 1986, Carnegie Mellon
 University), and the Gaussian 82(TM) system (copyright 1983,
 Carnegie Mellon University). Gaussian is a federally registered
 trademark of Gaussian, Inc.
  
 This software contains proprietary and confidential information,
 including trade secrets, belonging to Gaussian, Inc.
  
 This software is provided under written license and may be
 used, copied, transmitted, or stored only in accord with that
 written license.
  
 The following legend is applicable only to US Government
 contracts under FAR:
  
                    RESTRICTED RIGHTS LEGEND
  
 Use, reproduction and disclosure by the US Government is
 subject to restrictions as set forth in subparagraphs (a)
 and (c) of the Commercial Computer Software - Restricted
 Rights clause in FAR 52.227-19.
  
 Gaussian, Inc.
 340 Quinnipiac St., Bldg. 40, Wallingford CT 06492
  
  
 ---------------------------------------------------------------
 Warning -- This program may not be used in any manner that
 competes with the business of Gaussian, Inc. or will provide
 assistance to any competitor of Gaussian, Inc.  The licensee
 of this program is prohibited from giving any competitor of
 Gaussian, Inc. access to this program.  By using this program,
 the user acknowledges that Gaussian, Inc. is engaged in the
 business of creating and licensing software in the field of
 computational chemistry and represents and warrants to the
 licensee that it is not a competitor of Gaussian, Inc. and that
 it will not use this program in any manner prohibited above.
 ---------------------------------------------------------------
  

 Cite this work as:
 Gaussian 09, Revision D.01,
 M. J. Frisch, G. W. Trucks, H. B. Schlegel, G. E. Scuseria, 
 M. A. Robb, J. R. Cheeseman, G. Scalmani, V. Barone, B. Mennucci, 
 G. A. Petersson, H. Nakatsuji, M. Caricato, X. Li, H. P. Hratchian, 
 A. F. Izmaylov, J. Bloino, G. Zheng, J. L. Sonnenberg, M. Hada, 
 M. Ehara, K. Toyota, R. Fukuda, J. Hasegawa, M. Ishida, T. Nakajima, 
 Y. Honda, O. Kitao, H. Nakai, T. Vreven, J. A. Montgomery, Jr., 
 J. E. Peralta, F. Ogliaro, M. Bearpark, J. J. Heyd, E. Brothers, 
 K. N. Kudin, V. N. Staroverov, T. Keith, R. Kobayashi, J. Normand, 
 K. Raghavachari, A. Rendell, J. C. Burant, S. S. Iyengar, J. Tomasi, 
 M. Cossi, N. Rega, J. M. Millam, M. Klene, J. E. Knox, J. B. Cross, 
 V. Bakken, C. Adamo, J. Jaramillo, R. Gomperts, R. E. Stratmann, 
 O. Yazyev, A. J. Austin, R. Cammi, C. Pomelli, J. W. Ochterski, 
 R. L. Martin, K. Morokuma, V. G. Zakrzewski, G. A. Voth, 
 P. Salvador, J. J. Dannenberg, S. Dapprich, A. D. Daniels, 
 O. Farkas, J. B. Foresman, J. V. Ortiz, J. Cioslowski, 
 and D. J. Fox, Gaussian, Inc., Wallingford CT, 2013.
 
 ******************************************
 Gaussian 09:  ES64L-G09RevD.01 24-Apr-2013
                28-Jul-2021 
 ******************************************
 %mem=2gb
 %nproc=4
 Will use up to    4 processors via shared memory.
 %chk=conf-640.chk
 ----------------------------------------------------------------------
 # B3LYP/6-31G(d) opt=calcfc freq=noraman nosymm integral(ultrafinegrid
 )
 ----------------------------------------------------------------------
 1/10=4,14=-1,18=20,19=15,26=4,38=1/1,3;
 2/9=110,12=2,15=1,17=6,18=5,40=1/2;
 3/5=1,6=6,7=1,11=2,16=1,25=1,30=1,71=2,74=-5,75=-5,140=1/1,2,3;
 4//1;
 5/5=2,38=5/2;
 8/6=4,10=90,11=11/1;
 11/6=1,8=1,9=11,15=111,16=1,31=1/1,2,10;
 10/6=1,13=1,31=1/2;
 6/7=2,8=2,9=2,10=2,28=1/1;
 7/10=1,18=20,25=1,30=1/1,2,3,16;
 1/10=4,14=-1,18=20,19=15,26=4/3(2);
 2/9=110,15=1/2;
 99//99;
 2/9=110,15=1/2;
 3/5=1,6=6,7=1,11=2,16=1,25=1,30=1,71=1,74=-5,75=-5/1,2,3;
 4/5=5,16=3,69=1/1;
 5/5=2,38=5/2;
 7/30=1/1,2,3,16;
 1/14=-1,18=20,19=15,26=4/3(-5);
 2/9=110,15=1/2;
 6/7=2,8=2,9=2,10=2,19=2,28=1/1;
 99/9=1/99;
 ------------------------------------------------------------
 Candidate Structure: Conf:640 OPT and FREQ calc in gas phase
 ------------------------------------------------------------
 Symbolic Z-matrix:
 Charge =  0 Multiplicity = 1
 O                     0.92904  -1.24196  -0.873 
 C                     1.14845  -0.10723  -0.44526 
 N                     0.2273    0.87891  -0.54866 
 C                    -0.97462   0.70331  -1.33263 
 C                    -1.08429   1.83216  -2.33354 
 O                    -1.97773   1.54387  -3.30167 
 O                    -0.49299   2.87836  -2.27439 
 C                    -2.26049   0.68855  -0.4937 
 C                    -2.33041  -0.37329   0.56466 
 C                    -3.14952  -0.49021   1.64953 
 N                    -2.89099  -1.66012   2.3362 
 C                    -1.92679  -2.23652   1.662 
 N                    -1.55644  -1.50578   0.58175 
 C                     2.45641   0.27932   0.21253 
 C                     3.08644  -0.86428   1.00797 
 N                     4.40372  -0.56311   1.56443 
 H                     0.49677   1.83106  -0.35097 
 H                    -0.88867  -0.23908  -1.87118 
 H                    -2.00681   2.31839  -3.87722 
 H                    -3.09639   0.5662   -1.18687 
 H                    -2.4066    1.65964  -0.01709 
 H                    -3.91554   0.19426   1.98446 
 H                    -1.45505  -3.17397   1.89963 
 H                    -0.77922  -1.70241  -0.03841 
 H                     2.29431   1.15407   0.84898 
 H                     3.14994   0.58266  -0.5804 
 H                     2.43604  -1.14432   1.83845 
 H                     3.16991  -1.73687   0.3616 
 H                     4.3486    0.23292   2.18976 
 H                     5.04569  -0.30467   0.82302 
 

 GradGradGradGradGradGradGradGradGradGradGradGradGradGradGradGradGradGrad
 Berny optimization.
 Initialization pass.
                           ----------------------------
                           !    Initial Parameters    !
                           ! (Angstroms and Degrees)  !
 --------------------------                            --------------------------
 ! Name  Definition              Value          Derivative Info.                !
 --------------------------------------------------------------------------------
 ! R1    R(1,2)                  1.2324         calculate D2E/DX2 analytically  !
 ! R2    R(2,3)                  1.3534         calculate D2E/DX2 analytically  !
 ! R3    R(2,14)                 1.5142         calculate D2E/DX2 analytically  !
 ! R4    R(3,4)                  1.4457         calculate D2E/DX2 analytically  !
 ! R5    R(3,17)                 1.0091         calculate D2E/DX2 analytically  !
 ! R6    R(4,5)                  1.5127         calculate D2E/DX2 analytically  !
 ! R7    R(4,8)                  1.5354         calculate D2E/DX2 analytically  !
 ! R8    R(4,18)                 1.0888         calculate D2E/DX2 analytically  !
 ! R9    R(5,6)                  1.3486         calculate D2E/DX2 analytically  !
 ! R10   R(5,7)                  1.2032         calculate D2E/DX2 analytically  !
 ! R11   R(6,19)                 0.9654         calculate D2E/DX2 analytically  !
 ! R12   R(8,9)                  1.5008         calculate D2E/DX2 analytically  !
 ! R13   R(8,20)                 1.0928         calculate D2E/DX2 analytically  !
 ! R14   R(8,21)                 1.0916         calculate D2E/DX2 analytically  !
 ! R15   R(9,10)                 1.3644         calculate D2E/DX2 analytically  !
 ! R16   R(9,13)                 1.3718         calculate D2E/DX2 analytically  !
 ! R17   R(10,11)                1.381          calculate D2E/DX2 analytically  !
 ! R18   R(10,22)                1.0805         calculate D2E/DX2 analytically  !
 ! R19   R(11,12)                1.3101         calculate D2E/DX2 analytically  !
 ! R20   R(12,13)                1.3558         calculate D2E/DX2 analytically  !
 ! R21   R(12,23)                1.076          calculate D2E/DX2 analytically  !
 ! R22   R(13,24)                1.0136         calculate D2E/DX2 analytically  !
 ! R23   R(14,15)                1.5289         calculate D2E/DX2 analytically  !
 ! R24   R(14,25)                1.0939         calculate D2E/DX2 analytically  !
 ! R25   R(14,26)                1.0962         calculate D2E/DX2 analytically  !
 ! R26   R(15,16)                1.4614         calculate D2E/DX2 analytically  !
 ! R27   R(15,27)                1.0914         calculate D2E/DX2 analytically  !
 ! R28   R(15,28)                1.0891         calculate D2E/DX2 analytically  !
 ! R29   R(16,29)                1.0138         calculate D2E/DX2 analytically  !
 ! R30   R(16,30)                1.0142         calculate D2E/DX2 analytically  !
 ! A1    A(1,2,3)              121.5484         calculate D2E/DX2 analytically  !
 ! A2    A(1,2,14)             122.6579         calculate D2E/DX2 analytically  !
 ! A3    A(3,2,14)             115.7913         calculate D2E/DX2 analytically  !
 ! A4    A(2,3,4)              121.2506         calculate D2E/DX2 analytically  !
 ! A5    A(2,3,17)             119.3924         calculate D2E/DX2 analytically  !
 ! A6    A(4,3,17)             116.2863         calculate D2E/DX2 analytically  !
 ! A7    A(3,4,5)              109.175          calculate D2E/DX2 analytically  !
 ! A8    A(3,4,8)              113.6491         calculate D2E/DX2 analytically  !
 ! A9    A(3,4,18)             107.922          calculate D2E/DX2 analytically  !
 ! A10   A(5,4,8)              107.9384         calculate D2E/DX2 analytically  !
 ! A11   A(5,4,18)             108.9258         calculate D2E/DX2 analytically  !
 ! A12   A(8,4,18)             109.1496         calculate D2E/DX2 analytically  !
 ! A13   A(4,5,6)              111.317          calculate D2E/DX2 analytically  !
 ! A14   A(4,5,7)              125.5017         calculate D2E/DX2 analytically  !
 ! A15   A(6,5,7)              123.1454         calculate D2E/DX2 analytically  !
 ! A16   A(5,6,19)             106.0485         calculate D2E/DX2 analytically  !
 ! A17   A(4,8,9)              115.5387         calculate D2E/DX2 analytically  !
 ! A18   A(4,8,20)             107.1636         calculate D2E/DX2 analytically  !
 ! A19   A(4,8,21)             110.0055         calculate D2E/DX2 analytically  !
 ! A20   A(9,8,20)             109.4183         calculate D2E/DX2 analytically  !
 ! A21   A(9,8,21)             108.3769         calculate D2E/DX2 analytically  !
 ! A22   A(20,8,21)            105.9131         calculate D2E/DX2 analytically  !
 ! A23   A(8,9,10)             130.4895         calculate D2E/DX2 analytically  !
 ! A24   A(8,9,13)             124.5113         calculate D2E/DX2 analytically  !
 ! A25   A(10,9,13)            104.9555         calculate D2E/DX2 analytically  !
 ! A26   A(9,10,11)            110.8288         calculate D2E/DX2 analytically  !
 ! A27   A(9,10,22)            128.1563         calculate D2E/DX2 analytically  !
 ! A28   A(11,10,22)           121.0148         calculate D2E/DX2 analytically  !
 ! A29   A(10,11,12)           104.7504         calculate D2E/DX2 analytically  !
 ! A30   A(11,12,13)           111.9587         calculate D2E/DX2 analytically  !
 ! A31   A(11,12,23)           126.3198         calculate D2E/DX2 analytically  !
 ! A32   A(13,12,23)           121.7214         calculate D2E/DX2 analytically  !
 ! A33   A(9,13,12)            107.5037         calculate D2E/DX2 analytically  !
 ! A34   A(9,13,24)            125.8148         calculate D2E/DX2 analytically  !
 ! A35   A(12,13,24)           126.3288         calculate D2E/DX2 analytically  !
 ! A36   A(2,14,15)            113.0179         calculate D2E/DX2 analytically  !
 ! A37   A(2,14,25)            109.2018         calculate D2E/DX2 analytically  !
 ! A38   A(2,14,26)            107.6311         calculate D2E/DX2 analytically  !
 ! A39   A(15,14,25)           110.8868         calculate D2E/DX2 analytically  !
 ! A40   A(15,14,26)           108.8199         calculate D2E/DX2 analytically  !
 ! A41   A(25,14,26)           107.0571         calculate D2E/DX2 analytically  !
 ! A42   A(14,15,16)           114.5457         calculate D2E/DX2 analytically  !
 ! A43   A(14,15,27)           110.0138         calculate D2E/DX2 analytically  !
 ! A44   A(14,15,28)           108.7903         calculate D2E/DX2 analytically  !
 ! A45   A(16,15,27)           107.476          calculate D2E/DX2 analytically  !
 ! A46   A(16,15,28)           108.7849         calculate D2E/DX2 analytically  !
 ! A47   A(27,15,28)           106.9591         calculate D2E/DX2 analytically  !
 ! A48   A(15,16,29)           110.346          calculate D2E/DX2 analytically  !
 ! A49   A(15,16,30)           110.1652         calculate D2E/DX2 analytically  !
 ! A50   A(29,16,30)           106.5732         calculate D2E/DX2 analytically  !
 ! D1    D(1,2,3,4)             -9.0351         calculate D2E/DX2 analytically  !
 ! D2    D(1,2,3,17)          -168.4865         calculate D2E/DX2 analytically  !
 ! D3    D(14,2,3,4)           170.4087         calculate D2E/DX2 analytically  !
 ! D4    D(14,2,3,17)           10.9574         calculate D2E/DX2 analytically  !
 ! D5    D(1,2,14,15)          -33.549          calculate D2E/DX2 analytically  !
 ! D6    D(1,2,14,25)         -157.4765         calculate D2E/DX2 analytically  !
 ! D7    D(1,2,14,26)           86.6363         calculate D2E/DX2 analytically  !
 ! D8    D(3,2,14,15)          147.014          calculate D2E/DX2 analytically  !
 ! D9    D(3,2,14,25)           23.0865         calculate D2E/DX2 analytically  !
 ! D10   D(3,2,14,26)          -92.8008         calculate D2E/DX2 analytically  !
 ! D11   D(2,3,4,5)           -125.8807         calculate D2E/DX2 analytically  !
 ! D12   D(2,3,4,8)            113.5711         calculate D2E/DX2 analytically  !
 ! D13   D(2,3,4,18)            -7.6271         calculate D2E/DX2 analytically  !
 ! D14   D(17,3,4,5)            34.1759         calculate D2E/DX2 analytically  !
 ! D15   D(17,3,4,8)           -86.3724         calculate D2E/DX2 analytically  !
 ! D16   D(17,3,4,18)          152.4295         calculate D2E/DX2 analytically  !
 ! D17   D(3,4,5,6)            164.2008         calculate D2E/DX2 analytically  !
 ! D18   D(3,4,5,7)            -17.9287         calculate D2E/DX2 analytically  !
 ! D19   D(8,4,5,6)            -71.8144         calculate D2E/DX2 analytically  !
 ! D20   D(8,4,5,7)            106.0562         calculate D2E/DX2 analytically  !
 ! D21   D(18,4,5,6)            46.5777         calculate D2E/DX2 analytically  !
 ! D22   D(18,4,5,7)          -135.5517         calculate D2E/DX2 analytically  !
 ! D23   D(3,4,8,9)            -58.5958         calculate D2E/DX2 analytically  !
 ! D24   D(3,4,8,20)           179.1816         calculate D2E/DX2 analytically  !
 ! D25   D(3,4,8,21)            64.4837         calculate D2E/DX2 analytically  !
 ! D26   D(5,4,8,9)           -179.8379         calculate D2E/DX2 analytically  !
 ! D27   D(5,4,8,20)            57.9396         calculate D2E/DX2 analytically  !
 ! D28   D(5,4,8,21)           -56.7584         calculate D2E/DX2 analytically  !
 ! D29   D(18,4,8,9)            61.9133         calculate D2E/DX2 analytically  !
 ! D30   D(18,4,8,20)          -60.3092         calculate D2E/DX2 analytically  !
 ! D31   D(18,4,8,21)         -175.0072         calculate D2E/DX2 analytically  !
 ! D32   D(4,5,6,19)           178.314          calculate D2E/DX2 analytically  !
 ! D33   D(7,5,6,19)             0.3845         calculate D2E/DX2 analytically  !
 ! D34   D(4,8,9,10)           163.5485         calculate D2E/DX2 analytically  !
 ! D35   D(4,8,9,13)           -19.2303         calculate D2E/DX2 analytically  !
 ! D36   D(20,8,9,10)          -75.4396         calculate D2E/DX2 analytically  !
 ! D37   D(20,8,9,13)          101.7816         calculate D2E/DX2 analytically  !
 ! D38   D(21,8,9,10)           39.6128         calculate D2E/DX2 analytically  !
 ! D39   D(21,8,9,13)         -143.166          calculate D2E/DX2 analytically  !
 ! D40   D(8,9,10,11)          178.0604         calculate D2E/DX2 analytically  !
 ! D41   D(8,9,10,22)           -1.8368         calculate D2E/DX2 analytically  !
 ! D42   D(13,9,10,11)           0.4303         calculate D2E/DX2 analytically  !
 ! D43   D(13,9,10,22)        -179.4669         calculate D2E/DX2 analytically  !
 ! D44   D(8,9,13,12)         -178.3463         calculate D2E/DX2 analytically  !
 ! D45   D(8,9,13,24)            8.1382         calculate D2E/DX2 analytically  !
 ! D46   D(10,9,13,12)          -0.5334         calculate D2E/DX2 analytically  !
 ! D47   D(10,9,13,24)        -174.049          calculate D2E/DX2 analytically  !
 ! D48   D(9,10,11,12)          -0.1528         calculate D2E/DX2 analytically  !
 ! D49   D(22,10,11,12)        179.7528         calculate D2E/DX2 analytically  !
 ! D50   D(10,11,12,13)         -0.201          calculate D2E/DX2 analytically  !
 ! D51   D(10,11,12,23)        179.7219         calculate D2E/DX2 analytically  !
 ! D52   D(11,12,13,9)           0.4761         calculate D2E/DX2 analytically  !
 ! D53   D(11,12,13,24)        173.949          calculate D2E/DX2 analytically  !
 ! D54   D(23,12,13,9)        -179.4508         calculate D2E/DX2 analytically  !
 ! D55   D(23,12,13,24)         -5.978          calculate D2E/DX2 analytically  !
 ! D56   D(2,14,15,16)         175.1479         calculate D2E/DX2 analytically  !
 ! D57   D(2,14,15,27)         -63.6736         calculate D2E/DX2 analytically  !
 ! D58   D(2,14,15,28)          53.1883         calculate D2E/DX2 analytically  !
 ! D59   D(25,14,15,16)        -61.8547         calculate D2E/DX2 analytically  !
 ! D60   D(25,14,15,27)         59.3238         calculate D2E/DX2 analytically  !
 ! D61   D(25,14,15,28)        176.1857         calculate D2E/DX2 analytically  !
 ! D62   D(26,14,15,16)         55.645          calculate D2E/DX2 analytically  !
 ! D63   D(26,14,15,27)        176.8234         calculate D2E/DX2 analytically  !
 ! D64   D(26,14,15,28)        -66.3147         calculate D2E/DX2 analytically  !
 ! D65   D(14,15,16,29)         59.4691         calculate D2E/DX2 analytically  !
 ! D66   D(14,15,16,30)        -57.9352         calculate D2E/DX2 analytically  !
 ! D67   D(27,15,16,29)        -63.0946         calculate D2E/DX2 analytically  !
 ! D68   D(27,15,16,30)        179.5011         calculate D2E/DX2 analytically  !
 ! D69   D(28,15,16,29)       -178.5683         calculate D2E/DX2 analytically  !
 ! D70   D(28,15,16,30)         64.0274         calculate D2E/DX2 analytically  !
 --------------------------------------------------------------------------------
 Trust Radius=3.00D-01 FncErr=1.00D-07 GrdErr=1.00D-06
 Number of steps in this run=    160 maximum allowed number of steps=    180.
 GradGradGradGradGradGradGradGradGradGradGradGradGradGradGradGradGradGrad

                          Input orientation:                          
 ---------------------------------------------------------------------
 Center     Atomic      Atomic             Coordinates (Angstroms)
 Number     Number       Type             X           Y           Z
 ---------------------------------------------------------------------
      1          8           0        0.929043   -1.241963   -0.873004
      2          6           0        1.148453   -0.107229   -0.445265
      3          7           0        0.227295    0.878910   -0.548664
      4          6           0       -0.974618    0.703315   -1.332629
      5          6           0       -1.084293    1.832158   -2.333541
      6          8           0       -1.977728    1.543869   -3.301668
      7          8           0       -0.492986    2.878356   -2.274390
      8          6           0       -2.260494    0.688548   -0.493701
      9          6           0       -2.330413   -0.373288    0.564662
     10          6           0       -3.149524   -0.490207    1.649530
     11          7           0       -2.890995   -1.660122    2.336198
     12          6           0       -1.926786   -2.236516    1.661995
     13          7           0       -1.556443   -1.505777    0.581748
     14          6           0        2.456413    0.279321    0.212533
     15          6           0        3.086444   -0.864276    1.007965
     16          7           0        4.403718   -0.563113    1.564429
     17          1           0        0.496774    1.831061   -0.350975
     18          1           0       -0.888672   -0.239080   -1.871181
     19          1           0       -2.006809    2.318387   -3.877224
     20          1           0       -3.096390    0.566200   -1.186873
     21          1           0       -2.406602    1.659641   -0.017086
     22          1           0       -3.915536    0.194263    1.984460
     23          1           0       -1.455054   -3.173967    1.899627
     24          1           0       -0.779216   -1.702408   -0.038411
     25          1           0        2.294314    1.154066    0.848976
     26          1           0        3.149944    0.582658   -0.580398
     27          1           0        2.436040   -1.144321    1.838451
     28          1           0        3.169914   -1.736868    0.361604
     29          1           0        4.348596    0.232922    2.189758
     30          1           0        5.045691   -0.304669    0.823024
 ---------------------------------------------------------------------
                    Distance matrix (angstroms):
                    1          2          3          4          5
     1  O    0.000000
     2  C    1.232365   0.000000
     3  N    2.257377   1.353401   0.000000
     4  C    2.760306   2.439637   1.445694   0.000000
     5  C    3.954354   3.508841   2.411375   1.512660   0.000000
     6  O    4.701977   4.545126   3.589335   2.364291   1.348557
     7  O    4.578546   3.867007   2.737648   2.418612   1.203193
     8  C    3.747518   3.500932   2.495667   1.535413   2.465016
     9  C    3.666815   3.632251   3.057673   2.568456   3.849206
    10  C    4.854176   4.796607   4.255520   3.879173   5.052070
    11  N    5.006648   5.144429   4.949025   4.766406   6.104642
    12  C    3.946025   4.293192   4.385540   4.303139   5.764391
    13  N    2.891979   3.213588   3.185324   2.980511   4.456865
    14  C    2.413619   1.514225   2.430616   3.786723   4.629298
    15  C    2.887053   2.537875   3.692767   4.942464   5.985940
    16  N    4.298288   3.852720   4.897663   6.238853   7.144912
    17  H    3.146880   2.047082   1.009104   2.097726   2.535812
    18  H    2.303523   2.490080   2.060178   1.088821   2.131213
    19  H    5.506419   5.255248   4.259416   3.185724   1.862904
    20  H    4.424034   4.361442   3.398820   2.131187   2.639323
    21  H    4.503158   3.992941   2.798130   2.166978   2.672869
    22  H    5.804979   5.624805   4.903928   4.462198   5.416989
    23  H    4.135703   4.656355   5.024962   5.070662   6.566465
    24  H    1.956197   2.534963   2.817203   2.738739   4.225382
    25  H    3.251175   2.139842   2.510314   3.955818   4.690758
    26  H    2.889163   2.121361   2.937796   4.194332   4.750108
    27  H    3.103637   2.819361   3.830188   5.010200   6.217531
    28  H    2.605895   2.719019   4.041025   5.099222   6.172522
    29  H    4.821737   4.159323   4.990128   6.400398   7.248040
    30  H    4.549926   4.103170   5.147749   6.473561   7.218493
                    6          7          8          9         10
     6  O    0.000000
     7  O    2.245131   0.000000
     8  C    2.948933   3.330194   0.000000
     9  C    4.329940   4.691432   1.500838   0.000000
    10  C    5.479500   5.813911   2.602552   1.364387   0.000000
    11  N    6.548675   6.899692   3.731235   2.260207   1.380960
    12  C    6.239539   6.611567   3.648888   2.199698   2.131862
    13  N    4.955677   5.339390   2.543097   1.371806   2.170126
    14  C    5.797439   4.651745   4.787007   4.843923   5.838121
    15  C    7.072336   6.131352   5.766802   5.457099   6.280034
    16  N    8.297055   7.110412   7.086203   6.810586   7.554073
    17  H    3.861636   2.403327   2.988015   3.700072   4.762961
    18  H    2.532043   3.168209   2.154028   2.833718   4.191649
    19  H    0.965395   2.274709   3.764167   5.203862   6.303888
    20  H    2.584491   3.647803   1.092785   2.130078   3.027210
    21  H    3.314486   3.200408   1.091573   2.115901   2.819821
    22  H    5.789618   6.087364   3.020722   2.202397   1.080487
    23  H    7.041635   7.414756   4.614734   3.223692   3.183762
    24  H    4.756426   5.105383   2.849236   2.129899   3.152290
    25  H    5.969098   4.527432   4.771348   4.878703   5.742811
    26  H    5.884068   4.627178   5.412168   5.679727   6.768080
    27  H    7.288932   6.455741   5.554797   4.993606   5.626906
    28  H    7.119060   6.454889   6.008620   5.670465   6.568730
    29  H    8.479193   7.097032   7.147630   6.900550   7.552256
    30  H    8.352161   7.099476   7.490032   7.380946   8.238876
                   11         12         13         14         15
    11  N    0.000000
    12  C    1.310143   0.000000
    13  N    2.209738   1.355753   0.000000
    14  C    6.071751   5.257642   4.407482   0.000000
    15  C    6.174735   5.238633   4.706334   1.528877   0.000000
    16  N    7.417000   6.548670   6.113738   2.515813   1.461356
    17  H    5.557539   5.144986   4.027426   2.562347   3.977179
    18  H    4.871416   4.189363   2.840299   3.974946   4.947919
    19  H    7.430809   7.171923   5.891476   6.387821   7.741812
    20  H    4.172617   4.164041   3.129305   5.733607   6.714984
    21  H    4.097976   4.269610   3.331853   5.060328   6.131431
    22  H    2.147591   3.157181   3.228475   6.614278   7.148550
    23  H    2.131724   1.076018   2.128366   5.483707   5.172517
    24  H    3.178075   2.119804   1.013579   3.802567   4.091540
    25  H    6.084316   5.474918   4.687696   1.093853   2.174041
    26  H    7.073156   6.224890   5.278467   1.096239   2.149546
    27  H    5.375044   4.500919   4.201175   2.161199   1.091402
    28  H    6.374914   5.283656   4.737121   2.143903   1.089113
    29  H    7.484433   6.764398   6.362252   2.737139   2.047805
    30  H    8.192553   7.283635   6.714837   2.723620   2.045974
                   16         17         18         19         20
    16  N    0.000000
    17  H    4.966392   0.000000
    18  H    6.318054   2.918214   0.000000
    19  H    8.888728   4.351994   3.437306   0.000000
    20  H    8.068248   3.899926   2.447605   3.390476   0.000000
    21  H    7.336367   2.927535   3.057273   3.936299   1.743509
    22  H    8.364211   5.253745   4.920940   6.520312   3.296466
    23  H    6.422937   5.824530   4.811792   7.990143   5.119504
    24  H    5.543455   3.769782   2.347841   5.693001   3.440181
    25  H    2.812501   2.264808   4.412653   6.495558   5.792232
    26  H    2.735877   2.941166   4.318772   6.361912   6.275728
    27  H    2.069939   4.172198   5.063056   8.024848   6.533471
    28  H    2.084889   4.514816   4.868348   7.823759   6.853354
    29  H    1.013779   4.883227   6.644019   9.030427   8.181719
    30  H    1.014201   5.160645   6.517646   8.871894   8.431582
                   21         22         23         24         25
    21  H    0.000000
    22  H    2.903515   0.000000
    23  H    5.286114   4.172067   0.000000
    24  H    3.735267   4.186390   2.525516   0.000000
    25  H    4.806691   6.385356   5.821811   4.288763   0.000000
    26  H    5.687918   7.526642   6.439624   4.577508   1.761170
    27  H    5.895456   6.492737   4.389056   3.764564   2.506338
    28  H    6.540429   7.521072   5.081446   3.969487   3.059690
    29  H    7.248337   8.266772   6.735980   5.916477   2.620358
    30  H    7.752481   9.049942   7.186906   6.051883   3.114266
                   26         27         28         29         30
    26  H    0.000000
    27  H    3.056623   0.000000
    28  H    2.503591   1.752359   0.000000
    29  H    3.038559   2.382874   2.934538   0.000000
    30  H    2.520079   2.923421   2.404713   1.625701   0.000000
 Symmetry turned off by external request.
 Stoichiometry    C9H14N4O3
 Framework group  C1[X(C9H14N4O3)]
 Deg. of freedom    84
 Full point group                 C1      NOp   1
 Rotational constants (GHZ):      0.5050640      0.4053310      0.2477507
 Standard basis: 6-31G(d) (6D, 7F)
   268 basis functions,   504 primitive gaussians,   268 cartesian basis functions
    60 alpha electrons       60 beta electrons
       nuclear repulsion energy      1124.8072977319 Hartrees.
 NAtoms=   30 NActive=   30 NUniq=   30 SFac= 1.00D+00 NAtFMM=   60 NAOKFM=F Big=F
 Integral buffers will be    131072 words long.
 Raffenetti 2 integral format.
 Two-electron integral symmetry is turned off.
 One-electron integrals computed using PRISM.
 NBasis=   268 RedAO= T EigKep=  1.12D-03  NBF=   268
 NBsUse=   268 1.00D-06 EigRej= -1.00D+00 NBFU=   268
 ExpMin= 1.61D-01 ExpMax= 5.48D+03 ExpMxC= 8.25D+02 IAcc=3 IRadAn=         5 AccDes= 0.00D+00
 Harris functional with IExCor=  402 and IRadAn=       5 diagonalized for initial guess.
 HarFok:  IExCor=  402 AccDes= 0.00D+00 IRadAn=         5 IDoV= 1 UseB2=F ITyADJ=14
 ICtDFT=  3500011 ScaDFX=  1.000000  1.000000  1.000000  1.000000
 FoFCou: FMM=F IPFlag=           0 FMFlag=      100000 FMFlg1=           0
         NFxFlg=           0 DoJE=T BraDBF=F KetDBF=T FulRan=T
         wScrn=  0.000000 ICntrl=     500 IOpCl=  0 I1Cent=   200000004 NGrid=           0
         NMat0=    1 NMatS0=      1 NMatT0=    0 NMatD0=    1 NMtDS0=    0 NMtDT0=    0
 Symmetry not used in FoFCou.
 Requested convergence on RMS density matrix=1.00D-08 within 128 cycles.
 Requested convergence on MAX density matrix=1.00D-06.
 Requested convergence on             energy=1.00D-06.
 No special actions if energy rises.
 Integral accuracy reduced to 1.0D-05 until final iterations.
 Initial convergence to 1.0D-05 achieved.  Increase integral accuracy.
 SCF Done:  E(RB3LYP) =  -796.082190481     A.U. after   14 cycles
            NFock= 14  Conv=0.76D-08     -V/T= 2.0087
 DoSCS=F DFT=T ScalE2(SS,OS)=  1.000000  1.000000
 Range of M.O.s used for correlation:     1   268
 NBasis=   268 NAE=    60 NBE=    60 NFC=     0 NFV=     0
 NROrb=    268 NOA=    60 NOB=    60 NVA=   208 NVB=   208
 Symmetrizing basis deriv contribution to polar:
 IMax=3 JMax=2 DiffMx= 0.00D+00
 G2DrvN: will do    31 centers at a time, making    1 passes.
 Calling FoFCou, ICntrl=  3107 FMM=F I1Cent=   0 AccDes= 0.00D+00.
 End of G2Drv F.D. properties file   721 does not exist.
 End of G2Drv F.D. properties file   722 does not exist.
 End of G2Drv F.D. properties file   788 does not exist.
          IDoAtm=111111111111111111111111111111
          Differentiating once with respect to nuclear coordinates.
          There are    93 degrees of freedom in the 1st order CPHF.  IDoFFX=6 NUNeed=     0.
     87 vectors produced by pass  0 Test12= 1.34D-14 1.08D-09 XBig12= 1.44D-01 8.76D-02.
 AX will form    87 AO Fock derivatives at one time.
     87 vectors produced by pass  1 Test12= 1.34D-14 1.08D-09 XBig12= 2.61D-02 4.69D-02.
     87 vectors produced by pass  2 Test12= 1.34D-14 1.08D-09 XBig12= 1.83D-04 2.24D-03.
     87 vectors produced by pass  3 Test12= 1.34D-14 1.08D-09 XBig12= 5.65D-07 1.07D-04.
     87 vectors produced by pass  4 Test12= 1.34D-14 1.08D-09 XBig12= 9.47D-10 3.77D-06.
     70 vectors produced by pass  5 Test12= 1.34D-14 1.08D-09 XBig12= 8.19D-13 1.26D-07.
     13 vectors produced by pass  6 Test12= 1.34D-14 1.08D-09 XBig12= 6.91D-16 2.38D-09.
 InvSVY:  IOpt=1 It=  1 EMax= 5.00D-16
 Solved reduced A of dimension   518 with    93 vectors.
 End of Minotr F.D. properties file   721 does not exist.
 End of Minotr F.D. properties file   722 does not exist.
 End of Minotr F.D. properties file   788 does not exist.

 **********************************************************************

            Population analysis using the SCF density.

 **********************************************************************

 Alpha  occ. eigenvalues --  -19.22326 -19.17049 -19.13798 -14.38436 -14.36976
 Alpha  occ. eigenvalues --  -14.31946 -14.29474 -10.34787 -10.31019 -10.26203
 Alpha  occ. eigenvalues --  -10.22016 -10.21621 -10.21599 -10.20901 -10.20847
 Alpha  occ. eigenvalues --  -10.18023  -1.13890  -1.06062  -1.04904  -1.00175
 Alpha  occ. eigenvalues --   -0.95330  -0.89102  -0.85543  -0.81906  -0.77061
 Alpha  occ. eigenvalues --   -0.74330  -0.68019  -0.65859  -0.62054  -0.61374
 Alpha  occ. eigenvalues --   -0.59493  -0.57808  -0.54711  -0.52151  -0.51847
 Alpha  occ. eigenvalues --   -0.51373  -0.50005  -0.49043  -0.48036  -0.46400
 Alpha  occ. eigenvalues --   -0.44721  -0.44178  -0.43189  -0.42247  -0.42046
 Alpha  occ. eigenvalues --   -0.41239  -0.39975  -0.39394  -0.39121  -0.38653
 Alpha  occ. eigenvalues --   -0.37445  -0.35395  -0.34793  -0.30982  -0.28636
 Alpha  occ. eigenvalues --   -0.27874  -0.26421  -0.25023  -0.24021  -0.21128
 Alpha virt. eigenvalues --   -0.01651  -0.00007   0.04533   0.05719   0.06745
 Alpha virt. eigenvalues --    0.07735   0.07786   0.10483   0.12121   0.12174
 Alpha virt. eigenvalues --    0.13638   0.14274   0.15207   0.15590   0.17359
 Alpha virt. eigenvalues --    0.17631   0.18096   0.19072   0.19210   0.20203
 Alpha virt. eigenvalues --    0.20824   0.22961   0.23177   0.24908   0.26412
 Alpha virt. eigenvalues --    0.28825   0.30313   0.30590   0.33418   0.34618
 Alpha virt. eigenvalues --    0.35914   0.38939   0.41024   0.45597   0.49806
 Alpha virt. eigenvalues --    0.50502   0.52084   0.53262   0.53745   0.54463
 Alpha virt. eigenvalues --    0.55115   0.56491   0.56813   0.57480   0.59393
 Alpha virt. eigenvalues --    0.60619   0.62292   0.62820   0.63570   0.64506
 Alpha virt. eigenvalues --    0.65354   0.66000   0.66798   0.67493   0.68235
 Alpha virt. eigenvalues --    0.70273   0.71766   0.72835   0.74457   0.74694
 Alpha virt. eigenvalues --    0.75740   0.78256   0.79497   0.80451   0.80898
 Alpha virt. eigenvalues --    0.81965   0.82644   0.83205   0.84208   0.84740
 Alpha virt. eigenvalues --    0.85404   0.86700   0.87552   0.88622   0.89191
 Alpha virt. eigenvalues --    0.90258   0.90433   0.90502   0.91438   0.91921
 Alpha virt. eigenvalues --    0.92587   0.93941   0.94328   0.95349   0.97206
 Alpha virt. eigenvalues --    0.99748   1.01315   1.03072   1.04708   1.05582
 Alpha virt. eigenvalues --    1.06326   1.09355   1.11482   1.12660   1.13335
 Alpha virt. eigenvalues --    1.14970   1.20832   1.22400   1.25411   1.26834
 Alpha virt. eigenvalues --    1.28915   1.31810   1.33894   1.36705   1.37938
 Alpha virt. eigenvalues --    1.38106   1.40109   1.41002   1.43563   1.44677
 Alpha virt. eigenvalues --    1.47210   1.48617   1.50770   1.52613   1.54189
 Alpha virt. eigenvalues --    1.56114   1.58000   1.61936   1.65080   1.65926
 Alpha virt. eigenvalues --    1.67227   1.67626   1.72533   1.75794   1.76336
 Alpha virt. eigenvalues --    1.77188   1.78315   1.79674   1.80708   1.83350
 Alpha virt. eigenvalues --    1.83942   1.85051   1.86637   1.87405   1.88745
 Alpha virt. eigenvalues --    1.91132   1.92266   1.94839   1.95947   1.97267
 Alpha virt. eigenvalues --    1.98192   1.98881   2.00873   2.05285   2.07580
 Alpha virt. eigenvalues --    2.08694   2.09144   2.10306   2.13502   2.14834
 Alpha virt. eigenvalues --    2.16827   2.18719   2.21705   2.23783   2.25120
 Alpha virt. eigenvalues --    2.27598   2.29758   2.31080   2.31584   2.33109
 Alpha virt. eigenvalues --    2.34107   2.37209   2.39495   2.42431   2.42848
 Alpha virt. eigenvalues --    2.43244   2.46922   2.48264   2.50252   2.52262
 Alpha virt. eigenvalues --    2.54924   2.59659   2.60511   2.61418   2.62839
 Alpha virt. eigenvalues --    2.65630   2.67871   2.70321   2.73875   2.75588
 Alpha virt. eigenvalues --    2.76031   2.78306   2.83948   2.88441   2.91118
 Alpha virt. eigenvalues --    2.96632   3.01537   3.02294   3.06758   3.10480
 Alpha virt. eigenvalues --    3.13422   3.19030   3.77999   3.83084   3.95143
 Alpha virt. eigenvalues --    4.01327   4.06561   4.10946   4.14105   4.17785
 Alpha virt. eigenvalues --    4.21160   4.26686   4.31332   4.31930   4.40022
 Alpha virt. eigenvalues --    4.48994   4.53887   4.68479
          Condensed to atoms (all electrons):
               1          2          3          4          5          6
     1  O    8.150484   0.513728  -0.100245  -0.004151   0.000498  -0.000001
     2  C    0.513728   4.397926   0.275223  -0.022965   0.004101  -0.000011
     3  N   -0.100245   0.275223   7.124333   0.241376  -0.041235   0.002255
     4  C   -0.004151  -0.022965   0.241376   5.186422   0.294172  -0.100377
     5  C    0.000498   0.004101  -0.041235   0.294172   4.360911   0.282839
     6  O   -0.000001  -0.000011   0.002255  -0.100377   0.282839   8.228308
     7  O   -0.000003   0.000678  -0.007390  -0.081851   0.590183  -0.087107
     8  C    0.000285  -0.001603  -0.055585   0.318702  -0.038166   0.002524
     9  C   -0.001136   0.000748   0.001464  -0.025763   0.001268   0.000087
    10  C    0.000008  -0.000107  -0.000200   0.002463  -0.000138  -0.000001
    11  N   -0.000007  -0.000017   0.000007  -0.000139   0.000002   0.000000
    12  C    0.000147   0.000163  -0.000001   0.000084   0.000006   0.000000
    13  N   -0.021707   0.004344   0.000499  -0.002868   0.000171   0.000001
    14  C   -0.086190   0.282259  -0.099351   0.006716  -0.000207   0.000000
    15  C    0.002265  -0.020232   0.001497  -0.000120  -0.000001   0.000000
    16  N    0.000193   0.005558  -0.000080   0.000001   0.000000   0.000000
    17  H    0.003017  -0.015826   0.292786  -0.037757  -0.002580   0.000448
    18  H    0.021392  -0.000878  -0.055544   0.358499  -0.020435   0.002775
    19  H    0.000000   0.000000  -0.000268   0.010863  -0.006815   0.220330
    20  H   -0.000013   0.000078   0.004856  -0.039037  -0.002172   0.005892
    21  H   -0.000021  -0.000093  -0.003427  -0.030886  -0.003076  -0.000113
    22  H    0.000000   0.000001  -0.000011   0.000022   0.000002   0.000000
    23  H   -0.000007   0.000012   0.000000  -0.000005   0.000000   0.000000
    24  H    0.056064  -0.003390  -0.006748   0.002390  -0.000075   0.000002
    25  H    0.002620  -0.030904   0.004020   0.000356  -0.000048   0.000000
    26  H   -0.000185  -0.018488  -0.001312  -0.000319   0.000041   0.000000
    27  H    0.000667   0.000482   0.000081  -0.000011   0.000000   0.000000
    28  H    0.009899  -0.001583   0.000413   0.000008   0.000000   0.000000
    29  H    0.000001   0.000102  -0.000002   0.000000   0.000000   0.000000
    30  H    0.000012   0.000176  -0.000003   0.000000   0.000000   0.000000
               7          8          9         10         11         12
     1  O   -0.000003   0.000285  -0.001136   0.000008  -0.000007   0.000147
     2  C    0.000678  -0.001603   0.000748  -0.000107  -0.000017   0.000163
     3  N   -0.007390  -0.055585   0.001464  -0.000200   0.000007  -0.000001
     4  C   -0.081851   0.318702  -0.025763   0.002463  -0.000139   0.000084
     5  C    0.590183  -0.038166   0.001268  -0.000138   0.000002   0.000006
     6  O   -0.087107   0.002524   0.000087  -0.000001   0.000000   0.000000
     7  O    8.014320  -0.003076  -0.000091   0.000000   0.000000   0.000000
     8  C   -0.003076   5.226685   0.344975  -0.062919   0.006966   0.006712
     9  C   -0.000091   0.344975   4.686757   0.568168  -0.039621  -0.090746
    10  C    0.000000  -0.062919   0.568168   4.967259   0.424366  -0.125821
    11  N    0.000000   0.006966  -0.039621   0.424366   6.666981   0.539118
    12  C    0.000000   0.006712  -0.090746  -0.125821   0.539118   4.736308
    13  N    0.000000  -0.073015   0.373898  -0.067970  -0.087123   0.366368
    14  C   -0.000078  -0.000248  -0.000061   0.000000   0.000000   0.000003
    15  C    0.000000   0.000010   0.000003   0.000001   0.000000  -0.000012
    16  N    0.000000   0.000000   0.000000   0.000000   0.000000   0.000000
    17  H    0.020163   0.001206  -0.000219   0.000006  -0.000001   0.000005
    18  H    0.001910  -0.037505  -0.006611  -0.000036  -0.000007   0.000006
    19  H    0.010342  -0.000295   0.000012   0.000000   0.000000   0.000000
    20  H    0.000131   0.359470  -0.032071  -0.002698   0.000006   0.000201
    21  H    0.001705   0.359203  -0.034706  -0.002919   0.000060   0.000011
    22  H    0.000000  -0.001630  -0.061726   0.382302  -0.043878   0.007794
    23  H    0.000000  -0.000199   0.003037   0.007760  -0.040186   0.382224
    24  H   -0.000001  -0.003474  -0.025112   0.008185   0.003951  -0.019715
    25  H   -0.000006  -0.000006   0.000011   0.000000   0.000000  -0.000001
    26  H    0.000003  -0.000007   0.000000   0.000000   0.000000   0.000000
    27  H    0.000000  -0.000001  -0.000001  -0.000002   0.000000   0.000068
    28  H    0.000000   0.000000   0.000001   0.000000   0.000000  -0.000001
    29  H    0.000000   0.000000   0.000000   0.000000   0.000000   0.000000
    30  H    0.000000   0.000000   0.000000   0.000000   0.000000   0.000000
              13         14         15         16         17         18
     1  O   -0.021707  -0.086190   0.002265   0.000193   0.003017   0.021392
     2  C    0.004344   0.282259  -0.020232   0.005558  -0.015826  -0.000878
     3  N    0.000499  -0.099351   0.001497  -0.000080   0.292786  -0.055544
     4  C   -0.002868   0.006716  -0.000120   0.000001  -0.037757   0.358499
     5  C    0.000171  -0.000207  -0.000001   0.000000  -0.002580  -0.020435
     6  O    0.000001   0.000000   0.000000   0.000000   0.000448   0.002775
     7  O    0.000000  -0.000078   0.000000   0.000000   0.020163   0.001910
     8  C   -0.073015  -0.000248   0.000010   0.000000   0.001206  -0.037505
     9  C    0.373898  -0.000061   0.000003   0.000000  -0.000219  -0.006611
    10  C   -0.067970   0.000000   0.000001   0.000000   0.000006  -0.000036
    11  N   -0.087123   0.000000   0.000000   0.000000  -0.000001  -0.000007
    12  C    0.366368   0.000003  -0.000012   0.000000   0.000005   0.000006
    13  N    6.934303  -0.000244  -0.000053   0.000000   0.000017   0.002061
    14  C   -0.000244   5.408711   0.341671  -0.063241  -0.000098   0.001281
    15  C   -0.000053   0.341671   4.867491   0.338654  -0.000023  -0.000028
    16  N    0.000000  -0.063241   0.338654   6.860877  -0.000003   0.000000
    17  H    0.000017  -0.000098  -0.000023  -0.000003   0.384478   0.004659
    18  H    0.002061   0.001281  -0.000028   0.000000   0.004659   0.518340
    19  H    0.000000   0.000000   0.000000   0.000000  -0.000048  -0.000367
    20  H    0.000253   0.000003   0.000000   0.000000  -0.000147  -0.003249
    21  H    0.002641  -0.000002   0.000000   0.000000   0.001700   0.005465
    22  H    0.004992   0.000000   0.000000   0.000000   0.000000   0.000001
    23  H   -0.058311  -0.000001   0.000000   0.000000   0.000000   0.000002
    24  H    0.252166   0.000876   0.000197   0.000001   0.000006   0.000727
    25  H    0.000035   0.344735  -0.034239   0.001428   0.002621  -0.000033
    26  H   -0.000001   0.351095  -0.032632  -0.001079   0.000248  -0.000017
    27  H    0.000088  -0.051404   0.385408  -0.037891  -0.000007  -0.000001
    28  H    0.000015  -0.052360   0.384570  -0.036033  -0.000006  -0.000007
    29  H    0.000000  -0.003057  -0.043417   0.315988   0.000002   0.000000
    30  H    0.000000  -0.002820  -0.047119   0.318359   0.000000   0.000000
              19         20         21         22         23         24
     1  O    0.000000  -0.000013  -0.000021   0.000000  -0.000007   0.056064
     2  C    0.000000   0.000078  -0.000093   0.000001   0.000012  -0.003390
     3  N   -0.000268   0.004856  -0.003427  -0.000011   0.000000  -0.006748
     4  C    0.010863  -0.039037  -0.030886   0.000022  -0.000005   0.002390
     5  C   -0.006815  -0.002172  -0.003076   0.000002   0.000000  -0.000075
     6  O    0.220330   0.005892  -0.000113   0.000000   0.000000   0.000002
     7  O    0.010342   0.000131   0.001705   0.000000   0.000000  -0.000001
     8  C   -0.000295   0.359470   0.359203  -0.001630  -0.000199  -0.003474
     9  C    0.000012  -0.032071  -0.034706  -0.061726   0.003037  -0.025112
    10  C    0.000000  -0.002698  -0.002919   0.382302   0.007760   0.008185
    11  N    0.000000   0.000006   0.000060  -0.043878  -0.040186   0.003951
    12  C    0.000000   0.000201   0.000011   0.007794   0.382224  -0.019715
    13  N    0.000000   0.000253   0.002641   0.004992  -0.058311   0.252166
    14  C    0.000000   0.000003  -0.000002   0.000000  -0.000001   0.000876
    15  C    0.000000   0.000000   0.000000   0.000000   0.000000   0.000197
    16  N    0.000000   0.000000   0.000000   0.000000   0.000000   0.000001
    17  H   -0.000048  -0.000147   0.001700   0.000000   0.000000   0.000006
    18  H   -0.000367  -0.003249   0.005465   0.000001   0.000002   0.000727
    19  H    0.347531  -0.000021  -0.000101   0.000000   0.000000   0.000000
    20  H   -0.000021   0.557759  -0.035427   0.000248   0.000003  -0.000101
    21  H   -0.000101  -0.035427   0.574675   0.001611   0.000004  -0.000109
    22  H    0.000000   0.000248   0.001611   0.588273  -0.000165  -0.000093
    23  H    0.000000   0.000003   0.000004  -0.000165   0.555465   0.000497
    24  H    0.000000  -0.000101  -0.000109  -0.000093   0.000497   0.361878
    25  H    0.000000   0.000000   0.000002   0.000000   0.000000  -0.000116
    26  H    0.000000   0.000000   0.000000   0.000000   0.000000   0.000002
    27  H    0.000000   0.000000   0.000000   0.000000   0.000011   0.000028
    28  H    0.000000   0.000000   0.000000   0.000000   0.000000  -0.000047
    29  H    0.000000   0.000000   0.000000   0.000000   0.000000   0.000000
    30  H    0.000000   0.000000   0.000000   0.000000   0.000000   0.000000
              25         26         27         28         29         30
     1  O    0.002620  -0.000185   0.000667   0.009899   0.000001   0.000012
     2  C   -0.030904  -0.018488   0.000482  -0.001583   0.000102   0.000176
     3  N    0.004020  -0.001312   0.000081   0.000413  -0.000002  -0.000003
     4  C    0.000356  -0.000319  -0.000011   0.000008   0.000000   0.000000
     5  C   -0.000048   0.000041   0.000000   0.000000   0.000000   0.000000
     6  O    0.000000   0.000000   0.000000   0.000000   0.000000   0.000000
     7  O   -0.000006   0.000003   0.000000   0.000000   0.000000   0.000000
     8  C   -0.000006  -0.000007  -0.000001   0.000000   0.000000   0.000000
     9  C    0.000011   0.000000  -0.000001   0.000001   0.000000   0.000000
    10  C    0.000000   0.000000  -0.000002   0.000000   0.000000   0.000000
    11  N    0.000000   0.000000   0.000000   0.000000   0.000000   0.000000
    12  C   -0.000001   0.000000   0.000068  -0.000001   0.000000   0.000000
    13  N    0.000035  -0.000001   0.000088   0.000015   0.000000   0.000000
    14  C    0.344735   0.351095  -0.051404  -0.052360  -0.003057  -0.002820
    15  C   -0.034239  -0.032632   0.385408   0.384570  -0.043417  -0.047119
    16  N    0.001428  -0.001079  -0.037891  -0.036033   0.315988   0.318359
    17  H    0.002621   0.000248  -0.000007  -0.000006   0.000002   0.000000
    18  H   -0.000033  -0.000017  -0.000001  -0.000007   0.000000   0.000000
    19  H    0.000000   0.000000   0.000000   0.000000   0.000000   0.000000
    20  H    0.000000   0.000000   0.000000   0.000000   0.000000   0.000000
    21  H    0.000002   0.000000   0.000000   0.000000   0.000000   0.000000
    22  H    0.000000   0.000000   0.000000   0.000000   0.000000   0.000000
    23  H    0.000000   0.000000   0.000011   0.000000   0.000000   0.000000
    24  H   -0.000116   0.000002   0.000028  -0.000047   0.000000   0.000000
    25  H    0.591990  -0.032126  -0.004385   0.005490   0.004564  -0.000248
    26  H   -0.032126   0.557166   0.005292  -0.003894  -0.000423   0.005807
    27  H   -0.004385   0.005292   0.571269  -0.029547  -0.004945   0.006580
    28  H    0.005490  -0.003894  -0.029547   0.544524   0.006082  -0.004367
    29  H    0.004564  -0.000423  -0.004945   0.006082   0.465055  -0.034918
    30  H   -0.000248   0.005807   0.006580  -0.004367  -0.034918   0.464293
 Mulliken charges:
               1
     1  O   -0.547612
     2  C    0.630517
     3  N   -0.577407
     4  C   -0.075827
     5  C    0.580754
     6  O   -0.557853
     7  O   -0.459833
     8  C   -0.349009
     9  C    0.337436
    10  C   -0.097706
    11  N   -0.430477
    12  C    0.197080
    13  N   -0.630557
    14  C   -0.377989
    15  C   -0.143890
    16  N   -0.702732
    17  H    0.345351
    18  H    0.207601
    19  H    0.418837
    20  H    0.186036
    21  H    0.163801
    22  H    0.122256
    23  H    0.149859
    24  H    0.372011
    25  H    0.144240
    26  H    0.170829
    27  H    0.158222
    28  H    0.176845
    29  H    0.294969
    30  H    0.294248
 Sum of Mulliken charges =   0.00000
 Mulliken charges with hydrogens summed into heavy atoms:
               1
     1  O   -0.547612
     2  C    0.630517
     3  N   -0.232056
     4  C    0.131774
     5  C    0.580754
     6  O   -0.139016
     7  O   -0.459833
     8  C    0.000829
     9  C    0.337436
    10  C    0.024551
    11  N   -0.430477
    12  C    0.346939
    13  N   -0.258546
    14  C   -0.062920
    15  C    0.191177
    16  N   -0.113515
 APT charges:
               1
     1  O   -0.356595
     2  C    0.173190
     3  N   -0.627383
     4  C   -0.431210
     5  C   -0.328251
     6  O   -0.768062
     7  O    0.162030
     8  C   -1.043745
     9  C   -0.370236
    10  C   -0.340818
    11  N    0.273541
    12  C   -0.519355
    13  N   -0.655017
    14  C   -0.722611
    15  C   -0.684266
    16  N   -1.138528
    17  H    0.589309
    18  H    0.371902
    19  H    1.072744
    20  H    0.607970
    21  H    0.439036
    22  H    0.730384
    23  H    0.605369
    24  H    0.270267
    25  H    0.301335
    26  H    0.528428
    27  H    0.256983
    28  H    0.417638
    29  H    0.514389
    30  H    0.671563
 Sum of APT charges =   0.00000
 APT charges with hydrogens summed into heavy atoms:
               1
     1  O   -0.356595
     2  C    0.173190
     3  N   -0.038074
     4  C   -0.059308
     5  C   -0.328251
     6  O    0.304682
     7  O    0.162030
     8  C    0.003260
     9  C   -0.370236
    10  C    0.389565
    11  N    0.273541
    12  C    0.086015
    13  N   -0.384750
    14  C    0.107152
    15  C   -0.009645
    16  N    0.047423
 Electronic spatial extent (au):  <R**2>=           4425.4891
 Charge=              0.0000 electrons
 Dipole moment (field-independent basis, Debye):
    X=              1.8251    Y=              4.2394    Z=             -3.6611  Tot=              5.8913
 Quadrupole moment (field-independent basis, Debye-Ang):
   XX=            -97.4245   YY=            -96.3456   ZZ=            -96.2417
   XY=             -2.6458   XZ=             11.0121   YZ=              3.4838
 Traceless Quadrupole moment (field-independent basis, Debye-Ang):
   XX=             -0.7539   YY=              0.3250   ZZ=              0.4289
   XY=             -2.6458   XZ=             11.0121   YZ=              3.4838
 Octapole moment (field-independent basis, Debye-Ang**2):
  XXX=            115.4831  YYY=            -10.6131  ZZZ=            -43.7140  XYY=             19.9951
  XXY=             74.7997  XXZ=            -50.7506  XZZ=             30.2572  YZZ=             46.3878
  YYZ=              3.6309  XYZ=              9.8164
 Hexadecapole moment (field-independent basis, Debye-Ang**3):
 XXXX=          -3091.5513 YYYY=          -1142.5693 ZZZZ=          -1382.2204 XXXY=             43.8058
 XXXZ=           -126.1258 YYYX=             -4.4185 YYYZ=            475.0885 ZZZX=             60.2904
 ZZZY=            406.5176 XXYY=           -739.7426 XXZZ=           -843.2156 YYZZ=           -410.1238
 XXYZ=            265.0497 YYXZ=             30.3088 ZZXY=            -85.3242
 N-N= 1.124807297732D+03 E-N=-4.106021293333D+03  KE= 7.891988014667D+02
  Exact polarizability:   0.000   0.000   0.000   0.000   0.000   0.000
 Approx polarizability: 171.076  -9.892 193.998  -8.858 -10.867 165.657
 Calling FoFJK, ICntrl=    100147 FMM=F ISym2X=0 I1Cent= 0 IOpClX= 0 NMat=1 NMatS=1 NMatT=0.
 -------------------------------------------------------------------
 Center     Atomic                   Forces (Hartrees/Bohr)
 Number     Number              X              Y              Z
 -------------------------------------------------------------------
      1        8           0.000606290   -0.007298773    0.001373235
      2        6           0.005001458   -0.001011882   -0.002901850
      3        7          -0.003282134    0.003065481   -0.001117789
      4        6          -0.001244575    0.002630821    0.001382882
      5        6          -0.005889734   -0.008360507   -0.005332805
      6        8           0.000158688   -0.007488568    0.004269453
      7        8           0.008655644    0.012239171    0.002309813
      8        6          -0.008291806   -0.005715464    0.004489814
      9        6           0.003334246    0.008039610   -0.007617002
     10        6          -0.004582410   -0.004336106    0.011247243
     11        7          -0.007291567    0.003199658    0.004113240
     12        6           0.000282220   -0.002362100    0.001899042
     13        7           0.004463271   -0.003374248   -0.006384550
     14        6          -0.002809651    0.001818639   -0.001370408
     15        6           0.005148646    0.000666583    0.003346382
     16        7          -0.000970280   -0.005426246    0.000917534
     17        1           0.000359215    0.003257967    0.000986576
     18        1           0.001599591   -0.002129392   -0.001482329
     19        1          -0.001769356    0.008093123   -0.007045068
     20        1          -0.002141616    0.000268141   -0.003246386
     21        1           0.001124180    0.004170900    0.000926347
     22        1          -0.000904921    0.001237386    0.000339136
     23        1           0.001595052   -0.003898921    0.001903147
     24        1           0.004053402   -0.001170980   -0.002900968
     25        1           0.001672690    0.002407171    0.001918490
     26        1           0.001064749    0.001145945   -0.002032616
     27        1          -0.002881313   -0.001355345    0.001473900
     28        1          -0.000019952   -0.002766008   -0.001340091
     29        1          -0.000011872    0.003436563    0.002536701
     30        1           0.002971845    0.001017382   -0.002661073
 -------------------------------------------------------------------
 Cartesian Forces:  Max     0.012239171 RMS     0.004116095
 FormGI is forming the generalized inverse of G from B-inverse, IUseBI=4.
 GSVD:  received Info=                   1 from GESDD.

 GradGradGradGradGradGradGradGradGradGradGradGradGradGradGradGradGradGrad
 Berny optimization.
 Internal  Forces:  Max     0.015009899 RMS     0.003317479
 Search for a local minimum.
 Step number   1 out of a maximum of  160
 All quantities printed in internal units (Hartrees-Bohrs-Radians)
 Mixed Optimization -- RFO/linear search
 Second derivative matrix not updated -- analytic derivatives used.
 ITU=  0
     Eigenvalues ---    0.00032   0.00054   0.00262   0.00264   0.00334
     Eigenvalues ---    0.00539   0.00567   0.00918   0.01042   0.01645
     Eigenvalues ---    0.01977   0.02209   0.02327   0.02943   0.03152
     Eigenvalues ---    0.03723   0.03964   0.04296   0.04345   0.04552
     Eigenvalues ---    0.04592   0.04781   0.04977   0.05369   0.05475
     Eigenvalues ---    0.05959   0.06214   0.06287   0.07978   0.08606
     Eigenvalues ---    0.08770   0.10978   0.11036   0.11694   0.11945
     Eigenvalues ---    0.12169   0.13180   0.13920   0.15000   0.15771
     Eigenvalues ---    0.16440   0.17964   0.18575   0.18897   0.19203
     Eigenvalues ---    0.21393   0.21880   0.22891   0.23436   0.23895
     Eigenvalues ---    0.25146   0.25254   0.26038   0.28244   0.29098
     Eigenvalues ---    0.31338   0.33465   0.33876   0.34168   0.34299
     Eigenvalues ---    0.34614   0.34914   0.35003   0.35238   0.35552
     Eigenvalues ---    0.36761   0.37692   0.38138   0.38627   0.38716
     Eigenvalues ---    0.43022   0.43145   0.44466   0.45334   0.45622
     Eigenvalues ---    0.46787   0.47362   0.49165   0.49815   0.53205
     Eigenvalues ---    0.60281   0.70837   0.81893   0.93767
 RFO step:  Lambda=-4.54508566D-03 EMin= 3.23276946D-04
 Linear search not attempted -- first point.
 Iteration  1 RMS(Cart)=  0.07137204 RMS(Int)=  0.00260768
 Iteration  2 RMS(Cart)=  0.00391543 RMS(Int)=  0.00009841
 Iteration  3 RMS(Cart)=  0.00001222 RMS(Int)=  0.00009829
 Iteration  4 RMS(Cart)=  0.00000000 RMS(Int)=  0.00009829
 Variable       Old X    -DE/DX   Delta X   Delta X   Delta X     New X
                                 (Linear)    (Quad)   (Total)
    R1        2.32883   0.00614   0.00000   0.00556   0.00556   2.33439
    R2        2.55756   0.01211   0.00000   0.01776   0.01776   2.57531
    R3        2.86147   0.00505   0.00000   0.01328   0.01328   2.87475
    R4        2.73197   0.00618   0.00000   0.01261   0.01261   2.74457
    R5        1.90693   0.00336   0.00000   0.00746   0.00746   1.91439
    R6        2.85851   0.00710   0.00000   0.02281   0.02281   2.88132
    R7        2.90151   0.00964   0.00000   0.03094   0.03094   2.93245
    R8        2.05757   0.00270   0.00000   0.00963   0.00963   2.06721
    R9        2.54840   0.00293   0.00000  -0.00256  -0.00256   2.54584
   R10        2.27370   0.01501   0.00000   0.01641   0.01641   2.29011
   R11        1.82433   0.01075   0.00000   0.02007   0.02007   1.84440
   R12        2.83617   0.00367   0.00000   0.00230   0.00230   2.83847
   R13        2.06506   0.00367   0.00000   0.01022   0.01022   2.07529
   R14        2.06277   0.00396   0.00000   0.01089   0.01089   2.07366
   R15        2.57832   0.01317   0.00000   0.02401   0.02399   2.60231
   R16        2.59234   0.00948   0.00000   0.01947   0.01958   2.61192
   R17        2.60964  -0.00119   0.00000  -0.00975  -0.00988   2.59976
   R18        2.04182   0.00153   0.00000   0.00449   0.00449   2.04631
   R19        2.47581   0.00774   0.00000   0.01259   0.01253   2.48834
   R20        2.56200   0.00986   0.00000   0.01689   0.01697   2.57897
   R21        2.03338   0.00452   0.00000   0.01097   0.01097   2.04435
   R22        1.91539   0.00511   0.00000   0.01265   0.01265   1.92803
   R23        2.88916   0.00728   0.00000   0.02646   0.02646   2.91562
   R24        2.06708   0.00279   0.00000   0.00763   0.00763   2.07471
   R25        2.07159   0.00246   0.00000   0.00688   0.00688   2.07847
   R26        2.76156   0.00190   0.00000  -0.00113  -0.00113   2.76043
   R27        2.06245   0.00319   0.00000   0.00920   0.00920   2.07165
   R28        2.05813   0.00301   0.00000   0.00820   0.00820   2.06633
   R29        1.91576   0.00426   0.00000   0.00962   0.00962   1.92538
   R30        1.91656   0.00409   0.00000   0.00900   0.00900   1.92557
    A1        2.12142   0.00353   0.00000   0.00955   0.00952   2.13094
    A2        2.14078  -0.00362   0.00000  -0.01255  -0.01259   2.12820
    A3        2.02094   0.00010   0.00000   0.00314   0.00310   2.02404
    A4        2.11622   0.00634   0.00000   0.01937   0.01938   2.13560
    A5        2.08379  -0.00225   0.00000  -0.00603  -0.00602   2.07777
    A6        2.02958  -0.00381   0.00000  -0.01458  -0.01458   2.01500
    A7        1.90546  -0.00407   0.00000  -0.02332  -0.02348   1.88198
    A8        1.98355   0.00207   0.00000   0.01692   0.01702   2.00057
    A9        1.88359   0.00013   0.00000  -0.00775  -0.00788   1.87571
   A10        1.88388   0.00269   0.00000   0.01521   0.01530   1.89919
   A11        1.90111   0.00014   0.00000  -0.00100  -0.00119   1.89992
   A12        1.90502  -0.00104   0.00000  -0.00067  -0.00066   1.90436
   A13        1.94285   0.00213   0.00000   0.01012   0.01012   1.95296
   A14        2.19042  -0.00350   0.00000  -0.01692  -0.01692   2.17349
   A15        2.14929   0.00138   0.00000   0.00689   0.00689   2.15618
   A16        1.85090   0.00290   0.00000   0.01333   0.01333   1.86422
   A17        2.01653   0.00177   0.00000   0.00364   0.00365   2.02018
   A18        1.87036  -0.00055   0.00000  -0.01132  -0.01141   1.85894
   A19        1.91996  -0.00276   0.00000  -0.02279  -0.02283   1.89713
   A20        1.90971  -0.00005   0.00000   0.01836   0.01835   1.92806
   A21        1.89153   0.00092   0.00000   0.00604   0.00598   1.89752
   A22        1.84853   0.00058   0.00000   0.00657   0.00629   1.85482
   A23        2.27747  -0.00065   0.00000  -0.00321  -0.00338   2.27409
   A24        2.17313   0.00205   0.00000   0.00722   0.00704   2.18017
   A25        1.83182  -0.00141   0.00000  -0.00484  -0.00471   1.82710
   A26        1.93433   0.00204   0.00000   0.00696   0.00694   1.94127
   A27        2.23675  -0.00133   0.00000  -0.01053  -0.01053   2.22622
   A28        2.11211  -0.00071   0.00000   0.00355   0.00355   2.11566
   A29        1.82824   0.00046   0.00000   0.00005  -0.00004   1.82820
   A30        1.95405   0.00159   0.00000   0.00464   0.00476   1.95881
   A31        2.20470  -0.00176   0.00000  -0.00918  -0.00925   2.19545
   A32        2.12444   0.00017   0.00000   0.00453   0.00447   2.12890
   A33        1.87629  -0.00268   0.00000  -0.00686  -0.00705   1.86925
   A34        2.19588   0.00158   0.00000  -0.00163  -0.00225   2.19363
   A35        2.20485   0.00109   0.00000   0.00252   0.00187   2.20673
   A36        1.97253  -0.00100   0.00000  -0.00982  -0.00981   1.96272
   A37        1.90593   0.00193   0.00000   0.02139   0.02139   1.92732
   A38        1.87852  -0.00046   0.00000  -0.00416  -0.00416   1.87436
   A39        1.93534  -0.00101   0.00000  -0.00832  -0.00828   1.92706
   A40        1.89926   0.00110   0.00000   0.00671   0.00669   1.90595
   A41        1.86850  -0.00053   0.00000  -0.00566  -0.00566   1.86284
   A42        1.99920   0.00319   0.00000   0.01667   0.01666   2.01586
   A43        1.92010  -0.00163   0.00000  -0.01345  -0.01356   1.90655
   A44        1.89875  -0.00048   0.00000  -0.00368  -0.00375   1.89500
   A45        1.87581  -0.00007   0.00000   0.00827   0.00832   1.88413
   A46        1.89866  -0.00117   0.00000  -0.00104  -0.00104   1.89761
   A47        1.86679  -0.00003   0.00000  -0.00822  -0.00831   1.85848
   A48        1.92590   0.00019   0.00000   0.00230   0.00229   1.92820
   A49        1.92274   0.00078   0.00000   0.00310   0.00310   1.92585
   A50        1.86005  -0.00036   0.00000  -0.00318  -0.00319   1.85687
    D1       -0.15769  -0.00205   0.00000  -0.04875  -0.04881  -0.20650
    D2       -2.94064  -0.00215   0.00000  -0.04171  -0.04178  -2.98243
    D3        2.97419  -0.00071   0.00000  -0.03308  -0.03302   2.94118
    D4        0.19124  -0.00081   0.00000  -0.02605  -0.02599   0.16525
    D5       -0.58554   0.00018   0.00000  -0.03581  -0.03589  -0.62143
    D6       -2.74848   0.00075   0.00000  -0.03406  -0.03408  -2.78257
    D7        1.51209   0.00063   0.00000  -0.03629  -0.03632   1.47577
    D8        2.56588  -0.00122   0.00000  -0.05180  -0.05179   2.51409
    D9        0.40293  -0.00065   0.00000  -0.05005  -0.04998   0.35295
   D10       -1.61968  -0.00077   0.00000  -0.05228  -0.05222  -1.67190
   D11       -2.19703   0.00057   0.00000  -0.03169  -0.03182  -2.22885
   D12        1.98219  -0.00134   0.00000  -0.04567  -0.04563   1.93656
   D13       -0.13312  -0.00144   0.00000  -0.05022  -0.05013  -0.18324
   D14        0.59648   0.00089   0.00000  -0.03712  -0.03725   0.55923
   D15       -1.50748  -0.00101   0.00000  -0.05110  -0.05106  -1.55854
   D16        2.66040  -0.00112   0.00000  -0.05564  -0.05556   2.60484
   D17        2.86584  -0.00125   0.00000   0.00076   0.00085   2.86669
   D18       -0.31291  -0.00114   0.00000   0.00357   0.00364  -0.30927
   D19       -1.25340   0.00048   0.00000   0.01669   0.01663  -1.23677
   D20        1.85103   0.00058   0.00000   0.01949   0.01942   1.87045
   D21        0.81293   0.00083   0.00000   0.02392   0.02391   0.83684
   D22       -2.36582   0.00094   0.00000   0.02672   0.02670  -2.33913
   D23       -1.02269  -0.00120   0.00000   0.00511   0.00514  -1.01755
   D24        3.12731  -0.00190   0.00000  -0.01246  -0.01234   3.11497
   D25        1.12545  -0.00088   0.00000  -0.00250  -0.00249   1.12296
   D26       -3.13876   0.00071   0.00000   0.01299   0.01290  -3.12586
   D27        1.01124   0.00002   0.00000  -0.00458  -0.00458   1.00666
   D28       -0.99062   0.00104   0.00000   0.00538   0.00527  -0.98535
   D29        1.08059  -0.00040   0.00000   0.00592   0.00590   1.08650
   D30       -1.05259  -0.00110   0.00000  -0.01165  -0.01157  -1.06417
   D31       -3.05445  -0.00008   0.00000  -0.00169  -0.00172  -3.05618
   D32        3.11217  -0.00044   0.00000  -0.01373  -0.01371   3.09846
   D33        0.00671  -0.00042   0.00000  -0.01585  -0.01587  -0.00916
   D34        2.85446  -0.00112   0.00000  -0.02090  -0.02092   2.83354
   D35       -0.33563  -0.00159   0.00000  -0.04749  -0.04755  -0.38318
   D36       -1.31667  -0.00064   0.00000  -0.01906  -0.01907  -1.33574
   D37        1.77642  -0.00112   0.00000  -0.04566  -0.04570   1.73073
   D38        0.69137   0.00051   0.00000   0.00178   0.00186   0.69323
   D39       -2.49872   0.00004   0.00000  -0.02481  -0.02477  -2.52349
   D40        3.10774  -0.00057   0.00000  -0.02424  -0.02416   3.08358
   D41       -0.03206  -0.00026   0.00000  -0.01684  -0.01680  -0.04886
   D42        0.00751  -0.00024   0.00000  -0.00182  -0.00186   0.00565
   D43       -3.13229   0.00007   0.00000   0.00557   0.00551  -3.12678
   D44       -3.11273   0.00041   0.00000   0.01707   0.01717  -3.09556
   D45        0.14204   0.00050   0.00000   0.07158   0.07153   0.21357
   D46       -0.00931   0.00003   0.00000  -0.00391  -0.00387  -0.01318
   D47       -3.03773   0.00012   0.00000   0.05060   0.05049  -2.98724
   D48       -0.00267   0.00038   0.00000   0.00702   0.00704   0.00438
   D49        3.13728   0.00010   0.00000   0.00022   0.00020   3.13748
   D50       -0.00351  -0.00038   0.00000  -0.00969  -0.00973  -0.01324
   D51        3.13674  -0.00025   0.00000  -0.01529  -0.01530   3.12144
   D52        0.00831   0.00024   0.00000   0.00890   0.00888   0.01719
   D53        3.03598   0.00019   0.00000  -0.04632  -0.04636   2.98963
   D54       -3.13201   0.00012   0.00000   0.01421   0.01422  -3.11779
   D55       -0.10434   0.00007   0.00000  -0.04100  -0.04102  -0.14535
   D56        3.05691  -0.00063   0.00000   0.00140   0.00142   3.05832
   D57       -1.11131   0.00029   0.00000   0.01374   0.01367  -1.09765
   D58        0.92831  -0.00095   0.00000  -0.00592  -0.00590   0.92241
   D59       -1.07957   0.00040   0.00000   0.01595   0.01599  -1.06358
   D60        1.03539   0.00132   0.00000   0.02829   0.02824   1.06363
   D61        3.07502   0.00008   0.00000   0.00863   0.00867   3.08369
   D62        0.97119  -0.00017   0.00000   0.00827   0.00831   0.97949
   D63        3.08615   0.00075   0.00000   0.02061   0.02056   3.10671
   D64       -1.15741  -0.00048   0.00000   0.00095   0.00099  -1.15642
   D65        1.03793  -0.00024   0.00000  -0.01217  -0.01213   1.02580
   D66       -1.01116  -0.00039   0.00000  -0.01154  -0.01151  -1.02267
   D67       -1.10121  -0.00021   0.00000  -0.01211  -0.01217  -1.11338
   D68        3.13288  -0.00036   0.00000  -0.01148  -0.01154   3.12134
   D69       -3.11660   0.00045   0.00000  -0.00628  -0.00626  -3.12287
   D70        1.11749   0.00030   0.00000  -0.00566  -0.00564   1.11185
         Item               Value     Threshold  Converged?
 Maximum Force            0.015010     0.000450     NO 
 RMS     Force            0.003317     0.000300     NO 
 Maximum Displacement     0.307495     0.001800     NO 
 RMS     Displacement     0.073277     0.001200     NO 
 Predicted change in Energy=-2.423646D-03
 GradGradGradGradGradGradGradGradGradGradGradGradGradGradGradGradGradGrad

                          Input orientation:                          
 ---------------------------------------------------------------------
 Center     Atomic      Atomic             Coordinates (Angstroms)
 Number     Number       Type             X           Y           Z
 ---------------------------------------------------------------------
      1          8           0        0.921654   -1.283320   -0.773815
      2          6           0        1.157905   -0.119088   -0.435101
      3          7           0        0.234790    0.874775   -0.566672
      4          6           0       -0.986539    0.704753   -1.334014
      5          6           0       -1.078750    1.858548   -2.326513
      6          8           0       -1.978806    1.614263   -3.298713
      7          8           0       -0.450681    2.891319   -2.239615
      8          6           0       -2.284550    0.670579   -0.484281
      9          6           0       -2.349391   -0.402102    0.565156
     10          6           0       -3.163660   -0.519585    1.669475
     11          7           0       -2.938775   -1.705072    2.330301
     12          6           0       -1.991493   -2.301103    1.636544
     13          7           0       -1.605951   -1.567231    0.552437
     14          6           0        2.495976    0.289418    0.162303
     15          6           0        3.098680   -0.808233    1.063631
     16          7           0        4.434470   -0.530295    1.585380
     17          1           0        0.518686    1.834049   -0.407083
     18          1           0       -0.897389   -0.233323   -1.889644
     19          1           0       -2.006432    2.409357   -3.864102
     20          1           0       -3.118045    0.566612   -1.191747
     21          1           0       -2.413060    1.646321    0.001061
     22          1           0       -3.907096    0.185734    2.019355
     23          1           0       -1.541921   -3.256830    1.870677
     24          1           0       -0.811583   -1.759732   -0.058197
     25          1           0        2.395680    1.230091    0.719469
     26          1           0        3.182358    0.488246   -0.673806
     27          1           0        2.432100   -0.981602    1.916521
     28          1           0        3.130044   -1.744169    0.499112
     29          1           0        4.431784    0.329369    2.132249
     30          1           0        5.090074   -0.381876    0.819582
 ---------------------------------------------------------------------
                    Distance matrix (angstroms):
                    1          2          3          4          5
     1  O    0.000000
     2  C    1.235305   0.000000
     3  N    2.274216   1.362796   0.000000
     4  C    2.812020   2.466860   1.452365   0.000000
     5  C    4.035321   3.534276   2.406291   1.524729   0.000000
     6  O    4.814952   4.587345   3.593174   2.381564   1.347201
     7  O    4.632438   3.860877   2.708332   2.426588   1.211874
     8  C    3.765805   3.532207   2.528944   1.551788   2.501807
     9  C    3.642680   3.658105   3.096682   2.586376   3.884174
    10  C    4.821073   4.823439   4.300472   3.906380   5.096104
    11  N    4.971551   5.190913   5.011944   4.800593   6.151829
    12  C    3.915628   4.355641   4.460572   4.343883   5.817355
    13  N    2.868508   3.272805   3.256398   3.017330   4.505802
    14  C    2.414190   1.521250   2.446836   3.813053   4.629799
    15  C    2.888141   2.547101   3.700306   4.972609   6.004641
    16  N    4.297991   3.871345   4.923704   6.279772   7.169733
    17  H    3.164627   2.055269   1.013051   2.097668   2.497321
    18  H    2.378337   2.520512   2.063969   1.093919   2.144684
    19  H    5.635550   5.306987   4.272127   3.216707   1.878342
    20  H    4.462744   4.396186   3.424499   2.140711   2.667492
    21  H    4.505945   4.007330   2.815798   2.168857   2.691286
    22  H    5.768600   5.636622   4.931282   4.477067   5.448341
    23  H    4.117922   4.738259   5.115421   5.125684   6.633100
    24  H    1.934732   2.590879   2.879943   2.780648   4.278853
    25  H    3.274123   2.164579   2.539656   3.991513   4.663113
    26  H    2.873887   2.127027   2.974733   4.226399   4.771395
    27  H    3.100062   2.810272   3.800072   5.009676   6.196438
    28  H    2.590311   2.720841   4.046882   5.128725   6.219137
    29  H    4.833941   4.184577   5.019602   6.443145   7.251547
    30  H    4.552717   4.135848   5.203330   6.537886   7.278172
                    6          7          8          9         10
     6  O    0.000000
     7  O    2.255600   0.000000
     8  C    2.984132   3.372827   0.000000
     9  C    4.374076   4.724242   1.502054   0.000000
    10  C    5.535348   5.854529   2.613043   1.377083   0.000000
    11  N    6.604947   6.942735   3.740803   2.271749   1.375734
    12  C    6.299763   6.660328   3.662605   2.209563   2.132807
    13  N    5.009220   5.385989   2.557943   1.382168   2.184443
    14  C    5.810122   4.606722   4.839089   4.911015   5.912490
    15  C    7.118946   6.098859   5.793279   5.485881   6.298195
    16  N    8.341679   7.085389   7.132378   6.861345   7.598603
    17  H    3.827179   2.327158   3.036075   3.764503   4.838528
    18  H    2.562911   3.175755   2.171704   2.857068   4.229096
    19  H    0.976014   2.300350   3.811022   5.257399   6.366974
    20  H    2.614334   3.690139   1.098195   2.148475   3.060800
    21  H    3.328380   3.228247   1.097336   2.125628   2.835164
    22  H    5.834454   6.116030   3.022570   2.210587   1.082862
    23  H    7.116249   7.475630   4.639166   3.241275   3.187950
    24  H    4.821534   5.149865   2.873602   2.143964   3.170975
    25  H    5.952269   4.429179   4.864835   5.020315   5.905094
    26  H    5.898785   4.628768   5.473230   5.738291   6.839491
    27  H    7.307070   6.370511   5.544397   5.002465   5.620233
    28  H    7.197422   6.466062   6.009650   5.641783   6.517674
    29  H    8.499528   7.036707   7.216079   6.998226   7.656739
    30  H    8.421044   7.125479   7.562591   7.443841   8.298518
                   11         12         13         14         15
    11  N    0.000000
    12  C    1.316774   0.000000
    13  N    2.226257   1.364734   0.000000
    14  C    6.181806   5.387167   4.519420   0.000000
    15  C    6.233750   5.335424   4.792802   1.542881   0.000000
    16  N    7.503316   6.665687   6.215214   2.540638   1.460755
    17  H    5.654440   5.251371   4.123526   2.572890   3.975050
    18  H    4.913374   4.231640   2.871434   3.999834   5.002092
    19  H    7.494560   7.241945   5.956463   6.401387   7.790867
    20  H    4.194939   4.182361   3.143548   5.781654   6.754598
    21  H    4.115042   4.293563   3.358922   5.095667   6.126431
    22  H    2.146971   3.162348   3.243456   6.667738   7.140188
    23  H    2.137851   1.081825   2.143968   5.639063   5.308684
    24  H    3.198884   2.134811   1.020270   3.897125   4.177799
    25  H    6.298125   5.705931   4.885280   1.097889   2.183442
    26  H    7.162651   6.315609   5.353182   1.099877   2.169458
    27  H    5.435155   4.624677   4.302271   2.167223   1.096270
    28  H    6.339192   5.275801   4.739599   2.156608   1.093454
    29  H    7.648746   6.958706   6.522817   2.762180   2.052620
    30  H    8.276202   7.382374   6.805378   2.758984   2.051094
                   16         17         18         19         20
    16  N    0.000000
    17  H    4.989329   0.000000
    18  H    6.371241   2.911578   0.000000
    19  H    8.934408   4.319512   3.480261   0.000000
    20  H    8.121338   3.930383   2.461355   3.431162   0.000000
    21  H    7.357743   2.965966   3.066771   3.960689   1.756579
    22  H    8.383481   5.309623   4.951184   6.570547   3.328491
    23  H    6.575153   5.945699   4.867959   8.075217   5.146000
    24  H    5.633288   3.847934   2.385683   5.770085   3.466494
    25  H    2.829386   2.270901   4.448973   6.463620   5.873169
    26  H    2.776533   2.996244   4.317784   6.386877   6.322142
    27  H    2.079139   4.121672   5.111977   8.038331   6.546938
    28  H    2.086862   4.521507   4.920267   7.916616   6.872942
    29  H    1.018870   4.901491   6.700175   9.040642   8.252585
    30  H    1.018966   5.226147   6.573560   8.949205   8.504016
                   21         22         23         24         25
    21  H    0.000000
    22  H    2.904991   0.000000
    23  H    5.319327   4.179403   0.000000
    24  H    3.764231   4.205148   2.548578   0.000000
    25  H    4.879891   6.519615   6.079675   4.453128   0.000000
    26  H    5.753719   7.589795   6.543607   4.624278   1.763636
    27  H    5.835284   6.446600   4.579476   3.876400   2.515124
    28  H    6.516861   7.453658   5.098686   3.980862   3.071493
    29  H    7.288910   8.340881   6.972402   6.054362   2.636848
    30  H    7.815406   9.094543   7.304349   6.123605   3.141372
                   26         27         28         29         30
    26  H    0.000000
    27  H    3.071341   0.000000
    28  H    2.522330   1.754333   0.000000
    29  H    3.075753   2.400817   2.942995   0.000000
    30  H    2.574238   2.937307   2.408372   1.631659   0.000000
 Symmetry turned off by external request.
 Stoichiometry    C9H14N4O3
 Framework group  C1[X(C9H14N4O3)]
 Deg. of freedom    84
 Full point group                 C1      NOp   1
 Rotational constants (GHZ):      0.4959937      0.4009667      0.2438120
 Standard basis: 6-31G(d) (6D, 7F)
   268 basis functions,   504 primitive gaussians,   268 cartesian basis functions
    60 alpha electrons       60 beta electrons
       nuclear repulsion energy      1117.7511995131 Hartrees.
 NAtoms=   30 NActive=   30 NUniq=   30 SFac= 1.00D+00 NAtFMM=   60 NAOKFM=F Big=F
 Integral buffers will be    131072 words long.
 Raffenetti 2 integral format.
 Two-electron integral symmetry is turned off.
 One-electron integrals computed using PRISM.
 NBasis=   268 RedAO= T EigKep=  1.19D-03  NBF=   268
 NBsUse=   268 1.00D-06 EigRej= -1.00D+00 NBFU=   268
 Initial guess from the checkpoint file:  "conf-640.chk"
 B after Tr=    -0.008362   -0.007830    0.016254
         Rot=    0.999993   -0.002887    0.002190   -0.001133 Ang=  -0.44 deg.
 ExpMin= 1.61D-01 ExpMax= 5.48D+03 ExpMxC= 8.25D+02 IAcc=2 IRadAn=         4 AccDes= 0.00D+00
 Harris functional with IExCor=  402 and IRadAn=       4 diagonalized for initial guess.
 HarFok:  IExCor=  402 AccDes= 0.00D+00 IRadAn=         4 IDoV= 1 UseB2=F ITyADJ=14
 ICtDFT=  3500011 ScaDFX=  1.000000  1.000000  1.000000  1.000000
 FoFCou: FMM=F IPFlag=           0 FMFlag=      100000 FMFlg1=           0
         NFxFlg=           0 DoJE=T BraDBF=F KetDBF=T FulRan=T
         wScrn=  0.000000 ICntrl=     500 IOpCl=  0 I1Cent=   200000004 NGrid=           0
         NMat0=    1 NMatS0=      1 NMatT0=    0 NMatD0=    1 NMtDS0=    0 NMtDT0=    0
 Symmetry not used in FoFCou.
 Requested convergence on RMS density matrix=1.00D-08 within 128 cycles.
[...]
 086849,0.00264742,0.06642766,-0.07656239,-0.02265162,0.00002928,-0.000
 09929,0.00049975,-0.00015238,0.00045688,-0.00025783,0.00027242,-0.0002
 4139,0.00029944,0.00001483,-0.00007801,-0.00024213,-0.00003370,-0.0002
 8502,0.00103547,0.00003892,0.00000092,0.00003107,-0.00017063,0.0001985
 6,-0.00000836,-0.00018849,0.00005474,0.00004138,0.00083756,0.00076664,
 -0.00107274,0.00002232,-0.00063841,-0.00041516,-0.06944101,0.07470535,
 -0.00220896,-0.00610953,-0.00338518,-0.00201241,0.00768582,0.00212133,
 0.00208327,-0.00266378,-0.00063298,-0.00079064,0.00068375,0.00085566,-
 0.00000240,0.00010811,-0.00070254,0.00024101,-0.00014576,0.00019162,0.
 00004974,-0.00023715,0.00031304,-0.00136865,-0.00107198,0.00034137,-0.
 00426839,-0.00631496,0.00206914,-0.00089822,0.00188756,0.00345022,0.00
 204332,0.00639814,-0.00152495,0.01225781,-0.01181549,-0.01264337,0.184
 94557,-0.02554777,-0.19181805,-0.00018973,-0.00106452,-0.00077034,-0.0
 0013821,-0.00044411,0.00071621,-0.00008650,0.00025473,-0.00044670,0.00
 001037,-0.00005806,0.00025149,-0.00004378,0.00124673,-0.00123289,-0.00
 004664,0.00002842,0.00001463,0.00001716,0.00051857,-0.00043078,0.00016
 092,0.00007621,-0.00019439,0.00077981,0.00049628,0.00119936,-0.0011164
 8,-0.00012882,-0.00027014,-0.18920521,0.03648825,0.20281841,-0.0075167
 9,-0.00340973,-0.00367444,0.00490235,-0.02997887,-0.00758697,-0.000220
 69,0.00094195,0.00075159,0.00036333,0.00014444,0.00027962,-0.00002972,
 -0.00010307,-0.00001505,0.00006326,0.00001664,0.00006659,0.00005568,0.
 00010137,0.00003308,0.00004553,-0.00002383,0.00002362,0.00009213,-0.00
 015366,-0.00000478,-0.00003120,0.00000405,0.00007208,-0.00007880,0.000
 06705,0.00010967,0.00001515,0.00012742,-0.00018034,-0.00022471,-0.0000
 6092,0.00024970,-0.05221752,0.00064450,0.00038323,-0.00035612,0.008132
 93,0.00228309,0.00082540,-0.00008952,0.00123634,-0.00156725,0.00043114
 ,-0.00128899,0.00028262,-0.00023558,0.00011762,-0.00000496,-0.00000209
 ,-0.00000266,0.00001619,0.00000468,-0.00001703,-0.00002127,0.00001771,
 -0.00000270,-0.00001312,0.00000194,0.00001032,-0.00000335,-0.00000471,
 -0.00000257,0.00048377,0.00012765,-0.00042085,0.05416392,-0.00257261,0
 .00132034,-0.00120732,0.00428561,-0.00936314,-0.00028847,0.00090178,0.
 00088975,0.00133704,-0.00053467,0.00059176,-0.00010756,-0.00018263,-0.
 00023402,-0.00001245,0.00006435,0.00006021,0.00004369,0.00013041,0.000
 15532,0.00001590,0.00000248,-0.00003708,-0.00003535,0.00008362,-0.0001
 0277,-0.00000213,-0.00001115,0.00000660,0.00005483,-0.00007016,0.00006
 722,0.00006726,0.00003048,0.00005231,-0.00014640,-0.00014427,-0.000041
 65,0.00012780,-0.00370755,-0.27857150,-0.07981152,-0.00116137,-0.02066
 839,-0.00721940,-0.00025285,0.00255182,-0.00020793,-0.00017485,0.00113
 259,-0.00048791,0.00020977,0.00007865,0.00017148,-0.00001060,-0.000007
 40,-0.00001488,-0.00000702,0.00000526,-0.00000982,-0.00002619,0.000023
 39,-0.00000376,-0.00001698,0.00000600,0.00000684,0.00001388,0.00001982
 ,-0.00000485,0.00027643,0.00004483,-0.00014926,0.00112744,0.30459771,-
 0.00490675,-0.00159648,0.00073355,0.00554618,-0.01222818,-0.00563278,-
 0.00011813,0.00084892,0.00020665,0.00017943,0.00026896,0.00004134,-0.0
 0020946,-0.00035541,0.00001022,0.00008646,0.00009895,0.00005156,0.0001
 9661,0.00021956,-0.00002493,0.00002194,0.00000705,0.00001679,0.0000756
 2,-0.00014944,-0.00000378,-0.00002786,-0.00000926,0.00004561,-0.000074
 34,0.00004773,0.00010126,0.00000443,0.00013228,-0.00015793,-0.00025331
 ,-0.00004683,0.00020855,-0.00205644,-0.07711513,-0.07576561,-0.0001600
 4,0.02633804,0.00836508,0.00204763,-0.00072176,0.00167748,-0.00137427,
 0.00034694,0.00005869,0.00015073,-0.00006115,0.00008031,-0.00002049,-0
 .00000243,-0.00001150,-0.00000209,-0.00000402,-0.00001434,-0.00000716,
 0.00000664,0.00000849,-0.00000350,0.00000287,0.00001096,-0.00000586,-0
 .00000985,-0.00000047,0.00045240,0.00013494,-0.00030739,0.00372808,0.0
 8416722,0.08026731,0.00278437,0.00030758,-0.00338285,-0.02312328,0.004
 41689,0.02445830,-0.00303144,-0.00121883,-0.00296263,0.00053635,0.0011
 1540,-0.00097687,-0.00043835,-0.00071597,0.00015817,-0.00009848,0.0002
 6362,-0.00029299,0.00013048,0.00024252,-0.00017691,0.00016530,0.000043
 66,0.00003881,-0.00001678,0.00000289,-0.00002495,0.00002412,-0.0000125
 3,-0.00004406,0.00000039,-0.00005304,0.00004238,0.00001042,0.00000551,
 -0.00000785,0.00002420,0.00004424,-0.00005200,-0.16923728,0.01565224,0
 .12972573,0.00490943,-0.00077410,-0.00656340,0.00234155,-0.00042711,-0
 .00037542,-0.00032801,-0.00026577,0.00063090,-0.00009185,0.00000077,-0
 .00003291,-0.00004836,0.00000961,-0.00001910,-0.00002803,-0.00001403,0
 .00001599,-0.00001213,-0.00000433,0.00002888,0.00000038,0.00000227,-0.
 00000165,0.00000002,-0.00000511,0.00000346,-0.00006906,0.00003337,0.00
 009140,0.00110364,0.00015974,-0.00128959,0.18398741,-0.00001770,-0.000
 43857,-0.00172409,-0.00370984,-0.00000391,0.00643451,0.00013488,0.0000
 8490,0.00047789,-0.00010480,0.00027479,0.00023086,0.00006586,0.0000781
 6,-0.00003082,-0.00002014,-0.00002090,-0.00000232,-0.00007326,-0.00003
 588,0.00005929,-0.00000457,-0.00003165,-0.00001164,0.00002866,-0.00004
 675,0.00000343,0.00000023,-0.00000195,0.00002177,-0.00002358,0.0000171
 9,0.00002302,0.00000200,0.00003802,-0.00006287,-0.00005825,-0.00002927
 ,0.00001522,0.01527397,-0.05018997,-0.02199509,-0.01473806,0.00057325,
 0.01918096,-0.00135072,0.00041832,-0.00214618,-0.00009330,0.00025219,-
 0.00078296,0.00015147,-0.00002178,0.00008717,0.00001293,-0.00000583,-0
 .00000050,0.00000230,0.00001002,-0.00000325,-0.00001485,0.00001124,-0.
 00000730,-0.00000690,0.00000142,0.00000266,0.00000426,0.00000780,0.000
 00377,0.00011567,0.00004660,0.00003303,0.02221294,-0.00233314,-0.02214
 305,-0.01957274,0.05202675,0.00051407,0.00056429,-0.00080053,-0.010772
 77,0.00024004,0.01156065,-0.00097953,0.00012502,-0.00117943,0.00018023
 ,0.00061237,-0.00080980,-0.00023805,-0.00025183,-0.00002618,-0.0000281
 4,0.00010665,-0.00009320,0.00005305,0.00007227,-0.00001913,0.00014198,
 0.00001753,0.00005964,-0.00000103,-0.00001596,-0.00001889,-0.00000030,
 0.00000142,0.00000460,0.00000746,0.00000033,0.00005022,0.00000482,0.00
 000116,-0.00002533,0.00000435,0.00001206,0.00001667,0.12798052,-0.0224
 7898,-0.17847088,0.01822328,-0.00050635,-0.02223398,0.00083060,-0.0013
 0533,0.00334517,-0.00029751,0.00012861,0.00008157,0.00003438,-0.000013
 16,0.00001839,-0.00001907,0.00000629,-0.00002654,0.00001508,-0.0000030
 5,0.00000039,-0.00001505,0.00000295,0.00000885,-0.00000490,-0.00000222
 ,-0.00000137,-0.00001086,-0.00001654,-0.00000492,0.00003649,0.00003193
 ,-0.00001659,0.00647150,-0.00089532,-0.00722583,-0.13827505,0.01958722
 ,0.19781197,0.00006423,0.00004408,0.00024571,0.00083156,-0.00027135,-0
 .00013801,0.00028056,-0.00009570,0.00021634,-0.00004840,-0.00001877,-0
 .00005183,0.00000675,0.00004542,-0.00002050,0.00001183,-0.00001656,0.0
 0001676,0.00000133,-0.00002376,0.00001246,0.00000302,-0.00000522,0.000
 03374,-0.00003583,0.00003235,0.00000596,-0.00001144,-0.00000949,-0.000
 00942,-0.00000211,0.00001382,-0.00004593,-0.00000011,-0.00005368,0.000
 08610,0.00006694,0.00003417,-0.00004209,0.00640008,-0.00067490,-0.0057
 7982,-0.15992617,0.01571168,0.12463981,-0.03099750,0.00626942,0.019971
 12,0.00002247,0.00002782,0.00005164,0.00000678,-0.00000403,0.00000281,
 -0.00000008,0.00000065,0.00000227,0.00001474,0.00000335,-0.00001273,0.
 00000367,-0.00000183,-0.00000226,0.00000540,0.00000047,0.00000196,0.00
 000414,0.00001041,0.00000361,-0.00003788,-0.00002764,0.00001426,0.0001
 0478,-0.00033504,0.00037700,0.00018444,0.00145177,-0.00209569,0.185745
 85,-0.00015341,0.00031910,0.00011947,-0.00160254,0.00022147,-0.0002883
 1,0.00029860,-0.00015529,-0.00042434,-0.00000111,-0.00006475,0.0000360
 3,-0.00001544,0.00003921,-0.00001134,0.00000647,-0.00000979,0.00001290
 ,0.00001227,-0.00003288,-0.00000877,0.00001682,0.00003701,-0.00001538,
 -0.00003871,-0.00000492,-0.00002079,-0.00002776,-0.00003164,-0.0000115
 7,0.00003904,0.00000772,0.00001848,0.00001506,-0.00000525,0.00009720,0
 .00010112,0.00008208,-0.00001959,-0.01221015,0.00106930,0.01928089,0.0
 1797866,-0.05639167,-0.02216302,-0.00519740,0.00213093,0.00341449,-0.0
 0002043,-0.00001231,0.00016842,-0.00001812,0.00000208,-0.00001333,-0.0
 0000407,0.00000329,-0.00000134,-0.00000309,-0.00001270,0.00001509,0.00
 000926,-0.00001792,0.00000716,0.00001526,-0.00000943,-0.00000095,-0.00
 004206,-0.00006291,-0.00001774,-0.00004832,0.00001060,-0.00011770,-0.0
 0073025,0.00094760,-0.00085748,0.00106798,-0.00195948,0.00392994,-0.01
 919990,0.05436114,-0.00111450,-0.00091603,0.00013630,0.00320203,0.0009
 1276,0.00001789,-0.00108750,0.00021450,0.00032255,0.00005072,0.0000696
 9,-0.00003797,0.00004454,0.00007423,-0.00000805,-0.00004121,-0.0000068
 8,-0.00001863,-0.00007589,-0.00005068,0.00001472,0.00001667,0.00004583
 ,-0.00009590,-0.00007151,0.00011040,-0.00005508,-0.00001106,-0.0000151
 5,0.00001611,0.00005025,0.00000164,0.00003650,-0.00005169,-0.00009861,
 0.00012358,0.00019019,0.00008881,0.00009171,0.01358887,-0.00194037,-0.
 02031319,0.13090244,-0.02158053,-0.19505554,-0.01281348,0.00273477,0.0
 1270953,0.00015657,-0.00000819,-0.00018365,0.00001558,0.00000290,-0.00
 000453,0.00001264,-0.00000549,-0.00000795,-0.00001702,-0.00001742,0.00
 004290,-0.00001463,-0.00000385,0.00000999,0.00000158,-0.00000869,-0.00
 000539,-0.00003038,-0.00004849,-0.00000812,-0.00000015,-0.00003144,-0.
 00029123,-0.00018182,0.00012828,0.00125301,-0.00181700,0.00350033,-0.0
 0278367,-0.13428856,0.01831643,0.21019994,-0.00063577,-0.00142652,-0.0
 0011334,0.00055804,0.00282503,0.00105319,0.00023240,-0.00072341,-0.000
 36559,-0.00005513,-0.00007794,-0.00002454,0.00001231,0.00010583,-0.000
 07624,0.00000509,-0.00002819,0.00002829,-0.00002545,-0.00008117,0.0000
 3633,0.00000246,0.00001382,0.00000610,-0.00005037,0.00007511,0.0000059
 7,0.00000977,-0.00002556,-0.00002912,0.00005977,-0.00003689,-0.0000577
 2,-0.00005772,-0.00001231,0.00013055,0.00011516,0.00000569,-0.00006610
 ,0.00087063,0.00625461,0.00253768,-0.05114751,-0.00426677,0.00277775,-
 0.00641102,-0.03282194,-0.01827276,0.00019334,-0.00006007,0.00009161,-
 0.00007115,0.00003429,-0.00003403,0.00000087,0.00000085,-0.00000379,0.
 00000710,-0.00000435,0.00000428,0.00000960,-0.00001303,0.00000211,0.00
 001097,-0.00000818,-0.00000422,-0.00002853,-0.00003834,0.00000895,-0.0
 0021008,0.00001271,-0.00002347,-0.00008675,0.00077631,-0.00186116,0.00
 035204,-0.00061342,-0.00034972,0.00192446,0.02149420,0.00687655,0.0597
 3952,-0.00097318,0.00297165,-0.00071040,-0.00161846,-0.00398254,-0.001
 40869,0.00019154,0.00054452,0.00024239,0.00000745,0.00005954,-0.000135
 89,-0.00008033,-0.00009414,0.00000201,0.00004133,0.00002463,0.00003567
 ,0.00007217,0.00008207,-0.00000171,0.00002228,-0.00001873,0.00003974,0
 .00004461,-0.00005780,0.00000713,-0.00000609,0.00001294,0.00002236,-0.
 00004052,0.00003245,0.00002276,0.00003034,0.00002063,-0.00008128,-0.00
 007614,-0.00001932,0.00003923,0.00250337,-0.02179792,-0.00406757,-0.00
 891054,-0.28682776,-0.08427217,-0.00308799,-0.00146330,-0.00310770,-0.
 00020558,0.00020576,-0.00001006,0.00007017,0.00000068,0.00004698,-0.00
 000560,-0.00000241,-0.00000539,0.00001492,0.00000781,-0.00001810,-0.00
 000971,0.00000930,-0.00000145,-0.00000859,0.00000453,0.00000340,0.0000
 1302,0.00002409,-0.00000377,0.00013750,0.00000869,0.00000623,0.0007201
 9,-0.00128725,0.00353254,-0.00042899,0.00105747,-0.00019408,0.00066986
 ,-0.00115792,-0.00078717,0.01184988,0.31006511,0.00014901,-0.00112006,
 -0.00086904,0.00061111,0.00215192,0.00142959,-0.00017280,-0.00056927,-
 0.00001451,-0.00005816,-0.00009801,0.00002067,0.00005599,0.00006116,0.
 00000146,-0.00002105,-0.00001715,-0.00001960,-0.00004260,-0.00004264,0
 .00000934,-0.00003841,-0.00002748,-0.00001432,-0.00001208,0.00004686,0
 .00000573,0.00001341,0.00002342,-0.00000917,-0.00000369,0.00000744,-0.
 00003150,0.00001943,-0.00008527,0.00001640,0.00001665,0.00000610,-0.00
 004929,-0.00083359,0.02627980,0.00605143,0.00008100,-0.08424238,-0.079
 76180,-0.00336124,-0.01339976,-0.00682658,0.00038775,-0.00013201,0.000
 05055,-0.00007519,0.00001579,-0.00003533,0.00000324,0.00000088,0.00000
 490,-0.00000673,0.00000503,-0.00000203,0.00000522,0.00000614,-0.000008
 00,-0.00000539,0.00000617,-0.00000258,0.00003078,0.00003851,0.00000500
 ,-0.00010615,-0.00007653,0.00016055,-0.00197193,0.00380675,-0.00368908
 ,0.00063159,-0.00055057,0.00148748,-0.00124463,-0.02254704,-0.00734277
 ,0.00874901,0.08994894,0.08824628,0.00007119,0.00089750,-0.00014466,-0
 .00054489,-0.00090686,0.00003158,0.00009551,0.00014346,0.00013975,-0.0
 0004207,-0.00001060,-0.00005817,-0.00004341,0.00000810,-0.00006040,0.0
 0003732,-0.00000551,0.00004827,0.00002596,0.00000104,0.00003667,0.0000
 0634,-0.00001089,0.00001244,0.00001301,-0.00000551,0.00000001,-0.00000
 030,0.00001513,0.00001324,0.00000192,0.00001967,0.00000472,0.00001613,
 -0.00001971,-0.00001780,0.00000355,0.00000569,0.00000187,0.00134780,-0
 .00114778,0.00064967,-0.00354087,-0.03824895,-0.01519960,-0.06402106,-
 0.02189141,0.00174097,-0.00004068,0.00005093,-0.00008564,0.00001644,0.
 00000708,0.00001255,-0.00000451,0.00000064,-0.00000899,0.00001136,0.00
 000632,-0.00000370,-0.00000797,0.00000657,-0.00000496,-0.00000840,-0.0
 0000010,-0.00000144,0.00000451,0.00000878,-0.00000494,-0.00000048,-0.0
 0003325,0.00002616,-0.00011596,0.00106802,-0.00034012,-0.00003312,0.00
 023786,0.00001986,0.00084347,0.00009794,0.00075566,-0.00650994,-0.0006
 1299,-0.00283060,0.06927089,-0.00008552,0.00013042,-0.00007206,0.00052
 082,-0.00037727,0.00032156,-0.00025908,0.00016667,0.00002522,0.0001071
 6,0.00001960,0.00005133,0.00005163,-0.00003292,0.00008215,-0.00005249,
 0.00001778,-0.00006158,-0.00004088,0.00002347,-0.00004253,0.00000083,0
 .00000183,-0.00003378,0.00001416,-0.00003383,-0.00001646,0.00000062,0.
 00000521,-0.00000133,-0.00002275,0.00000279,0.00005499,0.00002758,0.00
 000996,-0.00005897,-0.00006856,0.00000898,0.00005304,0.00087526,0.0026
 3327,0.00043706,0.00401302,-0.00755662,0.00441166,-0.02927566,-0.36715
 066,-0.15656375,0.00005155,-0.00004726,-0.00001652,0.00000167,-0.00000
 976,-0.00000050,0.00000965,-0.00000365,0.00000646,-0.00001799,-0.00000
 456,0.00001046,-0.00000011,0.00000291,0.00000420,-0.00000494,0.0000043
 0,-0.00000051,0.00000738,0.00000593,-0.00000614,0.00009428,0.00001299,
 -0.00002040,-0.00024306,0.00024664,-0.00082853,-0.00002032,-0.00005271
 ,-0.00002991,-0.00046397,-0.00000005,0.00012764,-0.00265926,0.00170312
 ,-0.00002217,0.02981459,0.37635273,0.00072870,0.00096137,0.00024074,-0
 .00183089,-0.00058922,-0.00008286,0.00094789,-0.00021535,0.00000719,-0
 .00023076,-0.00010036,-0.00019341,-0.00013278,0.00006612,-0.00020351,0
 .00013524,-0.00003998,0.00015696,0.00011588,-0.00004213,0.00009602,-0.
 00000064,-0.00001518,0.00012062,-0.00002015,0.00006737,0.00005042,-0.0
 0000266,0.00000365,0.00000362,0.00003368,0.00001242,-0.00013512,-0.000
 03302,-0.00005048,0.00011128,0.00015172,-0.00001684,-0.00014118,0.0024
 0773,-0.00190935,0.00110111,-0.00619802,-0.01445625,-0.00936027,0.0034
 6217,-0.10364887,-0.06433534,-0.00013386,0.00013444,0.00005490,-0.0000
 0709,0.00003335,0.00000575,-0.00002525,0.00000808,-0.00001276,0.000055
 58,0.00001766,-0.00004006,0.00000097,-0.00000283,-0.00001261,0.0000084
 8,-0.00000529,0.00000158,0.00000075,0.00000838,0.00000744,-0.00022445,
 -0.00008541,0.00012784,-0.00056868,0.00067933,-0.00022209,-0.00007634,
 0.00002699,-0.00042216,0.00054869,0.00094323,0.00054037,-0.00186911,0.
 00068812,0.00078721,0.00547909,0.14654236,0.08438081,0.00036881,0.0004
 0653,-0.00000778,-0.00033136,-0.00087405,-0.00012304,0.00065741,-0.000
 00829,0.00013353,-0.00010113,-0.00011479,-0.00003644,-0.00004292,0.000
 03987,-0.00009109,0.00006601,-0.00002445,0.00007998,0.00005304,-0.0000
 1657,0.00004519,-0.00000750,-0.00002099,0.00006176,0.00000598,0.000006
 39,0.00003109,0.00000388,0.00000568,-0.00000131,0.00000248,0.00000678,
 -0.00005681,-0.00000199,-0.00000259,0.00002044,0.00002399,-0.00002071,
 -0.00006338,0.00202017,0.00054726,0.00141153,-0.02868549,0.00303692,0.
 02863633,-0.22323554,0.02434243,0.16949110,-0.00005422,0.00005160,0.00
 002298,-0.00000617,0.00001075,0.00000432,-0.00001099,0.00000407,-0.000
 00433,0.00002576,0.00001195,-0.00002390,0.00000223,0.00000170,-0.00000
 852,-0.00000014,0.,0.00000063,0.00000785,0.00001584,0.00000405,-0.0000
 8387,-0.00003291,0.00009971,-0.00002954,0.00007763,-0.00015595,0.00000
 162,0.00070730,-0.00143002,-0.00546700,-0.00183992,-0.00424790,0.00118
 586,-0.00032390,0.00003004,0.00314823,-0.00237564,-0.00272286,0.250484
 52,-0.00031516,-0.00058098,-0.00028206,0.00079056,0.00068730,0.0005335
 0,-0.00055731,-0.00003741,-0.00013526,0.00015208,0.00010610,0.00009979
 ,0.00010553,-0.00004612,0.00016811,-0.00010873,0.00002620,-0.00013929,
 -0.00008721,0.00002017,-0.00008012,0.00000446,0.00000908,-0.00005543,0
 .00001144,-0.00004749,-0.00001698,0.00000643,-0.00001445,-0.00001241,-
 0.00003150,-0.00003470,0.00005543,0.00000251,0.00007276,-0.00006637,-0
 .00011420,-0.00001856,0.00004994,-0.00009899,-0.00020795,-0.00173633,-
 0.00066447,0.00006748,0.00899775,-0.00287717,-0.04301757,-0.03171058,0
 .00007166,-0.00009138,0.00000006,0.00000109,-0.00001509,-0.00000169,0.
 00001671,-0.00000179,0.00001609,-0.00003534,-0.00000833,0.00001691,0.0
 0000338,-0.00000175,0.00000928,0.00000179,0.00000399,0.00000223,0.0000
 0440,0.00000447,0.00000588,0.00014033,0.00008902,-0.00002255,0.0002112
 4,-0.00015148,-0.00002365,0.00014457,0.00027366,0.00027266,-0.00311343
 ,0.00069738,-0.00080923,-0.00055098,-0.00012591,0.00052542,0.03050423,
 -0.00607929,-0.02901533,-0.02361790,0.04842265,0.00031976,0.00027097,0
 .00008092,-0.00074379,-0.00027851,-0.00044472,0.00041936,-0.00007456,0
 .00009112,-0.00012926,-0.00007845,-0.00003874,-0.00006489,0.00005915,-
 0.00011939,0.00007565,-0.00002798,0.00009651,0.00005394,-0.00003395,0.
 00006110,-0.00000570,-0.00000961,0.00003507,-0.00000606,0.00002800,0.0
 0001388,-0.00000201,0.00001125,0.00000692,0.00002644,0.00001655,-0.000
 03895,-0.00000285,-0.00003564,0.00004243,0.00006756,0.00000422,-0.0000
 4271,-0.00127373,-0.00036767,0.00241384,-0.01839602,0.00532743,0.00769
 575,0.20211997,-0.06394086,-0.22889836,-0.00004120,0.00006347,-0.00000
 800,-0.00000303,0.00000953,0.00000200,-0.00001247,0.00000401,-0.000010
 71,0.00002319,0.00000688,-0.00001070,-0.00000168,0.00000070,-0.0000085
 5,-0.00000201,-0.00000351,-0.00000219,-0.00000378,-0.00000224,-0.00000
 191,-0.00009894,-0.00004774,0.00003665,0.00010266,-0.00000209,-0.00008
 113,0.00054596,-0.00022750,-0.00028717,-0.00249878,0.00015897,0.000696
 53,0.00084253,0.00016795,0.00039904,0.00978851,0.00564700,-0.01263247,
 -0.19109934,0.05335422,0.23095396\\-0.00000104,0.00000558,0.00000413,-
 0.00000114,-0.00000304,-0.00000992,0.00000201,-0.00000300,0.00000358,0
 .00000452,0.00000126,-0.00000163,0.00000194,-0.00000066,-0.00000029,-0
 .00000028,0.00000129,-0.00000042,-0.00000111,0.00000101,0.00000006,0.0
 0000262,0.00000306,0.00000246,-0.00000484,0.00000508,-0.00000662,-0.00
 000038,0.00000278,-0.00000704,0.00000401,-0.00000636,0.00000092,0.0000
 0133,-0.00000477,0.00000291,0.00000310,-0.00000081,0.00000481,0.000007
 96,-0.00000393,0.00000092,-0.00000339,0.00000430,0.00000014,0.00000227
 ,-0.00000127,0.00000079,-0.00000052,0.00000136,0.00000119,-0.00000181,
 0.00000156,-0.00000107,0.00000049,0.00000008,0.00000085,-0.00000113,-0
 .00000146,0.00000332,-0.00000040,0.00000018,-0.00000097,-0.00000113,-0
 .00000091,-0.00000097,-0.00000066,-0.00000124,-0.00000115,-0.00000406,
 0.00000078,-0.00000165,-0.00000403,0.00000108,0.00000144,-0.00000437,0
 .00000113,0.00000135,0.00000084,-0.00000132,0.00000049,0.00000022,-0.0
 0000171,0.00000107,-0.00000055,-0.00000065,0.00000059,-0.00000047,0.00
 000058,0.00000071\\\@


 MUD THROWN IS GROUND LOST -- FROM A TEA BAG
 Job cpu time:       0 days  1 hours  3 minutes 13.8 seconds.
 File lengths (MBytes):  RWF=    260 Int=      0 D2E=      0 Chk=      8 Scr=      1
 Normal termination of Gaussian 09 at Wed Jul 28 22:37:47 2021.
