 Entering Gaussian System, Link 0=g09
 Input=opt_freq-conf-422.com
 Output=opt_freq-conf-422.log
 Initial command:
 /aerosol/software/g09/l1.exe "/scratch/nicole/10586/Gau-85407.inp" -scrdir="/scratch/nicole/10586/"
 Entering Link 1 = /aerosol/software/g09/l1.exe PID=     85414.
  
 Copyright (c) 1988,1990,1992,1993,1995,1998,2003,2009,2013,
            Gaussian, Inc.  All Rights Reserved.
  
 This is part of the Gaussian(R) 09 program.  It is based on
 the Gaussian(R) 03 system (copyright 2003, Gaussian, Inc.),
 the Gaussian(R) 98 system (copyright 1998, Gaussian, Inc.),
 the Gaussian(R) 94 system (copyright 1995, Gaussian, Inc.),
 the Gaussian 92(TM) system (copyright 1992, Gaussian, Inc.),
 the Gaussian 90(TM) system (copyright 1990, Gaussian, Inc.),
 the Gaussian 88(TM) system (copyright 1988, Gaussian, Inc.),
 the Gaussian 86(TM) system (copyright 1986, Carnegie Mellon
 University), and the Gaussian 82(TM) system (copyright 1983,
 Carnegie Mellon University). Gaussian is a federally registered
 trademark of Gaussian, Inc.
  
 This software contains proprietary and confidential information,
 including trade secrets, belonging to Gaussian, Inc.
  
 This software is provided under written license and may be
 used, copied, transmitted, or stored only in accord with that
 written license.
  
 The following legend is applicable only to US Government
 contracts under FAR:
  
                    RESTRICTED RIGHTS LEGEND
  
 Use, reproduction and disclosure by the US Government is
 subject to restrictions as set forth in subparagraphs (a)
 and (c) of the Commercial Computer Software - Restricted
 Rights clause in FAR 52.227-19.
  
 Gaussian, Inc.
 340 Quinnipiac St., Bldg. 40, Wallingford CT 06492
  
  
 ---------------------------------------------------------------
 Warning -- This program may not be used in any manner that
 competes with the business of Gaussian, Inc. or will provide
 assistance to any competitor of Gaussian, Inc.  The licensee
 of this program is prohibited from giving any competitor of
 Gaussian, Inc. access to this program.  By using this program,
 the user acknowledges that Gaussian, Inc. is engaged in the
 business of creating and licensing software in the field of
 computational chemistry and represents and warrants to the
 licensee that it is not a competitor of Gaussian, Inc. and that
 it will not use this program in any manner prohibited above.
 ---------------------------------------------------------------
  

 Cite this work as:
 Gaussian 09, Revision D.01,
 M. J. Frisch, G. W. Trucks, H. B. Schlegel, G. E. Scuseria, 
 M. A. Robb, J. R. Cheeseman, G. Scalmani, V. Barone, B. Mennucci, 
 G. A. Petersson, H. Nakatsuji, M. Caricato, X. Li, H. P. Hratchian, 
 A. F. Izmaylov, J. Bloino, G. Zheng, J. L. Sonnenberg, M. Hada, 
 M. Ehara, K. Toyota, R. Fukuda, J. Hasegawa, M. Ishida, T. Nakajima, 
 Y. Honda, O. Kitao, H. Nakai, T. Vreven, J. A. Montgomery, Jr., 
 J. E. Peralta, F. Ogliaro, M. Bearpark, J. J. Heyd, E. Brothers, 
 K. N. Kudin, V. N. Staroverov, T. Keith, R. Kobayashi, J. Normand, 
 K. Raghavachari, A. Rendell, J. C. Burant, S. S. Iyengar, J. Tomasi, 
 M. Cossi, N. Rega, J. M. Millam, M. Klene, J. E. Knox, J. B. Cross, 
 V. Bakken, C. Adamo, J. Jaramillo, R. Gomperts, R. E. Stratmann, 
 O. Yazyev, A. J. Austin, R. Cammi, C. Pomelli, J. W. Ochterski, 
 R. L. Martin, K. Morokuma, V. G. Zakrzewski, G. A. Voth, 
 P. Salvador, J. J. Dannenberg, S. Dapprich, A. D. Daniels, 
 O. Farkas, J. B. Foresman, J. V. Ortiz, J. Cioslowski, 
 and D. J. Fox, Gaussian, Inc., Wallingford CT, 2013.
 
 ******************************************
 Gaussian 09:  ES64L-G09RevD.01 24-Apr-2013
                28-Jul-2021 
 ******************************************
 %mem=2gb
 %nproc=4
 Will use up to    4 processors via shared memory.
 %chk=conf-422.chk
 ----------------------------------------------------------------------
 # B3LYP/6-31G(d) opt=calcfc freq=noraman nosymm integral(ultrafinegrid
 )
 ----------------------------------------------------------------------
 1/10=4,14=-1,18=20,19=15,26=4,38=1/1,3;
 2/9=110,12=2,15=1,17=6,18=5,40=1/2;
 3/5=1,6=6,7=1,11=2,16=1,25=1,30=1,71=2,74=-5,75=-5,140=1/1,2,3;
 4//1;
 5/5=2,38=5/2;
 8/6=4,10=90,11=11/1;
 11/6=1,8=1,9=11,15=111,16=1,31=1/1,2,10;
 10/6=1,13=1,31=1/2;
 6/7=2,8=2,9=2,10=2,28=1/1;
 7/10=1,18=20,25=1,30=1/1,2,3,16;
 1/10=4,14=-1,18=20,19=15,26=4/3(2);
 2/9=110,15=1/2;
 99//99;
 2/9=110,15=1/2;
 3/5=1,6=6,7=1,11=2,16=1,25=1,30=1,71=1,74=-5,75=-5/1,2,3;
 4/5=5,16=3,69=1/1;
 5/5=2,38=5/2;
 7/30=1/1,2,3,16;
 1/14=-1,18=20,19=15,26=4/3(-5);
 2/9=110,15=1/2;
 6/7=2,8=2,9=2,10=2,19=2,28=1/1;
 99/9=1/99;
 ------------------------------------------------------------
 Candidate Structure: Conf:422 OPT and FREQ calc in gas phase
 ------------------------------------------------------------
 Symbolic Z-matrix:
 Charge =  0 Multiplicity = 1
 O                     0.78587   0.73522   1.52987 
 C                     1.13924   0.16266   0.50415 
 N                     0.30312  -0.6476   -0.20788 
 C                    -0.93596  -1.13451   0.35649 
 C                    -0.81707  -2.6235    0.61379 
 O                    -1.7968   -3.06349   1.42956 
 O                     0.01444  -3.34827   0.13314 
 C                    -2.14447  -0.88748  -0.55894 
 C                    -2.4521    0.57028  -0.73406 
 C                    -1.92298   1.70746  -0.19576 
 N                    -2.57575   2.83084  -0.66942 
 C                    -3.49191   2.37231  -1.48728 
 N                    -3.46244   1.01624  -1.56355 
 C                     2.50615   0.36515  -0.11942 
 C                     3.56376   0.75402   0.90212 
 N                     4.8435    0.9524    0.2166 
 H                     0.71291  -1.23242  -0.92015 
 H                    -1.09373  -0.61786   1.30258 
 H                    -1.66124  -4.01486   1.51849 
 H                    -3.01463  -1.38629  -0.12674 
 H                    -1.97303  -1.34889  -1.5332 
 H                    -1.09974   1.7603    0.50126 
 H                    -4.19675   2.96499  -2.04443 
 H                    -4.06566   0.4341   -2.11923 
 H                     2.80637  -0.54103  -0.65153 
 H                     2.42751   1.16022  -0.8652 
 H                     3.59987  -0.00614   1.69242 
 H                     3.26508   1.69306   1.37245 
 H                     5.20434   0.0605   -0.10256 
 H                     5.53209   1.31249   0.86643 
 

 GradGradGradGradGradGradGradGradGradGradGradGradGradGradGradGradGradGrad
 Berny optimization.
 Initialization pass.
                           ----------------------------
                           !    Initial Parameters    !
                           ! (Angstroms and Degrees)  !
 --------------------------                            --------------------------
 ! Name  Definition              Value          Derivative Info.                !
 --------------------------------------------------------------------------------
 ! R1    R(1,2)                  1.2267         calculate D2E/DX2 analytically  !
 ! R2    R(2,3)                  1.3648         calculate D2E/DX2 analytically  !
 ! R3    R(2,14)                 1.516          calculate D2E/DX2 analytically  !
 ! R4    R(3,4)                  1.446          calculate D2E/DX2 analytically  !
 ! R5    R(3,17)                 1.0086         calculate D2E/DX2 analytically  !
 ! R6    R(4,5)                  1.5157         calculate D2E/DX2 analytically  !
 ! R7    R(4,8)                  1.5361         calculate D2E/DX2 analytically  !
 ! R8    R(4,18)                 1.0894         calculate D2E/DX2 analytically  !
 ! R9    R(5,6)                  1.3487         calculate D2E/DX2 analytically  !
 ! R10   R(5,7)                  1.2032         calculate D2E/DX2 analytically  !
 ! R11   R(6,19)                 0.9651         calculate D2E/DX2 analytically  !
 ! R12   R(8,9)                  1.5001         calculate D2E/DX2 analytically  !
 ! R13   R(8,20)                 1.0921         calculate D2E/DX2 analytically  !
 ! R14   R(8,21)                 1.0915         calculate D2E/DX2 analytically  !
 ! R15   R(9,10)                 1.3649         calculate D2E/DX2 analytically  !
 ! R16   R(9,13)                 1.3812         calculate D2E/DX2 analytically  !
 ! R17   R(10,11)                1.3829         calculate D2E/DX2 analytically  !
 ! R18   R(10,22)                1.08           calculate D2E/DX2 analytically  !
 ! R19   R(11,12)                1.3109         calculate D2E/DX2 analytically  !
 ! R20   R(12,13)                1.3585         calculate D2E/DX2 analytically  !
 ! R21   R(12,23)                1.0763         calculate D2E/DX2 analytically  !
 ! R22   R(13,24)                1.0058         calculate D2E/DX2 analytically  !
 ! R23   R(14,15)                1.521          calculate D2E/DX2 analytically  !
 ! R24   R(14,25)                1.0929         calculate D2E/DX2 analytically  !
 ! R25   R(14,26)                1.0929         calculate D2E/DX2 analytically  !
 ! R26   R(15,16)                1.4653         calculate D2E/DX2 analytically  !
 ! R27   R(15,27)                1.0971         calculate D2E/DX2 analytically  !
 ! R28   R(15,28)                1.0919         calculate D2E/DX2 analytically  !
 ! R29   R(16,29)                1.0137         calculate D2E/DX2 analytically  !
 ! R30   R(16,30)                1.013          calculate D2E/DX2 analytically  !
 ! A1    A(1,2,3)              122.4707         calculate D2E/DX2 analytically  !
 ! A2    A(1,2,14)             122.7738         calculate D2E/DX2 analytically  !
 ! A3    A(3,2,14)             114.6511         calculate D2E/DX2 analytically  !
 ! A4    A(2,3,4)              121.4169         calculate D2E/DX2 analytically  !
 ! A5    A(2,3,17)             117.6301         calculate D2E/DX2 analytically  !
 ! A6    A(4,3,17)             115.3752         calculate D2E/DX2 analytically  !
 ! A7    A(3,4,5)              109.2586         calculate D2E/DX2 analytically  !
 ! A8    A(3,4,8)              112.7937         calculate D2E/DX2 analytically  !
 ! A9    A(3,4,18)             107.659          calculate D2E/DX2 analytically  !
 ! A10   A(5,4,8)              108.7149         calculate D2E/DX2 analytically  !
 ! A11   A(5,4,18)             109.2572         calculate D2E/DX2 analytically  !
 ! A12   A(8,4,18)             109.1064         calculate D2E/DX2 analytically  !
 ! A13   A(4,5,6)              111.4804         calculate D2E/DX2 analytically  !
 ! A14   A(4,5,7)              125.3192         calculate D2E/DX2 analytically  !
 ! A15   A(6,5,7)              123.1704         calculate D2E/DX2 analytically  !
 ! A16   A(5,6,19)             105.9801         calculate D2E/DX2 analytically  !
 ! A17   A(4,8,9)              112.7792         calculate D2E/DX2 analytically  !
 ! A18   A(4,8,20)             108.5143         calculate D2E/DX2 analytically  !
 ! A19   A(4,8,21)             109.8992         calculate D2E/DX2 analytically  !
 ! A20   A(9,8,20)             109.065          calculate D2E/DX2 analytically  !
 ! A21   A(9,8,21)             109.8033         calculate D2E/DX2 analytically  !
 ! A22   A(20,8,21)            106.5766         calculate D2E/DX2 analytically  !
 ! A23   A(8,9,10)             133.1654         calculate D2E/DX2 analytically  !
 ! A24   A(8,9,13)             122.2672         calculate D2E/DX2 analytically  !
 ! A25   A(10,9,13)            104.5614         calculate D2E/DX2 analytically  !
 ! A26   A(9,10,11)            111.0225         calculate D2E/DX2 analytically  !
 ! A27   A(9,10,22)            126.2145         calculate D2E/DX2 analytically  !
 ! A28   A(11,10,22)           122.7606         calculate D2E/DX2 analytically  !
 ! A29   A(10,11,12)           105.0368         calculate D2E/DX2 analytically  !
 ! A30   A(11,12,13)           111.6547         calculate D2E/DX2 analytically  !
 ! A31   A(11,12,23)           126.0151         calculate D2E/DX2 analytically  !
 ! A32   A(13,12,23)           122.3301         calculate D2E/DX2 analytically  !
 ! A33   A(9,13,12)            107.7245         calculate D2E/DX2 analytically  !
 ! A34   A(9,13,24)            125.7077         calculate D2E/DX2 analytically  !
 ! A35   A(12,13,24)           126.5676         calculate D2E/DX2 analytically  !
 ! A36   A(2,14,15)            112.635          calculate D2E/DX2 analytically  !
 ! A37   A(2,14,25)            109.7065         calculate D2E/DX2 analytically  !
 ! A38   A(2,14,26)            108.2383         calculate D2E/DX2 analytically  !
 ! A39   A(15,14,25)           110.3638         calculate D2E/DX2 analytically  !
 ! A40   A(15,14,26)           108.8048         calculate D2E/DX2 analytically  !
 ! A41   A(25,14,26)           106.9003         calculate D2E/DX2 analytically  !
 ! A42   A(14,15,16)           109.1295         calculate D2E/DX2 analytically  !
 ! A43   A(14,15,27)           109.2413         calculate D2E/DX2 analytically  !
 ! A44   A(14,15,28)           108.6012         calculate D2E/DX2 analytically  !
 ! A45   A(16,15,27)           113.7074         calculate D2E/DX2 analytically  !
 ! A46   A(16,15,28)           108.9045         calculate D2E/DX2 analytically  !
 ! A47   A(27,15,28)           107.1327         calculate D2E/DX2 analytically  !
 ! A48   A(15,16,29)           109.8205         calculate D2E/DX2 analytically  !
 ! A49   A(15,16,30)           109.9805         calculate D2E/DX2 analytically  !
 ! A50   A(29,16,30)           105.8294         calculate D2E/DX2 analytically  !
 ! D1    D(1,2,3,4)            -14.8681         calculate D2E/DX2 analytically  !
 ! D2    D(1,2,3,17)          -167.3086         calculate D2E/DX2 analytically  !
 ! D3    D(14,2,3,4)           168.753          calculate D2E/DX2 analytically  !
 ! D4    D(14,2,3,17)           16.3125         calculate D2E/DX2 analytically  !
 ! D5    D(1,2,14,15)           27.4052         calculate D2E/DX2 analytically  !
 ! D6    D(1,2,14,25)          150.7604         calculate D2E/DX2 analytically  !
 ! D7    D(1,2,14,26)          -92.9343         calculate D2E/DX2 analytically  !
 ! D8    D(3,2,14,15)         -156.2282         calculate D2E/DX2 analytically  !
 ! D9    D(3,2,14,25)          -32.8731         calculate D2E/DX2 analytically  !
 ! D10   D(3,2,14,26)           83.4323         calculate D2E/DX2 analytically  !
 ! D11   D(2,3,4,5)           -109.934          calculate D2E/DX2 analytically  !
 ! D12   D(2,3,4,8)            129.0356         calculate D2E/DX2 analytically  !
 ! D13   D(2,3,4,18)             8.6119         calculate D2E/DX2 analytically  !
 ! D14   D(17,3,4,5)            43.0861         calculate D2E/DX2 analytically  !
 ! D15   D(17,3,4,8)           -77.9442         calculate D2E/DX2 analytically  !
 ! D16   D(17,3,4,18)          161.6321         calculate D2E/DX2 analytically  !
 ! D17   D(3,4,5,6)            164.7753         calculate D2E/DX2 analytically  !
 ! D18   D(3,4,5,7)            -17.1721         calculate D2E/DX2 analytically  !
 ! D19   D(8,4,5,6)            -71.7445         calculate D2E/DX2 analytically  !
 ! D20   D(8,4,5,7)            106.3081         calculate D2E/DX2 analytically  !
 ! D21   D(18,4,5,6)            47.2307         calculate D2E/DX2 analytically  !
 ! D22   D(18,4,5,7)          -134.7167         calculate D2E/DX2 analytically  !
 ! D23   D(3,4,8,9)            -65.9015         calculate D2E/DX2 analytically  !
 ! D24   D(3,4,8,20)           173.1523         calculate D2E/DX2 analytically  !
 ! D25   D(3,4,8,21)            56.9725         calculate D2E/DX2 analytically  !
 ! D26   D(5,4,8,9)            172.7591         calculate D2E/DX2 analytically  !
 ! D27   D(5,4,8,20)            51.8129         calculate D2E/DX2 analytically  !
 ! D28   D(5,4,8,21)           -64.3669         calculate D2E/DX2 analytically  !
 ! D29   D(18,4,8,9)            53.6893         calculate D2E/DX2 analytically  !
 ! D30   D(18,4,8,20)          -67.2569         calculate D2E/DX2 analytically  !
 ! D31   D(18,4,8,21)          176.5633         calculate D2E/DX2 analytically  !
 ! D32   D(4,5,6,19)           178.4285         calculate D2E/DX2 analytically  !
 ! D33   D(7,5,6,19)             0.3268         calculate D2E/DX2 analytically  !
 ! D34   D(4,8,9,10)            -3.9207         calculate D2E/DX2 analytically  !
 ! D35   D(4,8,9,13)           177.1137         calculate D2E/DX2 analytically  !
 ! D36   D(20,8,9,10)          116.711          calculate D2E/DX2 analytically  !
 ! D37   D(20,8,9,13)          -62.2546         calculate D2E/DX2 analytically  !
 ! D38   D(21,8,9,10)         -126.8482         calculate D2E/DX2 analytically  !
 ! D39   D(21,8,9,13)           54.1862         calculate D2E/DX2 analytically  !
 ! D40   D(8,9,10,11)         -179.1307         calculate D2E/DX2 analytically  !
 ! D41   D(8,9,10,22)            1.423          calculate D2E/DX2 analytically  !
 ! D42   D(13,9,10,11)          -0.0344         calculate D2E/DX2 analytically  !
 ! D43   D(13,9,10,22)        -179.4807         calculate D2E/DX2 analytically  !
 ! D44   D(8,9,13,12)          179.2645         calculate D2E/DX2 analytically  !
 ! D45   D(8,9,13,24)           -0.5735         calculate D2E/DX2 analytically  !
 ! D46   D(10,9,13,12)           0.044          calculate D2E/DX2 analytically  !
 ! D47   D(10,9,13,24)        -179.794          calculate D2E/DX2 analytically  !
 ! D48   D(9,10,11,12)           0.0111         calculate D2E/DX2 analytically  !
 ! D49   D(22,10,11,12)        179.4798         calculate D2E/DX2 analytically  !
 ! D50   D(10,11,12,13)          0.0182         calculate D2E/DX2 analytically  !
 ! D51   D(10,11,12,23)        179.9527         calculate D2E/DX2 analytically  !
 ! D52   D(11,12,13,9)          -0.0403         calculate D2E/DX2 analytically  !
 ! D53   D(11,12,13,24)        179.7959         calculate D2E/DX2 analytically  !
 ! D54   D(23,12,13,9)        -179.9776         calculate D2E/DX2 analytically  !
 ! D55   D(23,12,13,24)         -0.1414         calculate D2E/DX2 analytically  !
 ! D56   D(2,14,15,16)        -179.0201         calculate D2E/DX2 analytically  !
 ! D57   D(2,14,15,27)          56.1032         calculate D2E/DX2 analytically  !
 ! D58   D(2,14,15,28)         -60.4282         calculate D2E/DX2 analytically  !
 ! D59   D(25,14,15,16)         57.9915         calculate D2E/DX2 analytically  !
 ! D60   D(25,14,15,27)        -66.8853         calculate D2E/DX2 analytically  !
 ! D61   D(25,14,15,28)        176.5834         calculate D2E/DX2 analytically  !
 ! D62   D(26,14,15,16)        -59.007          calculate D2E/DX2 analytically  !
 ! D63   D(26,14,15,27)        176.1163         calculate D2E/DX2 analytically  !
 ! D64   D(26,14,15,28)         59.5849         calculate D2E/DX2 analytically  !
 ! D65   D(14,15,16,29)        -70.2728         calculate D2E/DX2 analytically  !
 ! D66   D(14,15,16,30)        173.651          calculate D2E/DX2 analytically  !
 ! D67   D(27,15,16,29)         51.9538         calculate D2E/DX2 analytically  !
 ! D68   D(27,15,16,30)        -64.1224         calculate D2E/DX2 analytically  !
 ! D69   D(28,15,16,29)        171.325          calculate D2E/DX2 analytically  !
 ! D70   D(28,15,16,30)         55.2488         calculate D2E/DX2 analytically  !
 --------------------------------------------------------------------------------
 Trust Radius=3.00D-01 FncErr=1.00D-07 GrdErr=1.00D-06
 Number of steps in this run=    160 maximum allowed number of steps=    180.
 GradGradGradGradGradGradGradGradGradGradGradGradGradGradGradGradGradGrad

                          Input orientation:                          
 ---------------------------------------------------------------------
 Center     Atomic      Atomic             Coordinates (Angstroms)
 Number     Number       Type             X           Y           Z
 ---------------------------------------------------------------------
      1          8           0        0.785871    0.735223    1.529867
      2          6           0        1.139240    0.162661    0.504155
      3          7           0        0.303118   -0.647601   -0.207881
      4          6           0       -0.935956   -1.134511    0.356493
      5          6           0       -0.817066   -2.623497    0.613794
      6          8           0       -1.796797   -3.063489    1.429557
      7          8           0        0.014438   -3.348268    0.133141
      8          6           0       -2.144474   -0.887478   -0.558942
      9          6           0       -2.452097    0.570279   -0.734056
     10          6           0       -1.922975    1.707460   -0.195764
     11          7           0       -2.575751    2.830835   -0.669422
     12          6           0       -3.491909    2.372307   -1.487278
     13          7           0       -3.462438    1.016238   -1.563554
     14          6           0        2.506147    0.365153   -0.119418
     15          6           0        3.563763    0.754017    0.902119
     16          7           0        4.843498    0.952401    0.216596
     17          1           0        0.712914   -1.232417   -0.920148
     18          1           0       -1.093734   -0.617860    1.302577
     19          1           0       -1.661238   -4.014865    1.518489
     20          1           0       -3.014626   -1.386288   -0.126735
     21          1           0       -1.973031   -1.348886   -1.533202
     22          1           0       -1.099736    1.760297    0.501259
     23          1           0       -4.196751    2.964992   -2.044427
     24          1           0       -4.065659    0.434098   -2.119228
     25          1           0        2.806372   -0.541031   -0.651533
     26          1           0        2.427514    1.160219   -0.865199
     27          1           0        3.599871   -0.006139    1.692423
     28          1           0        3.265084    1.693065    1.372450
     29          1           0        5.204337    0.060503   -0.102565
     30          1           0        5.532093    1.312491    0.866431
 ---------------------------------------------------------------------
                    Distance matrix (angstroms):
                    1          2          3          4          5
     1  O    0.000000
     2  C    1.226696   0.000000
     3  N    2.272667   1.364778   0.000000
     4  C    2.799535   2.451713   1.445995   0.000000
     5  C    3.832700   3.406146   2.415394   1.515724   0.000000
     6  O    4.594611   4.459230   3.595464   2.369277   1.348679
     7  O    4.384158   3.705327   2.737377   2.419474   1.203212
     8  C    3.947557   3.607734   2.484248   1.536086   2.480138
     9  C    3.954364   3.820605   3.057990   2.528693   3.832784
    10  C    3.355726   3.500493   3.240671   3.058757   4.542643
    11  N    4.530890   4.722033   4.538768   4.411961   5.872764
    12  C    5.484762   5.504170   5.015868   4.714887   6.043786
    13  N    5.262733   5.116587   4.334238   3.833460   4.998651
    14  C    2.411730   1.516008   2.426280   3.784648   4.529169
    15  C    2.848000   2.527131   3.718661   4.910368   5.539169
    16  N    4.270384   3.798408   4.832725   6.146288   6.707219
    17  H    3.143167   2.038782   1.008597   2.087623   2.574669
    18  H    2.327103   2.496571   2.057562   1.089449   2.138585
    19  H    5.343389   5.130621   4.263510   3.189468   1.861989
    20  H    4.657136   4.477931   3.399951   2.148900   2.628372
    21  H    4.619246   4.015199   2.725643   2.166201   2.751450
    22  H    2.379984   2.750539   2.875560   2.903049   4.394339
    23  H    6.524873   6.543786   6.055786   5.762215   7.051214
    24  H    6.078150   5.834962   4.889737   4.287746   5.231792
    25  H    3.235700   2.147120   2.544497   3.920887   4.366580
    26  H    2.934613   2.128356   2.865892   4.251029   5.199156
    27  H    2.914556   2.737732   3.858913   4.861240   5.246268
    28  H    2.662468   2.759580   4.092604   5.164890   5.989341
    29  H    4.758458   4.111393   4.953227   6.272319   6.631313
    30  H    4.827008   4.555273   5.686677   6.934228   7.474466
                    6          7          8          9         10
     6  O    0.000000
     7  O    2.245521   0.000000
     8  C    2.968170   3.345947   0.000000
     9  C    4.279593   4.710715   1.500118   0.000000
    10  C    5.041780   5.424217   2.629575   1.364884   0.000000
    11  N    6.305200   6.747925   3.744872   2.264858   1.382910
    12  C    6.397595   6.902551   3.647409   2.212658   2.138126
    13  N    5.327030   5.832354   2.523967   1.381208   2.172230
    14  C    5.715789   4.479050   4.836377   5.000405   4.628687
    15  C    6.602057   5.478848   6.116631   6.237099   5.676152
    16  N    7.854436   6.467034   7.267624   7.367188   6.820946
    17  H    3.895201   2.464571   2.900710   3.647141   4.014414
    18  H    2.547847   3.170292   2.154531   2.721158   2.887868
    19  H    0.965091   2.274078   3.785470   5.169426   5.979312
    20  H    2.591941   3.618305   1.092144   2.124484   3.281424
    21  H    3.427661   3.274791   1.091546   2.133386   3.336540
    22  H    4.961506   5.241595   3.037469   2.184268   1.079979
    23  H    7.360091   7.895135   4.610861   3.239682   3.188887
    24  H    5.474918   6.002220   2.805709   2.130922   3.148374
    25  H    5.646494   4.036234   4.963817   5.375251   5.256440
    26  H    6.399252   5.210189   5.018957   4.916892   4.435580
    27  H    6.208101   5.143589   6.232407   6.545714   6.083050
    28  H    6.946273   6.125163   6.297047   6.195496   5.419913
    29  H    7.818095   6.213721   7.423744   7.699327   7.315718
    30  H    8.554469   7.259814   8.111796   8.176780   7.540710
                   11         12         13         14         15
    11  N    0.000000
    12  C    1.310909   0.000000
    13  N    2.208721   1.358532   0.000000
    14  C    5.675190   6.471197   6.175229   0.000000
    15  C    6.669074   7.623031   7.450893   1.520955   0.000000
    16  N    7.704465   8.625447   8.494797   2.433305   1.465270
    17  H    5.233373   5.567424   4.785811   2.531617   3.923508
    18  H    4.240125   4.740848   4.061496   3.993436   4.871826
    19  H    7.244784   7.292596   6.168898   6.263737   7.100900
    20  H    4.274488   4.025657   2.834980   5.791937   6.993901
    21  H    4.310390   4.019500   2.795187   4.999975   6.403833
    22  H    2.166833   3.170383   3.224816   3.915873   4.787642
    23  H    2.129854   1.076333   2.137311   7.442692   8.590467
    24  H    3.172714   2.117830   1.005751   6.869689   8.212123
    25  H    6.351145   6.989589   6.523408   1.092909   2.159774
    26  H    5.278441   6.074184   5.932956   1.092933   2.139971
    27  H    7.194792   8.127783   7.843650   2.148687   1.097142
    28  H    6.291193   7.368607   7.371416   2.136588   1.091894
    29  H    8.278033   9.104206   8.840866   2.715386   2.044953
    30  H    8.390551   9.385935   9.321706   3.320497   2.046336
                   16         17         18         19         20
    16  N    0.000000
    17  H    4.809089   0.000000
    18  H    6.236649   2.929533   0.000000
    19  H    8.287354   4.396085   3.450843   0.000000
    20  H    8.205940   3.814149   2.514606   3.383465   0.000000
    21  H    7.404240   2.757480   3.057647   4.064169   1.750562
    22  H    6.004644   3.776563   2.509537   5.890886   3.736600
    23  H    9.533564   6.556451   5.802412   8.236601   4.899857
    24  H    9.224846   5.200944   4.652709   6.229566   2.896291
    25  H    2.670930   2.220976   4.362944   6.061028   5.905412
    26  H    2.655268   2.944075   4.501111   7.012942   6.053669
    27  H    2.154871   4.082132   4.749327   6.616601   6.997551
    28  H    2.091883   4.508660   4.934019   7.541249   7.152952
    29  H    1.013682   4.744783   6.488474   8.146936   8.345367
    30  H    1.012973   5.735234   6.915061   8.974961   9.017550
                   21         22         23         24         25
    21  H    0.000000
    22  H    3.816896   0.000000
    23  H    4.880147   4.186085   0.000000
    24  H    2.810970   4.174021   2.535391   0.000000
    25  H    4.926729   4.677897   7.954626   7.094350   0.000000
    26  H    5.109465   3.829985   6.966252   6.652904   1.755972
    27  H    6.577603   5.159988   9.142154   8.572213   2.531774
    28  H    6.718193   4.451420   8.304928   8.216848   3.049280
    29  H    7.453034   6.557075  10.029324   9.494173   2.532478
    30  H    8.316733   6.656954  10.288550  10.089726   3.628955
                   26         27         28         29         30
    26  H    0.000000
    27  H    3.045692   0.000000
    28  H    2.447963   1.761181   0.000000
    29  H    3.082488   2.408471   2.932854   0.000000
    30  H    3.558110   2.480832   2.353768   1.616741   0.000000
 Symmetry turned off by external request.
 Stoichiometry    C9H14N4O3
 Framework group  C1[X(C9H14N4O3)]
 Deg. of freedom    84
 Full point group                 C1      NOp   1
 Rotational constants (GHZ):      0.5777314      0.3337382      0.2304002
 Standard basis: 6-31G(d) (6D, 7F)
   268 basis functions,   504 primitive gaussians,   268 cartesian basis functions
    60 alpha electrons       60 beta electrons
       nuclear repulsion energy      1109.2545423011 Hartrees.
 NAtoms=   30 NActive=   30 NUniq=   30 SFac= 1.00D+00 NAtFMM=   60 NAOKFM=F Big=F
 Integral buffers will be    131072 words long.
 Raffenetti 2 integral format.
 Two-electron integral symmetry is turned off.
 One-electron integrals computed using PRISM.
 NBasis=   268 RedAO= T EigKep=  1.14D-03  NBF=   268
 NBsUse=   268 1.00D-06 EigRej= -1.00D+00 NBFU=   268
 ExpMin= 1.61D-01 ExpMax= 5.48D+03 ExpMxC= 8.25D+02 IAcc=3 IRadAn=         5 AccDes= 0.00D+00
 Harris functional with IExCor=  402 and IRadAn=       5 diagonalized for initial guess.
 HarFok:  IExCor=  402 AccDes= 0.00D+00 IRadAn=         5 IDoV= 1 UseB2=F ITyADJ=14
 ICtDFT=  3500011 ScaDFX=  1.000000  1.000000  1.000000  1.000000
 FoFCou: FMM=F IPFlag=           0 FMFlag=      100000 FMFlg1=           0
         NFxFlg=           0 DoJE=T BraDBF=F KetDBF=T FulRan=T
         wScrn=  0.000000 ICntrl=     500 IOpCl=  0 I1Cent=   200000004 NGrid=           0
         NMat0=    1 NMatS0=      1 NMatT0=    0 NMatD0=    1 NMtDS0=    0 NMtDT0=    0
 Symmetry not used in FoFCou.
 Requested convergence on RMS density matrix=1.00D-08 within 128 cycles.
 Requested convergence on MAX density matrix=1.00D-06.
 Requested convergence on             energy=1.00D-06.
 No special actions if energy rises.
 Integral accuracy reduced to 1.0D-05 until final iterations.
 Initial convergence to 1.0D-05 achieved.  Increase integral accuracy.
 SCF Done:  E(RB3LYP) =  -796.074077498     A.U. after   14 cycles
            NFock= 14  Conv=0.92D-08     -V/T= 2.0088
 DoSCS=F DFT=T ScalE2(SS,OS)=  1.000000  1.000000
 Range of M.O.s used for correlation:     1   268
 NBasis=   268 NAE=    60 NBE=    60 NFC=     0 NFV=     0
 NROrb=    268 NOA=    60 NOB=    60 NVA=   208 NVB=   208
 Symmetrizing basis deriv contribution to polar:
 IMax=3 JMax=2 DiffMx= 0.00D+00
 G2DrvN: will do    31 centers at a time, making    1 passes.
 Calling FoFCou, ICntrl=  3107 FMM=F I1Cent=   0 AccDes= 0.00D+00.
 End of G2Drv F.D. properties file   721 does not exist.
 End of G2Drv F.D. properties file   722 does not exist.
 End of G2Drv F.D. properties file   788 does not exist.
          IDoAtm=111111111111111111111111111111
          Differentiating once with respect to nuclear coordinates.
          There are    93 degrees of freedom in the 1st order CPHF.  IDoFFX=6 NUNeed=     0.
     87 vectors produced by pass  0 Test12= 1.34D-14 1.08D-09 XBig12= 1.66D-01 9.42D-02.
 AX will form    87 AO Fock derivatives at one time.
     87 vectors produced by pass  1 Test12= 1.34D-14 1.08D-09 XBig12= 2.99D-02 3.94D-02.
     87 vectors produced by pass  2 Test12= 1.34D-14 1.08D-09 XBig12= 2.23D-04 1.98D-03.
     87 vectors produced by pass  3 Test12= 1.34D-14 1.08D-09 XBig12= 8.38D-07 1.19D-04.
     87 vectors produced by pass  4 Test12= 1.34D-14 1.08D-09 XBig12= 1.02D-09 3.60D-06.
     71 vectors produced by pass  5 Test12= 1.34D-14 1.08D-09 XBig12= 8.86D-13 1.10D-07.
     10 vectors produced by pass  6 Test12= 1.34D-14 1.08D-09 XBig12= 6.50D-16 2.34D-09.
 InvSVY:  IOpt=1 It=  1 EMax= 4.44D-16
 Solved reduced A of dimension   516 with    93 vectors.
 End of Minotr F.D. properties file   721 does not exist.
 End of Minotr F.D. properties file   722 does not exist.
 End of Minotr F.D. properties file   788 does not exist.

 **********************************************************************

            Population analysis using the SCF density.

 **********************************************************************

 Alpha  occ. eigenvalues --  -19.21559 -19.16137 -19.11646 -14.38499 -14.36484
 Alpha  occ. eigenvalues --  -14.30966 -14.29960 -10.33786 -10.28915 -10.25125
 Alpha  occ. eigenvalues --  -10.22958 -10.21715 -10.21260 -10.20457 -10.19035
 Alpha  occ. eigenvalues --  -10.18022  -1.13051  -1.04227  -1.03580  -1.00799
 Alpha  occ. eigenvalues --   -0.93609  -0.87997  -0.86146  -0.81318  -0.75966
 Alpha  occ. eigenvalues --   -0.73709  -0.68092  -0.64622  -0.60973  -0.60569
 Alpha  occ. eigenvalues --   -0.59138  -0.57692  -0.54279  -0.51931  -0.50872
 Alpha  occ. eigenvalues --   -0.49941  -0.48376  -0.48123  -0.47277  -0.45172
 Alpha  occ. eigenvalues --   -0.44529  -0.43542  -0.42857  -0.41704  -0.41248
 Alpha  occ. eigenvalues --   -0.40319  -0.39632  -0.39218  -0.38238  -0.37761
 Alpha  occ. eigenvalues --   -0.35432  -0.34384  -0.33994  -0.29903  -0.27023
 Alpha  occ. eigenvalues --   -0.26653  -0.25501  -0.25206  -0.23282  -0.21609
 Alpha virt. eigenvalues --   -0.00823   0.01947   0.03716   0.06193   0.07342
 Alpha virt. eigenvalues --    0.07786   0.08265   0.08764   0.11600   0.13351
 Alpha virt. eigenvalues --    0.14326   0.14569   0.14843   0.16106   0.16878
 Alpha virt. eigenvalues --    0.18635   0.18937   0.19860   0.20746   0.21455
 Alpha virt. eigenvalues --    0.22018   0.23403   0.24066   0.24888   0.26218
 Alpha virt. eigenvalues --    0.28177   0.29689   0.32429   0.34229   0.34912
 Alpha virt. eigenvalues --    0.36600   0.38981   0.42144   0.44743   0.50128
 Alpha virt. eigenvalues --    0.50897   0.52086   0.53368   0.54737   0.55224
 Alpha virt. eigenvalues --    0.56308   0.56696   0.57708   0.59199   0.59589
 Alpha virt. eigenvalues --    0.62444   0.63163   0.64030   0.64645   0.65196
 Alpha virt. eigenvalues --    0.66181   0.66851   0.67292   0.68292   0.70019
 Alpha virt. eigenvalues --    0.70330   0.73640   0.73908   0.74863   0.76406
 Alpha virt. eigenvalues --    0.77227   0.79370   0.79993   0.80896   0.82081
 Alpha virt. eigenvalues --    0.82474   0.82959   0.83495   0.84749   0.85918
 Alpha virt. eigenvalues --    0.86286   0.86730   0.88166   0.88511   0.89003
 Alpha virt. eigenvalues --    0.89830   0.91406   0.91440   0.92411   0.93622
 Alpha virt. eigenvalues --    0.93896   0.94614   0.95774   0.96614   0.97870
 Alpha virt. eigenvalues --    0.99848   1.01549   1.02914   1.03989   1.06542
 Alpha virt. eigenvalues --    1.07522   1.09487   1.10623   1.12574   1.14760
 Alpha virt. eigenvalues --    1.17906   1.21330   1.22285   1.25290   1.26421
 Alpha virt. eigenvalues --    1.30495   1.33559   1.35109   1.35836   1.36518
 Alpha virt. eigenvalues --    1.38157   1.38740   1.42301   1.44627   1.45710
 Alpha virt. eigenvalues --    1.47706   1.49403   1.50728   1.53454   1.55718
 Alpha virt. eigenvalues --    1.57428   1.60082   1.63993   1.64736   1.66229
 Alpha virt. eigenvalues --    1.66915   1.70427   1.73525   1.75441   1.77541
 Alpha virt. eigenvalues --    1.78098   1.78594   1.79595   1.81864   1.83015
 Alpha virt. eigenvalues --    1.85238   1.85552   1.86451   1.88407   1.89443
 Alpha virt. eigenvalues --    1.90181   1.93762   1.94509   1.96455   1.97535
 Alpha virt. eigenvalues --    1.99207   2.00076   2.01961   2.04199   2.07254
 Alpha virt. eigenvalues --    2.09082   2.10151   2.11920   2.12450   2.14459
 Alpha virt. eigenvalues --    2.16963   2.18918   2.19693   2.21536   2.24388
 Alpha virt. eigenvalues --    2.28157   2.29680   2.30791   2.34772   2.35536
 Alpha virt. eigenvalues --    2.35653   2.39506   2.41272   2.42117   2.42715
 Alpha virt. eigenvalues --    2.44836   2.46121   2.49285   2.49824   2.52502
 Alpha virt. eigenvalues --    2.54063   2.59617   2.61259   2.62820   2.64282
 Alpha virt. eigenvalues --    2.65409   2.67802   2.69931   2.73543   2.74611
 Alpha virt. eigenvalues --    2.76182   2.79135   2.85788   2.88939   2.93466
 Alpha virt. eigenvalues --    2.97729   3.01419   3.03477   3.07099   3.11538
 Alpha virt. eigenvalues --    3.16055   3.16619   3.78436   3.82326   3.93547
 Alpha virt. eigenvalues --    4.02875   4.06509   4.09493   4.13369   4.18447
 Alpha virt. eigenvalues --    4.22777   4.25852   4.31241   4.32877   4.43522
 Alpha virt. eigenvalues --    4.50129   4.55625   4.68748
          Condensed to atoms (all electrons):
               1          2          3          4          5          6
     1  O    8.116147   0.532902  -0.095187  -0.004188   0.000209  -0.000004
     2  C    0.532902   4.361632   0.271311  -0.021795   0.002007   0.000026
     3  N   -0.095187   0.271311   7.117155   0.261383  -0.046925   0.002487
     4  C   -0.004188  -0.021795   0.261383   5.130199   0.298843  -0.098984
     5  C    0.000209   0.002007  -0.046925   0.298843   4.375261   0.275769
     6  O   -0.000004   0.000026   0.002487  -0.098984   0.275769   8.237491
     7  O    0.000000   0.001409  -0.007995  -0.080711   0.592068  -0.087598
     8  C    0.000599   0.002027  -0.053267   0.336449  -0.039598   0.001821
     9  C   -0.000858  -0.000019  -0.002836  -0.027938   0.002003   0.000044
    10  C   -0.008971   0.001868   0.003233  -0.003689   0.000327   0.000002
    11  N    0.000052   0.000004  -0.000010  -0.000141  -0.000001   0.000000
    12  C   -0.000003  -0.000006   0.000038  -0.000059   0.000002   0.000000
    13  N   -0.000001  -0.000013  -0.000140   0.002598  -0.000100   0.000000
    14  C   -0.081637   0.305741  -0.112760   0.007593  -0.000317   0.000000
    15  C    0.002678  -0.021791   0.002961  -0.000134   0.000010   0.000000
    16  N    0.000225   0.003402  -0.000032   0.000000   0.000000   0.000000
    17  H    0.003172  -0.016070   0.292512  -0.037572  -0.003082   0.000331
    18  H    0.023479  -0.001388  -0.049624   0.355900  -0.023630   0.003002
    19  H    0.000001  -0.000007  -0.000299   0.010787  -0.006166   0.218362
    20  H   -0.000005   0.000024   0.004327  -0.034516  -0.000940   0.006109
    21  H   -0.000011  -0.000168  -0.003980  -0.028163  -0.002748   0.000059
    22  H    0.024297   0.001723  -0.007196   0.001883  -0.000033   0.000001
    23  H    0.000000   0.000000   0.000000   0.000002   0.000000   0.000000
    24  H    0.000000   0.000000   0.000000  -0.000064  -0.000002   0.000000
    25  H    0.002857  -0.030732   0.002758  -0.000256   0.000020   0.000000
    26  H   -0.001042  -0.017639  -0.000829  -0.000148  -0.000004   0.000000
    27  H    0.000725   0.006020   0.000091   0.000009   0.000000   0.000000
    28  H    0.008357  -0.004740   0.000347   0.000000   0.000000   0.000000
    29  H    0.000001  -0.000277   0.000000   0.000000   0.000000   0.000000
    30  H    0.000007  -0.000162   0.000002   0.000000   0.000000   0.000000
               7          8          9         10         11         12
     1  O    0.000000   0.000599  -0.000858  -0.008971   0.000052  -0.000003
     2  C    0.001409   0.002027  -0.000019   0.001868   0.000004  -0.000006
     3  N   -0.007995  -0.053267  -0.002836   0.003233  -0.000010   0.000038
     4  C   -0.080711   0.336449  -0.027938  -0.003689  -0.000141  -0.000059
     5  C    0.592068  -0.039598   0.002003   0.000327  -0.000001   0.000002
     6  O   -0.087598   0.001821   0.000044   0.000002   0.000000   0.000000
     7  O    8.016137  -0.002395  -0.000063  -0.000001   0.000000   0.000000
     8  C   -0.002395   5.231933   0.336106  -0.068759   0.008391   0.006910
     9  C   -0.000063   0.336106   4.720056   0.595868  -0.043154  -0.086905
    10  C   -0.000001  -0.068759   0.595868   4.975357   0.411877  -0.124783
    11  N    0.000000   0.008391  -0.043154   0.411877   6.673196   0.540919
    12  C    0.000000   0.006910  -0.086905  -0.124783   0.540919   4.743275
    13  N    0.000000  -0.063328   0.327121  -0.066032  -0.085281   0.347500
    14  C   -0.000145  -0.000255  -0.000041  -0.000266   0.000001   0.000000
    15  C    0.000001   0.000000   0.000000   0.000007   0.000000   0.000000
    16  N    0.000000   0.000000   0.000000   0.000000   0.000000   0.000000
    17  H    0.016222  -0.000042  -0.000252   0.000080   0.000002  -0.000001
    18  H    0.001748  -0.034552  -0.004423   0.002049  -0.000009  -0.000027
    19  H    0.010823  -0.000326   0.000014   0.000000   0.000000   0.000000
    20  H    0.000119   0.354972  -0.030897   0.000372  -0.000096   0.000208
    21  H    0.001242   0.343605  -0.032407   0.001109  -0.000124   0.000169
    22  H   -0.000001  -0.002504  -0.055559   0.361180  -0.037265   0.006612
    23  H    0.000000  -0.000121   0.003017   0.007246  -0.038587   0.382103
    24  H    0.000000  -0.002432  -0.030330   0.009002   0.005484  -0.024440
    25  H    0.000041  -0.000007   0.000001   0.000000   0.000000   0.000000
    26  H    0.000000   0.000025   0.000017   0.000139  -0.000001   0.000000
    27  H    0.000000   0.000000   0.000000   0.000000   0.000000   0.000000
    28  H    0.000000   0.000000   0.000000  -0.000001   0.000000   0.000000
    29  H    0.000000   0.000000   0.000000   0.000000   0.000000   0.000000
    30  H    0.000000   0.000000   0.000000   0.000000   0.000000   0.000000
              13         14         15         16         17         18
     1  O   -0.000001  -0.081637   0.002678   0.000225   0.003172   0.023479
     2  C   -0.000013   0.305741  -0.021791   0.003402  -0.016070  -0.001388
     3  N   -0.000140  -0.112760   0.002961  -0.000032   0.292512  -0.049624
     4  C    0.002598   0.007593  -0.000134   0.000000  -0.037572   0.355900
     5  C   -0.000100  -0.000317   0.000010   0.000000  -0.003082  -0.023630
     6  O    0.000000   0.000000   0.000000   0.000000   0.000331   0.003002
     7  O    0.000000  -0.000145   0.000001   0.000000   0.016222   0.001748
     8  C   -0.063328  -0.000255   0.000000   0.000000  -0.000042  -0.034552
     9  C    0.327121  -0.000041   0.000000   0.000000  -0.000252  -0.004423
    10  C   -0.066032  -0.000266   0.000007   0.000000   0.000080   0.002049
    11  N   -0.085281   0.000001   0.000000   0.000000   0.000002  -0.000009
    12  C    0.347500   0.000000   0.000000   0.000000  -0.000001  -0.000027
    13  N    6.908320   0.000000   0.000000   0.000000   0.000001   0.000080
    14  C    0.000000   5.338345   0.349485  -0.057654  -0.000314   0.001409
    15  C    0.000000   0.349485   4.869093   0.304123  -0.000154  -0.000009
    16  N    0.000000  -0.057654   0.304123   6.934684  -0.000012   0.000000
    17  H    0.000001  -0.000314  -0.000154  -0.000012   0.400068   0.004962
    18  H    0.000080   0.001409  -0.000009   0.000000   0.004962   0.499296
    19  H    0.000000   0.000000   0.000000   0.000000  -0.000036  -0.000409
    20  H   -0.001878   0.000004   0.000000   0.000000  -0.000139  -0.002906
    21  H   -0.002015  -0.000002   0.000000   0.000000   0.002600   0.005401
    22  H    0.004857   0.000565  -0.000026   0.000000   0.000019   0.000552
    23  H   -0.059955   0.000000   0.000000   0.000000   0.000000   0.000000
    24  H    0.302283   0.000000   0.000000   0.000000   0.000000   0.000003
    25  H    0.000000   0.349293  -0.039023  -0.002453   0.004212  -0.000081
    26  H    0.000000   0.349775  -0.026654   0.005626   0.000134  -0.000024
    27  H    0.000000  -0.063361   0.383202  -0.048659   0.000003  -0.000005
    28  H    0.000000  -0.030060   0.381285  -0.037766  -0.000004  -0.000008
    29  H    0.000000  -0.004837  -0.034544   0.307580   0.000001   0.000000
    30  H    0.000000   0.006270  -0.034188   0.312594   0.000000   0.000000
              19         20         21         22         23         24
     1  O    0.000001  -0.000005  -0.000011   0.024297   0.000000   0.000000
     2  C   -0.000007   0.000024  -0.000168   0.001723   0.000000   0.000000
     3  N   -0.000299   0.004327  -0.003980  -0.007196   0.000000   0.000000
     4  C    0.010787  -0.034516  -0.028163   0.001883   0.000002  -0.000064
     5  C   -0.006166  -0.000940  -0.002748  -0.000033   0.000000  -0.000002
     6  O    0.218362   0.006109   0.000059   0.000001   0.000000   0.000000
     7  O    0.010823   0.000119   0.001242  -0.000001   0.000000   0.000000
     8  C   -0.000326   0.354972   0.343605  -0.002504  -0.000121  -0.002432
     9  C    0.000014  -0.030897  -0.032407  -0.055559   0.003017  -0.030330
    10  C    0.000000   0.000372   0.001109   0.361180   0.007246   0.009002
    11  N    0.000000  -0.000096  -0.000124  -0.037265  -0.038587   0.005484
    12  C    0.000000   0.000208   0.000169   0.006612   0.382103  -0.024440
    13  N    0.000000  -0.001878  -0.002015   0.004857  -0.059955   0.302283
    14  C    0.000000   0.000004  -0.000002   0.000565   0.000000   0.000000
    15  C    0.000000   0.000000   0.000000  -0.000026   0.000000   0.000000
    16  N    0.000000   0.000000   0.000000   0.000000   0.000000   0.000000
    17  H   -0.000036  -0.000139   0.002600   0.000019   0.000000   0.000000
    18  H   -0.000409  -0.002906   0.005401   0.000552   0.000000   0.000003
    19  H    0.352067  -0.000089  -0.000067   0.000000   0.000000   0.000000
    20  H   -0.000089   0.568198  -0.040066  -0.000106   0.000000   0.000893
    21  H   -0.000067  -0.040066   0.602600  -0.000092  -0.000002   0.001307
    22  H    0.000000  -0.000106  -0.000092   0.528651  -0.000135  -0.000095
    23  H    0.000000   0.000000  -0.000002  -0.000135   0.555011   0.000584
    24  H    0.000000   0.000893   0.001307  -0.000095   0.000584   0.413686
    25  H    0.000000   0.000000   0.000000  -0.000001   0.000000   0.000000
    26  H    0.000000   0.000000  -0.000002  -0.000082   0.000000   0.000000
    27  H    0.000000   0.000000   0.000000   0.000000   0.000000   0.000000
    28  H    0.000000   0.000000   0.000000   0.000004   0.000000   0.000000
    29  H    0.000000   0.000000   0.000000   0.000000   0.000000   0.000000
    30  H    0.000000   0.000000   0.000000   0.000000   0.000000   0.000000
              25         26         27         28         29         30
     1  O    0.002857  -0.001042   0.000725   0.008357   0.000001   0.000007
     2  C   -0.030732  -0.017639   0.006020  -0.004740  -0.000277  -0.000162
     3  N    0.002758  -0.000829   0.000091   0.000347   0.000000   0.000002
     4  C   -0.000256  -0.000148   0.000009   0.000000   0.000000   0.000000
     5  C    0.000020  -0.000004   0.000000   0.000000   0.000000   0.000000
     6  O    0.000000   0.000000   0.000000   0.000000   0.000000   0.000000
     7  O    0.000041   0.000000   0.000000   0.000000   0.000000   0.000000
     8  C   -0.000007   0.000025   0.000000   0.000000   0.000000   0.000000
     9  C    0.000001   0.000017   0.000000   0.000000   0.000000   0.000000
    10  C    0.000000   0.000139   0.000000  -0.000001   0.000000   0.000000
    11  N    0.000000  -0.000001   0.000000   0.000000   0.000000   0.000000
    12  C    0.000000   0.000000   0.000000   0.000000   0.000000   0.000000
    13  N    0.000000   0.000000   0.000000   0.000000   0.000000   0.000000
    14  C    0.349293   0.349775  -0.063361  -0.030060  -0.004837   0.006270
    15  C   -0.039023  -0.026654   0.383202   0.381285  -0.034544  -0.034188
    16  N   -0.002453   0.005626  -0.048659  -0.037766   0.307580   0.312594
    17  H    0.004212   0.000134   0.000003  -0.000004   0.000001   0.000000
    18  H   -0.000081  -0.000024  -0.000005  -0.000008   0.000000   0.000000
    19  H    0.000000   0.000000   0.000000   0.000000   0.000000   0.000000
    20  H    0.000000   0.000000   0.000000   0.000000   0.000000   0.000000
    21  H    0.000000  -0.000002   0.000000   0.000000   0.000000   0.000000
    22  H   -0.000001  -0.000082   0.000000   0.000004   0.000000   0.000000
    23  H    0.000000   0.000000   0.000000   0.000000   0.000000   0.000000
    24  H    0.000000   0.000000   0.000000   0.000000   0.000000   0.000000
    25  H    0.605343  -0.032447  -0.005487   0.005656   0.005011  -0.000034
    26  H   -0.032447   0.529596   0.006362  -0.006544  -0.000738  -0.000068
    27  H   -0.005487   0.006362   0.646203  -0.042814  -0.006045  -0.001952
    28  H    0.005656  -0.006544  -0.042814   0.552387   0.006125  -0.004013
    29  H    0.005011  -0.000738  -0.006045   0.006125   0.470026  -0.033865
    30  H   -0.000034  -0.000068  -0.001952  -0.004013  -0.033865   0.454817
 Mulliken charges:
               1
     1  O   -0.523798
     2  C    0.624711
     3  N   -0.577524
     4  C   -0.067286
     5  C    0.577026
     6  O   -0.558919
     7  O   -0.460900
     8  C   -0.355252
     9  C    0.331434
    10  C   -0.097214
    11  N   -0.435257
    12  C    0.208488
    13  N   -0.614015
    14  C   -0.356832
    15  C   -0.136321
    16  N   -0.721659
    17  H    0.333358
    18  H    0.219210
    19  H    0.415344
    20  H    0.176412
    21  H    0.151756
    22  H    0.172752
    23  H    0.150838
    24  H    0.324120
    25  H    0.135329
    26  H    0.194547
    27  H    0.125707
    28  H    0.171790
    29  H    0.291564
    30  H    0.300592
 Sum of Mulliken charges =   0.00000
 Mulliken charges with hydrogens summed into heavy atoms:
               1
     1  O   -0.523798
     2  C    0.624711
     3  N   -0.244167
     4  C    0.151925
     5  C    0.577026
     6  O   -0.143575
     7  O   -0.460900
     8  C   -0.027084
     9  C    0.331434
    10  C    0.075538
    11  N   -0.435257
    12  C    0.359325
    13  N   -0.289896
    14  C   -0.026957
    15  C    0.161176
    16  N   -0.129503
 APT charges:
               1
     1  O   -0.296229
     2  C    0.116881
     3  N   -0.609378
     4  C   -0.408055
     5  C   -0.269530
     6  O   -0.738266
     7  O    0.091980
     8  C   -0.987131
     9  C   -0.125978
    10  C   -0.373389
    11  N   -0.364763
    12  C   -0.305947
    13  N   -0.850930
    14  C   -0.619744
    15  C   -0.536175
    16  N   -1.712979
    17  H    0.559017
    18  H    0.361390
    19  H    1.007287
    20  H    0.579292
    21  H    0.400040
    22  H    0.108729
    23  H    1.051830
    24  H    0.893229
    25  H    0.362602
    26  H    0.384323
    27  H    0.362306
    28  H    0.362341
    29  H    0.575761
    30  H    0.981486
 Sum of APT charges =   0.00000
 APT charges with hydrogens summed into heavy atoms:
               1
     1  O   -0.296229
     2  C    0.116881
     3  N   -0.050361
     4  C   -0.046666
     5  C   -0.269530
     6  O    0.269021
     7  O    0.091980
     8  C   -0.007800
     9  C   -0.125978
    10  C   -0.264660
    11  N   -0.364763
    12  C    0.745882
    13  N    0.042299
    14  C    0.127182
    15  C    0.188472
    16  N   -0.155732
 Electronic spatial extent (au):  <R**2>=           4708.8003
 Charge=              0.0000 electrons
 Dipole moment (field-independent basis, Debye):
    X=             -1.4034    Y=             -5.4892    Z=             -2.1760  Tot=              6.0693
 Quadrupole moment (field-independent basis, Debye-Ang):
   XX=            -71.5883   YY=           -101.1901   ZZ=            -89.6751
   XY=              6.9486   XZ=             12.5631   YZ=             -3.4911
 Traceless Quadrupole moment (field-independent basis, Debye-Ang):
   XX=             15.8962   YY=            -13.7056   ZZ=             -2.1906
   XY=              6.9486   XZ=             12.5631   YZ=             -3.4911
 Octapole moment (field-independent basis, Debye-Ang**2):
  XXX=             79.3316  YYY=            -62.9128  ZZZ=            -16.9616  XYY=             17.7576
  XXY=            -24.7566  XXZ=            -18.1520  XZZ=              6.2701  YZZ=             -8.1214
  YYZ=             22.7213  XYZ=             21.4566
 Hexadecapole moment (field-independent basis, Debye-Ang**3):
 XXXX=          -2972.9237 YYYY=          -1811.2660 ZZZZ=           -544.1925 XXXY=            -39.2586
 XXXZ=             38.6472 YYYX=            246.2463 YYYZ=             92.1770 ZZZX=           -283.2947
 ZZZY=            177.5535 XXYY=           -907.9571 XXZZ=           -580.0598 YYZZ=           -344.7375
 XXYZ=             69.4399 YYXZ=           -106.7025 ZZXY=              1.7337
 N-N= 1.109254542301D+03 E-N=-4.075731105244D+03  KE= 7.891426294167D+02
  Exact polarizability:   0.000   0.000   0.000   0.000   0.000   0.000
 Approx polarizability: 174.364  -0.112 194.321  12.669  17.924 159.354
 Calling FoFJK, ICntrl=    100147 FMM=F ISym2X=0 I1Cent= 0 IOpClX= 0 NMat=1 NMatS=1 NMatT=0.
 -------------------------------------------------------------------
 Center     Atomic                   Forces (Hartrees/Bohr)
 Number     Number              X              Y              Z
 -------------------------------------------------------------------
      1        8           0.000436011   -0.000373799    0.002266205
      2        6           0.002336647    0.005888250    0.002240692
      3        7          -0.003914277   -0.004242827    0.000142504
      4        6           0.000396044    0.001442984   -0.003725874
      5        6          -0.007449475    0.004557856    0.005967511
      6        8          -0.002685338    0.007728880    0.000655036
      7        8           0.010214248   -0.008388301   -0.005909089
      8        6          -0.007279974    0.009653903   -0.000265246
      9        6           0.000531064   -0.006686554   -0.000813985
     10        6           0.002516638    0.006713200    0.002595200
     11        7           0.003114654    0.001459426    0.002833886
     12        6           0.001508102    0.004967718    0.001944888
     13        7          -0.001731941   -0.007990718   -0.002697124
     14        6          -0.001846927    0.000492492    0.000647866
     15        6           0.003292843    0.000783789   -0.001305263
     16        7          -0.002525396    0.004346062   -0.002026377
     17        1           0.001427560   -0.002407087   -0.001897085
     18        1           0.000926912    0.001146649    0.002189403
     19        1           0.000205736   -0.010919741    0.001871177
     20        1          -0.002106504   -0.003852526    0.001975742
     21        1           0.002582256   -0.004049099   -0.004250349
     22        1          -0.000027028    0.003774224    0.001195011
     23        1          -0.002823357    0.002455247   -0.002208936
     24        1          -0.002801165   -0.001761254   -0.002484732
     25        1           0.001722857   -0.002735906   -0.002665785
     26        1           0.000365302    0.001783789   -0.002858970
     27        1          -0.000781038   -0.001963850    0.003883490
     28        1           0.000144255    0.000602277    0.001118825
     29        1           0.001514137   -0.004387425   -0.001624166
     30        1           0.002737157    0.001962339    0.003205544
 -------------------------------------------------------------------
 Cartesian Forces:  Max     0.010919741 RMS     0.003746903
 FormGI is forming the generalized inverse of G from B-inverse, IUseBI=4.

 GradGradGradGradGradGradGradGradGradGradGradGradGradGradGradGradGradGrad
 Berny optimization.
 Internal  Forces:  Max     0.014472210 RMS     0.002955303
 Search for a local minimum.
 Step number   1 out of a maximum of  160
 All quantities printed in internal units (Hartrees-Bohrs-Radians)
 Mixed Optimization -- RFO/linear search
 Second derivative matrix not updated -- analytic derivatives used.
 ITU=  0
     Eigenvalues ---    0.00024   0.00107   0.00188   0.00238   0.00277
     Eigenvalues ---    0.00414   0.00450   0.00620   0.00771   0.00962
     Eigenvalues ---    0.01754   0.02093   0.02218   0.02831   0.03373
     Eigenvalues ---    0.03582   0.04107   0.04221   0.04324   0.04517
     Eigenvalues ---    0.04664   0.04731   0.05182   0.05279   0.05324
     Eigenvalues ---    0.05601   0.05859   0.06182   0.07884   0.08296
     Eigenvalues ---    0.08460   0.10544   0.10989   0.11414   0.12045
     Eigenvalues ---    0.12170   0.12588   0.13835   0.15476   0.15560
     Eigenvalues ---    0.15990   0.17156   0.18230   0.18590   0.19171
     Eigenvalues ---    0.20906   0.21819   0.22347   0.23307   0.23969
     Eigenvalues ---    0.24685   0.24910   0.25068   0.27410   0.30334
     Eigenvalues ---    0.30769   0.32317   0.33692   0.33916   0.34150
     Eigenvalues ---    0.34516   0.34613   0.34792   0.34999   0.35145
     Eigenvalues ---    0.35919   0.37166   0.37851   0.38406   0.38590
     Eigenvalues ---    0.41376   0.42849   0.43793   0.45408   0.45882
     Eigenvalues ---    0.45964   0.47358   0.47710   0.48748   0.49886
     Eigenvalues ---    0.53262   0.59524   0.82790   0.93706
 RFO step:  Lambda=-3.67562996D-03 EMin= 2.37151456D-04
 Linear search not attempted -- first point.
 Iteration  1 RMS(Cart)=  0.06582141 RMS(Int)=  0.00100109
 Iteration  2 RMS(Cart)=  0.00240290 RMS(Int)=  0.00008127
 Iteration  3 RMS(Cart)=  0.00000273 RMS(Int)=  0.00008126
 Iteration  4 RMS(Cart)=  0.00000000 RMS(Int)=  0.00008126
 Variable       Old X    -DE/DX   Delta X   Delta X   Delta X     New X
                                 (Linear)    (Quad)   (Total)
    R1        2.31812   0.00159   0.00000  -0.00001  -0.00001   2.31811
    R2        2.57906   0.00983   0.00000   0.01780   0.01780   2.59686
    R3        2.86484   0.00496   0.00000   0.01321   0.01321   2.87805
    R4        2.73253   0.00368   0.00000   0.00370   0.00370   2.73624
    R5        1.90597   0.00332   0.00000   0.00679   0.00679   1.91276
    R6        2.86430   0.00736   0.00000   0.02149   0.02149   2.88579
    R7        2.90278   0.00718   0.00000   0.02311   0.02311   2.92589
    R8        2.05876   0.00231   0.00000   0.00747   0.00747   2.06623
    R9        2.54863   0.00437   0.00000   0.00349   0.00349   2.55213
   R10        2.27374   0.01447   0.00000   0.01525   0.01525   2.28899
   R11        1.82376   0.01097   0.00000   0.02029   0.02029   1.84405
   R12        2.83481   0.00275   0.00000  -0.00238  -0.00238   2.83244
   R13        2.06385   0.00422   0.00000   0.01207   0.01207   2.07593
   R14        2.06272   0.00591   0.00000   0.01708   0.01708   2.07980
   R15        2.57926   0.01207   0.00000   0.02030   0.02030   2.59956
   R16        2.61010   0.00458   0.00000   0.00974   0.00975   2.61985
   R17        2.61332  -0.00072   0.00000  -0.00412  -0.00413   2.60919
   R18        2.04086   0.00094   0.00000   0.00323   0.00323   2.04410
   R19        2.47726   0.00310   0.00000   0.00285   0.00284   2.48010
   R20        2.56725   0.00883   0.00000   0.01816   0.01816   2.58542
   R21        2.03397   0.00434   0.00000   0.01089   0.01089   2.04486
   R22        1.90059   0.00407   0.00000   0.00786   0.00786   1.90845
   R23        2.87419   0.00557   0.00000   0.01640   0.01640   2.89058
   R24        2.06530   0.00404   0.00000   0.01161   0.01161   2.07691
   R25        2.06534   0.00322   0.00000   0.00909   0.00909   2.07443
   R26        2.76896   0.00198   0.00000   0.00319   0.00319   2.77215
   R27        2.07330   0.00413   0.00000   0.01242   0.01242   2.08572
   R28        2.06338   0.00096   0.00000   0.00296   0.00296   2.06634
   R29        1.91558   0.00491   0.00000   0.01110   0.01110   1.92668
   R30        1.91424   0.00461   0.00000   0.01017   0.01017   1.92442
    A1        2.13752  -0.00075   0.00000  -0.00133  -0.00135   2.13617
    A2        2.14281  -0.00170   0.00000  -0.00339  -0.00341   2.13940
    A3        2.00104   0.00247   0.00000   0.00538   0.00536   2.00640
    A4        2.11912   0.00253   0.00000   0.00840   0.00814   2.12726
    A5        2.05303  -0.00121   0.00000   0.00476   0.00448   2.05751
    A6        2.01368  -0.00097   0.00000   0.00413   0.00385   2.01753
    A7        1.90692  -0.00122   0.00000  -0.00450  -0.00455   1.90237
    A8        1.96862   0.00165   0.00000   0.00842   0.00842   1.97704
    A9        1.87900  -0.00054   0.00000  -0.00922  -0.00927   1.86973
   A10        1.89743   0.00003   0.00000   0.00382   0.00383   1.90126
   A11        1.90690  -0.00006   0.00000  -0.00461  -0.00466   1.90224
   A12        1.90427   0.00010   0.00000   0.00564   0.00566   1.90993
   A13        1.94570   0.00161   0.00000   0.00689   0.00689   1.95259
   A14        2.18723  -0.00126   0.00000  -0.00765  -0.00765   2.17959
   A15        2.14973  -0.00034   0.00000   0.00078   0.00078   2.15051
   A16        1.84970   0.00289   0.00000   0.01051   0.01051   1.86021
   A17        1.96837   0.00629   0.00000   0.01559   0.01562   1.98399
   A18        1.89393  -0.00229   0.00000  -0.01292  -0.01327   1.88066
   A19        1.91810  -0.00432   0.00000  -0.03098  -0.03111   1.88699
   A20        1.90354  -0.00081   0.00000   0.02037   0.02037   1.92391
   A21        1.91643  -0.00003   0.00000   0.01033   0.01046   1.92689
   A22        1.86011   0.00087   0.00000  -0.00328  -0.00381   1.85630
   A23        2.32418   0.00518   0.00000   0.01813   0.01811   2.34229
   A24        2.13396  -0.00429   0.00000  -0.01674  -0.01675   2.11721
   A25        1.82494  -0.00089   0.00000  -0.00152  -0.00151   1.82343
   A26        1.93771   0.00032   0.00000   0.00050   0.00050   1.93820
   A27        2.20286   0.00370   0.00000   0.02344   0.02344   2.22630
   A28        2.14258  -0.00402   0.00000  -0.02393  -0.02392   2.11865
   A29        1.83324   0.00118   0.00000   0.00441   0.00440   1.83763
   A30        1.94874   0.00120   0.00000   0.00104   0.00104   1.94978
   A31        2.19938  -0.00068   0.00000   0.00090   0.00090   2.20028
   A32        2.13506  -0.00052   0.00000  -0.00194  -0.00194   2.13313
   A33        1.88015  -0.00181   0.00000  -0.00443  -0.00442   1.87573
   A34        2.19401   0.00160   0.00000   0.00730   0.00729   2.20130
   A35        2.20902   0.00021   0.00000  -0.00287  -0.00288   2.20614
   A36        1.96585  -0.00126   0.00000  -0.00736  -0.00736   1.95849
   A37        1.91474   0.00114   0.00000   0.01133   0.01133   1.92607
   A38        1.88911   0.00044   0.00000   0.00230   0.00229   1.89140
   A39        1.92621   0.00015   0.00000   0.00384   0.00385   1.93006
   A40        1.89900   0.00025   0.00000  -0.00154  -0.00154   1.89746
   A41        1.86576  -0.00070   0.00000  -0.00888  -0.00889   1.85688
   A42        1.90467   0.00175   0.00000   0.01047   0.01040   1.91507
   A43        1.90662  -0.00058   0.00000  -0.00014  -0.00028   1.90634
   A44        1.89545  -0.00011   0.00000  -0.00430  -0.00428   1.89116
   A45        1.98457   0.00046   0.00000   0.01145   0.01139   1.99596
   A46        1.90074  -0.00117   0.00000  -0.00687  -0.00683   1.89391
   A47        1.86982  -0.00042   0.00000  -0.01171  -0.01170   1.85811
   A48        1.91673  -0.00015   0.00000  -0.00047  -0.00048   1.91625
   A49        1.91952  -0.00065   0.00000  -0.00771  -0.00772   1.91180
   A50        1.84707   0.00044   0.00000   0.00007   0.00006   1.84713
    D1       -0.25950   0.00144   0.00000   0.07000   0.07003  -0.18946
    D2       -2.92009   0.00092   0.00000   0.02894   0.02892  -2.89116
    D3        2.94530   0.00099   0.00000   0.05859   0.05861   3.00390
    D4        0.28471   0.00047   0.00000   0.01753   0.01750   0.30220
    D5        0.47831  -0.00043   0.00000  -0.01310  -0.01310   0.46521
    D6        2.63126  -0.00029   0.00000  -0.00500  -0.00500   2.62627
    D7       -1.62201  -0.00025   0.00000  -0.00814  -0.00813  -1.63014
    D8       -2.72670   0.00005   0.00000  -0.00156  -0.00156  -2.72826
    D9       -0.57374   0.00020   0.00000   0.00655   0.00654  -0.56721
   D10        1.45617   0.00023   0.00000   0.00341   0.00341   1.45958
   D11       -1.91871   0.00027   0.00000  -0.06758  -0.06763  -1.98634
   D12        2.25210  -0.00001   0.00000  -0.07484  -0.07487   2.17723
   D13        0.15031  -0.00078   0.00000  -0.08084  -0.08083   0.06948
   D14        0.75199   0.00069   0.00000  -0.02726  -0.02727   0.72473
   D15       -1.36038   0.00041   0.00000  -0.03452  -0.03451  -1.39489
   D16        2.82101  -0.00037   0.00000  -0.04052  -0.04047   2.78054
   D17        2.87587  -0.00088   0.00000  -0.00601  -0.00600   2.86987
   D18       -0.29971  -0.00086   0.00000  -0.00531  -0.00530  -0.30501
   D19       -1.25218   0.00040   0.00000   0.00398   0.00398  -1.24820
   D20        1.85543   0.00042   0.00000   0.00468   0.00468   1.86011
   D21        0.82433   0.00050   0.00000   0.01036   0.01035   0.83468
   D22       -2.35125   0.00052   0.00000   0.01106   0.01105  -2.34020
   D23       -1.15020  -0.00063   0.00000  -0.00728  -0.00728  -1.15747
   D24        3.02208  -0.00207   0.00000  -0.03406  -0.03388   2.98820
   D25        0.99436   0.00058   0.00000  -0.00572  -0.00590   0.98846
   D26        3.01521  -0.00018   0.00000  -0.00974  -0.00975   3.00547
   D27        0.90431  -0.00162   0.00000  -0.03652  -0.03635   0.86795
   D28       -1.12341   0.00102   0.00000  -0.00818  -0.00837  -1.13179
   D29        0.93706  -0.00019   0.00000  -0.00969  -0.00968   0.92738
   D30       -1.17385  -0.00163   0.00000  -0.03647  -0.03628  -1.21014
   D31        3.08161   0.00102   0.00000  -0.00813  -0.00830   3.07331
   D32        3.11416  -0.00011   0.00000  -0.00295  -0.00295   3.11121
   D33        0.00570  -0.00010   0.00000  -0.00344  -0.00344   0.00226
   D34       -0.06843  -0.00130   0.00000  -0.07106  -0.07114  -0.13957
   D35        3.09122  -0.00105   0.00000  -0.06036  -0.06043   3.03079
   D36        2.03699  -0.00067   0.00000  -0.06314  -0.06308   1.97392
   D37       -1.08655  -0.00042   0.00000  -0.05244  -0.05237  -1.13891
   D38       -2.21392  -0.00010   0.00000  -0.04956  -0.04955  -2.26347
   D39        0.94573   0.00015   0.00000  -0.03886  -0.03884   0.90689
   D40       -3.12642   0.00029   0.00000   0.01035   0.01046  -3.11596
   D41        0.02484  -0.00022   0.00000   0.00939   0.00945   0.03428
   D42       -0.00060   0.00004   0.00000   0.00084   0.00085   0.00025
   D43       -3.13253  -0.00048   0.00000  -0.00012  -0.00016  -3.13269
   D44        3.12876  -0.00014   0.00000  -0.00940  -0.00927   3.11948
   D45       -0.01001  -0.00008   0.00000  -0.00732  -0.00722  -0.01723
   D46        0.00077  -0.00002   0.00000  -0.00157  -0.00158  -0.00081
   D47       -3.13800   0.00003   0.00000   0.00050   0.00047  -3.13752
   D48        0.00019  -0.00004   0.00000   0.00023   0.00024   0.00043
   D49        3.13251   0.00050   0.00000   0.00146   0.00148   3.13399
   D50        0.00032   0.00002   0.00000  -0.00127  -0.00129  -0.00097
   D51        3.14077  -0.00001   0.00000   0.00044   0.00046   3.14123
   D52       -0.00070   0.00000   0.00000   0.00184   0.00187   0.00116
   D53        3.13803  -0.00006   0.00000  -0.00023  -0.00018   3.13785
   D54       -3.14120   0.00003   0.00000   0.00020   0.00019  -3.14101
   D55       -0.00247  -0.00002   0.00000  -0.00187  -0.00185  -0.00432
   D56       -3.12449   0.00105   0.00000   0.04112   0.04112  -3.08337
   D57        0.97919  -0.00031   0.00000   0.01990   0.01990   0.99908
   D58       -1.05467   0.00058   0.00000   0.03636   0.03634  -1.01833
   D59        1.01214   0.00036   0.00000   0.02884   0.02885   1.04099
   D60       -1.16737  -0.00100   0.00000   0.00762   0.00763  -1.15974
   D61        3.08196  -0.00011   0.00000   0.02408   0.02407   3.10603
   D62       -1.02987   0.00097   0.00000   0.03830   0.03832  -0.99155
   D63        3.07381  -0.00038   0.00000   0.01708   0.01709   3.09090
   D64        1.03995   0.00050   0.00000   0.03354   0.03354   1.07349
   D65       -1.22649  -0.00024   0.00000  -0.01709  -0.01714  -1.24363
   D66        3.03078  -0.00031   0.00000  -0.01244  -0.01250   3.01828
   D67        0.90677   0.00062   0.00000  -0.00168  -0.00161   0.90515
   D68       -1.11915   0.00055   0.00000   0.00297   0.00303  -1.11612
   D69        2.99019  -0.00043   0.00000  -0.01397  -0.01397   2.97622
   D70        0.96427  -0.00051   0.00000  -0.00932  -0.00933   0.95495
         Item               Value     Threshold  Converged?
 Maximum Force            0.014472     0.000450     NO 
 RMS     Force            0.002955     0.000300     NO 
 Maximum Displacement     0.255727     0.001800     NO 
 RMS     Displacement     0.066405     0.001200     NO 
 Predicted change in Energy=-1.971405D-03
 GradGradGradGradGradGradGradGradGradGradGradGradGradGradGradGradGradGrad

                          Input orientation:                          
 ---------------------------------------------------------------------
 Center     Atomic      Atomic             Coordinates (Angstroms)
 Number     Number       Type             X           Y           Z
 ---------------------------------------------------------------------
      1          8           0        0.806092    0.700345    1.525815
      2          6           0        1.153021    0.120457    0.502028
      3          7           0        0.316178   -0.726760   -0.183785
      4          6           0       -0.944125   -1.172657    0.372441
      5          6           0       -0.871708   -2.677041    0.624631
      6          8           0       -1.862402   -3.098856    1.439814
      7          8           0       -0.054271   -3.423328    0.132638
      8          6           0       -2.156621   -0.874521   -0.543118
      9          6           0       -2.439226    0.587915   -0.710439
     10          6           0       -1.948970    1.732531   -0.125753
     11          7           0       -2.580888    2.854155   -0.624790
     12          6           0       -3.446088    2.402355   -1.502135
     13          7           0       -3.404915    1.038156   -1.597424
     14          6           0        2.515416    0.338998   -0.142679
     15          6           0        3.572543    0.775437    0.873085
     16          7           0        4.838939    1.046707    0.184161
     17          1           0        0.726216   -1.335355   -0.880929
     18          1           0       -1.074571   -0.657568    1.328053
     19          1           0       -1.760225   -4.065562    1.525150
     20          1           0       -3.031492   -1.384188   -0.116956
     21          1           0       -1.970494   -1.343686   -1.521139
     22          1           0       -1.170730    1.809906    0.621515
     23          1           0       -4.123667    3.001957   -2.095675
     24          1           0       -3.975507    0.461907   -2.199321
     25          1           0        2.838579   -0.569114   -0.670713
     26          1           0        2.415524    1.121961   -0.905586
     27          1           0        3.642540    0.018110    1.672923
     28          1           0        3.231781    1.698751    1.349555
     29          1           0        5.253895    0.171084   -0.132996
     30          1           0        5.505197    1.447816    0.841630
 ---------------------------------------------------------------------
                    Distance matrix (angstroms):
                    1          2          3          4          5
     1  O    0.000000
     2  C    1.226690   0.000000
     3  N    2.280214   1.374199   0.000000
     4  C    2.810991   2.467177   1.447956   0.000000
     5  C    3.877355   3.455511   2.422438   1.527094   0.000000
     6  O    4.643510   4.509567   3.606816   2.385950   1.350528
     7  O    4.436873   3.761969   2.740225   2.432049   1.211282
     8  C    3.941872   3.610546   2.503135   1.548314   2.502742
     9  C    3.942786   3.820057   3.098062   2.550994   3.859983
    10  C    3.373937   3.551794   3.344006   3.114165   4.600858
    11  N    4.553640   4.762868   4.627141   4.459673   5.922540
    12  C    5.490570   5.511401   5.067944   4.749165   6.078720
    13  N    5.253695   5.101436   4.354289   3.850136   5.015711
    14  C    2.415829   1.522999   2.444212   3.810364   4.599768
    15  C    2.843403   2.533923   3.738646   4.944290   5.633178
    16  N    4.264254   3.813787   4.871954   6.197166   6.831677
    17  H    3.153232   2.052833   1.012191   2.094624   2.572974
    18  H    2.328075   2.499961   2.055389   1.093402   2.148075
    19  H    5.412933   5.201589   4.287132   3.219263   1.878400
    20  H    4.665943   4.489683   3.412268   2.154381   2.624136
    21  H    4.601241   3.999158   2.719923   2.160631   2.754904
    22  H    2.440637   2.875472   3.048619   3.001512   4.496901
    23  H    6.535682   6.549393   6.104988   5.799008   7.087054
    24  H    6.066068   5.806520   4.888136   4.298259   5.240350
    25  H    3.250733   2.166088   2.573802   3.970049   4.459541
    26  H    2.946139   2.139696   2.888947   4.264489   5.251654
    27  H    2.921048   2.753030   3.881608   4.913927   5.361081
    28  H    2.629040   2.744186   4.090841   5.161195   6.042491
    29  H    4.776475   4.150058   5.018939   6.362119   6.797707
    30  H    4.807120   4.562745   5.718931   6.977161   7.597792
                    6          7          8          9         10
     6  O    0.000000
     7  O    2.254624   0.000000
     8  C    2.994369   3.372379   0.000000
     9  C    4.306808   4.742242   1.498860   0.000000
    10  C    5.079448   5.499048   2.648401   1.375629   0.000000
    11  N    6.341699   6.809133   3.753625   2.272278   1.380724
    12  C    6.436339   6.936534   3.649707   2.220979   2.141134
    13  N    5.359013   5.841641   2.515578   1.386366   2.183516
    14  C    5.786917   4.564447   4.843645   4.993274   4.676854
    15  C    6.698503   5.597469   6.127912   6.219653   5.692171
    16  N    7.979369   6.627773   7.290947   7.347278   6.829504
    17  H    3.898298   2.448695   2.938917   3.707838   4.139908
    18  H    2.567694   3.181109   2.172367   2.751175   2.930989
    19  H    0.975829   2.293868   3.823297   5.207086   6.031499
    20  H    2.594300   3.617214   1.098533   2.142940   3.299373
    21  H    3.443769   3.275942   1.100584   2.146632   3.377969
    22  H    5.024338   5.373288   3.087799   2.208268   1.081691
    23  H    7.404926   7.925255   4.615928   3.253278   3.197084
    24  H    5.512490   5.992427   2.799535   2.143083   3.165599
    25  H    5.740483   4.142522   5.006154   5.403289   5.339961
    26  H    6.451112   5.276120   5.002182   4.887933   4.475460
    27  H    6.330419   5.280377   6.271993   6.556903   6.118779
    28  H    6.998277   6.206022   6.264089   6.134970   5.386823
    29  H    7.987986   6.416149   7.495147   7.726014   7.370172
    30  H    8.678223   7.425523   8.124913   8.140160   7.522067
                   11         12         13         14         15
    11  N    0.000000
    12  C    1.312413   0.000000
    13  N    2.218758   1.368143   0.000000
    14  C    5.703574   6.453301   6.136401   0.000000
    15  C    6.665539   7.586153   7.406574   1.529631   0.000000
    16  N    7.679526   8.562889   8.434171   2.450804   1.466958
    17  H    5.343645   5.636001   4.818004   2.559239   3.953932
    18  H    4.291245   4.795539   4.106628   4.005521   4.884277
    19  H    7.292339   7.337612   6.205111   6.361045   7.231795
    20  H    4.292376   4.053211   2.863386   5.808461   7.018364
    21  H    4.335654   4.026235   2.781467   4.985475   6.399081
    22  H    2.152273   3.168303   3.242047   4.041687   4.861280
    23  H    2.136707   1.082093   2.149738   7.415050   8.544154
    24  H    3.185429   2.128777   1.009910   6.810063   8.155430
    25  H    6.410266   7.001282   6.513319   1.099055   2.174817
    26  H    5.295609   6.029410   5.862010   1.097741   2.149986
    27  H    7.214825   8.124917   7.835961   2.160970   1.103714
    28  H    6.246609   7.295282   7.291557   2.142165   1.093458
    29  H    8.296056   9.085308   8.824474   2.743639   2.050460
    30  H    8.337442   9.302144   9.246993   3.337234   2.046518
                   16         17         18         19         20
    16  N    0.000000
    17  H    4.870640   0.000000
    18  H    6.259605   2.929477   0.000000
    19  H    8.454733   4.407452   3.481866   0.000000
    20  H    8.242792   3.834894   2.538812   3.391519   0.000000
    21  H    7.415552   2.771675   3.064528   4.090562   1.760423
    22  H    6.073704   3.968427   2.568438   5.973708   3.769617
    23  H    9.452459   6.618856   5.866091   8.285292   4.934212
    24  H    9.149724   5.203317   4.702235   6.267147   2.938617
    25  H    2.709821   2.256855   4.394956   6.180287   5.952204
    26  H    2.658224   2.982075   4.509615   7.089128   6.047537
    27  H    2.169285   4.105969   4.777721   6.774074   7.050732
    28  H    2.089560   4.523131   4.908908   7.627467   7.133286
    29  H    1.019555   4.829972   6.547580   8.360411   8.430110
    30  H    1.018357   5.792401   6.925503   9.146086   9.045120
                   21         22         23         24         25
    21  H    0.000000
    22  H    3.895605   0.000000
    23  H    4.883735   4.186161   0.000000
    24  H    2.782117   4.200118   2.546478   0.000000
    25  H    4.944731   4.837784   7.953361   7.059137   0.000000
    26  H    5.069070   3.958096   6.907367   6.553984   1.758942
    27  H    6.600202   5.242476   9.133436   8.557212   2.546334
    28  H    6.675401   4.463687   8.226213   8.128303   3.062565
    29  H    7.510876   6.673142   9.990226   9.462354   2.582786
    30  H    8.322326   6.689361  10.186174  10.005156   3.669610
                   26         27         28         29         30
    26  H    0.000000
    27  H    3.061497   0.000000
    28  H    2.466703   1.760069   0.000000
    29  H    3.091506   2.425120   2.936097   0.000000
    30  H    3.564410   2.490903   2.342941   1.625759   0.000000
 Symmetry turned off by external request.
 Stoichiometry    C9H14N4O3
 Framework group  C1[X(C9H14N4O3)]
 Deg. of freedom    84
 Full point group                 C1      NOp   1
 Rotational constants (GHZ):      0.5566997      0.3349911      0.2281770
 Standard basis: 6-31G(d) (6D, 7F)
   268 basis functions,   504 primitive gaussians,   268 cartesian basis functions
    60 alpha electrons       60 beta electrons
       nuclear repulsion energy      1103.1422861083 Hartrees.
 NAtoms=   30 NActive=   30 NUniq=   30 SFac= 1.00D+00 NAtFMM=   60 NAOKFM=F Big=F
 Integral buffers will be    131072 words long.
 Raffenetti 2 integral format.
 Two-electron integral symmetry is turned off.
 One-electron integrals computed using PRISM.
 NBasis=   268 RedAO= T EigKep=  1.18D-03  NBF=   268
 NBsUse=   268 1.00D-06 EigRej= -1.00D+00 NBFU=   268
 Initial guess from the checkpoint file:  "conf-422.chk"
 B after Tr=    -0.007348   -0.016043    0.005435
         Rot=    0.999998   -0.001077   -0.000884    0.001530 Ang=  -0.24 deg.
 ExpMin= 1.61D-01 ExpMax= 5.48D+03 ExpMxC= 8.25D+02 IAcc=2 IRadAn=         4 AccDes= 0.00D+00
 Harris functional with IExCor=  402 and IRadAn=       4 diagonalized for initial guess.
 HarFok:  IExCor=  402 AccDes= 0.00D+00 IRadAn=         4 IDoV= 1 UseB2=F ITyADJ=14
 ICtDFT=  3500011 ScaDFX=  1.000000  1.000000  1.000000  1.000000
 FoFCou: FMM=F IPFlag=           0 FMFlag=      100000 FMFlg1=           0
         NFxFlg=           0 DoJE=T BraDBF=F KetDBF=T FulRan=T
         wScrn=  0.000000 ICntrl=     500 IOpCl=  0 I1Cent=   200000004 NGrid=           0
         NMat0=    1 NMatS0=      1 NMatT0=    0 NMatD0=    1 NMtDS0=    0 NMtDT0=    0
 Symmetry not used in FoFCou.
 Requested convergence on RMS density matrix=1.00D-08 within 128 cycles.
[...]
 ,-0.00001202,0.00000427,0.00001962,0.00000660,0.00002114,-0.00013814,0
 .00009386,-0.00010765,0.00001841,-0.00001141,0.00004067,-0.00003715,-0
 .00024479,0.00033354,0.00039233,-0.00038238,-0.00046512,0.00006634,0.0
 0113563,0.00008706,0.00057981,-0.00013380,0.00076322,0.11172834,0.1856
 0428,0.00003230,0.00014856,0.00005833,-0.00016098,-0.00028035,-0.00017
 527,0.00038535,0.00019407,0.00005464,-0.00030113,-0.00013353,-0.000061
 78,-0.00009981,0.00032762,0.00017339,0.00007829,-0.00005449,-0.0000038
 2,0.00011670,-0.00018517,-0.00011745,0.00103522,-0.00020233,0.00054337
 ,0.00029693,-0.01517459,-0.00931432,-0.00395514,0.00121393,-0.00244169
 ,-0.00253485,0.00115720,0.00402646,0.00670953,0.00105298,-0.00123213,-
 0.16199905,-0.14254150,-0.21300230,0.00002579,0.00003330,0.00001054,-0
 .00002501,-0.00001163,-0.00001674,0.00002642,0.00002320,-0.00001750,0.
 00001781,-0.00001381,0.00004739,0.00003124,-0.00004542,0.00002873,-0.0
 0000924,0.00001878,-0.00001946,0.00000624,0.00061737,-0.00043322,-0.00
 017808,0.00014197,0.00002808,-0.00095489,-0.00093304,0.00088030,0.0004
 6626,-0.00005250,-0.00053410,0.16096412,0.15470293,0.22150277,-0.00574
 733,-0.00266811,0.00476157,-0.00365083,0.02929017,0.01207427,-0.000120
 58,-0.00143036,-0.00079702,0.00047776,-0.00046056,-0.00029438,-0.00033
 580,0.00026922,0.00023890,0.00009636,-0.00007767,-0.00008696,0.0002105
 2,-0.00013575,-0.00010287,0.00010757,0.00004816,-0.00004560,0.00004412
 ,0.00005265,0.00003440,0.00002806,0.00002239,0.00010583,-0.00003283,-0
 .00002508,-0.00002542,-0.00001164,0.00000747,-0.00001790,-0.00004873,-
 0.00002265,-0.00007318,-0.07595942,0.06347450,0.03382699,0.00758574,-0
 .02193054,-0.01141959,0.00218107,0.00040879,0.00007580,-0.00214464,-0.
 00100919,-0.00005556,0.00039971,0.00026407,0.00009079,-0.00002402,-0.0
 0001213,0.00001924,0.00002511,-0.00002092,0.00001741,-0.00003625,-0.00
 001389,-0.00003155,0.00010365,-0.00007178,-0.00001646,-0.00000705,-0.0
 0000234,-0.00000782,-0.00000718,0.00001011,0.00000417,0.08131416,-0.00
 078246,0.00082638,0.00191609,-0.00406271,0.00356155,0.00220228,-0.0003
 7588,0.00001222,0.00051376,0.00034129,0.00060477,-0.00003053,0.0001630
 3,-0.00011765,-0.00007333,-0.00005136,0.00002213,0.00003691,-0.0000742
 8,0.00008853,0.00005834,-0.00000610,-0.00001721,-0.00002928,-0.0000319
 5,-0.00004543,-0.00003072,-0.00000920,-0.00001191,-0.00006204,0.000042
 32,0.00004036,0.00001436,-0.00001364,-0.00001670,-0.00001571,0.0000402
 2,0.00003540,0.00007410,0.06582210,-0.22338217,-0.09711856,0.00333067,
 -0.00888455,-0.00468539,0.00014600,0.00076575,0.00074247,-0.00017956,0
 .00065845,0.00039481,-0.00007749,0.00003211,0.00012947,0.00000492,-0.0
 0000053,-0.00001219,0.00001054,0.00001472,0.00000150,0.00001132,0.0000
 1969,0.00002019,-0.00004567,-0.00000644,0.00003379,0.00000401,0.000000
 21,0.00000456,0.00000841,-0.00000765,-0.00000698,-0.06842378,0.2433773
 9,0.00431719,0.00104888,-0.00092933,0.00254850,-0.01402790,-0.01001869
 ,-0.00135030,0.00037170,0.00044563,0.00006058,0.00061345,-0.00026118,0
 .00036269,-0.00018143,-0.00018793,-0.00012251,0.00001500,0.00010557,-0
 .00026747,0.00008867,0.00002132,-0.00011774,-0.00002533,0.00010195,-0.
 00001027,-0.00003640,-0.00000024,-0.00001968,-0.00002109,-0.00004172,0
 .00000186,0.00001633,0.00001898,0.00000184,0.00000503,0.00000172,0.000
 01781,0.00002012,0.00001882,0.03483001,-0.09638300,-0.10010577,0.00760
 767,-0.02002818,-0.01086332,0.00076043,0.00122648,0.00084408,0.0002871
 3,0.00006619,0.00114945,-0.00015632,-0.00007505,0.00003235,0.00003106,
 0.00001636,-0.00001067,-0.00003377,0.00001077,-0.00003323,0.00001690,-
 0.00000296,0.00001356,-0.00003592,0.00003626,-0.00002590,0.00000146,0.
 00000257,0.00000173,0.00000116,-0.00000568,0.00000622,-0.03780845,0.10
 867099,0.10927859,-0.00271071,0.00282173,-0.00120326,0.00530741,-0.024
 22096,0.02269733,-0.00224020,0.00093267,-0.00132151,-0.00036282,0.0008
 7178,-0.00105366,0.00020146,0.00026259,-0.00016324,-0.00004516,-0.0000
 4641,0.00004286,0.00000217,-0.00015465,0.00001955,-0.00029008,-0.00026
 567,0.00037605,0.00001894,-0.00017475,-0.00005604,0.00013322,0.0000572
 4,0.00003565,-0.00001658,0.00010058,-0.00009750,-0.00003963,0.00003990
 ,-0.00002551,0.00003515,0.00004010,0.00001400,-0.04828451,0.01775022,-
 0.01505392,-0.00363854,0.01722602,-0.01848723,0.00179971,0.00068206,0.
 00098299,-0.00002641,-0.00043932,0.00058174,0.00006875,0.00009169,0.00
 003231,0.00000718,0.00001403,-0.00001604,-0.00017177,0.00006646,-0.000
 10114,0.00000527,0.00000037,-0.00000309,0.00001938,-0.00009605,0.00007
 067,-0.00000633,0.00000472,0.00000088,-0.00001438,-0.00001573,0.000019
 01,-0.00117250,0.00789815,-0.00763150,0.05345114,0.00059865,-0.0005053
 0,-0.00072282,-0.00080170,-0.00353787,0.00248394,-0.00109135,0.0008757
 8,-0.00030248,-0.00035882,0.00016733,-0.00033504,0.00016908,-0.0000202
 8,-0.00007454,-0.00005516,-0.00000061,0.00004227,-0.00011006,0.0000243
 3,-0.00000813,-0.00008355,-0.00004258,0.00015661,-0.00000465,-0.000051
 25,0.00000390,0.00000965,0.00001336,0.00001880,-0.00001564,-0.00000219
 ,-0.00000893,-0.00000024,0.00002048,0.00000712,0.00001059,0.00001004,-
 0.00004377,0.02227582,-0.17859606,0.12920596,-0.00192661,0.00797582,-0
 .00816755,0.00071005,0.00004544,-0.00029863,0.00027216,-0.00049478,0.0
 0074732,0.00001025,-0.00000742,-0.00001028,0.00001249,0.00000872,-0.00
 000032,-0.00003160,0.00001490,-0.00003858,-0.00000980,-0.00002005,-0.0
 0001396,-0.00003490,0.00002318,-0.00002893,-0.00000205,0.00000321,0.00
 000240,-0.00001775,-0.00000465,0.00001291,0.00283801,-0.01973173,0.019
 06875,-0.02093677,0.19226008,0.00214897,-0.00164296,0.00102635,-0.0010
 3322,0.01008590,-0.01149552,-0.00040376,-0.00066597,0.00021524,0.00046
 124,-0.00003672,0.00011994,-0.00005344,-0.00001153,0.00004173,-0.00002
 332,-0.00005228,0.00003395,-0.00002715,-0.00000708,0.00001022,-0.00000
 595,0.00004720,-0.00007180,0.00002548,0.00003992,0.00003114,-0.0000428
 9,-0.00003326,-0.00001372,-0.00001352,-0.00004350,0.00003283,0.0000198
 3,0.00000606,0.00002414,-0.00002636,-0.00002654,-0.00003508,-0.0193411
 3,0.12971938,-0.17225152,-0.00472793,0.01674747,-0.01959111,0.00180645
 ,-0.00027534,0.00232004,0.00001141,-0.00004781,0.00007980,-0.00007217,
 -0.00006352,-0.00002603,-0.00000796,-0.00000395,-0.00000211,0.00000621
 ,-0.00002385,0.00000879,0.00000617,-0.00000912,0.00000166,0.00002856,0
 .00005889,-0.00004908,-0.00000064,0.00000153,-0.00000107,0.00000284,0.
 00000335,0.00000227,0.00133057,-0.01149515,0.01180303,0.02221475,-0.14
 026899,0.18947127,-0.00007893,-0.00001896,0.00124583,0.00170146,0.0005
 9705,-0.00229031,-0.00050804,-0.00035092,0.00027346,0.00013536,0.00000
 696,-0.00010743,-0.00003500,0.00011516,-0.00005296,-0.00003098,-0.0000
 7152,0.00005260,0.00001100,-0.00007301,0.00003884,-0.00003425,-0.00001
 210,0.00001805,0.00000887,0.00000728,0.00001958,-0.00001412,-0.0000143
 2,0.00000849,-0.00002075,-0.00000026,0.00000780,0.00000720,0.00000049,
 0.00000167,-0.00001676,-0.00000359,-0.00000540,-0.00453138,0.01665948,
 -0.01647295,-0.05700630,0.02588156,-0.02459269,-0.00540696,-0.02521787
 ,0.02880657,0.00004098,0.00016326,-0.00003368,-0.00002580,0.00000947,0
 .00001525,-0.00000509,-0.00000328,-0.00000739,-0.00002550,0.00000196,-
 0.00000616,0.00001222,0.00000571,0.00000332,0.00001806,0.00000679,-0.0
 0002103,-0.00000062,0.00000059,-0.00000387,0.00001284,0.00000139,0.000
 00036,0.00088665,-0.00050169,0.00077887,-0.00345540,-0.00204490,-0.003
 38648,0.06555615,-0.00011688,0.00038428,-0.00096472,0.00001169,0.00075
 814,0.00104813,0.00028066,-0.00016966,-0.00018046,0.00002794,0.0000248
 8,0.00004519,0.00003319,-0.00004450,0.00004393,-0.00000710,0.00001731,
 -0.00003496,-0.00002713,0.00001843,-0.00003070,0.00002350,-0.00000387,
 -0.00000679,-0.00000034,-0.00001304,-0.00000184,0.00000189,-0.00000383
 ,-0.00000046,0.00001516,0.00002165,-0.00000857,-0.00001327,-0.00000228
 ,-0.00001680,0.00000875,0.00001837,0.00000938,-0.00243752,0.00735567,-
 0.00876795,0.02856593,-0.16969590,0.11140218,-0.00690832,-0.00162354,0
 .00779233,-0.00003344,-0.00007156,0.00001346,0.00001813,-0.00001097,0.
 00000468,0.00001537,0.00000695,0.00001496,0.00000447,0.00000456,0.0000
 0196,-0.00000569,0.00000369,-0.00000548,-0.00000505,-0.00002378,0.0000
 0759,-0.00000306,0.00000025,0.00000043,-0.00000317,-0.00000273,0.00000
 618,0.00063808,0.00105742,0.00049695,-0.00217149,0.00051505,-0.0019445
 9,-0.02185901,0.17956046,-0.00025559,0.00025366,0.00135744,0.00148882,
 -0.00008455,-0.00204956,-0.00051576,-0.00034232,0.00044891,0.00009677,
 -0.00007651,-0.00010107,-0.00018095,0.00019790,-0.00001080,0.00003060,
 -0.00007477,0.00002847,0.00012701,-0.00012571,0.00004887,-0.00003865,-
 0.00001104,0.00000712,0.00000790,0.00001501,0.00001471,-0.00002110,-0.
 00000173,-0.00000269,-0.00001398,-0.00001190,0.00001954,0.00001008,-0.
 00000361,0.00000456,-0.00001088,-0.00000803,0.00000837,-0.00726772,0.0
 1566487,-0.01586682,-0.02677730,0.11099465,-0.16536405,0.00942810,0.01
 248476,-0.01251062,-0.00001069,0.00022613,-0.00014435,-0.00002757,0.00
 002303,0.00001155,-0.00003055,-0.00001396,-0.00001208,-0.00002157,0.00
 000006,-0.00000317,0.00001340,0.00000663,0.00000740,0.00000573,0.00000
 101,-0.00001488,0.00000403,-0.00000074,-0.00000255,0.00001336,0.000004
 61,-0.00000745,0.00103623,0.00010570,0.00066277,-0.00293185,-0.0014623
 8,-0.00234603,0.02421493,-0.12798967,0.18367586,-0.00142014,0.00085467
 ,0.00094880,0.00083293,-0.00190476,-0.00165697,0.00035440,0.00068672,0
 .00088401,-0.00022150,0.00010670,0.00019814,0.00006826,-0.00014056,-0.
 00000880,-0.00000294,0.00005281,-0.00000271,-0.00005472,0.00008866,0.0
 0001202,0.00000607,-0.00000055,-0.00001898,-0.00001702,-0.00000985,-0.
 00001777,-0.00002608,-0.00000015,-0.00005153,0.00002468,-0.00000143,0.
 00002009,0.00000677,-0.00000630,0.00000890,0.00002667,0.00000779,0.000
 03809,0.00814670,-0.02060106,-0.01124191,-0.07642388,0.07208037,0.0363
 9632,-0.01520716,0.02463935,0.01801473,0.00045886,0.00020164,-0.000013
 87,-0.00012438,-0.00008498,-0.00001888,0.00000155,-0.00000051,-0.00000
 240,0.00001580,0.00000160,0.00000367,0.00000561,0.00000285,0.00000689,
 -0.00004448,0.00001942,0.00000158,0.00000486,0.00000024,0.00000537,-0.
 00000004,-0.00000256,-0.00000453,-0.00396664,-0.00195165,-0.00341008,0
 .00112626,0.00044795,0.00060316,-0.00037241,0.00519600,0.00156696,0.09
 169176,0.00102890,0.00176043,0.00198460,0.00151004,-0.00166488,-0.0032
 6368,-0.00000991,0.00043236,0.00071093,-0.00005214,0.00002792,0.000040
 79,0.00010210,-0.00013002,-0.00002479,-0.00003575,0.00002330,0.0000273
 0,-0.00009473,0.00009770,0.00000800,0.00000257,-0.00000190,-0.00000412
 ,-0.00001679,-0.00001084,-0.00001282,-0.00002219,-0.00000657,-0.000038
 84,0.00001180,0.00000566,0.00002096,0.00000433,-0.00000639,0.00000396,
 0.00001836,0.00001118,0.00003160,0.00145726,-0.00915806,-0.00442416,0.
 07529223,-0.24116272,-0.09815896,-0.00358074,0.01051531,0.00517922,0.0
 0014429,0.00018047,0.00006630,-0.00007693,-0.00004443,0.00001279,0.000
 00956,0.00000060,-0.00000279,0.00000503,0.00000309,-0.00000021,0.00000
 728,0.00000293,0.00000917,-0.00003208,0.00001929,-0.00000586,0.0000039
 2,0.00000037,0.00000270,0.00000395,-0.00000274,-0.00000390,-0.00173711
 ,0.00098052,-0.00117257,-0.00026434,0.00113037,0.00023935,0.00708271,-
 0.01959465,-0.00912243,-0.07897127,0.25426958,0.00072150,0.00142683,0.
 00054437,0.00104483,-0.00070896,-0.00087079,-0.00010922,-0.00013607,0.
 00001968,0.00003494,0.00008566,0.00002286,0.00002948,-0.00000332,-0.00
 001873,-0.00002198,-0.00001033,0.00001749,-0.00002779,0.00000372,0.000
 02926,0.00000101,-0.00002522,0.00000084,-0.00001029,-0.00002721,-0.000
 01163,-0.00000115,-0.00000796,-0.00002101,0.00002655,0.00003061,-0.000
 00208,-0.00001494,-0.00000604,-0.00001857,0.00002173,0.00002563,0.0000
 3558,0.00475857,-0.02036176,-0.01140386,0.03790646,-0.09310180,-0.1017
 1519,0.00759868,-0.01339615,-0.00930269,0.00014610,0.00013402,0.000055
 96,-0.00003950,-0.00000866,0.00002765,-0.00000044,-0.00000007,-0.00000
 319,-0.00000782,0.00001246,-0.00000478,0.00000173,0.00000923,0.0000020
 4,-0.00001841,-0.00001668,0.00001824,-0.00000006,0.00000029,0.00000198
 ,0.00000030,-0.00000442,0.00000144,-0.00312623,-0.00128952,-0.00241278
 ,0.00096118,0.00003035,0.00064582,-0.00765023,0.02030099,0.01106636,-0
 .04488748,0.10616255,0.11294994,0.00000564,-0.00054340,-0.00098390,-0.
 00069982,-0.00019704,0.00113853,0.00012814,-0.00002567,-0.00015939,-0.
 00007544,-0.00002029,0.00002908,-0.00008791,-0.00000160,0.00007099,0.0
 0006097,0.00003344,-0.00005648,0.00007177,-0.00000809,-0.00003837,-0.0
 0000206,0.00001233,-0.00000476,0.00000453,0.00001375,-0.00000147,0.000
 00834,0.00000600,0.00000699,0.00000313,-0.00001640,-0.00000603,0.00000
 381,0.00000225,0.00000788,-0.00000237,-0.00001402,-0.00001748,0.001031
 74,0.00186243,0.00088542,-0.01473358,0.03296774,0.00948632,-0.12970713
 ,0.12649868,0.05890716,-0.00008879,-0.00005696,-0.00002281,0.00001235,
 -0.00000075,-0.00001364,-0.00000880,-0.00000553,0.00000925,0.00001102,
 -0.00000551,0.00000249,-0.00000409,-0.00000768,-0.00000293,0.00000114,
 0.00001088,0.00000513,-0.00000108,-0.00000066,0.00000164,-0.00000923,0
 .00000201,0.00000070,-0.00054428,-0.00112269,-0.00078047,-0.00007427,0
 .00000224,0.00007548,0.00186150,-0.00090449,-0.00015774,-0.00551183,-0
 .00269329,0.00290776,0.13600460,-0.00019177,-0.00003568,0.00009023,0.0
 0007817,0.00009060,0.00004867,0.00012413,-0.00000835,-0.00001045,-0.00
 004608,0.00000879,0.00002142,-0.00004235,-0.00001602,0.00002504,0.0000
 3395,0.00002380,-0.00002096,0.00004014,0.00000853,0.00000072,0.0000010
 5,0.00000242,-0.00001441,-0.00000487,0.00000487,-0.00000791,-0.0000054
 0,0.00000212,-0.00001033,0.00001341,-0.00000109,0.00001025,-0.00000127
 ,-0.00000891,-0.00000204,0.00000854,0.00000325,0.00001527,0.00046360,0
 .00092893,0.00047811,-0.00819166,0.00665177,0.00906517,0.12837683,-0.3
 1053621,-0.13149015,-0.00002477,0.00000121,-0.00004053,-0.00000113,0.0
 0000103,-0.00000322,-0.00001036,-0.00000560,-0.00000182,0.00000799,-0.
 00000139,0.00000343,-0.00000026,0.00000108,0.00000434,-0.00000853,0.00
 000074,0.00000353,0.00000249,-0.00000140,0.00000152,-0.00000072,0.0000
 0093,-0.00000561,0.00053671,-0.00008505,-0.00007255,0.00007891,-0.0002
 2007,-0.00006693,-0.00059956,0.00187341,0.00001563,-0.00165930,0.00158
 691,0.00092690,-0.13094940,0.31700175,0.00017391,0.00002960,-0.0002131
 7,-0.00002448,-0.00019643,-0.00001544,-0.00006853,0.00006287,-0.000061
 04,-0.00000804,-0.00002780,0.00000590,0.00001109,-0.00003188,0.0000380
 8,0.00000075,0.00001215,-0.00002659,-0.00002123,0.00001731,-0.00004537
 ,0.00000621,0.00000574,0.00001363,0.00000353,-0.00000461,0.00000301,0.
 00000996,0.00000002,0.00000494,-0.00000263,-0.00000171,-0.00001357,-0.
 00000090,0.00001032,0.00000209,-0.00000077,-0.00000354,-0.00001859,-0.
 00094919,0.00109908,0.00093898,0.01347102,-0.01665453,-0.01141801,0.03
 332987,-0.08095992,-0.05401661,-0.00002593,-0.00004856,0.00007732,0.00
 001097,-0.00000620,0.,0.00001158,0.00000331,0.00001496,0.00000205,0.00
 000031,-0.00000228,-0.00000457,-0.00000564,-0.00000755,0.00000058,0.00
 000117,0.00000264,-0.00000378,0.00000125,0.00000090,-0.00000835,-0.000
 00123,0.00000867,0.00019697,-0.00036218,0.00040501,-0.00010120,0.00029
 475,-0.00007716,-0.00144778,-0.00143278,0.00065329,0.00315620,0.001896
 33,-0.00059665,-0.06013374,0.12072277,0.07524287,-0.00005065,0.0003239
 9,0.00066759,0.00013825,-0.00100681,-0.00276740,-0.00112173,-0.0002240
 6,0.00048741,0.00016568,-0.00014975,-0.00020584,-0.00002743,0.00018931
 ,-0.00006455,-0.00006276,-0.00011609,0.00007448,-0.00001365,-0.0001017
 3,0.00002908,-0.00002549,-0.00004887,0.00005334,0.00000632,-0.00002936
 ,0.00001296,-0.00000325,-0.00001099,0.00001327,-0.00000989,0.00003432,
 -0.00000265,-0.00001640,0.00000405,-0.00002453,-0.00000068,0.00002517,
 0.00000991,-0.00631272,-0.00090913,0.00582305,-0.02112837,-0.01199364,
 -0.02626604,-0.20522960,-0.10753265,-0.13869302,0.00001088,0.00008783,
 0.00005348,0.00001483,0.00001543,0.00001396,0.00000195,0.00000151,-0.0
 0000307,-0.00004265,0.00001629,-0.00002023,0.00000220,0.00000995,-0.00
 000579,0.00002093,-0.00003214,-0.00001441,-0.00000245,0.00000149,-0.00
 000401,0.00000818,-0.00000299,0.00000627,0.00034923,-0.00011288,0.0001
 1930,0.00037324,0.00016859,0.00042480,0.00131600,-0.00034481,0.0002180
 1,0.00062203,0.00090295,-0.00024528,0.01234201,0.01197152,0.01241642,0
 .21867597,0.00024537,-0.00015912,0.00005461,-0.00025972,0.00054852,-0.
 00021414,0.00035676,0.00010323,-0.00001683,-0.00005361,0.00000684,0.00
 005655,-0.00006544,-0.00003777,0.00005266,0.00006020,0.00004423,-0.000
 03915,0.00005792,0.00001728,-0.00001256,0.00000052,0.00002723,-0.00002
 857,-0.00000055,0.00002174,-0.00000715,-0.00000205,0.00001089,-0.00001
 314,0.00000195,-0.00003565,0.00000620,0.00001557,0.00000338,0.00002297
 ,-0.00000088,-0.00002535,-0.00000848,0.00024850,0.00048071,0.00128754,
 -0.00776301,-0.00548097,-0.00307985,-0.07802093,-0.09426184,-0.0997364
 7,-0.00003180,-0.00002948,-0.00004629,-0.00001066,-0.00000206,-0.00000
 798,-0.00001632,-0.00000551,-0.00000281,0.00002149,-0.00001109,0.00000
 921,0.00000002,-0.00000862,0.00000332,-0.00001440,0.00002651,0.0000072
 2,0.00000378,-0.00000052,0.00000311,-0.00000567,0.00000399,-0.00000614
 ,0.00018154,0.00020945,0.00025764,-0.00015306,0.00014672,-0.00022996,0
 .00023112,-0.00036020,-0.00066430,0.00094816,0.00073523,-0.00004511,-0
 .02483830,-0.01727237,-0.02441994,0.10886351,0.11530463,-0.00031245,0.
 00010962,0.00013589,0.00083813,-0.00006614,0.00052124,-0.00012967,-0.0
 0004726,-0.00011044,0.00008552,0.00006150,-0.00006665,0.00006753,0.000
 03952,-0.00005016,-0.00004983,-0.00003433,0.00003216,-0.00004631,-0.00
 002352,0.00001744,-0.00000656,-0.00001965,0.00002030,0.00000321,-0.000
 01125,0.00000931,0.00000566,-0.00000734,0.00001607,-0.00000891,0.00002
 104,-0.00000996,-0.00000709,-0.00000036,-0.00001177,-0.00000729,0.0000
 1148,-0.00000236,0.00129144,0.00051526,-0.00092609,0.01887032,0.014416
 94,0.00870892,-0.15774958,-0.14214635,-0.19655254,0.00003082,-0.000003
 15,0.00002804,0.00001467,0.00001096,0.00001029,0.00001310,0.00000808,-
 0.00000121,-0.00001668,0.00000686,-0.00000519,0.00000162,0.00000625,-0
 .00000260,0.00001397,-0.00001676,-0.00000366,-0.00000326,0.00000058,-0
 .00000322,0.00000646,-0.00000223,0.00000464,0.00009583,0.00029224,-0.0
 0002001,0.00019771,-0.00028975,0.00009201,0.00059277,0.00019743,0.0004
 2091,-0.00052902,-0.00016141,0.00094240,-0.01115560,0.00031392,-0.0109
 0027,0.14789350,0.12681785,0.19770652\\-0.00000014,-0.00000058,0.00000
 006,-0.00000045,0.00000188,-0.00000128,0.00000016,-0.00000131,0.000001
 14,-0.00000021,0.00000007,-0.00000036,-0.00000005,-0.00000030,0.000000
 21,0.00000004,0.00000019,-0.00000026,-0.00000048,0.00000019,-0.0000002
 6,-0.00000022,-0.00000029,0.00000018,0.00000094,0.00000014,-0.00000085
 ,-0.00000092,0.00000022,0.00000083,-0.00000007,0.00000025,0.00000009,-
 0.00000024,0.00000026,-0.00000017,0.00000017,0.00000022,0.00000004,-0.
 00000001,-0.00000052,-0.00000073,0.00000083,-0.00000071,0.00000095,0.0
 0000059,0.00000021,0.00000050,-0.00000009,0.00000042,-0.00000064,-0.00
 000044,-0.00000036,-0.00000004,-0.00000015,-0.00000005,-0.00000027,0.0
 0000006,0.00000014,0.00000018,-0.00000019,0.00000019,0.00000009,0.0000
 0084,-0.00000036,-0.00000028,0.00000025,0.00000016,0.00000017,0.000000
 13,0.00000034,0.00000013,-0.00000047,-0.00000003,0.00000036,-0.0000004
 4,-0.00000045,0.00000029,0.00000017,0.00000003,-0.00000017,0.00000039,
 0.00000029,-0.00000005,-0.00000007,-0.00000004,0.00000017,0.00000004,-
 0.00000019,-0.00000003\\\@


 FROM AN ANONYMOUS WRITER, ON PERSPECTIVE:

 MAN, DESPITE HIS ARTISTIC PRETENSIONS, HIS SOPHISTICATION AND MANY 
 ACCOMPLISHMENTS, OWES THE FACT OF HIS EXISTENCE TO A SIX-INCH LAYER OF 
 TOPSOIL AND THE FACT THAT IT RAINS.
 Job cpu time:       0 days  0 hours 59 minutes 48.7 seconds.
 File lengths (MBytes):  RWF=    260 Int=      0 D2E=      0 Chk=      8 Scr=      1
 Normal termination of Gaussian 09 at Wed Jul 28 22:35:30 2021.
