 Entering Gaussian System, Link 0=g09
 Input=opt_freq-conf-340.com
 Output=opt_freq-conf-340.log
 Initial command:
 /aerosol/software/g09/l1.exe "/scratch/nicole/10598/Gau-95080.inp" -scrdir="/scratch/nicole/10598/"
 Entering Link 1 = /aerosol/software/g09/l1.exe PID=     95084.
  
 Copyright (c) 1988,1990,1992,1993,1995,1998,2003,2009,2013,
            Gaussian, Inc.  All Rights Reserved.
  
 This is part of the Gaussian(R) 09 program.  It is based on
 the Gaussian(R) 03 system (copyright 2003, Gaussian, Inc.),
 the Gaussian(R) 98 system (copyright 1998, Gaussian, Inc.),
 the Gaussian(R) 94 system (copyright 1995, Gaussian, Inc.),
 the Gaussian 92(TM) system (copyright 1992, Gaussian, Inc.),
 the Gaussian 90(TM) system (copyright 1990, Gaussian, Inc.),
 the Gaussian 88(TM) system (copyright 1988, Gaussian, Inc.),
 the Gaussian 86(TM) system (copyright 1986, Carnegie Mellon
 University), and the Gaussian 82(TM) system (copyright 1983,
 Carnegie Mellon University). Gaussian is a federally registered
 trademark of Gaussian, Inc.
  
 This software contains proprietary and confidential information,
 including trade secrets, belonging to Gaussian, Inc.
  
 This software is provided under written license and may be
 used, copied, transmitted, or stored only in accord with that
 written license.
  
 The following legend is applicable only to US Government
 contracts under FAR:
  
                    RESTRICTED RIGHTS LEGEND
  
 Use, reproduction and disclosure by the US Government is
 subject to restrictions as set forth in subparagraphs (a)
 and (c) of the Commercial Computer Software - Restricted
 Rights clause in FAR 52.227-19.
  
 Gaussian, Inc.
 340 Quinnipiac St., Bldg. 40, Wallingford CT 06492
  
  
 ---------------------------------------------------------------
 Warning -- This program may not be used in any manner that
 competes with the business of Gaussian, Inc. or will provide
 assistance to any competitor of Gaussian, Inc.  The licensee
 of this program is prohibited from giving any competitor of
 Gaussian, Inc. access to this program.  By using this program,
 the user acknowledges that Gaussian, Inc. is engaged in the
 business of creating and licensing software in the field of
 computational chemistry and represents and warrants to the
 licensee that it is not a competitor of Gaussian, Inc. and that
 it will not use this program in any manner prohibited above.
 ---------------------------------------------------------------
  

 Cite this work as:
 Gaussian 09, Revision D.01,
 M. J. Frisch, G. W. Trucks, H. B. Schlegel, G. E. Scuseria, 
 M. A. Robb, J. R. Cheeseman, G. Scalmani, V. Barone, B. Mennucci, 
 G. A. Petersson, H. Nakatsuji, M. Caricato, X. Li, H. P. Hratchian, 
 A. F. Izmaylov, J. Bloino, G. Zheng, J. L. Sonnenberg, M. Hada, 
 M. Ehara, K. Toyota, R. Fukuda, J. Hasegawa, M. Ishida, T. Nakajima, 
 Y. Honda, O. Kitao, H. Nakai, T. Vreven, J. A. Montgomery, Jr., 
 J. E. Peralta, F. Ogliaro, M. Bearpark, J. J. Heyd, E. Brothers, 
 K. N. Kudin, V. N. Staroverov, T. Keith, R. Kobayashi, J. Normand, 
 K. Raghavachari, A. Rendell, J. C. Burant, S. S. Iyengar, J. Tomasi, 
 M. Cossi, N. Rega, J. M. Millam, M. Klene, J. E. Knox, J. B. Cross, 
 V. Bakken, C. Adamo, J. Jaramillo, R. Gomperts, R. E. Stratmann, 
 O. Yazyev, A. J. Austin, R. Cammi, C. Pomelli, J. W. Ochterski, 
 R. L. Martin, K. Morokuma, V. G. Zakrzewski, G. A. Voth, 
 P. Salvador, J. J. Dannenberg, S. Dapprich, A. D. Daniels, 
 O. Farkas, J. B. Foresman, J. V. Ortiz, J. Cioslowski, 
 and D. J. Fox, Gaussian, Inc., Wallingford CT, 2013.
 
 ******************************************
 Gaussian 09:  ES64L-G09RevD.01 24-Apr-2013
                28-Jul-2021 
 ******************************************
 %mem=2gb
 %nproc=4
 Will use up to    4 processors via shared memory.
 %chk=conf-340.chk
 ----------------------------------------------------------------------
 # B3LYP/6-31G(d) opt=calcfc freq=noraman nosymm integral(ultrafinegrid
 )
 ----------------------------------------------------------------------
 1/10=4,14=-1,18=20,19=15,26=4,38=1/1,3;
 2/9=110,12=2,15=1,17=6,18=5,40=1/2;
 3/5=1,6=6,7=1,11=2,16=1,25=1,30=1,71=2,74=-5,75=-5,140=1/1,2,3;
 4//1;
 5/5=2,38=5/2;
 8/6=4,10=90,11=11/1;
 11/6=1,8=1,9=11,15=111,16=1,31=1/1,2,10;
 10/6=1,13=1,31=1/2;
 6/7=2,8=2,9=2,10=2,28=1/1;
 7/10=1,18=20,25=1,30=1/1,2,3,16;
 1/10=4,14=-1,18=20,19=15,26=4/3(2);
 2/9=110,15=1/2;
 99//99;
 2/9=110,15=1/2;
 3/5=1,6=6,7=1,11=2,16=1,25=1,30=1,71=1,74=-5,75=-5/1,2,3;
 4/5=5,16=3,69=1/1;
 5/5=2,38=5/2;
 7/30=1/1,2,3,16;
 1/14=-1,18=20,19=15,26=4/3(-5);
 2/9=110,15=1/2;
 6/7=2,8=2,9=2,10=2,19=2,28=1/1;
 99/9=1/99;
 ------------------------------------------------------------
 Candidate Structure: Conf:340 OPT and FREQ calc in gas phase
 ------------------------------------------------------------
 Symbolic Z-matrix:
 Charge =  0 Multiplicity = 1
 O                     0.53975  -0.91334  -0.72521 
 C                     1.32329  -0.14277  -0.16646 
 N                     0.90022   1.0439    0.32044 
 C                    -0.47302   1.46462   0.14573 
 C                    -0.52293   2.96145   0.41751 
 O                    -1.72483   3.53748   0.21191 
 O                     0.41862   3.60154   0.79264 
 C                    -1.45177   0.66823   1.06386 
 C                    -2.56332   0.02503   0.29898 
 C                    -3.9155    0.18992   0.32055 
 N                    -4.52123  -0.63339  -0.61352 
 C                    -3.53362  -1.2782   -1.18624 
 N                    -2.33141  -0.91703  -0.67339 
 C                     2.79836  -0.44774  -0.00578 
 C                     3.07488  -1.94092  -0.00476 
 N                     4.52098  -2.16624   0.07919 
 H                     1.54257   1.7551    0.63533 
 H                    -0.74614   1.31578  -0.90546 
 H                    -2.34852   2.88034  -0.11888 
 H                    -0.87898  -0.09287   1.5902 
 H                    -1.88211   1.31584   1.82798 
 H                    -4.49613   0.84975   0.94934 
 H                    -3.61864  -2.01285  -1.96748 
 H                    -1.41483  -1.25013  -0.93327 
 H                     3.33808   0.01406  -0.83728 
 H                     3.1737    0.01382   0.91119 
 H                     2.7014   -2.35938  -0.94072 
 H                     2.51041  -2.41337   0.80872 
 H                     4.72481  -3.15255  -0.02997 
 H                     4.85582  -1.91595   1.00272 
 

 GradGradGradGradGradGradGradGradGradGradGradGradGradGradGradGradGradGrad
 Berny optimization.
 Initialization pass.
                           ----------------------------
                           !    Initial Parameters    !
                           ! (Angstroms and Degrees)  !
 --------------------------                            --------------------------
 ! Name  Definition              Value          Derivative Info.                !
 --------------------------------------------------------------------------------
 ! R1    R(1,2)                  1.2329         calculate D2E/DX2 analytically  !
 ! R2    R(2,3)                  1.3506         calculate D2E/DX2 analytically  !
 ! R3    R(2,14)                 1.5148         calculate D2E/DX2 analytically  !
 ! R4    R(3,4)                  1.4468         calculate D2E/DX2 analytically  !
 ! R5    R(3,17)                 1.0088         calculate D2E/DX2 analytically  !
 ! R6    R(4,5)                  1.5221         calculate D2E/DX2 analytically  !
 ! R7    R(4,8)                  1.5605         calculate D2E/DX2 analytically  !
 ! R8    R(4,18)                 1.0962         calculate D2E/DX2 analytically  !
 ! R9    R(5,6)                  1.3486         calculate D2E/DX2 analytically  !
 ! R10   R(5,7)                  1.1987         calculate D2E/DX2 analytically  !
 ! R11   R(6,19)                 0.9645         calculate D2E/DX2 analytically  !
 ! R12   R(8,9)                  1.4948         calculate D2E/DX2 analytically  !
 ! R13   R(8,20)                 1.0883         calculate D2E/DX2 analytically  !
 ! R14   R(8,21)                 1.0902         calculate D2E/DX2 analytically  !
 ! R15   R(9,10)                 1.3624         calculate D2E/DX2 analytically  !
 ! R16   R(9,13)                 1.3736         calculate D2E/DX2 analytically  !
 ! R17   R(10,11)                1.3847         calculate D2E/DX2 analytically  !
 ! R18   R(10,22)                1.0807         calculate D2E/DX2 analytically  !
 ! R19   R(11,12)                1.3112         calculate D2E/DX2 analytically  !
 ! R20   R(12,13)                1.356          calculate D2E/DX2 analytically  !
 ! R21   R(12,23)                1.0758         calculate D2E/DX2 analytically  !
 ! R22   R(13,24)                1.0093         calculate D2E/DX2 analytically  !
 ! R23   R(14,15)                1.5186         calculate D2E/DX2 analytically  !
 ! R24   R(14,25)                1.0936         calculate D2E/DX2 analytically  !
 ! R25   R(14,26)                1.093          calculate D2E/DX2 analytically  !
 ! R26   R(15,16)                1.466          calculate D2E/DX2 analytically  !
 ! R27   R(15,27)                1.0912         calculate D2E/DX2 analytically  !
 ! R28   R(15,28)                1.0971         calculate D2E/DX2 analytically  !
 ! R29   R(16,29)                1.0131         calculate D2E/DX2 analytically  !
 ! R30   R(16,30)                1.0137         calculate D2E/DX2 analytically  !
 ! A1    A(1,2,3)              120.8944         calculate D2E/DX2 analytically  !
 ! A2    A(1,2,14)             122.7596         calculate D2E/DX2 analytically  !
 ! A3    A(3,2,14)             116.3378         calculate D2E/DX2 analytically  !
 ! A4    A(2,3,4)              120.6145         calculate D2E/DX2 analytically  !
 ! A5    A(2,3,17)             122.1749         calculate D2E/DX2 analytically  !
 ! A6    A(4,3,17)             115.9169         calculate D2E/DX2 analytically  !
 ! A7    A(3,4,5)              107.1887         calculate D2E/DX2 analytically  !
 ! A8    A(3,4,8)              112.0772         calculate D2E/DX2 analytically  !
 ! A9    A(3,4,18)             108.2266         calculate D2E/DX2 analytically  !
 ! A10   A(5,4,8)              112.1015         calculate D2E/DX2 analytically  !
 ! A11   A(5,4,18)             107.251          calculate D2E/DX2 analytically  !
 ! A12   A(8,4,18)             109.7931         calculate D2E/DX2 analytically  !
 ! A13   A(4,5,6)              114.9635         calculate D2E/DX2 analytically  !
 ! A14   A(4,5,7)              123.7259         calculate D2E/DX2 analytically  !
 ! A15   A(6,5,7)              121.3096         calculate D2E/DX2 analytically  !
 ! A16   A(5,6,19)             109.73           calculate D2E/DX2 analytically  !
 ! A17   A(4,8,9)              112.6404         calculate D2E/DX2 analytically  !
 ! A18   A(4,8,20)             108.1405         calculate D2E/DX2 analytically  !
 ! A19   A(4,8,21)             110.9046         calculate D2E/DX2 analytically  !
 ! A20   A(9,8,20)             109.7506         calculate D2E/DX2 analytically  !
 ! A21   A(9,8,21)             108.7075         calculate D2E/DX2 analytically  !
 ! A22   A(20,8,21)            106.5126         calculate D2E/DX2 analytically  !
 ! A23   A(8,9,10)             132.6785         calculate D2E/DX2 analytically  !
 ! A24   A(8,9,13)             122.128          calculate D2E/DX2 analytically  !
 ! A25   A(10,9,13)            105.1765         calculate D2E/DX2 analytically  !
 ! A26   A(9,10,11)            110.5815         calculate D2E/DX2 analytically  !
 ! A27   A(9,10,22)            128.0522         calculate D2E/DX2 analytically  !
 ! A28   A(11,10,22)           121.3662         calculate D2E/DX2 analytically  !
 ! A29   A(10,11,12)           104.9255         calculate D2E/DX2 analytically  !
 ! A30   A(11,12,13)           111.8153         calculate D2E/DX2 analytically  !
 ! A31   A(11,12,23)           126.4071         calculate D2E/DX2 analytically  !
 ! A32   A(13,12,23)           121.7774         calculate D2E/DX2 analytically  !
 ! A33   A(9,13,12)            107.5007         calculate D2E/DX2 analytically  !
 ! A34   A(9,13,24)            124.192          calculate D2E/DX2 analytically  !
 ! A35   A(12,13,24)           128.3064         calculate D2E/DX2 analytically  !
 ! A36   A(2,14,15)            112.0458         calculate D2E/DX2 analytically  !
 ! A37   A(2,14,25)            108.3555         calculate D2E/DX2 analytically  !
 ! A38   A(2,14,26)            109.7767         calculate D2E/DX2 analytically  !
 ! A39   A(15,14,25)           109.0179         calculate D2E/DX2 analytically  !
 ! A40   A(15,14,26)           110.6169         calculate D2E/DX2 analytically  !
 ! A41   A(25,14,26)           106.8616         calculate D2E/DX2 analytically  !
 ! A42   A(14,15,16)           109.3172         calculate D2E/DX2 analytically  !
 ! A43   A(14,15,27)           108.3115         calculate D2E/DX2 analytically  !
 ! A44   A(14,15,28)           109.2843         calculate D2E/DX2 analytically  !
 ! A45   A(16,15,27)           109.1365         calculate D2E/DX2 analytically  !
 ! A46   A(16,15,28)           113.5091         calculate D2E/DX2 analytically  !
 ! A47   A(27,15,28)           107.144          calculate D2E/DX2 analytically  !
 ! A48   A(15,16,29)           109.9962         calculate D2E/DX2 analytically  !
 ! A49   A(15,16,30)           109.8801         calculate D2E/DX2 analytically  !
 ! A50   A(29,16,30)           105.7886         calculate D2E/DX2 analytically  !
 ! D1    D(1,2,3,4)             -2.7082         calculate D2E/DX2 analytically  !
 ! D2    D(1,2,3,17)          -169.1854         calculate D2E/DX2 analytically  !
 ! D3    D(14,2,3,4)           176.2764         calculate D2E/DX2 analytically  !
 ! D4    D(14,2,3,17)            9.7993         calculate D2E/DX2 analytically  !
 ! D5    D(1,2,14,15)          -25.8181         calculate D2E/DX2 analytically  !
 ! D6    D(1,2,14,25)           94.4984         calculate D2E/DX2 analytically  !
 ! D7    D(1,2,14,26)         -149.1379         calculate D2E/DX2 analytically  !
 ! D8    D(3,2,14,15)          155.218          calculate D2E/DX2 analytically  !
 ! D9    D(3,2,14,25)          -84.4654         calculate D2E/DX2 analytically  !
 ! D10   D(3,2,14,26)           31.8982         calculate D2E/DX2 analytically  !
 ! D11   D(2,3,4,5)           -163.4554         calculate D2E/DX2 analytically  !
 ! D12   D(2,3,4,8)             73.1457         calculate D2E/DX2 analytically  !
 ! D13   D(2,3,4,18)           -48.0713         calculate D2E/DX2 analytically  !
 ! D14   D(17,3,4,5)             3.8324         calculate D2E/DX2 analytically  !
 ! D15   D(17,3,4,8)          -119.5665         calculate D2E/DX2 analytically  !
 ! D16   D(17,3,4,18)          119.2165         calculate D2E/DX2 analytically  !
 ! D17   D(3,4,5,6)            175.8405         calculate D2E/DX2 analytically  !
 ! D18   D(3,4,5,7)             -4.5076         calculate D2E/DX2 analytically  !
 ! D19   D(8,4,5,6)            -60.7756         calculate D2E/DX2 analytically  !
 ! D20   D(8,4,5,7)            118.8764         calculate D2E/DX2 analytically  !
 ! D21   D(18,4,5,6)            59.8082         calculate D2E/DX2 analytically  !
 ! D22   D(18,4,5,7)          -120.5399         calculate D2E/DX2 analytically  !
 ! D23   D(3,4,8,9)           -125.5927         calculate D2E/DX2 analytically  !
 ! D24   D(3,4,8,20)            -4.1299         calculate D2E/DX2 analytically  !
 ! D25   D(3,4,8,21)           112.3131         calculate D2E/DX2 analytically  !
 ! D26   D(5,4,8,9)            113.8167         calculate D2E/DX2 analytically  !
 ! D27   D(5,4,8,20)          -124.7205         calculate D2E/DX2 analytically  !
 ! D28   D(5,4,8,21)            -8.2775         calculate D2E/DX2 analytically  !
 ! D29   D(18,4,8,9)            -5.2823         calculate D2E/DX2 analytically  !
 ! D30   D(18,4,8,20)          116.1805         calculate D2E/DX2 analytically  !
 ! D31   D(18,4,8,21)         -127.3765         calculate D2E/DX2 analytically  !
 ! D32   D(4,5,6,19)            -2.5315         calculate D2E/DX2 analytically  !
 ! D33   D(7,5,6,19)           177.8073         calculate D2E/DX2 analytically  !
 ! D34   D(4,8,9,10)          -117.1018         calculate D2E/DX2 analytically  !
 ! D35   D(4,8,9,13)            61.1534         calculate D2E/DX2 analytically  !
 ! D36   D(20,8,9,10)          122.3553         calculate D2E/DX2 analytically  !
 ! D37   D(20,8,9,13)          -59.3895         calculate D2E/DX2 analytically  !
 ! D38   D(21,8,9,10)            6.2246         calculate D2E/DX2 analytically  !
 ! D39   D(21,8,9,13)         -175.5202         calculate D2E/DX2 analytically  !
 ! D40   D(8,9,10,11)          178.6908         calculate D2E/DX2 analytically  !
 ! D41   D(8,9,10,22)           -1.3063         calculate D2E/DX2 analytically  !
 ! D42   D(13,9,10,11)           0.2218         calculate D2E/DX2 analytically  !
 ! D43   D(13,9,10,22)        -179.7754         calculate D2E/DX2 analytically  !
 ! D44   D(8,9,13,12)         -178.8602         calculate D2E/DX2 analytically  !
 ! D45   D(8,9,13,24)            0.8295         calculate D2E/DX2 analytically  !
 ! D46   D(10,9,13,12)          -0.1892         calculate D2E/DX2 analytically  !
 ! D47   D(10,9,13,24)         179.5005         calculate D2E/DX2 analytically  !
 ! D48   D(9,10,11,12)          -0.167          calculate D2E/DX2 analytically  !
 ! D49   D(22,10,11,12)        179.8303         calculate D2E/DX2 analytically  !
 ! D50   D(10,11,12,13)          0.0422         calculate D2E/DX2 analytically  !
 ! D51   D(10,11,12,23)        179.8749         calculate D2E/DX2 analytically  !
 ! D52   D(11,12,13,9)           0.094          calculate D2E/DX2 analytically  !
 ! D53   D(11,12,13,24)       -179.5789         calculate D2E/DX2 analytically  !
 ! D54   D(23,12,13,9)        -179.7476         calculate D2E/DX2 analytically  !
 ! D55   D(23,12,13,24)          0.5795         calculate D2E/DX2 analytically  !
 ! D56   D(2,14,15,16)         176.9097         calculate D2E/DX2 analytically  !
 ! D57   D(2,14,15,27)          58.0994         calculate D2E/DX2 analytically  !
 ! D58   D(2,14,15,28)         -58.3077         calculate D2E/DX2 analytically  !
 ! D59   D(25,14,15,16)         56.9793         calculate D2E/DX2 analytically  !
 ! D60   D(25,14,15,27)        -61.831          calculate D2E/DX2 analytically  !
 ! D61   D(25,14,15,28)       -178.2382         calculate D2E/DX2 analytically  !
 ! D62   D(26,14,15,16)        -60.2449         calculate D2E/DX2 analytically  !
 ! D63   D(26,14,15,27)       -179.0552         calculate D2E/DX2 analytically  !
 ! D64   D(26,14,15,28)         64.5376         calculate D2E/DX2 analytically  !
 ! D65   D(14,15,16,29)       -173.3102         calculate D2E/DX2 analytically  !
 ! D66   D(14,15,16,30)         70.6192         calculate D2E/DX2 analytically  !
 ! D67   D(27,15,16,29)        -55.0138         calculate D2E/DX2 analytically  !
 ! D68   D(27,15,16,30)       -171.0844         calculate D2E/DX2 analytically  !
 ! D69   D(28,15,16,29)         64.4059         calculate D2E/DX2 analytically  !
 ! D70   D(28,15,16,30)        -51.6647         calculate D2E/DX2 analytically  !
 --------------------------------------------------------------------------------
 Trust Radius=3.00D-01 FncErr=1.00D-07 GrdErr=1.00D-06
 Number of steps in this run=    160 maximum allowed number of steps=    180.
 GradGradGradGradGradGradGradGradGradGradGradGradGradGradGradGradGradGrad

                          Input orientation:                          
 ---------------------------------------------------------------------
 Center     Atomic      Atomic             Coordinates (Angstroms)
 Number     Number       Type             X           Y           Z
 ---------------------------------------------------------------------
      1          8           0        0.539746   -0.913344   -0.725215
      2          6           0        1.323288   -0.142770   -0.166465
      3          7           0        0.900219    1.043898    0.320439
      4          6           0       -0.473021    1.464623    0.145735
      5          6           0       -0.522928    2.961453    0.417511
      6          8           0       -1.724833    3.537480    0.211911
      7          8           0        0.418621    3.601539    0.792635
      8          6           0       -1.451768    0.668235    1.063860
      9          6           0       -2.563316    0.025027    0.298978
     10          6           0       -3.915500    0.189923    0.320554
     11          7           0       -4.521234   -0.633394   -0.613522
     12          6           0       -3.533620   -1.278201   -1.186237
     13          7           0       -2.331408   -0.917032   -0.673387
     14          6           0        2.798357   -0.447744   -0.005781
     15          6           0        3.074876   -1.940922   -0.004758
     16          7           0        4.520976   -2.166242    0.079192
     17          1           0        1.542571    1.755100    0.635326
     18          1           0       -0.746143    1.315785   -0.905462
     19          1           0       -2.348524    2.880339   -0.118880
     20          1           0       -0.878975   -0.092871    1.590195
     21          1           0       -1.882115    1.315841    1.827977
     22          1           0       -4.496132    0.849747    0.949339
     23          1           0       -3.618644   -2.012851   -1.967478
     24          1           0       -1.414834   -1.250131   -0.933270
     25          1           0        3.338079    0.014060   -0.837281
     26          1           0        3.173701    0.013820    0.911188
     27          1           0        2.701397   -2.359378   -0.940718
     28          1           0        2.510410   -2.413374    0.808723
     29          1           0        4.724810   -3.152553   -0.029971
     30          1           0        4.855820   -1.915950    1.002723
 ---------------------------------------------------------------------
                    Distance matrix (angstroms):
                    1          2          3          4          5
     1  O    0.000000
     2  C    1.232852   0.000000
     3  N    2.248139   1.350645   0.000000
     4  C    2.727449   2.430618   1.446831   0.000000
     5  C    4.177218   3.658653   2.389935   1.522121   0.000000
     6  O    5.080980   4.793584   3.622240   2.422426   1.348574
     7  O    4.764736   3.969652   2.645077   2.404146   1.198726
     8  C    3.109391   3.142032   2.495123   1.560491   2.557217
     9  C    3.399780   3.917969   3.610350   2.542685   3.577684
    10  C    4.707446   5.271885   4.890851   3.675062   4.381817
    11  N    5.069947   5.882092   5.751325   4.622355   5.474705
    12  C    4.115577   5.091040   5.226963   4.320242   5.441593
    13  N    2.871624   3.770047   3.908496   3.129990   4.416254
    14  C    2.415717   1.514812   2.436050   3.792363   4.778361
    15  C    2.828756   2.515465   3.707295   4.920158   6.095555
    16  N    4.250531   3.792096   4.844903   6.174756   7.200603
    17  H    3.158690   2.071922   1.008751   2.094442   2.401878
    18  H    2.579732   2.637432   2.070571   1.096250   2.123277
    19  H    4.806431   4.756433   3.757638   2.364695   1.904493
    20  H    2.836736   2.817500   2.463748   2.162649   3.291026
    21  H    4.165749   4.047215   3.176162   2.199459   2.558289
    22  H    5.592199   6.007974   5.436341   4.148406   4.530837
    23  H    4.477091   5.582432   5.915944   5.143290   6.325767
    24  H    1.994266   3.051484   3.491966   3.069389   4.511933
    25  H    2.950136   2.129313   2.888606   4.194632   5.016872
    26  H    3.236535   2.147063   2.564910   3.998666   4.753664
    27  H    2.609634   2.722500   4.051796   5.087268   6.368069
    28  H    2.913172   2.741513   3.844980   4.937537   6.184089
    29  H    4.797101   4.543983   5.688628   6.954613   8.069701
    30  H    4.755994   4.121886   4.987283   6.368614   7.284399
                    6          7          8          9         10
     6  O    0.000000
     7  O    2.221652   0.000000
     8  C    3.005487   3.489440   0.000000
     9  C    3.612195   4.682636   1.494757   0.000000
    10  C    4.002120   5.535936   2.617492   1.362373   0.000000
    11  N    5.088947   6.656883   3.732220   2.258233   1.384652
    12  C    5.330789   6.583920   3.631206   2.201308   2.138139
    13  N    4.581960   5.489021   2.510949   1.373590   2.173158
    14  C    6.032299   4.764168   4.522510   5.391096   6.751961
    15  C    7.286772   6.197613   5.332931   5.978831   7.315168
    16  N    8.459325   7.113762   6.684123   7.418703   8.762642
    17  H    3.745943   2.167336   3.214185   4.468175   5.686774
    18  H    2.672505   3.076505   2.189853   2.533544   3.579874
    19  H    0.964493   3.001347   2.663917   2.893708   3.144337
    20  H    3.974241   3.996063   1.088302   2.125593   3.303399
    21  H    2.751743   3.404370   1.090168   2.113782   2.770320
    22  H    3.930369   5.634865   3.051919   2.199752   1.080681
    23  H    6.256391   7.445744   4.590488   3.225444   3.189895
    24  H    4.932418   5.466169   2.769480   2.112693   3.146293
    25  H    6.256866   4.904067   5.194701   6.009797   7.347511
    26  H    6.074603   4.525069   4.674027   5.769600   7.115942
    27  H    7.462774   6.614236   5.516662   5.910959   7.202296
    28  H    7.328447   6.368282   5.025959   5.652286   6.950381
    29  H    9.295856   8.052186   7.344726   7.957512   9.270921
    30  H    8.583139   7.083470   6.816701   7.701053   9.046331
                   11         12         13         14         15
    11  N    0.000000
    12  C    1.311168   0.000000
    13  N    2.208930   1.356013   0.000000
    14  C    7.347123   6.494387   5.194267   0.000000
    15  C    7.731824   6.745910   5.542862   1.518567   0.000000
    16  N    9.197338   8.201612   7.005859   2.434723   1.465954
    17  H    6.635831   6.187626   4.884744   2.615441   4.051943
    18  H    4.258619   3.818065   2.748161   4.059918   5.100745
    19  H    4.160728   4.453892   3.837681   6.130196   7.257469
    20  H    4.291221   4.020040   2.812935   4.024406   4.646731
    21  H    4.089668   4.306043   3.382958   5.327261   6.207832
    22  H    2.154732   3.164692   3.231219   7.470294   8.125164
    23  H    2.133253   1.075768   2.128960   6.890262   6.975719
    24  H    3.183131   2.134018   1.009258   4.388056   4.636467
    25  H    7.889110   7.000853   5.747771   1.093597   2.141104
    26  H    7.871190   7.145394   5.803756   1.093049   2.160958
    27  H    7.433201   6.332824   5.242228   2.130224   1.091152
    28  H    7.391558   6.465198   5.280047   2.147099   1.097079
    29  H    9.600834   8.547035   7.429788   3.320814   2.047185
    30  H    9.601371   8.693731   7.447377   2.721372   2.046314
                   16         17         18         19         20
    16  N    0.000000
    17  H    4.955512   0.000000
    18  H    6.390352   2.793786   0.000000
    19  H    8.526268   4.120147   2.373639   0.000000
    20  H    5.978417   3.192281   2.868843   3.731018   0.000000
    21  H    7.495513   3.652922   2.960088   2.540757   1.745651
    22  H    9.547857   6.114262   4.209500   3.142708   3.792499
    23  H    8.394390   6.900013   4.523157   5.382734   4.883559
    24  H    6.090827   4.498683   2.651762   4.312283   2.827414
    25  H    2.644406   2.902351   4.287191   6.408518   4.866993
    26  H    2.694446   2.401820   4.512262   6.306579   4.110549
    27  H    2.094847   4.555845   5.039207   7.323371   4.935751
    28  H    2.153059   4.282867   5.239294   7.245211   4.181312
    29  H    1.013052   5.886792   7.117855   9.297083   6.587033
    30  H    1.013744   4.958750   6.742942   8.727253   6.046206
                   21         22         23         24         25
    21  H    0.000000
    22  H    2.796843   0.000000
    23  H    5.338652   4.179985   0.000000
    24  H    3.798295   4.177092   2.551099   0.000000
    25  H    6.004053   8.078690   7.333601   4.919103   0.000000
    26  H    5.300663   7.715345   7.650494   5.104336   1.756179
    27  H    6.494728   8.104025   6.412272   4.263080   2.459526
    28  H    5.851512   7.730418   6.740402   4.449182   3.047425
    29  H    8.189626  10.099664   8.640953   6.490793   3.549959
    30  H    7.518329   9.752483   8.980424   6.596399   3.068239
                   26         27         28         29         30
    26  H    0.000000
    27  H    3.047079   0.000000
    28  H    2.518278   1.760663   0.000000
    29  H    3.649334   2.356435   2.480597   0.000000
    30  H    2.561623   2.935153   2.405413   1.616418   0.000000
 Symmetry turned off by external request.
 Stoichiometry    C9H14N4O3
 Framework group  C1[X(C9H14N4O3)]
 Deg. of freedom    84
 Full point group                 C1      NOp   1
 Rotational constants (GHZ):      0.6612253      0.3164135      0.2232211
 Standard basis: 6-31G(d) (6D, 7F)
   268 basis functions,   504 primitive gaussians,   268 cartesian basis functions
    60 alpha electrons       60 beta electrons
       nuclear repulsion energy      1115.7720187121 Hartrees.
 NAtoms=   30 NActive=   30 NUniq=   30 SFac= 1.00D+00 NAtFMM=   60 NAOKFM=F Big=F
 Integral buffers will be    131072 words long.
 Raffenetti 2 integral format.
 Two-electron integral symmetry is turned off.
 One-electron integrals computed using PRISM.
 NBasis=   268 RedAO= T EigKep=  1.23D-03  NBF=   268
 NBsUse=   268 1.00D-06 EigRej= -1.00D+00 NBFU=   268
 ExpMin= 1.61D-01 ExpMax= 5.48D+03 ExpMxC= 8.25D+02 IAcc=3 IRadAn=         5 AccDes= 0.00D+00
 Harris functional with IExCor=  402 and IRadAn=       5 diagonalized for initial guess.
 HarFok:  IExCor=  402 AccDes= 0.00D+00 IRadAn=         5 IDoV= 1 UseB2=F ITyADJ=14
 ICtDFT=  3500011 ScaDFX=  1.000000  1.000000  1.000000  1.000000
 FoFCou: FMM=F IPFlag=           0 FMFlag=      100000 FMFlg1=           0
         NFxFlg=           0 DoJE=T BraDBF=F KetDBF=T FulRan=T
         wScrn=  0.000000 ICntrl=     500 IOpCl=  0 I1Cent=   200000004 NGrid=           0
         NMat0=    1 NMatS0=      1 NMatT0=    0 NMatD0=    1 NMtDS0=    0 NMtDT0=    0
 Symmetry not used in FoFCou.
 Requested convergence on RMS density matrix=1.00D-08 within 128 cycles.
 Requested convergence on MAX density matrix=1.00D-06.
 Requested convergence on             energy=1.00D-06.
 No special actions if energy rises.
 Integral accuracy reduced to 1.0D-05 until final iterations.
 Initial convergence to 1.0D-05 achieved.  Increase integral accuracy.
 SCF Done:  E(RB3LYP) =  -796.078696520     A.U. after   14 cycles
            NFock= 14  Conv=0.65D-08     -V/T= 2.0088
 DoSCS=F DFT=T ScalE2(SS,OS)=  1.000000  1.000000
 Range of M.O.s used for correlation:     1   268
 NBasis=   268 NAE=    60 NBE=    60 NFC=     0 NFV=     0
 NROrb=    268 NOA=    60 NOB=    60 NVA=   208 NVB=   208
 Symmetrizing basis deriv contribution to polar:
 IMax=3 JMax=2 DiffMx= 0.00D+00
 G2DrvN: will do    31 centers at a time, making    1 passes.
 Calling FoFCou, ICntrl=  3107 FMM=F I1Cent=   0 AccDes= 0.00D+00.
 End of G2Drv F.D. properties file   721 does not exist.
 End of G2Drv F.D. properties file   722 does not exist.
 End of G2Drv F.D. properties file   788 does not exist.
          IDoAtm=111111111111111111111111111111
          Differentiating once with respect to nuclear coordinates.
          There are    93 degrees of freedom in the 1st order CPHF.  IDoFFX=6 NUNeed=     0.
     87 vectors produced by pass  0 Test12= 1.34D-14 1.08D-09 XBig12= 1.80D-01 9.74D-02.
 AX will form    87 AO Fock derivatives at one time.
     87 vectors produced by pass  1 Test12= 1.34D-14 1.08D-09 XBig12= 4.37D-02 5.73D-02.
     87 vectors produced by pass  2 Test12= 1.34D-14 1.08D-09 XBig12= 2.82D-04 2.04D-03.
     87 vectors produced by pass  3 Test12= 1.34D-14 1.08D-09 XBig12= 1.12D-06 1.16D-04.
     87 vectors produced by pass  4 Test12= 1.34D-14 1.08D-09 XBig12= 1.54D-09 3.48D-06.
     69 vectors produced by pass  5 Test12= 1.34D-14 1.08D-09 XBig12= 1.33D-12 1.14D-07.
     11 vectors produced by pass  6 Test12= 1.34D-14 1.08D-09 XBig12= 1.04D-15 2.90D-09.
 InvSVY:  IOpt=1 It=  1 EMax= 5.55D-16
 Solved reduced A of dimension   515 with    93 vectors.
 End of Minotr F.D. properties file   721 does not exist.
 End of Minotr F.D. properties file   722 does not exist.
 End of Minotr F.D. properties file   788 does not exist.

 **********************************************************************

            Population analysis using the SCF density.

 **********************************************************************

 Alpha  occ. eigenvalues --  -19.21645 -19.16184 -19.13815 -14.37887 -14.37781
 Alpha  occ. eigenvalues --  -14.32089 -14.30603 -10.34274 -10.30827 -10.26460
 Alpha  occ. eigenvalues --  -10.23375 -10.22202 -10.21915 -10.21798 -10.20567
 Alpha  occ. eigenvalues --  -10.19601  -1.12800  -1.05918  -1.04862  -1.01220
 Alpha  occ. eigenvalues --   -0.94877  -0.89172  -0.86524  -0.81600  -0.77455
 Alpha  occ. eigenvalues --   -0.74192  -0.68662  -0.64868  -0.62716  -0.60977
 Alpha  occ. eigenvalues --   -0.60504  -0.58953  -0.56226  -0.54809  -0.51228
 Alpha  occ. eigenvalues --   -0.50230  -0.49802  -0.48412  -0.47270  -0.46137
 Alpha  occ. eigenvalues --   -0.45640  -0.43850  -0.43651  -0.42504  -0.41819
 Alpha  occ. eigenvalues --   -0.40733  -0.40443  -0.40122  -0.39631  -0.39402
 Alpha  occ. eigenvalues --   -0.36768  -0.35923  -0.34046  -0.30245  -0.28315
 Alpha  occ. eigenvalues --   -0.27724  -0.27268  -0.26023  -0.24441  -0.22796
 Alpha virt. eigenvalues --   -0.01297   0.00617   0.02571   0.05920   0.06947
 Alpha virt. eigenvalues --    0.07133   0.08035   0.10174   0.10460   0.12159
 Alpha virt. eigenvalues --    0.13189   0.13369   0.14423   0.15452   0.16216
 Alpha virt. eigenvalues --    0.16721   0.17684   0.19193   0.19824   0.20741
 Alpha virt. eigenvalues --    0.22088   0.22410   0.23093   0.24304   0.24893
 Alpha virt. eigenvalues --    0.27655   0.28399   0.31112   0.33278   0.33601
 Alpha virt. eigenvalues --    0.37340   0.38435   0.41551   0.45098   0.50699
 Alpha virt. eigenvalues --    0.50876   0.52412   0.52555   0.54028   0.54517
 Alpha virt. eigenvalues --    0.54716   0.55482   0.56187   0.58097   0.58837
 Alpha virt. eigenvalues --    0.60691   0.61962   0.62906   0.63265   0.63811
 Alpha virt. eigenvalues --    0.64889   0.65941   0.66859   0.67804   0.68867
 Alpha virt. eigenvalues --    0.70280   0.71849   0.72095   0.72751   0.75017
 Alpha virt. eigenvalues --    0.75369   0.76513   0.78388   0.79210   0.80398
 Alpha virt. eigenvalues --    0.80738   0.82174   0.82578   0.83527   0.83788
 Alpha virt. eigenvalues --    0.84590   0.85517   0.86599   0.86912   0.88098
 Alpha virt. eigenvalues --    0.88629   0.89634   0.90614   0.91839   0.92159
 Alpha virt. eigenvalues --    0.93230   0.95413   0.96010   0.96631   0.97491
 Alpha virt. eigenvalues --    0.99741   1.01646   1.02691   1.03152   1.05719
 Alpha virt. eigenvalues --    1.06763   1.08060   1.09809   1.11168   1.12613
 Alpha virt. eigenvalues --    1.17655   1.19987   1.23045   1.25338   1.27326
 Alpha virt. eigenvalues --    1.31938   1.34124   1.35111   1.36286   1.37276
 Alpha virt. eigenvalues --    1.37659   1.40109   1.40909   1.42733   1.43980
 Alpha virt. eigenvalues --    1.44728   1.49972   1.51372   1.51962   1.54092
 Alpha virt. eigenvalues --    1.54574   1.56582   1.61757   1.64249   1.67231
 Alpha virt. eigenvalues --    1.68496   1.70837   1.72198   1.74828   1.76329
 Alpha virt. eigenvalues --    1.77245   1.77284   1.79753   1.80841   1.81321
 Alpha virt. eigenvalues --    1.82511   1.84176   1.84923   1.86715   1.87762
 Alpha virt. eigenvalues --    1.90262   1.90622   1.92358   1.92769   1.95677
 Alpha virt. eigenvalues --    1.97550   1.99406   2.01424   2.02472   2.05930
 Alpha virt. eigenvalues --    2.07063   2.08292   2.10950   2.11919   2.15546
 Alpha virt. eigenvalues --    2.17205   2.18855   2.21239   2.23340   2.25418
 Alpha virt. eigenvalues --    2.26646   2.29232   2.32364   2.33220   2.34141
 Alpha virt. eigenvalues --    2.36058   2.39934   2.41321   2.42111   2.42441
 Alpha virt. eigenvalues --    2.43016   2.44613   2.48928   2.50211   2.52210
 Alpha virt. eigenvalues --    2.55096   2.58899   2.59926   2.61259   2.61786
 Alpha virt. eigenvalues --    2.64026   2.66059   2.68449   2.72352   2.75195
 Alpha virt. eigenvalues --    2.76533   2.80059   2.83845   2.85840   2.92657
 Alpha virt. eigenvalues --    2.97478   3.00592   3.02826   3.04321   3.09169
 Alpha virt. eigenvalues --    3.15013   3.19457   3.77446   3.88089   3.93189
 Alpha virt. eigenvalues --    4.01526   4.05250   4.09033   4.15397   4.16662
 Alpha virt. eigenvalues --    4.19507   4.25053   4.31560   4.35560   4.41943
 Alpha virt. eigenvalues --    4.53022   4.59270   4.63372
          Condensed to atoms (all electrons):
               1          2          3          4          5          6
     1  O    8.144150   0.528091  -0.099778   0.008315   0.000679   0.000000
     2  C    0.528091   4.345280   0.282035  -0.019898   0.005041  -0.000045
     3  N   -0.099778   0.282035   7.171990   0.206659  -0.022544   0.002811
     4  C    0.008315  -0.019898   0.206659   5.284889   0.282725  -0.099793
     5  C    0.000679   0.005041  -0.022544   0.282725   4.332245   0.283524
     6  O    0.000000  -0.000045   0.002811  -0.099793   0.283524   8.221961
     7  O   -0.000006   0.000769  -0.012101  -0.093256   0.596934  -0.073753
     8  C    0.003756  -0.004144  -0.046863   0.278471  -0.019028   0.003759
     9  C   -0.004270  -0.000167   0.002833  -0.029007  -0.001224  -0.002194
    10  C    0.000041   0.000004  -0.000056  -0.000402  -0.000110  -0.000522
    11  N   -0.000009   0.000000   0.000001  -0.000084  -0.000001   0.000001
    12  C    0.000440   0.000017  -0.000014   0.000235   0.000005   0.000005
    13  N   -0.014376   0.001029   0.000240  -0.003986   0.000197   0.000024
    14  C   -0.079727   0.313431  -0.109445   0.007077  -0.000087   0.000000
    15  C    0.001697  -0.022365   0.003103  -0.000134   0.000000   0.000000
    16  N    0.000244   0.003489  -0.000035   0.000000   0.000000   0.000000
    17  H    0.002761  -0.016515   0.290388  -0.049699  -0.002980   0.000858
    18  H    0.007669  -0.000906  -0.049130   0.373244  -0.028816   0.001282
    19  H    0.000003  -0.000005   0.000327   0.001619  -0.020569   0.220777
    20  H    0.001002   0.002867  -0.004967  -0.044983   0.001189   0.000135
    21  H    0.000128   0.000256   0.002953  -0.045848  -0.002460   0.003117
    22  H    0.000000   0.000000   0.000000  -0.000027  -0.000008  -0.000020
    23  H   -0.000010   0.000001   0.000000   0.000001   0.000000   0.000000
    24  H    0.044188  -0.002762  -0.000480   0.000727   0.000031   0.000000
    25  H   -0.000400  -0.016057  -0.001270  -0.000263   0.000001   0.000000
    26  H    0.002357  -0.032855   0.003883   0.000239  -0.000033   0.000000
    27  H    0.009224  -0.005336   0.000401   0.000000   0.000000   0.000000
    28  H    0.000815   0.005702   0.000037  -0.000004   0.000000   0.000000
    29  H    0.000007  -0.000168   0.000002   0.000000   0.000000   0.000000
    30  H    0.000000  -0.000249   0.000001   0.000000   0.000000   0.000000
               7          8          9         10         11         12
     1  O   -0.000006   0.003756  -0.004270   0.000041  -0.000009   0.000440
     2  C    0.000769  -0.004144  -0.000167   0.000004   0.000000   0.000017
     3  N   -0.012101  -0.046863   0.002833  -0.000056   0.000001  -0.000014
     4  C   -0.093256   0.278471  -0.029007  -0.000402  -0.000084   0.000235
     5  C    0.596934  -0.019028  -0.001224  -0.000110  -0.000001   0.000005
     6  O   -0.073753   0.003759  -0.002194  -0.000522   0.000001   0.000005
     7  O    7.985166   0.000363   0.000041   0.000000   0.000000   0.000000
     8  C    0.000363   5.291173   0.320112  -0.059052   0.007159   0.006564
     9  C    0.000041   0.320112   4.741009   0.566217  -0.044899  -0.093215
    10  C    0.000000  -0.059052   0.566217   4.968709   0.422655  -0.121590
    11  N    0.000000   0.007159  -0.044899   0.422655   6.674098   0.535339
    12  C    0.000000   0.006564  -0.093215  -0.121590   0.535339   4.731363
    13  N   -0.000001  -0.072526   0.377202  -0.075614  -0.085900   0.361662
    14  C   -0.000078  -0.000263  -0.000003   0.000000   0.000000   0.000001
    15  C    0.000000   0.000027  -0.000001   0.000000   0.000000   0.000000
    16  N    0.000000   0.000000   0.000000   0.000000   0.000000   0.000000
    17  H    0.035577   0.003490  -0.000115   0.000002   0.000000   0.000000
    18  H    0.000990  -0.062028   0.001973   0.000371  -0.000120  -0.000053
    19  H    0.004128  -0.000958   0.010387   0.006047  -0.000081  -0.000178
    20  H   -0.000126   0.365877  -0.024580   0.001076  -0.000147   0.000177
    21  H    0.000106   0.364889  -0.031454  -0.002868   0.000014  -0.000037
    22  H    0.000000  -0.001175  -0.061275   0.380644  -0.042146   0.007567
    23  H    0.000000  -0.000192   0.003345   0.007651  -0.039807   0.382068
    24  H    0.000000  -0.002646  -0.024027   0.007927   0.003868  -0.018280
    25  H    0.000000  -0.000008   0.000000   0.000000   0.000000   0.000000
    26  H   -0.000008  -0.000011   0.000001   0.000000   0.000000   0.000000
    27  H    0.000000   0.000000   0.000001   0.000000   0.000000   0.000000
    28  H    0.000000  -0.000008   0.000000   0.000000   0.000000   0.000000
    29  H    0.000000   0.000000   0.000000   0.000000   0.000000   0.000000
    30  H    0.000000   0.000000   0.000000   0.000000   0.000000   0.000000
              13         14         15         16         17         18
     1  O   -0.014376  -0.079727   0.001697   0.000244   0.002761   0.007669
     2  C    0.001029   0.313431  -0.022365   0.003489  -0.016515  -0.000906
     3  N    0.000240  -0.109445   0.003103  -0.000035   0.290388  -0.049130
     4  C   -0.003986   0.007077  -0.000134   0.000000  -0.049699   0.373244
     5  C    0.000197  -0.000087   0.000000   0.000000  -0.002980  -0.028816
     6  O    0.000024   0.000000   0.000000   0.000000   0.000858   0.001282
     7  O   -0.000001  -0.000078   0.000000   0.000000   0.035577   0.000990
     8  C   -0.072526  -0.000263   0.000027   0.000000   0.003490  -0.062028
     9  C    0.377202  -0.000003  -0.000001   0.000000  -0.000115   0.001973
    10  C   -0.075614   0.000000   0.000000   0.000000   0.000002   0.000371
    11  N   -0.085900   0.000000   0.000000   0.000000   0.000000  -0.000120
    12  C    0.361662   0.000001   0.000000   0.000000   0.000000  -0.000053
    13  N    6.892450  -0.000023  -0.000001   0.000000  -0.000001   0.004717
    14  C   -0.000023   5.329723   0.348647  -0.058511  -0.000002   0.000273
    15  C   -0.000001   0.348647   4.869134   0.305454  -0.000034  -0.000020
    16  N    0.000000  -0.058511   0.305454   6.930510  -0.000006   0.000000
    17  H   -0.000001  -0.000002  -0.000034  -0.000006   0.374244   0.004013
    18  H    0.004717   0.000273  -0.000020   0.000000   0.004013   0.543364
    19  H   -0.000284   0.000000   0.000000   0.000000  -0.000107   0.001361
    20  H   -0.003118  -0.000253   0.000012   0.000000   0.000138   0.002194
    21  H    0.003812   0.000009   0.000000   0.000000   0.000057   0.004080
    22  H    0.004986   0.000000   0.000000   0.000000   0.000000   0.000036
    23  H   -0.057758   0.000000   0.000000   0.000000   0.000000   0.000013
    24  H    0.267462   0.000363  -0.000002   0.000000  -0.000019   0.000179
    25  H    0.000000   0.346072  -0.027088   0.006085   0.000445   0.000044
    26  H    0.000000   0.357613  -0.037773  -0.002180   0.001768   0.000000
    27  H    0.000000  -0.031459   0.381215  -0.037418  -0.000005  -0.000002
    28  H    0.000000  -0.062991   0.381819  -0.048252   0.000006   0.000002
    29  H    0.000000   0.006219  -0.033690   0.313167   0.000000   0.000000
    30  H    0.000000  -0.004688  -0.033869   0.308420   0.000001   0.000000
              19         20         21         22         23         24
     1  O    0.000003   0.001002   0.000128   0.000000  -0.000010   0.044188
     2  C   -0.000005   0.002867   0.000256   0.000000   0.000001  -0.002762
     3  N    0.000327  -0.004967   0.002953   0.000000   0.000000  -0.000480
     4  C    0.001619  -0.044983  -0.045848  -0.000027   0.000001   0.000727
     5  C   -0.020569   0.001189  -0.002460  -0.000008   0.000000   0.000031
     6  O    0.220777   0.000135   0.003117  -0.000020   0.000000   0.000000
     7  O    0.004128  -0.000126   0.000106   0.000000   0.000000   0.000000
     8  C   -0.000958   0.365877   0.364889  -0.001175  -0.000192  -0.002646
     9  C    0.010387  -0.024580  -0.031454  -0.061275   0.003345  -0.024027
    10  C    0.006047   0.001076  -0.002868   0.380644   0.007651   0.007927
    11  N   -0.000081  -0.000147   0.000014  -0.042146  -0.039807   0.003868
    12  C   -0.000178   0.000177  -0.000037   0.007567   0.382068  -0.018280
    13  N   -0.000284  -0.003118   0.003812   0.004986  -0.057758   0.267462
    14  C    0.000000  -0.000253   0.000009   0.000000   0.000000   0.000363
    15  C    0.000000   0.000012   0.000000   0.000000   0.000000  -0.000002
    16  N    0.000000   0.000000   0.000000   0.000000   0.000000   0.000000
    17  H   -0.000107   0.000138   0.000057   0.000000   0.000000  -0.000019
    18  H    0.001361   0.002194   0.004080   0.000036   0.000013   0.000179
    19  H    0.354955   0.000348   0.000098   0.000327   0.000000  -0.000002
    20  H    0.000348   0.536481  -0.024293  -0.000037  -0.000003   0.000679
    21  H    0.000098  -0.024293   0.546156   0.002789   0.000004  -0.000022
    22  H    0.000327  -0.000037   0.002789   0.578156  -0.000154  -0.000098
    23  H    0.000000  -0.000003   0.000004  -0.000154   0.549390   0.000260
    24  H   -0.000002   0.000679  -0.000022  -0.000098   0.000260   0.345542
    25  H    0.000000   0.000007   0.000000   0.000000   0.000000  -0.000006
    26  H    0.000000  -0.000006  -0.000002   0.000000   0.000000  -0.000008
    27  H    0.000000  -0.000001   0.000000   0.000000   0.000000  -0.000006
    28  H    0.000000   0.000046   0.000000   0.000000   0.000000  -0.000005
    29  H    0.000000   0.000000   0.000000   0.000000   0.000000   0.000000
    30  H    0.000000   0.000000   0.000000   0.000000   0.000000   0.000000
              25         26         27         28         29         30
     1  O   -0.000400   0.002357   0.009224   0.000815   0.000007   0.000000
     2  C   -0.016057  -0.032855  -0.005336   0.005702  -0.000168  -0.000249
     3  N   -0.001270   0.003883   0.000401   0.000037   0.000002   0.000001
     4  C   -0.000263   0.000239   0.000000  -0.000004   0.000000   0.000000
     5  C    0.000001  -0.000033   0.000000   0.000000   0.000000   0.000000
     6  O    0.000000   0.000000   0.000000   0.000000   0.000000   0.000000
     7  O    0.000000  -0.000008   0.000000   0.000000   0.000000   0.000000
     8  C   -0.000008  -0.000011   0.000000  -0.000008   0.000000   0.000000
     9  C    0.000000   0.000001   0.000001   0.000000   0.000000   0.000000
    10  C    0.000000   0.000000   0.000000   0.000000   0.000000   0.000000
    11  N    0.000000   0.000000   0.000000   0.000000   0.000000   0.000000
    12  C    0.000000   0.000000   0.000000   0.000000   0.000000   0.000000
    13  N    0.000000   0.000000   0.000000   0.000000   0.000000   0.000000
    14  C    0.346072   0.357613  -0.031459  -0.062991   0.006219  -0.004688
    15  C   -0.027088  -0.037773   0.381215   0.381819  -0.033690  -0.033869
    16  N    0.006085  -0.002180  -0.037418  -0.048252   0.313167   0.308420
    17  H    0.000445   0.001768  -0.000005   0.000006   0.000000   0.000001
    18  H    0.000044   0.000000  -0.000002   0.000002   0.000000   0.000000
    19  H    0.000000   0.000000   0.000000   0.000000   0.000000   0.000000
    20  H    0.000007  -0.000006  -0.000001   0.000046   0.000000   0.000000
    21  H    0.000000  -0.000002   0.000000   0.000000   0.000000   0.000000
    22  H    0.000000   0.000000   0.000000   0.000000   0.000000   0.000000
    23  H    0.000000   0.000000   0.000000   0.000000   0.000000   0.000000
    24  H   -0.000006  -0.000008  -0.000006  -0.000005   0.000000   0.000000
    25  H    0.532146  -0.031590  -0.006270   0.006476  -0.000060  -0.000773
    26  H   -0.031590   0.585500   0.005587  -0.005806  -0.000058   0.004572
    27  H   -0.006270   0.005587   0.556004  -0.043190  -0.004103   0.006058
    28  H    0.006476  -0.005806  -0.043190   0.647259  -0.001872  -0.006071
    29  H   -0.000060  -0.000058  -0.004103  -0.001872   0.451215  -0.033666
    30  H   -0.000773   0.004572   0.006058  -0.006071  -0.033666   0.465820
 Mulliken charges:
               1
     1  O   -0.556992
     2  C    0.633461
     3  N   -0.620981
     4  C   -0.056820
     5  C    0.595287
     6  O   -0.561927
     7  O   -0.444744
     8  C   -0.376739
     9  C    0.293310
    10  C   -0.101131
    11  N   -0.429943
    12  C    0.207925
    13  N   -0.600195
    14  C   -0.361897
    15  C   -0.136132
    16  N   -0.720969
    17  H    0.355734
    18  H    0.195270
    19  H    0.421807
    20  H    0.190287
    21  H    0.178518
    22  H    0.130435
    23  H    0.155191
    24  H    0.377135
    25  H    0.192509
    26  H    0.148811
    27  H    0.169302
    28  H    0.126036
    29  H    0.303006
    30  H    0.294445
 Sum of Mulliken charges =   0.00000
 Mulliken charges with hydrogens summed into heavy atoms:
               1
     1  O   -0.556992
     2  C    0.633461
     3  N   -0.265247
     4  C    0.138450
     5  C    0.595287
     6  O   -0.140120
     7  O   -0.444744
     8  C   -0.007934
     9  C    0.293310
    10  C    0.029304
    11  N   -0.429943
    12  C    0.363116
    13  N   -0.223059
    14  C   -0.020577
    15  C    0.159206
    16  N   -0.123518
 APT charges:
               1
     1  O   -0.575324
     2  C    0.358328
     3  N   -0.755124
     4  C   -0.328201
     5  C   -0.471196
     6  O   -0.067365
     7  O    0.282304
     8  C   -0.916095
     9  C   -0.559621
    10  C   -0.284204
    11  N    0.426007
    12  C   -0.579203
    13  N   -0.631303
    14  C   -0.806292
    15  C   -0.390199
    16  N   -1.643483
    17  H    0.683165
    18  H    0.329924
    19  H    0.400499
    20  H    0.276983
    21  H    0.571582
    22  H    0.743774
    23  H    0.703263
    24  H    0.231672
    25  H    0.514199
    26  H    0.417503
    27  H    0.312044
    28  H    0.259722
    29  H    0.888702
    30  H    0.607940
 Sum of APT charges =   0.00000
 APT charges with hydrogens summed into heavy atoms:
               1
     1  O   -0.575324
     2  C    0.358328
     3  N   -0.071959
     4  C    0.001723
     5  C   -0.471196
     6  O    0.333134
     7  O    0.282304
     8  C   -0.067530
     9  C   -0.559621
    10  C    0.459570
    11  N    0.426007
    12  C    0.124060
    13  N   -0.399631
    14  C    0.125410
    15  C    0.181567
    16  N   -0.146841
 Electronic spatial extent (au):  <R**2>=           4798.8886
 Charge=              0.0000 electrons
 Dipole moment (field-independent basis, Debye):
    X=              3.3292    Y=             -1.8875    Z=              1.1110  Tot=              3.9850
 Quadrupole moment (field-independent basis, Debye-Ang):
   XX=           -110.1597   YY=           -101.2403   ZZ=            -89.6719
   XY=             -8.9161   XZ=              3.8384   YZ=             -3.6138
 Traceless Quadrupole moment (field-independent basis, Debye-Ang):
   XX=             -9.8024   YY=             -0.8830   ZZ=             10.6854
   XY=             -8.9161   XZ=              3.8384   YZ=             -3.6138
 Octapole moment (field-independent basis, Debye-Ang**2):
  XXX=            221.8221  YYY=           -170.5817  ZZZ=             -8.8201  XYY=             48.6470
  XXY=            -13.8455  XXZ=             43.4334  XZZ=             33.0549  YZZ=            -28.2434
  YYZ=            -22.2484  XYZ=            -18.5531
 Hexadecapole moment (field-independent basis, Debye-Ang**3):
 XXXX=          -4782.0043 YYYY=          -2122.0420 ZZZZ=           -303.0724 XXXY=            123.3437
 XXXZ=            -45.0960 YYYX=            245.7524 YYYZ=           -216.2923 ZZZX=            -72.0340
 ZZZY=           -148.7744 XXYY=           -841.9902 XXZZ=           -682.9407 YYZZ=           -352.1322
 XXYZ=            -76.2945 YYXZ=              4.9558 ZZXY=            112.9717
 N-N= 1.115772018712D+03 E-N=-4.087683739769D+03  KE= 7.891703168828D+02
  Exact polarizability:   0.000   0.000   0.000   0.000   0.000   0.000
 Approx polarizability: 212.080   5.774 174.229  15.968  39.493 145.984
 Calling FoFJK, ICntrl=    100147 FMM=F ISym2X=0 I1Cent= 0 IOpClX= 0 NMat=1 NMatS=1 NMatT=0.
 -------------------------------------------------------------------
 Center     Atomic                   Forces (Hartrees/Bohr)
 Number     Number              X              Y              Z
 -------------------------------------------------------------------
      1        8          -0.000833750   -0.007669567   -0.002218394
      2        6           0.000454956    0.001477293   -0.002152239
      3        7          -0.001602016    0.002095418    0.000721479
      4        6           0.008713432    0.000835242   -0.000311315
      5        6          -0.011486009   -0.004077274   -0.003419665
      6        8           0.004957308    0.005349755    0.002458472
      7        8           0.012304517    0.009218757    0.005312446
      8        6          -0.007712894   -0.003370704   -0.004423893
      9        6           0.011250547    0.005435664    0.004784882
     10        6          -0.014547810   -0.001765769   -0.005790605
     11        7          -0.007797714    0.004970184    0.003833724
     12        6          -0.000352356    0.000757586    0.001585906
     13        7           0.002695057   -0.003593577   -0.001983701
     14        6          -0.002810379    0.001944653   -0.000631779
     15        6           0.005648747   -0.002355420    0.000583821
     16        7          -0.000904204    0.002214115   -0.005243738
     17        1           0.003343215    0.002923727    0.003137706
     18        1          -0.002407908   -0.002290894   -0.000312974
     19        1          -0.008752007   -0.006264806   -0.002971976
     20        1           0.004304868   -0.001409540    0.001956540
     21        1          -0.001130744    0.002142775    0.002523084
     22        1          -0.001275093    0.000227028    0.001397306
     23        1          -0.001840096   -0.003083764   -0.003425367
     24        1           0.007727403   -0.000077883   -0.000420422
     25        1           0.002404916    0.001011497   -0.001835609
     26        1           0.001403369    0.002114393    0.002360154
     27        1           0.000048325   -0.001867540   -0.000856081
     28        1          -0.003695164   -0.002039895    0.001996998
     29        1           0.000471872   -0.004393876   -0.000957963
     30        1           0.001419612    0.001542422    0.004303203
 -------------------------------------------------------------------
 Cartesian Forces:  Max     0.014547810 RMS     0.004409333
 FormGI is forming the generalized inverse of G from B-inverse, IUseBI=4.

 GradGradGradGradGradGradGradGradGradGradGradGradGradGradGradGradGradGrad
 Berny optimization.
 Internal  Forces:  Max     0.016250129 RMS     0.003405356
 Search for a local minimum.
 Step number   1 out of a maximum of  160
 All quantities printed in internal units (Hartrees-Bohrs-Radians)
 Mixed Optimization -- RFO/linear search
 Second derivative matrix not updated -- analytic derivatives used.
 ITU=  0
     Eigenvalues ---    0.00018   0.00180   0.00245   0.00278   0.00380
     Eigenvalues ---    0.00510   0.00619   0.00881   0.00922   0.01548
     Eigenvalues ---    0.01768   0.02085   0.02425   0.02843   0.03371
     Eigenvalues ---    0.03673   0.04201   0.04322   0.04393   0.04531
     Eigenvalues ---    0.04617   0.04729   0.05260   0.05385   0.05459
     Eigenvalues ---    0.06175   0.06280   0.06486   0.07783   0.08089
     Eigenvalues ---    0.08509   0.10793   0.10933   0.11235   0.11789
     Eigenvalues ---    0.11973   0.12962   0.13775   0.15478   0.15917
     Eigenvalues ---    0.17215   0.17615   0.18387   0.19627   0.19841
     Eigenvalues ---    0.20694   0.21718   0.22738   0.23326   0.23747
     Eigenvalues ---    0.24569   0.25215   0.25390   0.27623   0.30052
     Eigenvalues ---    0.31312   0.32268   0.32733   0.33462   0.34037
     Eigenvalues ---    0.34702   0.34761   0.34789   0.35124   0.35658
     Eigenvalues ---    0.36266   0.37596   0.37848   0.38469   0.38764
     Eigenvalues ---    0.43129   0.45126   0.45429   0.45499   0.45911
     Eigenvalues ---    0.47292   0.47591   0.48170   0.49875   0.52562
     Eigenvalues ---    0.60151   0.68991   0.81740   0.95595
 RFO step:  Lambda=-5.05344157D-03 EMin= 1.78612905D-04
 Linear search not attempted -- first point.
 Iteration  1 RMS(Cart)=  0.09603507 RMS(Int)=  0.00191484
 Iteration  2 RMS(Cart)=  0.00324043 RMS(Int)=  0.00014000
 Iteration  3 RMS(Cart)=  0.00000562 RMS(Int)=  0.00013997
 Iteration  4 RMS(Cart)=  0.00000000 RMS(Int)=  0.00013997
 Variable       Old X    -DE/DX   Delta X   Delta X   Delta X     New X
                                 (Linear)    (Quad)   (Total)
    R1        2.32975   0.00633   0.00000   0.00651   0.00651   2.33626
    R2        2.55235   0.00986   0.00000   0.01649   0.01649   2.56884
    R3        2.86258   0.00422   0.00000   0.01069   0.01069   2.87327
    R4        2.73411   0.00585   0.00000  -0.00236  -0.00236   2.73175
    R5        1.90626   0.00517   0.00000   0.01039   0.01039   1.91666
    R6        2.87639   0.00450   0.00000   0.00542   0.00542   2.88181
    R7        2.94890   0.00535   0.00000   0.02400   0.02400   2.97290
    R8        2.07161   0.00121   0.00000   0.00278   0.00278   2.07439
    R9        2.54844   0.00307   0.00000   0.00126   0.00126   2.54970
   R10        2.26526   0.01625   0.00000   0.01675   0.01675   2.28202
   R11        1.82263   0.01095   0.00000   0.02228   0.02228   1.84491
   R12        2.82468   0.00185   0.00000  -0.00524  -0.00524   2.81944
   R13        2.05659   0.00420   0.00000   0.01166   0.01166   2.06825
   R14        2.06012   0.00349   0.00000   0.00928   0.00928   2.06940
   R15        2.57451   0.01606   0.00000   0.02940   0.02941   2.60392
   R16        2.59571   0.00476   0.00000   0.01405   0.01408   2.60979
   R17        2.61661  -0.00322   0.00000  -0.01262  -0.01263   2.60398
   R18        2.04219   0.00164   0.00000   0.00475   0.00475   2.04695
   R19        2.47775   0.00737   0.00000   0.01177   0.01174   2.48949
   R20        2.56249   0.00887   0.00000   0.01434   0.01433   2.57683
   R21        2.03291   0.00474   0.00000   0.01147   0.01147   2.04437
   R22        1.90722   0.00715   0.00000   0.01743   0.01743   1.92465
   R23        2.86968   0.00733   0.00000   0.02164   0.02164   2.89132
   R24        2.06660   0.00301   0.00000   0.00852   0.00852   2.07512
   R25        2.06556   0.00335   0.00000   0.00977   0.00977   2.07533
   R26        2.77025   0.00096   0.00000  -0.00046  -0.00046   2.76979
   R27        2.06198   0.00143   0.00000   0.00451   0.00451   2.06648
   R28        2.07318   0.00426   0.00000   0.01302   0.01302   2.08620
   R29        1.91439   0.00448   0.00000   0.00972   0.00972   1.92411
   R30        1.91570   0.00477   0.00000   0.01064   0.01064   1.92634
    A1        2.11000   0.00691   0.00000   0.01382   0.01381   2.12382
    A2        2.14256  -0.00402   0.00000  -0.00791  -0.00792   2.13464
    A3        2.03048  -0.00288   0.00000  -0.00580  -0.00581   2.02467
    A4        2.10512   0.00665   0.00000  -0.00002  -0.00002   2.10510
    A5        2.13235  -0.00346   0.00000  -0.00394  -0.00394   2.12841
    A6        2.02313  -0.00310   0.00000   0.00356   0.00356   2.02669
    A7        1.87080   0.00051   0.00000   0.02744   0.02750   1.89830
    A8        1.95612   0.00589   0.00000   0.02549   0.02573   1.98184
    A9        1.88891  -0.00074   0.00000   0.00387   0.00404   1.89295
   A10        1.95654  -0.00528   0.00000  -0.02304  -0.02371   1.93283
   A11        1.87188   0.00181   0.00000   0.00341   0.00254   1.87442
   A12        1.91625  -0.00216   0.00000  -0.03594  -0.03616   1.88009
   A13        2.00649  -0.00218   0.00000  -0.00591  -0.00592   2.00057
   A14        2.15942   0.00189   0.00000   0.00245   0.00245   2.16187
   A15        2.11725   0.00028   0.00000   0.00343   0.00343   2.12068
   A16        1.91515   0.00364   0.00000   0.01629   0.01629   1.93144
   A17        1.96595   0.00176   0.00000  -0.01855  -0.01852   1.94742
   A18        1.88741  -0.00247   0.00000  -0.01186  -0.01174   1.87567
   A19        1.93565  -0.00038   0.00000  -0.00276  -0.00273   1.93292
   A20        1.91551   0.00272   0.00000   0.02433   0.02419   1.93970
   A21        1.89730  -0.00199   0.00000   0.00883   0.00869   1.90599
   A22        1.85899   0.00034   0.00000   0.00144   0.00123   1.86022
   A23        2.31568   0.00105   0.00000   0.02499   0.02494   2.34061
   A24        2.13153   0.00035   0.00000  -0.02034  -0.02038   2.11115
   A25        1.83568  -0.00141   0.00000  -0.00489  -0.00484   1.83084
   A26        1.93001   0.00217   0.00000   0.00518   0.00512   1.93513
   A27        2.23493  -0.00069   0.00000  -0.00382  -0.00393   2.23101
   A28        2.11824  -0.00148   0.00000  -0.00135  -0.00146   2.11678
   A29        1.83130  -0.00122   0.00000   0.00018   0.00016   1.83146
   A30        1.95155   0.00329   0.00000   0.00557   0.00558   1.95712
   A31        2.20622  -0.00314   0.00000  -0.01487  -0.01487   2.19135
   A32        2.12542  -0.00015   0.00000   0.00930   0.00930   2.13471
   A33        1.87624  -0.00284   0.00000  -0.00603  -0.00602   1.87022
   A34        2.16756  -0.00130   0.00000  -0.02097  -0.02103   2.14653
   A35        2.23937   0.00414   0.00000   0.02693   0.02686   2.26623
   A36        1.95557   0.00182   0.00000   0.00858   0.00856   1.96413
   A37        1.89116   0.00001   0.00000   0.00264   0.00267   1.89383
   A38        1.91596  -0.00070   0.00000   0.00224   0.00222   1.91818
   A39        1.90272  -0.00100   0.00000  -0.00817  -0.00818   1.89454
   A40        1.93063  -0.00007   0.00000   0.00108   0.00103   1.93166
   A41        1.86509  -0.00017   0.00000  -0.00721  -0.00722   1.85786
   A42        1.90794   0.00101   0.00000   0.00549   0.00543   1.91338
   A43        1.89039   0.00082   0.00000   0.00160   0.00161   1.89200
   A44        1.90737  -0.00078   0.00000  -0.00155  -0.00167   1.90570
   A45        1.90479  -0.00164   0.00000  -0.01145  -0.01141   1.89338
   A46        1.98111   0.00111   0.00000   0.01620   0.01617   1.99728
   A47        1.87002  -0.00056   0.00000  -0.01115  -0.01111   1.85891
   A48        1.91980  -0.00065   0.00000  -0.00601  -0.00601   1.91378
   A49        1.91777  -0.00018   0.00000   0.00114   0.00114   1.91891
   A50        1.84636   0.00053   0.00000   0.00196   0.00196   1.84832
    D1       -0.04727  -0.00138   0.00000  -0.05681  -0.05683  -0.10410
    D2       -2.95284  -0.00146   0.00000  -0.05520  -0.05523  -3.00807
    D3        3.07660  -0.00100   0.00000  -0.05025  -0.05022   3.02638
    D4        0.17103  -0.00108   0.00000  -0.04864  -0.04862   0.12241
    D5       -0.45061   0.00035   0.00000  -0.01874  -0.01876  -0.46937
    D6        1.64931   0.00025   0.00000  -0.02183  -0.02183   1.62747
    D7       -2.60295  -0.00032   0.00000  -0.02772  -0.02775  -2.63070
    D8        2.70907  -0.00016   0.00000  -0.02568  -0.02566   2.68341
    D9       -1.47420  -0.00026   0.00000  -0.02876  -0.02873  -1.50293
   D10        0.55673  -0.00083   0.00000  -0.03465  -0.03465   0.52208
   D11       -2.85284  -0.00114   0.00000   0.01088   0.01116  -2.84167
   D12        1.27663   0.00136   0.00000   0.00457   0.00436   1.28099
   D13       -0.83900   0.00085   0.00000   0.03081   0.03074  -0.80826
   D14        0.06689  -0.00122   0.00000   0.00842   0.00870   0.07559
   D15       -2.08683   0.00128   0.00000   0.00211   0.00189  -2.08493
   D16        2.08072   0.00077   0.00000   0.02835   0.02828   2.10900
   D17        3.06900  -0.00076   0.00000   0.02194   0.02212   3.09112
   D18       -0.07867  -0.00119   0.00000   0.01658   0.01676  -0.06191
   D19       -1.06073   0.00361   0.00000   0.05814   0.05809  -1.00264
   D20        2.07478   0.00318   0.00000   0.05279   0.05273   2.12752
   D21        1.04385  -0.00105   0.00000   0.00214   0.00201   1.04586
   D22       -2.10382  -0.00148   0.00000  -0.00322  -0.00334  -2.10716
   D23       -2.19201  -0.00265   0.00000  -0.05615  -0.05616  -2.24816
   D24       -0.07208   0.00020   0.00000  -0.04558  -0.04553  -0.11761
   D25        1.96023  -0.00106   0.00000  -0.05237  -0.05238   1.90785
   D26        1.98648  -0.00374   0.00000  -0.09337  -0.09306   1.89342
   D27       -2.17678  -0.00089   0.00000  -0.08281  -0.08243  -2.25921
   D28       -0.14447  -0.00215   0.00000  -0.08960  -0.08928  -0.23375
   D29       -0.09219  -0.00120   0.00000  -0.05905  -0.05942  -0.15161
   D30        2.02773   0.00165   0.00000  -0.04848  -0.04879   1.97894
   D31       -2.22314   0.00039   0.00000  -0.05527  -0.05564  -2.27878
   D32       -0.04418   0.00058   0.00000   0.03407   0.03407  -0.01012
   D33        3.10332   0.00099   0.00000   0.03929   0.03929  -3.14057
   D34       -2.04381   0.00021   0.00000   0.03037   0.03032  -2.01349
   D35        1.06733   0.00021   0.00000   0.01792   0.01786   1.08519
   D36        2.13550   0.00028   0.00000   0.04080   0.04097   2.17647
   D37       -1.03654   0.00028   0.00000   0.02835   0.02851  -1.00803
   D38        0.10864  -0.00051   0.00000   0.02062   0.02051   0.12915
   D39       -3.06341  -0.00052   0.00000   0.00816   0.00805  -3.05535
   D40        3.11874   0.00009   0.00000  -0.01070  -0.01078   3.10796
   D41       -0.02280  -0.00046   0.00000  -0.03552  -0.03559  -0.05839
   D42        0.00387   0.00008   0.00000   0.00053   0.00057   0.00444
   D43       -3.13767  -0.00048   0.00000  -0.02429  -0.02424   3.12128
   D44       -3.12170  -0.00016   0.00000   0.00798   0.00774  -3.11396
   D45        0.01448  -0.00034   0.00000  -0.00666  -0.00659   0.00789
   D46       -0.00330  -0.00013   0.00000  -0.00094  -0.00094  -0.00424
   D47        3.13287  -0.00031   0.00000  -0.01558  -0.01527   3.11761
   D48       -0.00292   0.00002   0.00000   0.00014   0.00008  -0.00283
   D49        3.13863   0.00054   0.00000   0.02302   0.02301  -3.12155
   D50        0.00074  -0.00011   0.00000  -0.00078  -0.00073   0.00001
   D51        3.13941   0.00011   0.00000   0.00116   0.00122   3.14063
   D52        0.00164   0.00016   0.00000   0.00114   0.00111   0.00275
   D53       -3.13424   0.00038   0.00000   0.01677   0.01697  -3.11727
   D54       -3.13719  -0.00004   0.00000  -0.00065  -0.00073  -3.13791
   D55        0.01011   0.00017   0.00000   0.01499   0.01514   0.02525
   D56        3.08766  -0.00090   0.00000  -0.02795  -0.02796   3.05970
   D57        1.01403   0.00002   0.00000  -0.01824  -0.01825   0.99578
   D58       -1.01766   0.00066   0.00000  -0.00501  -0.00503  -1.02269
   D59        0.99448  -0.00140   0.00000  -0.03123  -0.03121   0.96327
   D60       -1.07915  -0.00048   0.00000  -0.02152  -0.02150  -1.10066
   D61       -3.11084   0.00015   0.00000  -0.00829  -0.00828  -3.11913
   D62       -1.05147  -0.00056   0.00000  -0.01818  -0.01818  -1.06965
   D63       -3.12510   0.00036   0.00000  -0.00847  -0.00847  -3.13358
   D64        1.12639   0.00100   0.00000   0.00475   0.00475   1.13114
   D65       -3.02483   0.00008   0.00000   0.00948   0.00954  -3.01530
   D66        1.23254  -0.00009   0.00000   0.00993   0.00998   1.24252
   D67       -0.96017   0.00070   0.00000   0.00793   0.00794  -0.95223
   D68       -2.98599   0.00054   0.00000   0.00838   0.00839  -2.97759
   D69        1.12409  -0.00044   0.00000  -0.00373  -0.00379   1.12030
   D70       -0.90172  -0.00060   0.00000  -0.00328  -0.00334  -0.90506
         Item               Value     Threshold  Converged?
 Maximum Force            0.016250     0.000450     NO 
 RMS     Force            0.003405     0.000300     NO 
 Maximum Displacement     0.303064     0.001800     NO 
 RMS     Displacement     0.096645     0.001200     NO 
 Predicted change in Energy=-2.759752D-03
 GradGradGradGradGradGradGradGradGradGradGradGradGradGradGradGradGradGrad

                          Input orientation:                          
 ---------------------------------------------------------------------
 Center     Atomic      Atomic             Coordinates (Angstroms)
 Number     Number       Type             X           Y           Z
 ---------------------------------------------------------------------
      1          8           0        0.561504   -1.018924   -0.631824
      2          6           0        1.340402   -0.200237   -0.130328
      3          7           0        0.908211    0.997224    0.346310
      4          6           0       -0.465788    1.408737    0.166086
      5          6           0       -0.561915    2.912835    0.398549
      6          8           0       -1.789927    3.435125    0.199415
      7          8           0        0.367970    3.601005    0.744980
      8          6           0       -1.479438    0.636451    1.088590
      9          6           0       -2.615068    0.071114    0.303255
     10          6           0       -3.973184    0.302667    0.278460
     11          7           0       -4.586086   -0.473019   -0.681466
     12          6           0       -3.609820   -1.163702   -1.234057
     13          7           0       -2.397949   -0.873832   -0.680211
     14          6           0        2.834450   -0.460866   -0.022097
     15          6           0        3.166057   -1.952999    0.045281
     16          7           0        4.620375   -2.135110    0.035233
     17          1           0        1.553329    1.717095    0.653419
     18          1           0       -0.751533    1.218873   -0.876647
     19          1           0       -2.419115    2.741006   -0.075269
     20          1           0       -0.921431   -0.153849    1.600375
     21          1           0       -1.873971    1.295924    1.868739
     22          1           0       -4.545149    0.969032    0.912596
     23          1           0       -3.722878   -1.883816   -2.033447
     24          1           0       -1.472648   -1.231338   -0.911112
     25          1           0        3.327808   -0.032884   -0.904855
     26          1           0        3.243896    0.067093    0.849506
     27          1           0        2.749619   -2.439581   -0.841081
     28          1           0        2.655966   -2.399071    0.916818
     29          1           0        4.840840   -3.126227   -0.040946
     30          1           0        5.015349   -1.828615    0.923589
 ---------------------------------------------------------------------
                    Distance matrix (angstroms):
                    1          2          3          4          5
     1  O    0.000000
     2  C    1.236296   0.000000
     3  N    2.267555   1.359370   0.000000
     4  C    2.754183   2.437003   1.445579   0.000000
     5  C    4.216926   3.686427   2.415277   1.524989   0.000000
     6  O    5.104775   4.808695   3.639353   2.420888   1.349242
     7  O    4.824602   4.020103   2.688954   2.415845   1.207592
     8  C    3.140944   3.183913   2.526263   1.573190   2.549496
     9  C    3.486138   3.988404   3.643217   2.535242   3.507121
    10  C    4.810261   5.352963   4.931028   3.679381   4.296994
    11  N    5.176694   5.958307   5.779728   4.608276   5.368836
    12  C    4.217059   5.162478   5.251645   4.296833   5.345398
    13  N    2.963403   3.838147   3.935136   3.107988   4.344375
    14  C    2.418570   1.520467   2.443798   3.797684   4.805632
    15  C    2.848626   2.536933   3.727238   4.950370   6.139944
    16  N    4.262074   3.811741   4.867078   6.200406   7.243609
    17  H    3.181409   2.082249   1.014252   2.099860   2.443156
    18  H    2.606096   2.635727   2.073524   1.097720   2.128752
    19  H    4.830208   4.773669   3.780160   2.376695   1.924376
    20  H    2.816054   2.848398   2.499048   2.169441   3.313335
    21  H    4.188421   4.070253   3.185522   2.212404   2.548990
    22  H    5.693426   6.090533   5.482756   4.170348   4.461925
    23  H    4.590045   5.665077   5.950683   5.127132   6.238121
    24  H    2.064194   3.096134   3.495153   3.023925   4.440588
    25  H    2.949451   2.139552   2.912214   4.197209   5.050354
    26  H    3.251000   2.157505   2.563937   4.003602   4.773448
    27  H    2.617233   2.739658   4.075820   5.114957   6.414928
    28  H    2.947859   2.768049   3.861988   4.980799   6.232151
    29  H    4.806515   4.563165   5.711251   6.983486   8.114998
    30  H    4.786611   4.155429   5.018685   6.410704   7.339134
                    6          7          8          9         10
     6  O    0.000000
     7  O    2.231967   0.000000
     8  C    2.952899   3.509924   0.000000
     9  C    3.465286   4.642603   1.491983   0.000000
    10  C    3.819051   5.471955   2.643198   1.377937   0.000000
    11  N    4.885494   6.570776   3.743700   2.269509   1.377969
    12  C    5.149374   6.514739   3.629569   2.208536   2.137750
    13  N    4.439656   5.450289   2.500656   1.381039   2.187365
    14  C    6.050841   4.813598   4.587740   5.485080   6.856908
    15  C    7.322391   6.258261   5.419812   6.130660   7.490739
    16  N    8.493906   7.175633   6.782243   7.569075   8.935948
    17  H    3.786173   2.227684   3.248821   4.495264   5.716953
    18  H    2.673563   3.091522   2.175136   2.486420   3.542985
    19  H    0.976284   3.029893   2.581999   2.703701   2.913031
    20  H    3.949394   4.061181   1.094472   2.145119   3.356942
    21  H    2.714753   3.406249   1.095077   2.121350   2.814648
    22  H    3.765832   5.576210   3.088717   2.214219   1.083197
    23  H    6.083839   7.384981   4.596943   3.241785   3.191907
    24  H    4.807266   5.429738   2.736328   2.115701   3.165585
    25  H    6.279945   4.968677   5.247042   6.065321   7.403872
    26  H    6.091439   4.557457   4.763529   5.884374   7.243468
    27  H    7.496818   6.684050   5.574094   6.032658   7.346385
    28  H    7.370107   6.423813   5.132783   5.853381   7.186969
    29  H    9.331462   8.116643   7.441741   8.119854   9.462894
    30  H    8.633838   7.149182   6.948815   7.887778   9.260252
                   11         12         13         14         15
    11  N    0.000000
    12  C    1.317382   0.000000
    13  N    2.224544   1.363598   0.000000
    14  C    7.449783   6.594804   5.289769   0.000000
    15  C    7.925543   6.940620   5.713940   1.530020   0.000000
    16  N    9.382704   8.383963   7.166558   2.448654   1.465710
    17  H    6.653641   6.206421   4.909590   2.615551   4.054666
    18  H    4.195760   3.738210   2.669961   4.051055   5.124279
    19  H    3.923417   4.243502   3.665168   6.152622   7.296737
    20  H    4.328784   4.035002   2.810615   4.102843   4.728934
    21  H    4.121684   4.323225   3.388148   5.369432   6.267566
    22  H    2.149936   3.167256   3.247099   7.574744   8.291755
    23  H    2.136194   1.081837   2.146334   7.004917   7.196063
    24  H    3.212675   2.162492   1.018483   4.464870   4.790937
    25  H    7.929272   7.036889   5.791542   1.098104   2.148432
    26  H    7.996513   7.268391   5.920793   1.098216   2.175685
    27  H    7.596408   6.498059   5.382835   2.143185   1.093536
    28  H    7.662344   6.738878   5.515335   2.161031   1.103971
    29  H    9.814109   8.757207   7.608023   3.336181   2.046655
    30  H    9.828601   8.915777   7.644657   2.742514   2.051043
                   16         17         18         19         20
    16  N    0.000000
    17  H    4.962702   0.000000
    18  H    6.398290   2.810999   0.000000
    19  H    8.564061   4.166497   2.395814   0.000000
    20  H    6.089883   3.243701   2.837053   3.664837   0.000000
    21  H    7.570355   3.660707   2.966976   2.482864   1.755333
    22  H    9.716599   6.149651   4.201826   2.938672   3.855546
    23  H    8.599561   6.929947   4.449018   5.188760   4.903626
    24  H    6.231958   4.505281   2.554355   4.168207   2.787900
    25  H    2.640804   2.939290   4.267167   6.435045   4.934252
    26  H    2.721660   2.370438   4.502183   6.330459   4.238227
    27  H    2.088146   4.576308   5.063953   7.358041   4.966074
    28  H    2.169279   4.269428   5.283662   7.291165   4.278556
    29  H    1.018195   5.894713   7.131124   9.334482   6.688254
    30  H    1.019373   4.962926   6.766458   8.783531   6.205501
                   21         22         23         24         25
    21  H    0.000000
    22  H    2.855917   0.000000
    23  H    5.362486   4.182587   0.000000
    24  H    3.778318   4.196165   2.597864   0.000000
    25  H    6.042935   8.141893   7.376439   4.947799   0.000000
    26  H    5.361103   7.841345   7.788029   5.199181   1.759210
    27  H    6.532588   8.240611   6.604834   4.392300   2.475997
    28  H    5.922793   7.949855   7.046929   4.663731   3.060834
    29  H    8.263838  10.284804   8.879804   6.648905   3.550264
    30  H    7.623568   9.961429   9.225168   6.768824   3.068493
                   26         27         28         29         30
    26  H    0.000000
    27  H    3.063626   0.000000
    28  H    2.536170   1.760858   0.000000
    29  H    3.679732   2.341987   2.493941   0.000000
    30  H    2.595620   2.936132   2.427376   1.626216   0.000000
 Symmetry turned off by external request.
 Stoichiometry    C9H14N4O3
 Framework group  C1[X(C9H14N4O3)]
 Deg. of freedom    84
 Full point group                 C1      NOp   1
 Rotational constants (GHZ):      0.6933722      0.3032236      0.2197463
 Standard basis: 6-31G(d) (6D, 7F)
   268 basis functions,   504 primitive gaussians,   268 cartesian basis functions
    60 alpha electrons       60 beta electrons
       nuclear repulsion energy      1111.2553148414 Hartrees.
 NAtoms=   30 NActive=   30 NUniq=   30 SFac= 1.00D+00 NAtFMM=   60 NAOKFM=F Big=F
 Integral buffers will be    131072 words long.
 Raffenetti 2 integral format.
 Two-electron integral symmetry is turned off.
 One-electron integrals computed using PRISM.
 NBasis=   268 RedAO= T EigKep=  1.29D-03  NBF=   268
 NBsUse=   268 1.00D-06 EigRej= -1.00D+00 NBFU=   268
 Initial guess from the checkpoint file:  "conf-340.chk"
 B after Tr=    -0.022361   -0.003201   -0.002128
         Rot=    0.999996   -0.000381    0.002043    0.001822 Ang=  -0.32 deg.
 ExpMin= 1.61D-01 ExpMax= 5.48D+03 ExpMxC= 8.25D+02 IAcc=2 IRadAn=         4 AccDes= 0.00D+00
 Harris functional with IExCor=  402 and IRadAn=       4 diagonalized for initial guess.
 HarFok:  IExCor=  402 AccDes= 0.00D+00 IRadAn=         4 IDoV= 1 UseB2=F ITyADJ=14
 ICtDFT=  3500011 ScaDFX=  1.000000  1.000000  1.000000  1.000000
 FoFCou: FMM=F IPFlag=           0 FMFlag=      100000 FMFlg1=           0
         NFxFlg=           0 DoJE=T BraDBF=F KetDBF=T FulRan=T
         wScrn=  0.000000 ICntrl=     500 IOpCl=  0 I1Cent=   200000004 NGrid=           0
         NMat0=    1 NMatS0=      1 NMatT0=    0 NMatD0=    1 NMtDS0=    0 NMtDT0=    0
 Symmetry not used in FoFCou.
 Requested convergence on RMS density matrix=1.00D-08 within 128 cycles.
[...]
 .00348477,-0.00482478,0.00035192,0.01109013,0.12775536,-0.09197022,-0.
 07037639,0.00027826,0.00019328,-0.00004168,0.00003943,0.00030963,-0.00
 004439,0.00000801,-0.00015716,0.00000837,0.00000917,-0.00005533,0.0000
 2692,-0.00042038,-0.00136318,0.00044465,0.00028002,0.00010180,-0.00012
 276,0.00008824,0.00009408,-0.00004184,0.00006095,0.00001771,0.00025970
 ,0.00106896,0.00120996,-0.00058217,-0.00005997,-0.00085831,0.00034871,
 -0.14001448,0.09891374,0.00210348,0.00116924,-0.00226393,-0.00069126,-
 0.00111076,-0.00093090,-0.00008878,0.00046191,-0.00007736,-0.00015487,
 -0.00032621,0.00060189,0.00019879,-0.00028352,-0.00014310,-0.00018441,
 0.00017865,-0.00011369,-0.00003594,0.00015757,0.00004996,0.00034207,0.
 00051984,0.00041245,0.02364884,-0.00147164,-0.00190020,0.00072937,-0.0
 0504623,-0.00387791,-0.00680001,-0.00292849,0.00169061,-0.00675412,0.0
 1505752,0.00721387,0.07929741,-0.07024337,-0.07769036,0.00008000,-0.00
 002104,0.00051865,-0.00003475,0.00009238,0.00009100,0.00010597,-0.0000
 3394,-0.00008315,-0.00003451,-0.00003033,-0.00002078,0.00003481,0.0001
 8349,0.00006991,0.00007434,-0.00004568,0.00014919,-0.00073262,-0.00005
 905,-0.00096148,0.00001483,0.00051035,-0.00002640,0.00078814,-0.000974
 61,0.00117520,0.00027081,0.00022352,-0.00082529,-0.09224036,0.06404864
 ,0.07692847,0.00014467,0.00158708,-0.00417204,-0.01425886,-0.00884069,
 0.03225314,-0.00165544,0.00089212,-0.00163560,0.00004974,0.00103962,-0
 .00086108,-0.00029700,-0.00036412,-0.00021184,-0.00013064,0.00022667,0
 .00005540,0.00008688,0.00017731,0.00001481,0.00022423,0.00002436,-0.00
 004943,0.00001553,-0.00000699,0.00000184,0.00002106,-0.00001078,-0.000
 00721,-0.00004642,-0.00001046,-0.00003301,0.00000273,0.00000892,0.0000
 1700,-0.00006066,0.00001831,0.00003296,-0.09100513,-0.02768616,0.09554
 335,0.00294242,0.00102642,-0.00569652,0.00071520,-0.00007249,-0.000676
 28,-0.00033142,-0.00001096,0.00041546,-0.00020423,0.00013815,0.0000912
 8,0.00006916,-0.00000584,0.00001960,0.00005768,-0.00001122,-0.00002258
 ,-0.00001941,0.00000458,-0.00000218,0.00000128,-0.00000025,0.00000042,
 -0.00000610,-0.00000502,-0.00000185,0.00013245,0.00006254,-0.00002988,
 0.09709374,-0.00070000,0.00006070,-0.00039145,0.00256751,0.00074132,-0
 .00665200,0.00130251,-0.00088084,0.00070960,-0.00022939,-0.00042360,0.
 00075584,0.00015595,0.00023014,0.00009359,0.00006274,-0.00012546,-0.00
 003821,-0.00006484,-0.00012650,0.00002393,-0.00008249,-0.00002889,0.00
 003088,-0.00000035,-0.00001114,-0.00002629,-0.00001687,0.00000650,0.00
 000246,0.00001055,0.00001275,0.00001722,0.00001608,0.00000640,0.000012
 58,-0.00000483,0.00000123,-0.00001817,-0.02563024,-0.05755400,0.051644
 99,-0.01355972,-0.01257313,0.03262795,-0.00095018,0.00295609,-0.001410
 96,0.00018500,0.00026020,-0.00068104,0.00022828,-0.00010756,0.00001800
 ,-0.00003973,0.00000536,-0.00000654,-0.00002572,-0.00001470,-0.0000025
 1,0.00000555,0.00000579,-0.00000711,-0.00000171,-0.00000061,-0.0000004
 0,-0.00000049,-0.00000006,0.00000165,0.00001431,-0.00001976,0.00001623
 ,0.02689289,0.06733829,-0.00078275,-0.00010953,-0.00056938,0.00019098,
 -0.00267640,0.00323158,0.00044918,0.00051555,0.00068161,0.00015315,0.0
 0001384,-0.00000701,0.00005448,0.00000746,-0.00002638,-0.00003877,0.00
 001061,0.00000737,-0.00004126,-0.00000843,0.00004267,-0.00001830,0.000
 01954,-0.00000693,0.00000059,-0.00002111,-0.00000717,-0.00000673,-0.00
 000508,-0.00000232,-0.00002359,0.00000804,0.00000531,0.00002910,0.0000
 0858,0.00001842,-0.00002930,-0.00000524,0.00001238,0.09066198,0.053495
 40,-0.25114377,0.00307685,0.00294959,-0.00659576,-0.00025192,-0.001458
 59,0.00055624,-0.00004933,0.00034256,-0.00047396,0.00007181,-0.0000313
 6,-0.00000990,0.00000733,0.00000412,-0.00000523,0.00000289,-0.00000506
 ,-0.00004021,-0.00002111,0.00001319,0.00000144,-0.00000107,0.00000233,
 -0.00000094,-0.00000024,0.00000110,-0.00000157,0.00008864,0.00002660,-
 0.00001825,-0.10208237,-0.05992840,0.27164951,-0.00938648,0.00086217,0
 .00005873,-0.00897242,-0.02408470,-0.02551906,0.00107499,0.00078458,0.
 00190532,0.00018970,-0.00016720,0.00029930,-0.00017108,-0.00011153,-0.
 00003249,0.00017598,-0.00004387,0.00001010,0.00018374,0.00010456,0.000
 09080,0.00003137,-0.00001557,0.00004660,0.00006970,-0.00011927,-0.0001
 6352,-0.00007903,0.00002832,-0.00001797,-0.00013114,0.00008725,0.00006
 360,0.00020254,0.00005632,0.00014200,-0.00032302,-0.00004726,-0.000076
 68,-0.09383930,-0.05818031,-0.07251509,0.00292902,0.00481480,0.0059401
 6,0.00120989,-0.00026654,0.00057640,-0.00116293,0.00152454,-0.00045962
 ,0.00020704,-0.00018992,0.00000284,-0.00003939,-0.00004645,-0.00000559
 ,-0.00000730,0.00002295,-0.00011876,-0.00003392,0.00004768,0.00001105,
 -0.00001385,0.00000339,0.00000596,-0.00000035,-0.00000010,-0.00000118,
 0.00056483,0.00011438,0.00012332,0.00644681,0.00859226,0.00904855,0.10
 134091,0.00176710,0.00201539,-0.00063213,0.00101480,0.00118397,0.00524
 956,0.00124567,-0.00053261,0.00024257,-0.00046467,0.00032920,0.0003968
 3,-0.00005959,0.00005086,-0.00001990,-0.00000450,0.00000083,-0.0000001
 1,-0.00000749,-0.00003439,0.00001664,-0.00003614,0.00000617,-0.0000060
 8,-0.00001325,0.00000720,0.00000113,-0.00001385,0.00000046,0.00000215,
 0.00001584,0.00001534,0.00001789,0.00001036,-0.00000628,-0.00001032,0.
 00004241,0.00000958,0.00000323,-0.06130830,-0.13749111,-0.10443375,-0.
 01433632,-0.02028472,-0.02455512,-0.00087934,0.00221546,0.00040892,0.0
 0090416,0.00032370,-0.00024373,0.00013281,-0.00000662,0.00005749,-0.00
 001010,0.00000267,-0.00000360,-0.00001459,-0.00001393,0.00000414,-0.00
 001157,0.00000269,-0.00000086,-0.00000145,0.00000115,-0.00000014,0.000
 00489,-0.00000009,0.00000406,-0.00003796,-0.00003482,-0.00004240,0.003
 82820,0.00481679,0.00531218,0.06513858,0.15170796,-0.00054763,0.000404
 39,0.00172297,0.00329962,-0.00171346,-0.00274048,0.00050005,0.00049562
 ,0.00055356,-0.00006928,0.00033968,0.00024354,-0.00027989,-0.00024904,
 -0.00008434,0.00008914,0.00006389,0.00002506,0.00019197,0.00016167,0.0
 0003422,0.00002986,-0.00001828,0.00004796,0.00004176,-0.00002840,-0.00
 005732,-0.00002463,0.00001347,-0.00001279,-0.00005970,0.00002663,0.000
 01993,0.00008308,0.00001767,0.00004104,-0.00007656,0.00000431,-0.00002
 084,-0.07587149,-0.10318704,-0.17379866,0.00312368,0.00463827,0.005455
 71,0.00090234,-0.00014781,0.00030524,-0.00049111,0.00060906,0.00036912
 ,0.00009856,-0.00001948,0.00003224,0.00000119,-0.00003469,0.00000549,0
 .00000921,0.00002812,-0.00005404,-0.00001875,0.00001763,0.00000277,-0.
 00000485,0.00000059,0.00000444,0.00000261,0.00000075,-0.00000015,0.000
 16150,-0.00000161,0.00004078,-0.01317376,-0.01710601,-0.01980107,0.081
 52952,0.11509998,0.18540798,-0.00145048,0.00014117,-0.00031386,0.00071
 735,0.00123383,0.00129881,-0.00004899,-0.00087291,-0.00064334,-0.00019
 459,0.00000061,-0.00004164,0.00000225,0.00010773,0.00000809,0.00002510
 ,-0.00004553,0.00000095,-0.00000851,-0.00008087,-0.00001461,-0.0000095
 7,0.00000585,-0.00000759,-0.00001948,0.00004169,0.00003411,0.00001039,
 -0.00000348,0.00000465,0.00005240,-0.00001698,-0.00000312,-0.00006189,
 -0.00001401,-0.00003743,0.00007209,-0.00000821,0.00000528,0.00414041,0
 .00319686,0.00546077,-0.09799680,-0.06275780,-0.07697967,-0.02287163,-
 0.02069087,-0.02464703,0.00025966,-0.00011787,0.00002249,-0.00001365,0
 .00004276,0.00001256,-0.00001080,0.00001334,-0.00000332,0.00000179,-0.
 00000334,0.00004110,0.00001451,-0.00001429,-0.00000222,0.00000245,-0.0
 0000125,-0.00000175,-0.00000035,0.00000130,-0.00000024,-0.00013384,0.0
 0000007,-0.00002815,0.00019052,-0.00049857,-0.00026678,-0.00044582,0.0
 0215521,-0.00041767,0.11703978,0.00029418,0.00263440,0.00156183,-0.003
 09554,-0.00227293,-0.00249879,0.00031806,0.00078477,0.00053163,0.00012
 679,0.00007135,-0.00002545,-0.00008605,-0.00013476,-0.00001252,0.00003
 354,0.00002850,0.00000824,0.00007727,0.00010684,0.00003251,0.00004403,
 -0.00002699,0.00002034,0.00003021,-0.00003661,-0.00005354,-0.00001819,
 0.00000863,-0.00000581,-0.00005035,0.00002346,0.00001797,0.00007148,0.
 00001072,0.00003631,-0.00007293,-0.00000458,0.00000186,-0.01248450,-0.
 02197245,-0.02333365,-0.06663065,-0.13285119,-0.10438911,0.00419487,0.
 00455002,0.00552663,-0.00030797,0.00033412,0.00002865,0.00004926,-0.00
 003416,0.00001548,0.00000104,-0.00001922,-0.00000185,0.00000724,0.0000
 0309,-0.00004072,-0.00001075,0.00001685,0.00000067,-0.00000392,0.00000
 185,0.00000239,0.00000336,0.00000219,-0.00000109,0.00014730,0.00002619
 ,0.00000449,-0.00046726,0.00158088,-0.00001071,0.00192124,-0.00596884,
 0.00187169,0.06977792,0.14504551,-0.00021987,0.00184377,-0.00019651,-0
 .00157381,-0.00134003,-0.00039681,0.00014558,0.00007696,0.00026300,-0.
 00002186,-0.00001534,-0.00005457,-0.00001477,-0.00002097,-0.00000389,0
 .00002261,-0.00000299,0.00000312,0.00002434,0.00002166,0.00001222,-0.0
 0000673,-0.00000108,-0.00000700,0.00000748,-0.00002609,-0.00002459,-0.
 00001402,0.00000554,-0.00000136,-0.00001288,0.00002140,0.00001335,0.00
 003832,0.00000189,0.00001405,-0.00001292,0.00002628,-0.00001058,0.0041
 4980,0.00390675,0.00488387,-0.08126859,-0.10661035,-0.18804586,0.00055
 304,0.00316581,0.00417849,0.00011738,0.00000954,0.00002893,0.00000386,
 -0.00001804,0.00000495,-0.00000858,-0.00001143,-0.00000108,-0.00000985
 ,-0.00001412,-0.00001760,-0.00000746,0.00001087,0.00000016,-0.00000282
 ,0.00000007,0.00000211,0.00000229,-0.00000293,0.00000518,0.00002380,-0
 .00005266,0.00002080,0.00056764,-0.00021640,0.00112142,-0.00045269,0.0
 0202748,0.00108812,0.08877506,0.11306861,0.19681897,-0.00004029,-0.000
 09038,0.00023605,0.00084465,-0.00026754,-0.00046801,0.00000735,0.00005
 395,0.00004829,0.00007536,-0.00001495,-0.00001909,0.00003508,-0.000043
 70,0.00000361,-0.00002859,0.00002566,-0.00000669,-0.00001270,0.0000299
 1,-0.00000933,-0.00000102,-0.00002454,0.00000530,0.00000739,0.00000056
 ,-0.00000332,0.00000597,0.00000153,-0.00000386,-0.00002066,-0.00000232
 ,-0.00001064,0.00001177,0.00000182,0.00000577,-0.00001867,0.00000938,0
 .00000031,0.00373324,0.00130510,-0.00616964,-0.07916078,-0.02326986,0.
 07142688,-0.02979601,-0.00535365,0.03121127,0.00001011,-0.00005956,0.0
 0005415,-0.00000943,-0.00000517,-0.00001732,0.00000779,-0.00000795,0.0
 0000726,0.00001511,0.00001387,0.00000123,0.00000250,-0.00000269,0.0000
 0024,0.00000134,-0.00000125,0.00000182,0.00000038,-0.00000151,0.000000
 41,0.00001761,-0.00000378,0.00000961,-0.00011403,0.00220063,-0.0003070
 4,-0.00011010,-0.00016398,0.00049104,0.00660230,0.00403744,-0.01148425
 ,0.09510717,0.00079186,0.00079738,0.00014577,-0.00302873,-0.00011577,0
 .00071238,0.00067387,-0.00019061,-0.00069752,-0.00017242,-0.00005903,0
 .00001714,-0.00005853,0.00004748,0.00001353,0.00007760,-0.00004439,-0.
 00000856,0.00005628,-0.00001623,-0.00002737,0.00004914,-0.00003796,0.0
 0003559,0.00001071,0.00003370,-0.00001545,0.00000140,0.00001103,-0.000
 00244,0.00001510,-0.00000754,-0.00000143,-0.00001835,-0.00000600,-0.00
 001202,0.00003048,0.00000852,-0.00000985,-0.00882622,-0.01127786,0.030
 91159,-0.02226456,-0.07007527,0.05201315,0.00396371,0.00504713,-0.0060
 1283,-0.00005326,0.00001974,0.00022868,0.00001227,-0.00000887,0.000004
 98,-0.00002385,-0.00001075,0.00001127,0.00001866,0.00000601,0.00001618
 ,0.00001647,-0.00000239,-0.00001053,0.00000018,-0.00000288,0.00000165,
 -0.00000028,-0.00000128,0.00000083,-0.00005090,-0.00002906,0.00000917,
 0.00163482,-0.00634505,0.00158249,-0.00059373,0.00170133,-0.00060309,0
 .00682945,0.00627078,-0.01675799,0.02179003,0.07394946,-0.00116708,-0.
 00074294,0.00054493,0.00191682,0.00098270,-0.00015869,-0.00072861,0.00
 025897,0.00021553,0.00010849,0.00003991,-0.00003836,0.00005129,0.00000
 919,0.00001086,-0.00007662,0.00002062,0.00001499,-0.00006811,-0.000023
 41,0.00000768,-0.00005477,0.00010448,-0.00006528,-0.00002668,-0.000029
 23,0.00003101,-0.00000591,-0.00001579,0.00001409,0.00001175,0.00000507
 ,0.00001372,-0.00000840,-0.00000259,-0.00000696,-0.00000989,-0.0000492
 4,0.00003120,0.00081839,0.00124640,-0.00560124,0.06898600,0.05357413,-
 0.24072730,0.00648503,-0.00121379,0.00494975,0.00007871,-0.00003076,-0
 .00015884,-0.00002244,0.00001888,0.00001022,0.00002380,0.00002899,-0.0
 0002189,-0.00002625,0.00000295,0.00000542,-0.00000980,-0.00001117,0.00
 001504,-0.00000038,0.00000607,-0.00000502,0.00000301,0.00000652,-0.000
 00490,0.00004525,0.00007150,-0.00007649,-0.00021536,0.00101811,0.00126
 810,-0.00008029,0.00038684,0.00098623,0.00821703,0.00679622,-0.0215181
 9,-0.08513687,-0.06133569,0.25767330,-0.00019224,-0.00053122,-0.000027
 34,0.00109173,0.00243860,-0.00023533,-0.00081755,0.00006619,0.00002920
 ,0.00006905,0.00007795,0.00017576,-0.00002313,-0.00009179,-0.00001033,
 -0.00005196,0.00005609,0.00000083,-0.00000605,0.00004230,0.00001074,-0
 .00002506,0.00004037,-0.00001910,-0.00000671,-0.00000525,0.00002580,0.
 00000901,-0.00000976,0.00000063,-0.00000828,-0.00001176,-0.00001295,-0
 .00001238,0.00000650,0.00000208,-0.00001275,-0.00002071,0.00000778,-0.
 00789108,-0.00059436,0.00046392,-0.00987168,0.04207828,-0.00226329,-0.
 06384709,0.05329708,-0.01889573,-0.00001952,-0.00005186,-0.00009488,-0
 .00000473,-0.00000226,-0.00000541,0.00002287,0.00000714,-0.00000003,0.
 00000304,0.00000755,-0.00001171,-0.00001448,-0.00000271,0.00000728,0.0
 0000098,0.00000151,-0.00000211,-0.00000336,0.00000181,-0.00000457,0.00
 003353,0.00004446,0.00000320,0.00001576,-0.00045960,-0.00012135,0.0000
 7945,-0.00010400,0.00032731,0.00126231,-0.00028014,-0.00070973,0.00062
 700,-0.00005392,0.00057807,0.07543857,0.00034369,0.00030732,0.00010464
 ,-0.00086910,-0.00062066,-0.00019281,0.00042001,-0.00011000,0.00002679
 ,-0.00012283,-0.00006043,-0.00003681,-0.00001681,0.00009071,0.00000779
 ,0.00006054,-0.00005547,0.00000072,0.00002147,-0.00004599,-0.00000494,
 0.00000147,-0.00001196,0.00000598,-0.00000381,0.00001432,-0.00000325,-
 0.00000567,0.00000421,0.00000203,0.00002613,0.00000111,0.00000910,-0.0
 0001539,-0.00000540,-0.00001067,0.00003416,0.00000143,-0.00000410,0.00
 291403,0.00121772,-0.00000701,-0.00490943,-0.00404952,0.00449742,0.074
 97332,-0.40731170,-0.00496632,-0.00000071,0.00003877,0.00001472,0.0000
 1324,0.00000476,0.00000568,-0.00002082,0.00000192,-0.00000247,-0.00000
 027,-0.00000667,0.00001446,0.00000991,-0.00000170,-0.00000433,-0.00000
 064,-0.00000105,-0.00000023,0.00000058,0.00000045,0.00000121,-0.000051
 36,-0.00001880,-0.00000990,-0.00008548,0.00020703,-0.00021424,-0.00019
 101,0.00037863,0.00005263,-0.00002541,0.00088289,0.00025021,-0.0008935
 2,0.00054144,-0.00056448,-0.07534240,0.42638504,-0.00035822,-0.0001876
 3,-0.00030171,0.00064997,0.00073494,0.00078340,-0.00072041,0.00020354,
 0.00001134,0.00016102,0.00009619,0.00007921,0.00006535,-0.00017529,-0.
 00000562,-0.00012752,0.00011025,-0.00001258,-0.00004780,0.00009083,-0.
 00000353,0.00000855,0.00000501,-0.00000177,0.00001220,-0.00001631,0.00
 001162,0.00002081,-0.00000663,-0.00000676,-0.00005348,-0.00001587,-0.0
 0003636,0.00001792,0.00001545,0.00002328,-0.00005810,0.00000319,0.0000
 0171,-0.00198106,0.00087087,-0.00012059,0.00739992,-0.00264506,-0.0040
 3682,-0.02982558,0.04413309,-0.02564613,0.00000340,-0.00010952,-0.0000
 3441,-0.00002714,-0.00000101,-0.00001595,0.00004213,-0.00000557,0.0000
 1414,0.00000455,0.00001387,-0.00002275,-0.00001277,-0.00000085,0.00000
 549,0.00000329,-0.00000096,0.00000083,-0.00000488,-0.00000246,-0.00000
 316,0.00008360,0.00003694,0.00004068,-0.00002872,-0.00038112,0.0004028
 1,0.00007040,0.00021438,0.00005122,-0.00080251,0.00036025,0.00014664,-
 0.00007229,-0.00090224,0.00019157,0.01819946,-0.00639566,0.03044510,0.
 00030276,0.00077198,0.00022978,-0.00095250,-0.00042931,-0.00004606,0.0
 0014842,0.00003822,0.00013015,-0.00004972,0.00000835,-0.00002681,-0.00
 004065,0.00005452,-0.00000273,0.00004305,-0.00003406,0.00000724,0.0000
 2147,-0.00002999,0.00001113,-0.00000079,0.00000142,-0.00000464,-0.0000
 0529,-0.00000304,-0.00000672,-0.00001102,0.00000148,0.00000353,0.00001
 696,0.00000807,0.00001542,0.00000058,-0.00000222,-0.00000250,0.0000186
 6,-0.00000280,-0.00000012,0.00110977,-0.00124942,-0.00028324,-0.021754
 68,-0.01885064,-0.03436188,-0.11699003,-0.05169472,-0.12095636,-0.0000
 1618,0.00009137,-0.00003710,0.00001986,-0.00000489,0.00000926,-0.00001
 269,0.00000453,-0.00000706,-0.00000315,-0.00001183,-0.00000244,0.00000
 022,0.00000456,-0.00000198,-0.00000189,0.00000096,-0.00000107,0.000001
 39,0.00000122,0.00000103,-0.00001421,-0.00001281,-0.00001529,-0.000080
 51,0.00003047,0.00020638,0.00001014,0.00120707,0.00015289,-0.00712690,
 0.00237303,0.00138963,0.00220018,-0.00082727,0.00031381,0.00415474,0.0
 0373617,0.00737792,0.13901203,-0.00034137,-0.00050821,-0.00013690,0.00
 052036,0.00012601,-0.00013409,-0.00012231,-0.00004118,0.00002044,0.000
 06656,-0.00001821,-0.00001469,0.00010406,0.00001778,0.00002356,-0.0000
 7494,0.00001398,-0.00000391,-0.00007690,-0.00002408,-0.00001334,-0.000
 00793,0.00002197,-0.00001368,-0.00000473,-0.00000911,0.00001411,0.0000
 0650,-0.00000838,0.00000294,-0.00000959,-0.00000749,-0.00000576,-0.000
 00216,0.00000295,0.00000106,-0.00001580,-0.00001373,0.00000874,0.00056
 107,0.00196243,0.00141322,0.00017147,0.00282580,0.00590791,-0.04740660
 ,-0.11261246,-0.11224923,0.00008322,-0.00004203,-0.00001555,-0.0000151
 1,0.00000242,-0.00000317,0.00001730,0.00001345,-0.00000385,-0.00000179
 ,0.00000316,-0.00000485,-0.00000392,-0.00000012,0.00000263,0.00000151,
 0.00000259,-0.00000233,-0.00000081,0.00000174,-0.00000316,0.00002614,0
 .00002808,-0.00000581,0.00001573,-0.00001815,0.00016098,-0.00004556,-0
 .00039594,-0.00073717,0.00160360,0.00093867,0.00065357,0.00073649,-0.0
 0020308,-0.00055844,-0.02060408,-0.01777837,-0.03604261,0.06481959,0.1
 2571949,0.00041150,0.00026846,0.00015922,-0.00045190,0.00005964,0.0001
 1823,-0.00000899,0.00005925,-0.00006004,0.00000534,0.00002188,0.000029
 85,-0.00005042,-0.00007420,-0.00001729,0.00001672,0.00002468,-0.000001
 00,0.00004281,0.00005380,0.00000432,0.00000646,-0.00001531,0.00000988,
 0.00000772,-0.00000104,-0.00001288,0.00000053,0.00000599,-0.00000449,-
 0.00001418,0.00000539,-0.00000188,0.00001603,-0.00000254,0.00000265,-0
 .00000799,0.00001966,-0.00000064,-0.00041869,-0.00004221,-0.00022404,0
 .01031153,0.00329829,-0.00054236,-0.15825603,-0.15435934,-0.26608638,-
 0.00004927,-0.00001985,0.00002907,-0.00000053,-0.00000015,-0.00000291,
 -0.00000140,-0.00001602,0.00000683,0.00000457,0.00000357,-0.00000099,0
 .00000112,-0.00000072,0.00000031,-0.00000034,-0.00000166,0.00000310,0.
 00000221,-0.00000182,0.00000239,0.00000329,-0.00002522,0.00000584,-0.0
 0011319,-0.00010643,-0.00028900,-0.00048171,0.00050267,0.00013206,0.00
 033005,0.00048745,0.00167268,0.00020511,0.00069260,0.00239954,0.002581
 79,0.00742380,-0.00196089,0.14590784,0.14173938,0.26462883\\-0.0000006
 5,0.00000005,-0.00000083,-0.00000098,0.00000061,0.00000191,0.00000238,
 -0.00000213,-0.00000141,-0.00000109,-0.00000127,-0.00000168,0.00000308
 ,0.00000038,0.00000107,0.00000064,0.00000023,-0.00000202,-0.00000224,-
 0.00000007,-0.00000023,0.00000125,-0.00000102,-0.00000018,-0.00000042,
 0.00000171,-0.00000335,0.00000039,0.00000040,-0.00000064,0.00000064,-0
 .00000014,0.00000115,0.00000111,-0.00000106,0.00000053,-0.00000026,-0.
 00000202,0.00000087,-0.00000061,0.00000199,-0.00000132,-0.00000078,-0.
 00000090,-0.00000241,-0.00000048,0.00000088,0.00000177,-0.00000051,-0.
 00000105,0.00000150,0.00000031,0.00000153,0.00000028,-0.00000052,-0.00
 000042,0.00000549,-0.00000012,0.,0.00000135,-0.00000110,-0.00000003,-0
 .00000075,0.00000074,0.00000039,-0.00000079,0.00000029,0.00000084,-0.0
 0000007,-0.00000134,0.00000035,0.00000019,0.00000021,-0.00000033,-0.00
 000008,0.00000106,-0.00000055,0.00000012,-0.00000089,0.00000167,0.0000
 0065,0.,-0.00000016,0.00000004,-0.00000019,0.00000040,-0.00000042,0.00
 000008,-0.00000025,-0.00000074\\\@


0EVERYBODY IS IGNORANT, ONLY ON DIFFERENT SUBJECTS.
0          WILL ROGERS
 Job cpu time:       0 days  1 hours  1 minutes  0.3 seconds.
 File lengths (MBytes):  RWF=    260 Int=      0 D2E=      0 Chk=      8 Scr=      1
 Normal termination of Gaussian 09 at Wed Jul 28 22:39:08 2021.
