 Entering Gaussian System, Link 0=g09
 Input=opt_freq-conf-591.com
 Output=opt_freq-conf-591.log
 Initial command:
 /aerosol/software/g09/l1.exe "/scratch/nicole/10589/Gau-85406.inp" -scrdir="/scratch/nicole/10589/"
 Entering Link 1 = /aerosol/software/g09/l1.exe PID=     85416.
  
 Copyright (c) 1988,1990,1992,1993,1995,1998,2003,2009,2013,
            Gaussian, Inc.  All Rights Reserved.
  
 This is part of the Gaussian(R) 09 program.  It is based on
 the Gaussian(R) 03 system (copyright 2003, Gaussian, Inc.),
 the Gaussian(R) 98 system (copyright 1998, Gaussian, Inc.),
 the Gaussian(R) 94 system (copyright 1995, Gaussian, Inc.),
 the Gaussian 92(TM) system (copyright 1992, Gaussian, Inc.),
 the Gaussian 90(TM) system (copyright 1990, Gaussian, Inc.),
 the Gaussian 88(TM) system (copyright 1988, Gaussian, Inc.),
 the Gaussian 86(TM) system (copyright 1986, Carnegie Mellon
 University), and the Gaussian 82(TM) system (copyright 1983,
 Carnegie Mellon University). Gaussian is a federally registered
 trademark of Gaussian, Inc.
  
 This software contains proprietary and confidential information,
 including trade secrets, belonging to Gaussian, Inc.
  
 This software is provided under written license and may be
 used, copied, transmitted, or stored only in accord with that
 written license.
  
 The following legend is applicable only to US Government
 contracts under FAR:
  
                    RESTRICTED RIGHTS LEGEND
  
 Use, reproduction and disclosure by the US Government is
 subject to restrictions as set forth in subparagraphs (a)
 and (c) of the Commercial Computer Software - Restricted
 Rights clause in FAR 52.227-19.
  
 Gaussian, Inc.
 340 Quinnipiac St., Bldg. 40, Wallingford CT 06492
  
  
 ---------------------------------------------------------------
 Warning -- This program may not be used in any manner that
 competes with the business of Gaussian, Inc. or will provide
 assistance to any competitor of Gaussian, Inc.  The licensee
 of this program is prohibited from giving any competitor of
 Gaussian, Inc. access to this program.  By using this program,
 the user acknowledges that Gaussian, Inc. is engaged in the
 business of creating and licensing software in the field of
 computational chemistry and represents and warrants to the
 licensee that it is not a competitor of Gaussian, Inc. and that
 it will not use this program in any manner prohibited above.
 ---------------------------------------------------------------
  

 Cite this work as:
 Gaussian 09, Revision D.01,
 M. J. Frisch, G. W. Trucks, H. B. Schlegel, G. E. Scuseria, 
 M. A. Robb, J. R. Cheeseman, G. Scalmani, V. Barone, B. Mennucci, 
 G. A. Petersson, H. Nakatsuji, M. Caricato, X. Li, H. P. Hratchian, 
 A. F. Izmaylov, J. Bloino, G. Zheng, J. L. Sonnenberg, M. Hada, 
 M. Ehara, K. Toyota, R. Fukuda, J. Hasegawa, M. Ishida, T. Nakajima, 
 Y. Honda, O. Kitao, H. Nakai, T. Vreven, J. A. Montgomery, Jr., 
 J. E. Peralta, F. Ogliaro, M. Bearpark, J. J. Heyd, E. Brothers, 
 K. N. Kudin, V. N. Staroverov, T. Keith, R. Kobayashi, J. Normand, 
 K. Raghavachari, A. Rendell, J. C. Burant, S. S. Iyengar, J. Tomasi, 
 M. Cossi, N. Rega, J. M. Millam, M. Klene, J. E. Knox, J. B. Cross, 
 V. Bakken, C. Adamo, J. Jaramillo, R. Gomperts, R. E. Stratmann, 
 O. Yazyev, A. J. Austin, R. Cammi, C. Pomelli, J. W. Ochterski, 
 R. L. Martin, K. Morokuma, V. G. Zakrzewski, G. A. Voth, 
 P. Salvador, J. J. Dannenberg, S. Dapprich, A. D. Daniels, 
 O. Farkas, J. B. Foresman, J. V. Ortiz, J. Cioslowski, 
 and D. J. Fox, Gaussian, Inc., Wallingford CT, 2013.
 
 ******************************************
 Gaussian 09:  ES64L-G09RevD.01 24-Apr-2013
                28-Jul-2021 
 ******************************************
 %mem=2gb
 %nproc=4
 Will use up to    4 processors via shared memory.
 %chk=conf-591.chk
 ----------------------------------------------------------------------
 # B3LYP/6-31G(d) opt=calcfc freq=noraman nosymm integral(ultrafinegrid
 )
 ----------------------------------------------------------------------
 1/10=4,14=-1,18=20,19=15,26=4,38=1/1,3;
 2/9=110,12=2,15=1,17=6,18=5,40=1/2;
 3/5=1,6=6,7=1,11=2,16=1,25=1,30=1,71=2,74=-5,75=-5,140=1/1,2,3;
 4//1;
 5/5=2,38=5/2;
 8/6=4,10=90,11=11/1;
 11/6=1,8=1,9=11,15=111,16=1,31=1/1,2,10;
 10/6=1,13=1,31=1/2;
 6/7=2,8=2,9=2,10=2,28=1/1;
 7/10=1,18=20,25=1,30=1/1,2,3,16;
 1/10=4,14=-1,18=20,19=15,26=4/3(2);
 2/9=110,15=1/2;
 99//99;
 2/9=110,15=1/2;
 3/5=1,6=6,7=1,11=2,16=1,25=1,30=1,71=1,74=-5,75=-5/1,2,3;
 4/5=5,16=3,69=1/1;
 5/5=2,38=5/2;
 7/30=1/1,2,3,16;
 1/14=-1,18=20,19=15,26=4/3(-5);
 2/9=110,15=1/2;
 6/7=2,8=2,9=2,10=2,19=2,28=1/1;
 99/9=1/99;
 ------------------------------------------------------------
 Candidate Structure: Conf:591 OPT and FREQ calc in gas phase
 ------------------------------------------------------------
 Symbolic Z-matrix:
 Charge =  0 Multiplicity = 1
 O                    -1.50958  -0.24594  -1.12071 
 C                    -1.65441  -0.21585   0.0925 
 N                    -0.5916   -0.29727   0.93485 
 C                     0.76368  -0.4252    0.42429 
 C                     1.58669  -1.02445   1.54156 
 O                     2.3125   -2.09563   1.1682 
 O                     1.5985   -0.57963   2.66283 
 C                     1.31394   0.95998   0.02517 
 C                     2.70026   0.91407  -0.52907 
 C                     3.9178    1.22596   0.01077 
 N                     4.93794   0.98003  -0.89233 
 C                     4.33935   0.52657  -1.96961 
 N                     2.98641   0.46695  -1.80145 
 C                    -3.00269  -0.05793   0.77323 
 C                    -4.17095  -0.43485  -0.12418 
 N                    -5.42234  -0.19908   0.60083 
 H                    -0.71097  -0.23088   1.93345 
 H                     0.74552  -1.08257  -0.44413 
 H                     2.80172  -2.37166   1.95519 
 H                     1.31406   1.5975    0.90708 
 H                     0.6228    1.38591  -0.69981 
 H                     4.1116    1.5998    1.00794 
 H                     4.81374   0.23118  -2.88829 
 H                     2.31183   0.15899  -2.48369 
 H                    -3.02322  -0.65284   1.69002 
 H                    -3.1142    0.9894    1.07929 
 H                    -4.11323  -1.49734  -0.37067 
 H                    -4.08587   0.12045  -1.06646 
 H                    -6.20558  -0.54364   0.05872 
 H                    -5.57369   0.79812   0.70512 
 

 GradGradGradGradGradGradGradGradGradGradGradGradGradGradGradGradGradGrad
 Berny optimization.
 Initialization pass.
                           ----------------------------
                           !    Initial Parameters    !
                           ! (Angstroms and Degrees)  !
 --------------------------                            --------------------------
 ! Name  Definition              Value          Derivative Info.                !
 --------------------------------------------------------------------------------
 ! R1    R(1,2)                  1.2222         calculate D2E/DX2 analytically  !
 ! R2    R(2,3)                  1.3586         calculate D2E/DX2 analytically  !
 ! R3    R(2,14)                 1.5186         calculate D2E/DX2 analytically  !
 ! R4    R(3,4)                  1.4539         calculate D2E/DX2 analytically  !
 ! R5    R(3,17)                 1.0079         calculate D2E/DX2 analytically  !
 ! R6    R(4,5)                  1.5115         calculate D2E/DX2 analytically  !
 ! R7    R(4,8)                  1.543          calculate D2E/DX2 analytically  !
 ! R8    R(4,18)                 1.0893         calculate D2E/DX2 analytically  !
 ! R9    R(5,6)                  1.3467         calculate D2E/DX2 analytically  !
 ! R10   R(5,7)                  1.2063         calculate D2E/DX2 analytically  !
 ! R11   R(6,19)                 0.9669         calculate D2E/DX2 analytically  !
 ! R12   R(8,9)                  1.4937         calculate D2E/DX2 analytically  !
 ! R13   R(8,20)                 1.0882         calculate D2E/DX2 analytically  !
 ! R14   R(8,21)                 1.0884         calculate D2E/DX2 analytically  !
 ! R15   R(9,10)                 1.3679         calculate D2E/DX2 analytically  !
 ! R16   R(9,13)                 1.3787         calculate D2E/DX2 analytically  !
 ! R17   R(10,11)                1.3845         calculate D2E/DX2 analytically  !
 ! R18   R(10,22)                1.0824         calculate D2E/DX2 analytically  !
 ! R19   R(11,12)                1.3132         calculate D2E/DX2 analytically  !
 ! R20   R(12,13)                1.3647         calculate D2E/DX2 analytically  !
 ! R21   R(12,23)                1.0753         calculate D2E/DX2 analytically  !
 ! R22   R(13,24)                1.0076         calculate D2E/DX2 analytically  !
 ! R23   R(14,15)                1.5206         calculate D2E/DX2 analytically  !
 ! R24   R(14,25)                1.0931         calculate D2E/DX2 analytically  !
 ! R25   R(14,26)                1.0968         calculate D2E/DX2 analytically  !
 ! R26   R(15,16)                1.4653         calculate D2E/DX2 analytically  !
 ! R27   R(15,27)                1.0922         calculate D2E/DX2 analytically  !
 ! R28   R(15,28)                1.097          calculate D2E/DX2 analytically  !
 ! R29   R(16,29)                1.013          calculate D2E/DX2 analytically  !
 ! R30   R(16,30)                1.014          calculate D2E/DX2 analytically  !
 ! A1    A(1,2,3)              121.4187         calculate D2E/DX2 analytically  !
 ! A2    A(1,2,14)             123.5544         calculate D2E/DX2 analytically  !
 ! A3    A(3,2,14)             115.0146         calculate D2E/DX2 analytically  !
 ! A4    A(2,3,4)              121.1161         calculate D2E/DX2 analytically  !
 ! A5    A(2,3,17)             121.1786         calculate D2E/DX2 analytically  !
 ! A6    A(4,3,17)             117.6531         calculate D2E/DX2 analytically  !
 ! A7    A(3,4,5)              106.432          calculate D2E/DX2 analytically  !
 ! A8    A(3,4,8)              110.1376         calculate D2E/DX2 analytically  !
 ! A9    A(3,4,18)             108.5126         calculate D2E/DX2 analytically  !
 ! A10   A(5,4,8)              110.6663         calculate D2E/DX2 analytically  !
 ! A11   A(5,4,18)             111.0446         calculate D2E/DX2 analytically  !
 ! A12   A(8,4,18)             109.9672         calculate D2E/DX2 analytically  !
 ! A13   A(4,5,6)              113.8206         calculate D2E/DX2 analytically  !
 ! A14   A(4,5,7)              123.1051         calculate D2E/DX2 analytically  !
 ! A15   A(6,5,7)              123.073          calculate D2E/DX2 analytically  !
 ! A16   A(5,6,19)             105.9096         calculate D2E/DX2 analytically  !
 ! A17   A(4,8,9)              113.5389         calculate D2E/DX2 analytically  !
 ! A18   A(4,8,20)             108.4415         calculate D2E/DX2 analytically  !
 ! A19   A(4,8,21)             107.2857         calculate D2E/DX2 analytically  !
 ! A20   A(9,8,20)             108.5794         calculate D2E/DX2 analytically  !
 ! A21   A(9,8,21)             110.7451         calculate D2E/DX2 analytically  !
 ! A22   A(20,8,21)            108.0966         calculate D2E/DX2 analytically  !
 ! A23   A(8,9,10)             132.2717         calculate D2E/DX2 analytically  !
 ! A24   A(8,9,13)             123.0274         calculate D2E/DX2 analytically  !
 ! A25   A(10,9,13)            104.681          calculate D2E/DX2 analytically  !
 ! A26   A(9,10,11)            110.9726         calculate D2E/DX2 analytically  !
 ! A27   A(9,10,22)            126.9908         calculate D2E/DX2 analytically  !
 ! A28   A(11,10,22)           122.0282         calculate D2E/DX2 analytically  !
 ! A29   A(10,11,12)           105.1044         calculate D2E/DX2 analytically  !
 ! A30   A(11,12,13)           111.4636         calculate D2E/DX2 analytically  !
 ! A31   A(11,12,23)           126.4854         calculate D2E/DX2 analytically  !
 ! A32   A(13,12,23)           122.0508         calculate D2E/DX2 analytically  !
 ! A33   A(9,13,12)            107.7781         calculate D2E/DX2 analytically  !
 ! A34   A(9,13,24)            125.8051         calculate D2E/DX2 analytically  !
 ! A35   A(12,13,24)           126.4152         calculate D2E/DX2 analytically  !
 ! A36   A(2,14,15)            113.0663         calculate D2E/DX2 analytically  !
 ! A37   A(2,14,25)            109.6361         calculate D2E/DX2 analytically  !
 ! A38   A(2,14,26)            108.3393         calculate D2E/DX2 analytically  !
 ! A39   A(15,14,25)           110.2211         calculate D2E/DX2 analytically  !
 ! A40   A(15,14,26)           108.8604         calculate D2E/DX2 analytically  !
 ! A41   A(25,14,26)           106.4831         calculate D2E/DX2 analytically  !
 ! A42   A(14,15,16)           108.9191         calculate D2E/DX2 analytically  !
 ! A43   A(14,15,27)           109.4936         calculate D2E/DX2 analytically  !
 ! A44   A(14,15,28)           108.7749         calculate D2E/DX2 analytically  !
 ! A45   A(16,15,27)           108.259          calculate D2E/DX2 analytically  !
 ! A46   A(16,15,28)           114.1907         calculate D2E/DX2 analytically  !
 ! A47   A(27,15,28)           107.125          calculate D2E/DX2 analytically  !
 ! A48   A(15,16,29)           109.9255         calculate D2E/DX2 analytically  !
 ! A49   A(15,16,30)           109.6695         calculate D2E/DX2 analytically  !
 ! A50   A(29,16,30)           105.9114         calculate D2E/DX2 analytically  !
 ! D1    D(1,2,3,4)             -0.0656         calculate D2E/DX2 analytically  !
 ! D2    D(1,2,3,17)           177.2451         calculate D2E/DX2 analytically  !
 ! D3    D(14,2,3,4)          -178.8382         calculate D2E/DX2 analytically  !
 ! D4    D(14,2,3,17)           -1.5275         calculate D2E/DX2 analytically  !
 ! D5    D(1,2,14,15)           20.6569         calculate D2E/DX2 analytically  !
 ! D6    D(1,2,14,25)          144.0797         calculate D2E/DX2 analytically  !
 ! D7    D(1,2,14,26)         -100.0943         calculate D2E/DX2 analytically  !
 ! D8    D(3,2,14,15)         -160.6            calculate D2E/DX2 analytically  !
 ! D9    D(3,2,14,25)          -37.1772         calculate D2E/DX2 analytically  !
 ! D10   D(3,2,14,26)           78.6488         calculate D2E/DX2 analytically  !
 ! D11   D(2,3,4,5)           -158.086          calculate D2E/DX2 analytically  !
 ! D12   D(2,3,4,8)             81.9102         calculate D2E/DX2 analytically  !
 ! D13   D(2,3,4,18)           -38.5106         calculate D2E/DX2 analytically  !
 ! D14   D(17,3,4,5)            24.5115         calculate D2E/DX2 analytically  !
 ! D15   D(17,3,4,8)           -95.4923         calculate D2E/DX2 analytically  !
 ! D16   D(17,3,4,18)          144.0868         calculate D2E/DX2 analytically  !
 ! D17   D(3,4,5,6)            129.2775         calculate D2E/DX2 analytically  !
 ! D18   D(3,4,5,7)            -51.1291         calculate D2E/DX2 analytically  !
 ! D19   D(8,4,5,6)           -111.0615         calculate D2E/DX2 analytically  !
 ! D20   D(8,4,5,7)             68.5318         calculate D2E/DX2 analytically  !
 ! D21   D(18,4,5,6)            11.3623         calculate D2E/DX2 analytically  !
 ! D22   D(18,4,5,7)          -169.0443         calculate D2E/DX2 analytically  !
 ! D23   D(3,4,8,9)           -179.2007         calculate D2E/DX2 analytically  !
 ! D24   D(3,4,8,20)            60.0281         calculate D2E/DX2 analytically  !
 ! D25   D(3,4,8,21)           -56.5037         calculate D2E/DX2 analytically  !
 ! D26   D(5,4,8,9)             63.3907         calculate D2E/DX2 analytically  !
 ! D27   D(5,4,8,20)           -57.3805         calculate D2E/DX2 analytically  !
 ! D28   D(5,4,8,21)          -173.9123         calculate D2E/DX2 analytically  !
 ! D29   D(18,4,8,9)           -59.6599         calculate D2E/DX2 analytically  !
 ! D30   D(18,4,8,20)          179.5689         calculate D2E/DX2 analytically  !
 ! D31   D(18,4,8,21)           63.0371         calculate D2E/DX2 analytically  !
 ! D32   D(4,5,6,19)           178.8488         calculate D2E/DX2 analytically  !
 ! D33   D(7,5,6,19)            -0.7447         calculate D2E/DX2 analytically  !
 ! D34   D(4,8,9,10)          -102.8953         calculate D2E/DX2 analytically  !
 ! D35   D(4,8,9,13)            75.2209         calculate D2E/DX2 analytically  !
 ! D36   D(20,8,9,10)           17.7983         calculate D2E/DX2 analytically  !
 ! D37   D(20,8,9,13)         -164.0855         calculate D2E/DX2 analytically  !
 ! D38   D(21,8,9,10)          136.3359         calculate D2E/DX2 analytically  !
 ! D39   D(21,8,9,13)          -45.5479         calculate D2E/DX2 analytically  !
 ! D40   D(8,9,10,11)          178.2377         calculate D2E/DX2 analytically  !
 ! D41   D(8,9,10,22)           -0.7218         calculate D2E/DX2 analytically  !
 ! D42   D(13,9,10,11)          -0.1296         calculate D2E/DX2 analytically  !
 ! D43   D(13,9,10,22)        -179.0891         calculate D2E/DX2 analytically  !
 ! D44   D(8,9,13,12)         -178.5056         calculate D2E/DX2 analytically  !
 ! D45   D(8,9,13,24)            1.9218         calculate D2E/DX2 analytically  !
 ! D46   D(10,9,13,12)           0.0535         calculate D2E/DX2 analytically  !
 ! D47   D(10,9,13,24)        -179.5191         calculate D2E/DX2 analytically  !
 ! D48   D(9,10,11,12)           0.1564         calculate D2E/DX2 analytically  !
 ! D49   D(22,10,11,12)        179.1761         calculate D2E/DX2 analytically  !
 ! D50   D(10,11,12,13)         -0.1201         calculate D2E/DX2 analytically  !
 ! D51   D(10,11,12,23)        179.7237         calculate D2E/DX2 analytically  !
 ! D52   D(11,12,13,9)           0.0439         calculate D2E/DX2 analytically  !
 ! D53   D(11,12,13,24)        179.6132         calculate D2E/DX2 analytically  !
 ! D54   D(23,12,13,9)        -179.808          calculate D2E/DX2 analytically  !
 ! D55   D(23,12,13,24)         -0.2387         calculate D2E/DX2 analytically  !
 ! D56   D(2,14,15,16)        -177.7752         calculate D2E/DX2 analytically  !
 ! D57   D(2,14,15,27)          64.0166         calculate D2E/DX2 analytically  !
 ! D58   D(2,14,15,28)         -52.7432         calculate D2E/DX2 analytically  !
 ! D59   D(25,14,15,16)         59.1254         calculate D2E/DX2 analytically  !
 ! D60   D(25,14,15,27)        -59.0828         calculate D2E/DX2 analytically  !
 ! D61   D(25,14,15,28)       -175.8427         calculate D2E/DX2 analytically  !
 ! D62   D(26,14,15,16)        -57.3205         calculate D2E/DX2 analytically  !
 ! D63   D(26,14,15,27)       -175.5287         calculate D2E/DX2 analytically  !
 ! D64   D(26,14,15,28)         67.7115         calculate D2E/DX2 analytically  !
 ! D65   D(14,15,16,29)       -173.5509         calculate D2E/DX2 analytically  !
 ! D66   D(14,15,16,30)         70.3928         calculate D2E/DX2 analytically  !
 ! D67   D(27,15,16,29)        -54.5684         calculate D2E/DX2 analytically  !
 ! D68   D(27,15,16,30)       -170.6246         calculate D2E/DX2 analytically  !
 ! D69   D(28,15,16,29)         64.6492         calculate D2E/DX2 analytically  !
 ! D70   D(28,15,16,30)        -51.4071         calculate D2E/DX2 analytically  !
 --------------------------------------------------------------------------------
 Trust Radius=3.00D-01 FncErr=1.00D-07 GrdErr=1.00D-06
 Number of steps in this run=    160 maximum allowed number of steps=    180.
 GradGradGradGradGradGradGradGradGradGradGradGradGradGradGradGradGradGrad

                          Input orientation:                          
 ---------------------------------------------------------------------
 Center     Atomic      Atomic             Coordinates (Angstroms)
 Number     Number       Type             X           Y           Z
 ---------------------------------------------------------------------
      1          8           0       -1.509581   -0.245936   -1.120711
      2          6           0       -1.654408   -0.215845    0.092497
      3          7           0       -0.591603   -0.297270    0.934847
      4          6           0        0.763675   -0.425200    0.424293
      5          6           0        1.586691   -1.024454    1.541556
      6          8           0        2.312500   -2.095628    1.168200
      7          8           0        1.598497   -0.579631    2.662833
      8          6           0        1.313942    0.959980    0.025173
      9          6           0        2.700265    0.914070   -0.529073
     10          6           0        3.917795    1.225960    0.010771
     11          7           0        4.937944    0.980033   -0.892326
     12          6           0        4.339346    0.526565   -1.969614
     13          7           0        2.986410    0.466949   -1.801446
     14          6           0       -3.002685   -0.057933    0.773225
     15          6           0       -4.170954   -0.434851   -0.124179
     16          7           0       -5.422337   -0.199076    0.600835
     17          1           0       -0.710969   -0.230878    1.933447
     18          1           0        0.745517   -1.082571   -0.444126
     19          1           0        2.801724   -2.371659    1.955187
     20          1           0        1.314056    1.597504    0.907083
     21          1           0        0.622798    1.385906   -0.699814
     22          1           0        4.111603    1.599804    1.007935
     23          1           0        4.813744    0.231179   -2.888290
     24          1           0        2.311827    0.158989   -2.483687
     25          1           0       -3.023218   -0.652842    1.690023
     26          1           0       -3.114197    0.989396    1.079293
     27          1           0       -4.113228   -1.497344   -0.370668
     28          1           0       -4.085865    0.120445   -1.066461
     29          1           0       -6.205576   -0.543642    0.058721
     30          1           0       -5.573690    0.798119    0.705120
 ---------------------------------------------------------------------
                    Distance matrix (angstroms):
                    1          2          3          4          5
     1  O    0.000000
     2  C    1.222193   0.000000
     3  N    2.251807   1.358579   0.000000
     4  C    2.754427   2.449703   1.453895   0.000000
     5  C    4.157000   3.641201   2.375259   1.511534   0.000000
     6  O    4.823772   4.519633   3.423793   2.396369   1.346702
     7  O    4.907820   4.161773   2.803962   2.394125   1.206345
     8  C    3.277128   3.193463   2.457496   1.542989   2.512327
     9  C    4.406637   4.541612   3.800894   2.540262   3.047200
    10  C    5.736126   5.756295   4.848589   3.584104   3.583534
    11  N    6.567019   6.771936   5.962042   4.597030   4.601375
    12  C    5.960482   6.381894   5.781769   4.407048   4.723462
    13  N    4.602775   5.058698   4.568753   3.269617   3.919077
    14  C    2.419029   1.518610   2.428317   3.800278   4.752564
    15  C    2.848100   2.535333   3.735267   4.965026   6.022688
    16  N    4.274995   3.802101   4.843263   6.192661   7.119879
    17  H    3.156880   2.068671   1.007899   2.118935   2.462231
    18  H    2.498637   2.607454   2.075127   1.089320   2.157286
    19  H    5.706768   5.289070   4.105954   3.207177   1.860741
    20  H    3.934863   3.572613   2.687466   2.151124   2.711374
    21  H    2.717922   2.894655   2.641962   2.136251   3.429674
    22  H    6.287734   6.114041   5.071920   3.955995   3.680579
    23  H    6.583039   7.135960   6.641793   5.273244   5.622635
    24  H    4.077355   4.744286   4.508264   3.345803   4.257809
    25  H    3.218213   2.148649   2.570890   3.999307   4.627245
    26  H    2.990126   2.134796   2.835463   4.179473   5.134941
    27  H    2.984555   2.811149   3.942891   5.056248   6.030696
    28  H    2.602772   2.714453   4.048406   5.102756   6.347475
    29  H    4.850985   4.563082   5.687265   6.979838   7.946659
    30  H    4.576100   4.094411   5.106255   6.460462   7.435889
                    6          7          8          9         10
     6  O    0.000000
     7  O    2.245433   0.000000
     8  C    3.411798   3.067348   0.000000
     9  C    3.476978   3.692330   1.493716   0.000000
    10  C    3.866466   3.958881   2.617442   1.367876   0.000000
    11  N    4.538547   5.120900   3.738395   2.267931   1.384474
    12  C    4.563976   5.495042   3.649670   2.216282   2.142144
    13  N    3.979919   4.790764   2.525226   1.378670   2.174329
    14  C    5.706084   5.001366   4.497666   5.929959   7.079743
    15  C    6.816421   6.408975   5.661444   7.014070   8.258593
    16  N    7.984141   7.327262   6.859465   8.276016   9.466624
    17  H    3.633767   2.446889   3.026536   4.360210   5.219629
    18  H    2.466032   3.260938   2.171489   2.795502   3.949632
    19  H    0.966893   2.271538   4.127744   4.120420   4.239013
    20  H    3.834617   2.811313   1.088211   2.109787   2.778647
    21  H    4.297167   4.015310   1.088439   2.137206   3.374540
    22  H    4.113231   3.715417   3.033497   2.196474   1.082432
    23  H    5.303335   6.466080   4.611727   3.240222   3.193253
    24  H    4.291803   5.247958   2.816334   2.131091   3.152757
    25  H    5.551920   4.723555   4.917711   6.335445   7.384270
    26  H    6.242941   5.213341   4.551972   6.033281   7.116643
    27  H    6.634458   6.532084   5.970704   7.229364   8.488770
    28  H    7.130481   6.834450   5.572648   6.853480   8.151145
    29  H    8.729102   8.227165   7.668452   9.043474  10.276985
    30  H    8.413097   7.561157   6.923005   8.366302   9.526461
                   11         12         13         14         15
    11  N    0.000000
    12  C    1.313203   0.000000
    13  N    2.213197   1.364650   0.000000
    14  C    8.179549   7.859404   6.540160   0.000000
    15  C    9.250079   8.761002   7.406371   1.520609   0.000000
    16  N   10.533530  10.120485   8.770494   2.429888   1.465331
    17  H    6.431292   6.427542   5.301604   2.574488   4.030747
    18  H    4.693790   4.222801   3.043835   4.071958   4.969265
    19  H    4.889336   5.115471   4.712123   6.359366   7.529491
    20  H    4.092885   4.309835   3.378026   4.625218   5.939638
    21  H    4.338465   4.020397   2.764912   4.171168   5.160093
    22  H    2.162857   3.173249   3.231415   7.308644   8.603618
    23  H    2.135435   1.075301   2.139151   8.636368   9.423837
    24  H    3.178527   2.123727   1.007648   6.236872   6.924332
    25  H    8.527304   8.306100   7.039881   1.093095   2.157810
    26  H    8.290014   8.066309   6.766758   1.096818   2.143259
    27  H    9.398577   8.837356   7.504028   2.147953   1.092237
    28  H    9.066330   8.483207   7.118802   2.142322   1.097037
    29  H   11.287343  10.791426   9.432609   3.317369   2.045721
    30  H   10.633879  10.271136   8.925685   2.710632   2.043433
                   16         17         18         19         20
    16  N    0.000000
    17  H    4.896310   0.000000
    18  H    6.317826   2.915405   0.000000
    19  H    8.613337   4.113689   3.412688   0.000000
    20  H    6.978573   2.914984   3.054800   4.366455   0.000000
    21  H    6.383377   3.365559   2.484716   5.090780   1.762025
    22  H    9.710701   5.240722   4.542483   4.287842   2.799365
    23  H   10.822960   7.347456   4.924465   5.855106   5.340367
    24  H    8.334253   5.366598   2.855627   5.133009   3.816044
    25  H    2.673575   2.363008   4.352312   6.079030   4.948636
    26  H    2.639867   2.827393   4.638021   6.860175   4.473128
    27  H    2.084007   4.299796   4.876970   7.347829   6.377001
    28  H    2.160585   4.529106   5.017649   7.923372   5.935969
    29  H    1.012954   5.814045   6.990063   9.384545   7.864419
    30  H    1.013992   5.119929   6.692543   9.041998   6.936919
                   21         22         23         24         25
    21  H    0.000000
    22  H    3.890234   0.000000
    23  H    4.866914   4.188880   0.000000
    24  H    2.745969   4.184085   2.535449   0.000000
    25  H    4.812613   7.513011   9.119233   6.822143   0.000000
    26  H    4.157832   7.251887   8.897688   6.544168   1.754484
    27  H    5.554404   8.896107   9.434885   6.963449   2.479466
    28  H    4.889512   8.584294   9.084843   6.552899   3.053751
    29  H    7.136190  10.580148  11.432875   8.916484   3.577774
    30  H    6.380893   9.723132  11.006035   8.529851   3.095194
                   26         27         28         29         30
    26  H    0.000000
    27  H    3.047020   0.000000
    28  H    2.510672   1.761284   0.000000
    29  H    3.598388   2.339197   2.490024   0.000000
    30  H    2.495135   2.925649   2.410677   1.617849   0.000000
 Symmetry turned off by external request.
 Stoichiometry    C9H14N4O3
 Framework group  C1[X(C9H14N4O3)]
 Deg. of freedom    84
 Full point group                 C1      NOp   1
 Rotational constants (GHZ):      1.0600287      0.2293246      0.2040481
 Standard basis: 6-31G(d) (6D, 7F)
   268 basis functions,   504 primitive gaussians,   268 cartesian basis functions
    60 alpha electrons       60 beta electrons
       nuclear repulsion energy      1097.9016211535 Hartrees.
 NAtoms=   30 NActive=   30 NUniq=   30 SFac= 1.00D+00 NAtFMM=   60 NAOKFM=F Big=F
 Integral buffers will be    131072 words long.
 Raffenetti 2 integral format.
 Two-electron integral symmetry is turned off.
 One-electron integrals computed using PRISM.
 NBasis=   268 RedAO= T EigKep=  1.19D-03  NBF=   268
 NBsUse=   268 1.00D-06 EigRej= -1.00D+00 NBFU=   268
 ExpMin= 1.61D-01 ExpMax= 5.48D+03 ExpMxC= 8.25D+02 IAcc=3 IRadAn=         5 AccDes= 0.00D+00
 Harris functional with IExCor=  402 and IRadAn=       5 diagonalized for initial guess.
 HarFok:  IExCor=  402 AccDes= 0.00D+00 IRadAn=         5 IDoV= 1 UseB2=F ITyADJ=14
 ICtDFT=  3500011 ScaDFX=  1.000000  1.000000  1.000000  1.000000
 FoFCou: FMM=F IPFlag=           0 FMFlag=      100000 FMFlg1=           0
         NFxFlg=           0 DoJE=T BraDBF=F KetDBF=T FulRan=T
         wScrn=  0.000000 ICntrl=     500 IOpCl=  0 I1Cent=   200000004 NGrid=           0
         NMat0=    1 NMatS0=      1 NMatT0=    0 NMatD0=    1 NMtDS0=    0 NMtDT0=    0
 Symmetry not used in FoFCou.
 Requested convergence on RMS density matrix=1.00D-08 within 128 cycles.
 Requested convergence on MAX density matrix=1.00D-06.
 Requested convergence on             energy=1.00D-06.
 No special actions if energy rises.
 Integral accuracy reduced to 1.0D-05 until final iterations.
 Initial convergence to 1.0D-05 achieved.  Increase integral accuracy.
 SCF Done:  E(RB3LYP) =  -796.076949428     A.U. after   15 cycles
            NFock= 15  Conv=0.43D-08     -V/T= 2.0088
 DoSCS=F DFT=T ScalE2(SS,OS)=  1.000000  1.000000
 Range of M.O.s used for correlation:     1   268
 NBasis=   268 NAE=    60 NBE=    60 NFC=     0 NFV=     0
 NROrb=    268 NOA=    60 NOB=    60 NVA=   208 NVB=   208
 Symmetrizing basis deriv contribution to polar:
 IMax=3 JMax=2 DiffMx= 0.00D+00
 G2DrvN: will do    31 centers at a time, making    1 passes.
 Calling FoFCou, ICntrl=  3107 FMM=F I1Cent=   0 AccDes= 0.00D+00.
 End of G2Drv F.D. properties file   721 does not exist.
 End of G2Drv F.D. properties file   722 does not exist.
 End of G2Drv F.D. properties file   788 does not exist.
          IDoAtm=111111111111111111111111111111
          Differentiating once with respect to nuclear coordinates.
          There are    93 degrees of freedom in the 1st order CPHF.  IDoFFX=6 NUNeed=     0.
     87 vectors produced by pass  0 Test12= 1.34D-14 1.08D-09 XBig12= 1.52D-01 8.60D-02.
 AX will form    87 AO Fock derivatives at one time.
     87 vectors produced by pass  1 Test12= 1.34D-14 1.08D-09 XBig12= 3.48D-02 5.26D-02.
     87 vectors produced by pass  2 Test12= 1.34D-14 1.08D-09 XBig12= 2.17D-04 2.06D-03.
     87 vectors produced by pass  3 Test12= 1.34D-14 1.08D-09 XBig12= 9.30D-07 1.14D-04.
     87 vectors produced by pass  4 Test12= 1.34D-14 1.08D-09 XBig12= 1.62D-09 4.78D-06.
     70 vectors produced by pass  5 Test12= 1.34D-14 1.08D-09 XBig12= 1.19D-12 9.37D-08.
     10 vectors produced by pass  6 Test12= 1.34D-14 1.08D-09 XBig12= 9.53D-16 2.91D-09.
 InvSVY:  IOpt=1 It=  1 EMax= 6.94D-16
 Solved reduced A of dimension   515 with    93 vectors.
 End of Minotr F.D. properties file   721 does not exist.
 End of Minotr F.D. properties file   722 does not exist.
 End of Minotr F.D. properties file   788 does not exist.

 **********************************************************************

            Population analysis using the SCF density.

 **********************************************************************

 Alpha  occ. eigenvalues --  -19.21420 -19.15836 -19.11858 -14.38868 -14.36879
 Alpha  occ. eigenvalues --  -14.31407 -14.30693 -10.33778 -10.29207 -10.25141
 Alpha  occ. eigenvalues --  -10.23537 -10.21670 -10.20952 -10.20822 -10.19641
 Alpha  occ. eigenvalues --  -10.19175  -1.12768  -1.04376  -1.03688  -1.01124
 Alpha  occ. eigenvalues --   -0.93690  -0.88480  -0.86614  -0.81030  -0.76480
 Alpha  occ. eigenvalues --   -0.73691  -0.68673  -0.64403  -0.61347  -0.60380
 Alpha  occ. eigenvalues --   -0.59652  -0.58771  -0.53773  -0.53132  -0.50531
 Alpha  occ. eigenvalues --   -0.49438  -0.49042  -0.48290  -0.47046  -0.45660
 Alpha  occ. eigenvalues --   -0.44727  -0.43600  -0.42776  -0.42248  -0.41654
 Alpha  occ. eigenvalues --   -0.40384  -0.39915  -0.38917  -0.38659  -0.37580
 Alpha  occ. eigenvalues --   -0.36968  -0.34687  -0.33618  -0.29789  -0.27603
 Alpha  occ. eigenvalues --   -0.26755  -0.26053  -0.25971  -0.23441  -0.22152
 Alpha virt. eigenvalues --   -0.01246   0.02145   0.03202   0.06677   0.06858
 Alpha virt. eigenvalues --    0.07486   0.07928   0.08609   0.12558   0.12855
 Alpha virt. eigenvalues --    0.13301   0.13909   0.14713   0.16529   0.16634
 Alpha virt. eigenvalues --    0.17336   0.17712   0.19400   0.20125   0.21079
 Alpha virt. eigenvalues --    0.22343   0.23044   0.24031   0.25009   0.25235
 Alpha virt. eigenvalues --    0.27551   0.28281   0.30980   0.31950   0.34154
 Alpha virt. eigenvalues --    0.37984   0.38959   0.41444   0.44275   0.47542
 Alpha virt. eigenvalues --    0.50611   0.52084   0.52702   0.53632   0.54332
 Alpha virt. eigenvalues --    0.55574   0.56489   0.57643   0.58078   0.60245
 Alpha virt. eigenvalues --    0.60804   0.61553   0.63574   0.64487   0.65309
 Alpha virt. eigenvalues --    0.65613   0.66303   0.67075   0.68909   0.69445
 Alpha virt. eigenvalues --    0.70570   0.73221   0.74501   0.75235   0.75567
 Alpha virt. eigenvalues --    0.76728   0.78320   0.78893   0.79787   0.81169
 Alpha virt. eigenvalues --    0.81768   0.82244   0.82799   0.84325   0.85338
 Alpha virt. eigenvalues --    0.85679   0.86425   0.87178   0.87697   0.88219
 Alpha virt. eigenvalues --    0.89527   0.90569   0.91239   0.91564   0.92295
 Alpha virt. eigenvalues --    0.93620   0.94355   0.94564   0.95918   0.96189
 Alpha virt. eigenvalues --    0.97423   0.99099   0.99405   1.01534   1.03769
 Alpha virt. eigenvalues --    1.06224   1.08652   1.09638   1.10271   1.15047
 Alpha virt. eigenvalues --    1.15955   1.21348   1.23020   1.24595   1.27215
 Alpha virt. eigenvalues --    1.29851   1.33803   1.35884   1.36280   1.37335
 Alpha virt. eigenvalues --    1.37603   1.39597   1.42306   1.43423   1.43724
 Alpha virt. eigenvalues --    1.46106   1.47575   1.48893   1.51542   1.52717
 Alpha virt. eigenvalues --    1.54955   1.56956   1.63135   1.64190   1.68912
 Alpha virt. eigenvalues --    1.69977   1.71335   1.74499   1.75098   1.75374
 Alpha virt. eigenvalues --    1.76609   1.78203   1.80645   1.80986   1.82869
 Alpha virt. eigenvalues --    1.83939   1.86192   1.86679   1.88873   1.89762
 Alpha virt. eigenvalues --    1.90786   1.92207   1.93278   1.95403   1.97041
 Alpha virt. eigenvalues --    1.97841   2.00049   2.00879   2.03898   2.07665
 Alpha virt. eigenvalues --    2.07976   2.10064   2.11929   2.13270   2.15252
 Alpha virt. eigenvalues --    2.17037   2.18749   2.21379   2.23234   2.24793
 Alpha virt. eigenvalues --    2.27789   2.29540   2.30460   2.33142   2.33864
 Alpha virt. eigenvalues --    2.34750   2.37567   2.38642   2.41393   2.41739
 Alpha virt. eigenvalues --    2.44859   2.45956   2.48311   2.49528   2.54000
 Alpha virt. eigenvalues --    2.58082   2.58807   2.60433   2.61046   2.64339
 Alpha virt. eigenvalues --    2.65715   2.68938   2.70530   2.73184   2.75463
 Alpha virt. eigenvalues --    2.77270   2.79581   2.84313   2.86782   2.94301
 Alpha virt. eigenvalues --    2.96617   2.99961   3.01588   3.03528   3.08890
 Alpha virt. eigenvalues --    3.15043   3.18010   3.78361   3.82482   3.92476
 Alpha virt. eigenvalues --    4.02045   4.04794   4.08037   4.15524   4.19907
 Alpha virt. eigenvalues --    4.21747   4.26022   4.34685   4.40829   4.43050
 Alpha virt. eigenvalues --    4.53585   4.58741   4.68346
          Condensed to atoms (all electrons):
               1          2          3          4          5          6
     1  O    8.109850   0.568490  -0.100991   0.007770   0.000743   0.000000
     2  C    0.568490   4.325594   0.267796  -0.022583   0.005965  -0.000089
     3  N   -0.100991   0.267796   7.193871   0.215828  -0.024907   0.000627
     4  C    0.007770  -0.022583   0.215828   5.124555   0.283211  -0.078349
     5  C    0.000743   0.005965  -0.024907   0.283211   4.399002   0.288928
     6  O    0.000000  -0.000089   0.000627  -0.078349   0.288928   8.204546
     7  O   -0.000004   0.000380  -0.006446  -0.085354   0.545994  -0.086860
     8  C   -0.005007  -0.003969  -0.050095   0.326966  -0.032479  -0.000422
     9  C   -0.000140   0.000053   0.004390  -0.047754   0.002964   0.001411
    10  C   -0.000001  -0.000002  -0.000043  -0.003953   0.005205  -0.000551
    11  N    0.000000   0.000000   0.000000  -0.000085  -0.000045  -0.000029
    12  C    0.000000   0.000000   0.000001   0.000246  -0.000073   0.000109
    13  N    0.000000  -0.000007   0.000019   0.000279  -0.001137  -0.000183
    14  C   -0.083334   0.316420  -0.118607   0.007592  -0.000137   0.000000
    15  C    0.002836  -0.022644   0.003270  -0.000164   0.000001   0.000000
    16  N    0.000233   0.003120  -0.000030   0.000000   0.000000   0.000000
    17  H    0.003134  -0.016847   0.295353  -0.038388  -0.001489   0.000528
    18  H    0.012405  -0.001162  -0.046336   0.363357  -0.032448   0.004409
    19  H    0.000000   0.000003  -0.000282   0.010759  -0.007892   0.219411
    20  H    0.000046   0.000304  -0.000434  -0.036578  -0.008345   0.000243
    21  H    0.008245   0.004892  -0.009475  -0.038285   0.005595  -0.000097
    22  H    0.000000   0.000000  -0.000001   0.000078   0.000169  -0.000032
    23  H    0.000000   0.000000   0.000000   0.000001  -0.000001   0.000001
    24  H    0.000085   0.000006  -0.000038   0.000273   0.000107  -0.000019
    25  H    0.002084  -0.027662   0.003343   0.000093  -0.000033   0.000000
    26  H    0.000153  -0.024509  -0.000587  -0.000197  -0.000002   0.000000
    27  H    0.001451  -0.002447   0.000116  -0.000006   0.000000   0.000000
    28  H    0.007833   0.003460   0.000426   0.000009   0.000000   0.000000
    29  H    0.000007  -0.000158   0.000002   0.000000   0.000000   0.000000
    30  H    0.000009  -0.000169  -0.000001   0.000000   0.000000   0.000000
               7          8          9         10         11         12
     1  O   -0.000004  -0.005007  -0.000140  -0.000001   0.000000   0.000000
     2  C    0.000380  -0.003969   0.000053  -0.000002   0.000000   0.000000
     3  N   -0.006446  -0.050095   0.004390  -0.000043   0.000000   0.000001
     4  C   -0.085354   0.326966  -0.047754  -0.003953  -0.000085   0.000246
     5  C    0.545994  -0.032479   0.002964   0.005205  -0.000045  -0.000073
     6  O   -0.086860  -0.000422   0.001411  -0.000551  -0.000029   0.000109
     7  O    8.066853  -0.000633  -0.002130   0.000176   0.000003   0.000000
     8  C   -0.000633   5.222861   0.342858  -0.055111   0.006880   0.005866
     9  C   -0.002130   0.342858   4.731424   0.573447  -0.043277  -0.088095
    10  C    0.000176  -0.055111   0.573447   4.944323   0.418376  -0.120349
    11  N    0.000003   0.006880  -0.043277   0.418376   6.668466   0.538362
    12  C    0.000000   0.005866  -0.088095  -0.120349   0.538362   4.736047
    13  N    0.000004  -0.070154   0.339703  -0.072434  -0.084082   0.352518
    14  C   -0.000031  -0.000573  -0.000002   0.000000   0.000000   0.000000
    15  C    0.000000   0.000001   0.000000   0.000000   0.000000   0.000000
    16  N    0.000000   0.000000   0.000000   0.000000   0.000000   0.000000
    17  H    0.016379   0.001352  -0.000030  -0.000002   0.000000   0.000000
    18  H    0.003075  -0.041286  -0.002386  -0.000092   0.000010  -0.000010
    19  H    0.010010  -0.000447   0.000118   0.000134  -0.000004  -0.000008
    20  H    0.006193   0.359801  -0.026206  -0.004364   0.000077  -0.000061
    21  H    0.000033   0.355403  -0.022006   0.002907  -0.000159   0.000027
    22  H    0.000160  -0.001424  -0.057901   0.380737  -0.042347   0.007389
    23  H    0.000000  -0.000163   0.003174   0.007289  -0.038698   0.381625
    24  H    0.000000  -0.002446  -0.027411   0.008507   0.005187  -0.023641
    25  H   -0.000003   0.000008   0.000000   0.000000   0.000000   0.000000
    26  H    0.000000   0.000086  -0.000001   0.000000   0.000000   0.000000
    27  H    0.000000   0.000001   0.000000   0.000000   0.000000   0.000000
    28  H    0.000000   0.000000   0.000000   0.000000   0.000000   0.000000
    29  H    0.000000   0.000000   0.000000   0.000000   0.000000   0.000000
    30  H    0.000000   0.000000   0.000000   0.000000   0.000000   0.000000
              13         14         15         16         17         18
     1  O    0.000000  -0.083334   0.002836   0.000233   0.003134   0.012405
     2  C   -0.000007   0.316420  -0.022644   0.003120  -0.016847  -0.001162
     3  N    0.000019  -0.118607   0.003270  -0.000030   0.295353  -0.046336
     4  C    0.000279   0.007592  -0.000164   0.000000  -0.038388   0.363357
     5  C   -0.001137  -0.000137   0.000001   0.000000  -0.001489  -0.032448
     6  O   -0.000183   0.000000   0.000000   0.000000   0.000528   0.004409
     7  O    0.000004  -0.000031   0.000000   0.000000   0.016379   0.003075
     8  C   -0.070154  -0.000573   0.000001   0.000000   0.001352  -0.041286
     9  C    0.339703  -0.000002   0.000000   0.000000  -0.000030  -0.002386
    10  C   -0.072434   0.000000   0.000000   0.000000  -0.000002  -0.000092
    11  N   -0.084082   0.000000   0.000000   0.000000   0.000000   0.000010
    12  C    0.352518   0.000000   0.000000   0.000000   0.000000  -0.000010
    13  N    6.888127   0.000000   0.000000   0.000000   0.000000   0.003117
    14  C    0.000000   5.332284   0.349842  -0.057242   0.000778   0.000689
    15  C    0.000000   0.349842   4.867901   0.303462  -0.000056   0.000015
    16  N    0.000000  -0.057242   0.303462   6.937039  -0.000007   0.000000
    17  H    0.000000   0.000778  -0.000056  -0.000007   0.388248   0.004363
    18  H    0.003117   0.000689   0.000015   0.000000   0.004363   0.547551
    19  H    0.000008   0.000000   0.000000   0.000000  -0.000076  -0.000389
    20  H    0.003909   0.000038   0.000000   0.000000   0.001772   0.005386
    21  H   -0.004409   0.000153   0.000000   0.000000  -0.000299  -0.004500
    22  H    0.005020   0.000000   0.000000   0.000000   0.000000   0.000009
    23  H   -0.058725   0.000000   0.000000   0.000000   0.000000   0.000003
    24  H    0.302542   0.000000   0.000000   0.000000   0.000000   0.000594
    25  H    0.000000   0.347927  -0.031527   0.005594   0.002645  -0.000049
    26  H    0.000000   0.358551  -0.034799  -0.003317   0.000272  -0.000020
    27  H    0.000000  -0.033663   0.383070  -0.039735  -0.000009  -0.000006
    28  H    0.000000  -0.059154   0.384367  -0.046510  -0.000001  -0.000003
    29  H    0.000000   0.006336  -0.034304   0.312008   0.000000   0.000000
    30  H    0.000000  -0.004521  -0.036975   0.308758   0.000000   0.000000
              19         20         21         22         23         24
     1  O    0.000000   0.000046   0.008245   0.000000   0.000000   0.000085
     2  C    0.000003   0.000304   0.004892   0.000000   0.000000   0.000006
     3  N   -0.000282  -0.000434  -0.009475  -0.000001   0.000000  -0.000038
     4  C    0.010759  -0.036578  -0.038285   0.000078   0.000001   0.000273
     5  C   -0.007892  -0.008345   0.005595   0.000169  -0.000001   0.000107
     6  O    0.219411   0.000243  -0.000097  -0.000032   0.000001  -0.000019
     7  O    0.010010   0.006193   0.000033   0.000160   0.000000   0.000000
     8  C   -0.000447   0.359801   0.355403  -0.001424  -0.000163  -0.002446
     9  C    0.000118  -0.026206  -0.022006  -0.057901   0.003174  -0.027411
    10  C    0.000134  -0.004364   0.002907   0.380737   0.007289   0.008507
    11  N   -0.000004   0.000077  -0.000159  -0.042347  -0.038698   0.005187
    12  C   -0.000008  -0.000061   0.000027   0.007389   0.381625  -0.023641
    13  N    0.000008   0.003909  -0.004409   0.005020  -0.058725   0.302542
    14  C    0.000000   0.000038   0.000153   0.000000   0.000000   0.000000
    15  C    0.000000   0.000000   0.000000   0.000000   0.000000   0.000000
    16  N    0.000000   0.000000   0.000000   0.000000   0.000000   0.000000
    17  H   -0.000076   0.001772  -0.000299   0.000000   0.000000   0.000000
    18  H   -0.000389   0.005386  -0.004500   0.000009   0.000003   0.000594
    19  H    0.352722  -0.000024   0.000009   0.000007   0.000000   0.000000
    20  H   -0.000024   0.549944  -0.028343   0.002598   0.000004  -0.000065
    21  H    0.000009  -0.028343   0.547046  -0.000022  -0.000005   0.001873
    22  H    0.000007   0.002598  -0.000022   0.569165  -0.000152  -0.000102
    23  H    0.000000   0.000004  -0.000005  -0.000152   0.550001   0.000478
    24  H    0.000000  -0.000065   0.001873  -0.000102   0.000478   0.396744
    25  H    0.000000  -0.000001  -0.000002   0.000000   0.000000   0.000000
    26  H    0.000000  -0.000014  -0.000034   0.000000   0.000000   0.000000
    27  H    0.000000   0.000000   0.000000   0.000000   0.000000   0.000000
    28  H    0.000000   0.000000  -0.000001   0.000000   0.000000   0.000000
    29  H    0.000000   0.000000   0.000000   0.000000   0.000000   0.000000
    30  H    0.000000   0.000000   0.000000   0.000000   0.000000   0.000000
              25         26         27         28         29         30
     1  O    0.002084   0.000153   0.001451   0.007833   0.000007   0.000009
     2  C   -0.027662  -0.024509  -0.002447   0.003460  -0.000158  -0.000169
     3  N    0.003343  -0.000587   0.000116   0.000426   0.000002  -0.000001
     4  C    0.000093  -0.000197  -0.000006   0.000009   0.000000   0.000000
     5  C   -0.000033  -0.000002   0.000000   0.000000   0.000000   0.000000
     6  O    0.000000   0.000000   0.000000   0.000000   0.000000   0.000000
     7  O   -0.000003   0.000000   0.000000   0.000000   0.000000   0.000000
     8  C    0.000008   0.000086   0.000001   0.000000   0.000000   0.000000
     9  C    0.000000  -0.000001   0.000000   0.000000   0.000000   0.000000
    10  C    0.000000   0.000000   0.000000   0.000000   0.000000   0.000000
    11  N    0.000000   0.000000   0.000000   0.000000   0.000000   0.000000
    12  C    0.000000   0.000000   0.000000   0.000000   0.000000   0.000000
    13  N    0.000000   0.000000   0.000000   0.000000   0.000000   0.000000
    14  C    0.347927   0.358551  -0.033663  -0.059154   0.006336  -0.004521
    15  C   -0.031527  -0.034799   0.383070   0.384367  -0.034304  -0.036975
    16  N    0.005594  -0.003317  -0.039735  -0.046510   0.312008   0.308758
    17  H    0.002645   0.000272  -0.000009  -0.000001   0.000000   0.000000
    18  H   -0.000049  -0.000020  -0.000006  -0.000003   0.000000   0.000000
    19  H    0.000000   0.000000   0.000000   0.000000   0.000000   0.000000
    20  H   -0.000001  -0.000014   0.000000   0.000000   0.000000   0.000000
    21  H   -0.000002  -0.000034   0.000000  -0.000001   0.000000   0.000000
    22  H    0.000000   0.000000   0.000000   0.000000   0.000000   0.000000
    23  H    0.000000   0.000000   0.000000   0.000000   0.000000   0.000000
    24  H    0.000000   0.000000   0.000000   0.000000   0.000000   0.000000
    25  H    0.566113  -0.032657  -0.006276   0.006270  -0.000099  -0.000616
    26  H   -0.032657   0.569174   0.005472  -0.005300  -0.000004   0.005544
    27  H   -0.006276   0.005472   0.581015  -0.042381  -0.004287   0.006567
    28  H    0.006270  -0.005300  -0.042381   0.612164  -0.001734  -0.005741
    29  H   -0.000099  -0.000004  -0.004287  -0.001734   0.454685  -0.033089
    30  H   -0.000616   0.005544   0.006567  -0.005741  -0.033089   0.467579
 Mulliken charges:
               1
     1  O   -0.535896
     2  C    0.625765
     3  N   -0.626769
     4  C    0.010680
     5  C    0.571102
     6  O   -0.553581
     7  O   -0.467799
     8  C   -0.357871
     9  C    0.317799
    10  C   -0.084197
    11  N   -0.428635
    12  C    0.210048
    13  N   -0.604115
    14  C   -0.363348
    15  C   -0.134296
    16  N   -0.723374
    17  H    0.342378
    18  H    0.183706
    19  H    0.415942
    20  H    0.174122
    21  H    0.181454
    22  H    0.136652
    23  H    0.155168
    24  H    0.337328
    25  H    0.164848
    26  H    0.162189
    27  H    0.151118
    28  H    0.146295
    29  H    0.300636
    30  H    0.292654
 Sum of Mulliken charges =   0.00000
 Mulliken charges with hydrogens summed into heavy atoms:
               1
     1  O   -0.535896
     2  C    0.625765
     3  N   -0.284391
     4  C    0.194386
     5  C    0.571102
     6  O   -0.137639
     7  O   -0.467799
     8  C   -0.002296
     9  C    0.317799
    10  C    0.052455
    11  N   -0.428635
    12  C    0.365216
    13  N   -0.266787
    14  C   -0.036311
    15  C    0.163117
    16  N   -0.130085
 APT charges:
               1
     1  O   -0.426771
     2  C    0.266332
     3  N   -0.752251
     4  C   -0.300000
     5  C   -0.338644
     6  O   -0.714833
     7  O    0.157104
     8  C   -0.824690
     9  C   -0.688886
    10  C   -0.174151
    11  N    0.417005
    12  C   -0.608691
    13  N   -0.654369
    14  C   -0.702200
    15  C   -0.460995
    16  N   -1.737700
    17  H    0.625949
    18  H    0.333586
    19  H    0.974435
    20  H    0.424837
    21  H    0.299314
    22  H    0.546800
    23  H    0.941726
    24  H    0.331456
    25  H    0.425631
    26  H    0.397913
    27  H    0.375130
    28  H    0.301191
    29  H    1.005951
    30  H    0.559823
 Sum of APT charges =   0.00000
 APT charges with hydrogens summed into heavy atoms:
               1
     1  O   -0.426771
     2  C    0.266332
     3  N   -0.126302
     4  C    0.033586
     5  C   -0.338644
     6  O    0.259602
     7  O    0.157104
     8  C   -0.100539
     9  C   -0.688886
    10  C    0.372648
    11  N    0.417005
    12  C    0.333034
    13  N   -0.322913
    14  C    0.121344
    15  C    0.215325
    16  N   -0.171925
 Electronic spatial extent (au):  <R**2>=           5351.5549
 Charge=              0.0000 electrons
 Dipole moment (field-independent basis, Debye):
    X=             -2.9485    Y=             -0.7926    Z=             -0.4850  Tot=              3.0914
 Quadrupole moment (field-independent basis, Debye-Ang):
   XX=           -105.5981   YY=            -90.1044   ZZ=            -90.1047
   XY=            -13.2624   XZ=              0.4218   YZ=             -0.5573
 Traceless Quadrupole moment (field-independent basis, Debye-Ang):
   XX=            -10.3290   YY=              5.1647   ZZ=              5.1643
   XY=            -13.2624   XZ=              0.4218   YZ=             -0.5573
 Octapole moment (field-independent basis, Debye-Ang**2):
  XXX=           -328.5312  YYY=             -5.0724  ZZZ=            -68.8845  XYY=            -52.4239
  XXY=            -25.1128  XXZ=            -32.7297  XZZ=             -6.1327  YZZ=             -4.8802
  YYZ=              7.0256  XYZ=             -9.4254
 Hexadecapole moment (field-independent basis, Debye-Ang**3):
 XXXX=          -5917.5334 YYYY=           -491.7943 ZZZZ=           -888.4046 XXXY=           -572.7729
 XXXZ=            548.8406 YYYX=           -277.5271 YYYZ=            124.2242 ZZZX=            154.1923
 ZZZY=            133.4484 XXYY=           -982.9033 XXZZ=          -1007.9786 YYZZ=           -207.6350
 XXYZ=            101.8823 YYXZ=            145.8105 ZZXY=           -117.0650
 N-N= 1.097901621154D+03 E-N=-4.052712865206D+03  KE= 7.891081593428D+02
  Exact polarizability:   0.000   0.000   0.000   0.000   0.000   0.000
 Approx polarizability: 198.321  -1.380 131.641   1.648  22.794 200.108
 Calling FoFJK, ICntrl=    100147 FMM=F ISym2X=0 I1Cent= 0 IOpClX= 0 NMat=1 NMatS=1 NMatT=0.
 -------------------------------------------------------------------
 Center     Atomic                   Forces (Hartrees/Bohr)
 Number     Number              X              Y              Z
 -------------------------------------------------------------------
      1        8           0.000085147   -0.001116370   -0.011992426
      2        6          -0.003609719    0.003027638    0.003539462
      3        7           0.001998944   -0.004571448    0.001338842
      4        6          -0.006223076    0.001745053    0.001045784
      5        6           0.006348288   -0.005783595   -0.006951609
      6        8          -0.006251029    0.003645810   -0.008549925
      7        8          -0.001518718    0.003747202    0.012246745
      8        6           0.009712477   -0.000294862   -0.002657290
      9        6          -0.006393907    0.001103455    0.000969169
     10        6           0.008462068   -0.001303179   -0.001230101
     11        7           0.000752754    0.001943633    0.004186218
     12        6          -0.001770994    0.001707994    0.005232777
     13        7          -0.001063284   -0.002004274   -0.004181110
     14        6           0.002177801   -0.000777085    0.001198777
     15        6          -0.002936920    0.001764964    0.000221353
     16        7           0.001122013   -0.004232106    0.003291250
     17        1           0.000125749    0.001037722    0.003286800
     18        1          -0.000038476   -0.001556813   -0.000640823
     19        1           0.006149454   -0.003234432    0.007051302
     20        1          -0.001094015    0.002095719    0.003563210
     21        1          -0.004117789    0.001393307   -0.002275820
     22        1           0.001348551    0.000682360   -0.000684139
     23        1           0.002970766   -0.001062527   -0.003797647
     24        1          -0.002087879   -0.000614024   -0.001952489
     25        1          -0.002054418   -0.000577285    0.002396340
     26        1           0.001027043    0.002431775    0.001168554
     27        1          -0.000061013   -0.002078418   -0.000982277
     28        1           0.001025206   -0.000180158   -0.002594786
     29        1          -0.003413699   -0.001633388   -0.002732178
     30        1          -0.000671327    0.004693329    0.000486038
 -------------------------------------------------------------------
 Cartesian Forces:  Max     0.012246745 RMS     0.003765448
 FormGI is forming the generalized inverse of G from B-inverse, IUseBI=4.
 GSVD:  received Info=                   1 from GESDD.

 GradGradGradGradGradGradGradGradGradGradGradGradGradGradGradGradGradGrad
 Berny optimization.
 Internal  Forces:  Max     0.012750216 RMS     0.002675366
 Search for a local minimum.
 Step number   1 out of a maximum of  160
 All quantities printed in internal units (Hartrees-Bohrs-Radians)
 Mixed Optimization -- RFO/linear search
 Second derivative matrix not updated -- analytic derivatives used.
 ITU=  0
     Eigenvalues ---   -0.00027   0.00060   0.00215   0.00217   0.00275
     Eigenvalues ---    0.00305   0.00337   0.00492   0.00547   0.00947
     Eigenvalues ---    0.01965   0.01988   0.02297   0.02519   0.03397
     Eigenvalues ---    0.03506   0.03975   0.04237   0.04418   0.04465
     Eigenvalues ---    0.04613   0.04673   0.04750   0.05192   0.05274
     Eigenvalues ---    0.05420   0.05857   0.06160   0.07916   0.08037
     Eigenvalues ---    0.08490   0.10289   0.10896   0.11014   0.11166
     Eigenvalues ---    0.11852   0.12054   0.13792   0.14769   0.15486
     Eigenvalues ---    0.15687   0.15956   0.16401   0.17332   0.18875
     Eigenvalues ---    0.19327   0.20195   0.21498   0.22052   0.23190
     Eigenvalues ---    0.23815   0.24773   0.24900   0.25537   0.27328
     Eigenvalues ---    0.30621   0.32425   0.32729   0.33361   0.33844
     Eigenvalues ---    0.34200   0.34302   0.34589   0.35008   0.35180
     Eigenvalues ---    0.35525   0.35837   0.37487   0.37749   0.38333
     Eigenvalues ---    0.38795   0.41879   0.42628   0.44993   0.45334
     Eigenvalues ---    0.45913   0.47101   0.47852   0.48021   0.48712
     Eigenvalues ---    0.52677   0.58832   0.85665   0.92325
 RFO step:  Lambda=-3.81283666D-03 EMin=-2.70449170D-04
 Linear search not attempted -- first point.
 Iteration  1 RMS(Cart)=  0.12134234 RMS(Int)=  0.03893492
 Iteration  2 RMS(Cart)=  0.10062163 RMS(Int)=  0.00505153
 Iteration  3 RMS(Cart)=  0.00719573 RMS(Int)=  0.00012510
 Iteration  4 RMS(Cart)=  0.00002350 RMS(Int)=  0.00012418
 Iteration  5 RMS(Cart)=  0.00000001 RMS(Int)=  0.00012418
 Variable       Old X    -DE/DX   Delta X   Delta X   Delta X     New X
                                 (Linear)    (Quad)   (Total)
    R1        2.30961   0.01194   0.00000   0.01338   0.01338   2.32299
    R2        2.56734   0.00952   0.00000   0.01372   0.01372   2.58107
    R3        2.86976   0.00440   0.00000   0.00962   0.00962   2.87937
    R4        2.74746   0.00416   0.00000  -0.00350  -0.00350   2.74396
    R5        1.90465   0.00331   0.00000   0.00749   0.00749   1.91214
    R6        2.85639   0.00603   0.00000   0.01582   0.01582   2.87221
    R7        2.91583   0.00640   0.00000   0.03071   0.03071   2.94654
    R8        2.05852   0.00145   0.00000   0.00420   0.00420   2.06272
    R9        2.54490   0.00003   0.00000  -0.00531  -0.00531   2.53959
   R10        2.27966   0.01275   0.00000   0.01318   0.01318   2.29284
   R11        1.82716   0.00977   0.00000   0.01848   0.01848   1.84564
   R12        2.82271   0.00259   0.00000  -0.00064  -0.00064   2.82207
   R13        2.05642   0.00412   0.00000   0.01230   0.01230   2.06872
   R14        2.05685   0.00468   0.00000   0.01412   0.01412   2.07097
   R15        2.58491   0.00805   0.00000   0.01514   0.01516   2.60007
   R16        2.60531   0.00457   0.00000   0.01254   0.01255   2.61786
   R17        2.61628  -0.00406   0.00000  -0.01347  -0.01347   2.60281
   R18        2.04550  -0.00015   0.00000   0.00025   0.00025   2.04575
   R19        2.48159   0.00167   0.00000   0.00280   0.00279   2.48438
   R20        2.57882   0.00355   0.00000   0.00437   0.00436   2.58317
   R21        2.03202   0.00485   0.00000   0.01235   0.01235   2.04438
   R22        1.90418   0.00291   0.00000   0.00577   0.00577   1.90995
   R23        2.87353   0.00557   0.00000   0.02118   0.02118   2.89471
   R24        2.06565   0.00236   0.00000   0.00427   0.00427   2.06992
   R25        2.07269   0.00254   0.00000   0.00743   0.00743   2.08012
   R26        2.76907   0.00286   0.00000   0.00537   0.00537   2.77445
   R27        2.06403   0.00224   0.00000   0.00904   0.00904   2.07307
   R28        2.07310   0.00222   0.00000   0.00465   0.00465   2.07775
   R29        1.91421   0.00466   0.00000   0.01068   0.01068   1.92488
   R30        1.91617   0.00477   0.00000   0.01124   0.01124   1.92741
    A1        2.11916   0.00147   0.00000   0.00324   0.00323   2.12239
    A2        2.15643  -0.00143   0.00000  -0.00894  -0.00894   2.14749
    A3        2.00738  -0.00002   0.00000   0.00567   0.00567   2.01305
    A4        2.11388   0.00111   0.00000   0.00330   0.00274   2.11661
    A5        2.11496  -0.00012   0.00000   0.00464   0.00406   2.11902
    A6        2.05343  -0.00101   0.00000  -0.01043  -0.01098   2.04246
    A7        1.85759   0.00174   0.00000   0.02212   0.02215   1.87973
    A8        1.92226   0.00283   0.00000   0.02127   0.02129   1.94356
    A9        1.89390  -0.00169   0.00000  -0.00233  -0.00215   1.89175
   A10        1.93149  -0.00245   0.00000  -0.01212  -0.01259   1.91890
   A11        1.93809  -0.00025   0.00000  -0.01424  -0.01447   1.92362
   A12        1.91929  -0.00007   0.00000  -0.01300  -0.01321   1.90607
   A13        1.98654  -0.00387   0.00000  -0.01876  -0.01880   1.96775
   A14        2.14859   0.00163   0.00000   0.00688   0.00685   2.15544
   A15        2.14803   0.00225   0.00000   0.01178   0.01175   2.15978
   A16        1.84847   0.00238   0.00000   0.01557   0.01557   1.86404
   A17        1.98163   0.00167   0.00000   0.01310   0.01308   1.99471
   A18        1.89266  -0.00107   0.00000  -0.00511  -0.00531   1.88735
   A19        1.87249  -0.00144   0.00000  -0.01976  -0.01981   1.85268
   A20        1.89507   0.00050   0.00000   0.01314   0.01310   1.90816
   A21        1.93287   0.00021   0.00000   0.00518   0.00527   1.93813
   A22        1.88664   0.00004   0.00000  -0.00801  -0.00818   1.87846
   A23        2.30858   0.00135   0.00000   0.00811   0.00809   2.31667
   A24        2.14723   0.00051   0.00000  -0.00143  -0.00145   2.14579
   A25        1.82703  -0.00185   0.00000  -0.00672  -0.00667   1.82035
   A26        1.93684   0.00190   0.00000   0.00707   0.00703   1.94387
   A27        2.21641   0.00056   0.00000   0.00612   0.00603   2.22244
   A28        2.12979  -0.00245   0.00000  -0.01283  -0.01292   2.11687
   A29        1.83442  -0.00032   0.00000  -0.00148  -0.00148   1.83294
   A30        1.94541   0.00254   0.00000   0.00602   0.00601   1.95141
   A31        2.20759  -0.00222   0.00000  -0.00982  -0.00982   2.19777
   A32        2.13019  -0.00032   0.00000   0.00380   0.00380   2.13399
   A33        1.88108  -0.00227   0.00000  -0.00489  -0.00488   1.87620
   A34        2.19571   0.00098   0.00000   0.00099   0.00097   2.19669
   A35        2.20636   0.00129   0.00000   0.00384   0.00383   2.21019
   A36        1.97338  -0.00115   0.00000  -0.01413  -0.01428   1.95910
   A37        1.91351   0.00210   0.00000   0.03929   0.03941   1.95292
   A38        1.89088  -0.00085   0.00000  -0.02290  -0.02301   1.86787
   A39        1.92372  -0.00120   0.00000  -0.00641  -0.00639   1.91733
   A40        1.89997   0.00169   0.00000   0.00193   0.00158   1.90155
   A41        1.85848  -0.00055   0.00000   0.00250   0.00267   1.86115
   A42        1.90100   0.00245   0.00000   0.01396   0.01391   1.91490
   A43        1.91102  -0.00047   0.00000  -0.00669  -0.00667   1.90435
   A44        1.89848  -0.00093   0.00000  -0.00698  -0.00717   1.89131
   A45        1.88948  -0.00122   0.00000  -0.01109  -0.01102   1.87846
   A46        1.99300   0.00032   0.00000   0.01488   0.01486   2.00786
   A47        1.86968  -0.00025   0.00000  -0.00522  -0.00524   1.86445
   A48        1.91856  -0.00051   0.00000  -0.00858  -0.00861   1.90996
   A49        1.91409   0.00000   0.00000  -0.00408  -0.00410   1.90999
   A50        1.84850   0.00016   0.00000  -0.00318  -0.00323   1.84527
    D1       -0.00115   0.00089   0.00000   0.05067   0.05081   0.04966
    D2        3.09351   0.00040   0.00000  -0.01365  -0.01380   3.07971
    D3       -3.12132   0.00040   0.00000   0.05260   0.05274  -3.06857
    D4       -0.02666  -0.00009   0.00000  -0.01172  -0.01186  -0.03852
    D5        0.36053   0.00035   0.00000   0.37448   0.37462   0.73515
    D6        2.51466  -0.00046   0.00000   0.38546   0.38552   2.90019
    D7       -1.74698  -0.00046   0.00000   0.39694   0.39673  -1.35025
    D8       -2.80300   0.00089   0.00000   0.37268   0.37282  -2.43018
    D9       -0.64886   0.00008   0.00000   0.38365   0.38373  -0.26514
   D10        1.37268   0.00008   0.00000   0.39514   0.39493   1.76761
   D11       -2.75912   0.00009   0.00000  -0.01152  -0.01123  -2.77035
   D12        1.42960   0.00043   0.00000  -0.02186  -0.02191   1.40770
   D13       -0.67214  -0.00013   0.00000  -0.01734  -0.01723  -0.68936
   D14        0.42781   0.00054   0.00000   0.05022   0.05028   0.47808
   D15       -1.66666   0.00089   0.00000   0.03988   0.03960  -1.62705
   D16        2.51479   0.00032   0.00000   0.04441   0.04428   2.55907
   D17        2.25632  -0.00078   0.00000   0.15836   0.15836   2.41468
   D18       -0.89237  -0.00049   0.00000   0.14345   0.14346  -0.74891
   D19       -1.93839   0.00232   0.00000   0.19056   0.19045  -1.74794
   D20        1.19611   0.00260   0.00000   0.17565   0.17555   1.37166
   D21        0.19831   0.00035   0.00000   0.15572   0.15581   0.35412
   D22       -2.95038   0.00064   0.00000   0.14081   0.14092  -2.80946
   D23       -3.12764   0.00138   0.00000   0.04381   0.04382  -3.08383
   D24        1.04769   0.00043   0.00000   0.02227   0.02232   1.07001
   D25       -0.98618   0.00169   0.00000   0.04472   0.04463  -0.94154
   D26        1.10638  -0.00101   0.00000   0.01091   0.01102   1.11739
   D27       -1.00148  -0.00196   0.00000  -0.01064  -0.01048  -1.01196
   D28       -3.03534  -0.00070   0.00000   0.01182   0.01183  -3.02351
   D29       -1.04126   0.00101   0.00000   0.04608   0.04602  -0.99524
   D30        3.13407   0.00006   0.00000   0.02454   0.02452  -3.12459
   D31        1.10021   0.00133   0.00000   0.04699   0.04683   1.14704
   D32        3.12150  -0.00063   0.00000  -0.05205  -0.05207   3.06943
   D33       -0.01300  -0.00091   0.00000  -0.03713  -0.03711  -0.05011
   D34       -1.79586  -0.00017   0.00000  -0.02273  -0.02278  -1.81864
   D35        1.31285  -0.00022   0.00000  -0.02437  -0.02441   1.28844
   D36        0.31064  -0.00010   0.00000  -0.01142  -0.01137   0.29927
   D37       -2.86383  -0.00015   0.00000  -0.01307  -0.01300  -2.87683
   D38        2.37951   0.00038   0.00000  -0.01008  -0.01011   2.36940
   D39       -0.79496   0.00033   0.00000  -0.01173  -0.01174  -0.80670
   D40        3.11083   0.00014   0.00000   0.00235   0.00236   3.11320
   D41       -0.01260  -0.00044   0.00000  -0.02078  -0.02085  -0.03345
   D42       -0.00226   0.00016   0.00000   0.00375   0.00375   0.00149
   D43       -3.12570  -0.00043   0.00000  -0.01937  -0.01946   3.13803
   D44       -3.11551  -0.00009   0.00000  -0.00136  -0.00138  -3.11689
   D45        0.03354   0.00008   0.00000   0.00600   0.00599   0.03954
   D46        0.00093  -0.00009   0.00000  -0.00239  -0.00238  -0.00145
   D47       -3.13320   0.00008   0.00000   0.00497   0.00499  -3.12821
   D48        0.00273  -0.00018   0.00000  -0.00368  -0.00366  -0.00093
   D49        3.12721   0.00041   0.00000   0.01832   0.01815  -3.13782
   D50       -0.00210   0.00012   0.00000   0.00208   0.00205  -0.00005
   D51        3.13677  -0.00003   0.00000  -0.00040  -0.00039   3.13638
   D52        0.00077  -0.00003   0.00000   0.00017   0.00021   0.00097
   D53        3.13484  -0.00020   0.00000  -0.00726  -0.00725   3.12759
   D54       -3.13824   0.00012   0.00000   0.00256   0.00257  -3.13567
   D55       -0.00417  -0.00005   0.00000  -0.00488  -0.00489  -0.00905
   D56       -3.10276  -0.00012   0.00000   0.03749   0.03748  -3.06528
   D57        1.11730   0.00019   0.00000   0.04658   0.04660   1.16390
   D58       -0.92054   0.00128   0.00000   0.06055   0.06050  -0.86004
   D59        1.03193  -0.00112   0.00000   0.00125   0.00127   1.03320
   D60       -1.03119  -0.00081   0.00000   0.01035   0.01038  -1.02081
   D61       -3.06903   0.00028   0.00000   0.02432   0.02429  -3.04474
   D62       -1.00043  -0.00076   0.00000   0.00073   0.00075  -0.99968
   D63       -3.06355  -0.00045   0.00000   0.00983   0.00986  -3.05369
   D64        1.18179   0.00064   0.00000   0.02380   0.02377   1.20555
   D65       -3.02904   0.00017   0.00000   0.00027   0.00037  -3.02866
   D66        1.22859   0.00027   0.00000   0.01140   0.01147   1.24006
   D67       -0.95240   0.00029   0.00000  -0.00621  -0.00619  -0.95858
   D68       -2.97796   0.00039   0.00000   0.00493   0.00492  -2.97304
   D69        1.12834  -0.00067   0.00000  -0.01120  -0.01128   1.11706
   D70       -0.89722  -0.00057   0.00000  -0.00007  -0.00018  -0.89740
         Item               Value     Threshold  Converged?
 Maximum Force            0.012750     0.000450     NO 
 RMS     Force            0.002675     0.000300     NO 
 Maximum Displacement     0.993987     0.001800     NO 
 RMS     Displacement     0.201093     0.001200     NO 
 Predicted change in Energy=-2.633063D-03
 GradGradGradGradGradGradGradGradGradGradGradGradGradGradGradGradGradGrad

                          Input orientation:                          
 ---------------------------------------------------------------------
 Center     Atomic      Atomic             Coordinates (Angstroms)
 Number     Number       Type             X           Y           Z
 ---------------------------------------------------------------------
      1          8           0       -1.517207   -0.053406   -1.162877
      2          6           0       -1.676870   -0.068495    0.055892
      3          7           0       -0.631587   -0.267168    0.912302
      4          6           0        0.727872   -0.409110    0.422255
      5          6           0        1.533599   -1.123314    1.495025
      6          8           0        2.365721   -2.049610    0.989464
      7          8           0        1.450226   -0.865865    2.677781
      8          6           0        1.367525    0.978668    0.112183
      9          6           0        2.740627    0.905768   -0.470434
     10          6           0        3.991499    1.132239    0.055991
     11          7           0        4.978199    0.899662   -0.876432
     12          6           0        4.338703    0.532646   -1.964881
     13          7           0        2.984710    0.517644   -1.777672
     14          6           0       -3.029019    0.161466    0.719571
     15          6           0       -4.163566   -0.566235   -0.008240
     16          7           0       -5.449565   -0.224280    0.612091
     17          1           0       -0.756755   -0.226474    1.915565
     18          1           0        0.704005   -1.005787   -0.491458
     19          1           0        2.882990   -2.403376    1.738575
     20          1           0        1.398715    1.555012    1.042378
     21          1           0        0.676919    1.487021   -0.570211
     22          1           0        4.232309    1.455990    1.060552
     23          1           0        4.793866    0.272278   -2.911141
     24          1           0        2.283288    0.281586   -2.466004
     25          1           0       -3.019662   -0.126847    1.776260
     26          1           0       -3.222310    1.244716    0.690180
     27          1           0       -4.021485   -1.648927    0.096868
     28          1           0       -4.089191   -0.338182   -1.081254
     29          1           0       -6.187391   -0.790515    0.196708
     30          1           0       -5.686142    0.743032    0.391605
 ---------------------------------------------------------------------
                    Distance matrix (angstroms):
                    1          2          3          4          5
     1  O    0.000000
     2  C    1.229276   0.000000
     3  N    2.266359   1.365842   0.000000
     4  C    2.771200   2.456221   1.452041   0.000000
     5  C    4.185280   3.672990   2.400122   1.519907   0.000000
     6  O    4.867703   4.597708   3.488110   2.386528   1.343891
     7  O    4.921017   4.157984   2.794513   2.412015   1.213320
     8  C    3.318528   3.219947   2.487719   1.559240   2.521539
     9  C    4.419123   4.554173   3.828782   2.564563   3.071990
    10  C    5.765175   5.794150   4.905562   3.627833   3.633127
    11  N    6.571201   6.789440   6.002563   4.633007   4.645590
    12  C    5.939558   6.374324   5.798419   4.429834   4.752027
    13  N    4.579446   5.043396   4.574877   3.285099   3.938148
    14  C    2.423913   1.523699   2.443062   3.811585   4.803069
    15  C    2.932473   2.536832   3.662201   4.912859   5.918432
    16  N    4.317771   3.816655   4.827512   6.183116   7.095943
    17  H    3.175696   2.080853   1.011860   2.113633   2.495376
    18  H    2.508310   2.616615   2.073621   1.091542   2.155957
    19  H    5.770833   5.392162   4.195041   3.217814   1.875828
    20  H    3.994091   3.614990   2.731188   2.166185   2.719653
    21  H    2.745607   2.889975   2.643333   2.140771   3.436997
    22  H    6.346562   6.184803   5.162242   4.020834   3.758273
    23  H    6.556839   7.126698   6.659223   5.301710   5.656086
    24  H    4.031640   4.708011   4.495618   3.352376   4.269136
    25  H    3.301710   2.183154   2.543426   3.994623   4.669500
    26  H    2.833076   2.124907   3.007819   4.290787   5.373454
    27  H    3.225532   2.827838   3.750413   4.919290   5.752397
    28  H    2.588989   2.680509   3.991783   5.046748   6.234534
    29  H    4.919596   4.570114   5.626093   6.929444   7.836458
    30  H    4.520038   4.104332   5.180748   6.516743   7.538265
                    6          7          8          9         10
     6  O    0.000000
     7  O    2.256058   0.000000
     8  C    3.307036   3.160923   0.000000
     9  C    3.317547   3.836024   1.493375   0.000000
    10  C    3.693059   4.162243   2.629066   1.375897   0.000000
    11  N    4.359451   5.310001   3.744405   2.274115   1.377346
    12  C    4.391908   5.643885   3.652537   2.219558   2.136348
    13  N    3.825046   4.911191   2.529700   1.385312   2.180292
    14  C    5.836516   4.995361   4.512907   5.937922   7.118315
    15  C    6.769595   6.230502   5.744057   7.074483   8.330308
    16  N    8.034484   7.230894   6.940439   8.338352   9.554218
    17  H    3.732472   2.420860   3.035971   4.382539   5.277313
    18  H    2.458454   3.258911   2.177775   2.793263   3.959606
    19  H    0.976670   2.301926   4.047222   3.981258   4.069453
    20  H    3.732452   2.921958   1.094718   2.123875   2.806105
    21  H    4.218104   4.084548   1.095911   2.146323   3.391820
    22  H    3.972208   3.968177   3.055197   2.207210   1.082565
    23  H    5.147987   6.611456   4.623774   3.251792   3.191739
    24  H    4.169116   5.335650   2.823401   2.140342   3.162602
    25  H    5.772211   4.619393   4.820656   6.268561   7.328097
    26  H    6.493708   5.498882   4.633728   6.084285   7.242506
    27  H    6.461709   6.100322   5.995491   7.250825   8.482009
    28  H    6.991620   6.715203   5.738827   6.968998   8.291745
    29  H    8.681562   8.030853   7.759762   9.112188  10.359855
    30  H    8.543347   7.664392   7.063130   8.472310   9.691277
                   11         12         13         14         15
    11  N    0.000000
    12  C    1.314677   0.000000
    13  N    2.220848   1.366956   0.000000
    14  C    8.198030   7.850311   6.521351   0.000000
    15  C    9.299165   8.793439   7.443355   1.531815   0.000000
    16  N   10.593262  10.150069   8.797637   2.453445   1.468175
    17  H    6.477123   6.449637   5.309640   2.596937   3.927190
    18  H    4.695495   4.212931   3.029324   4.094452   4.911207
    19  H    4.705127   4.945190   4.572383   6.524464   7.488685
    20  H    4.113881   4.328090   3.397675   4.653064   6.045036
    21  H    4.351985   4.032939   2.779129   4.141812   5.287908
    22  H    2.148897   3.164984   3.239214   7.383695   8.701864
    23  H    2.137201   1.081838   2.148953   8.625072   9.453334
    24  H    3.189247   2.130466   1.010701   6.195395   6.951355
    25  H    8.488597   8.281099   7.007017   1.095355   2.164722
    26  H    8.355936   8.045204   6.719079   1.100752   2.157151
    27  H    9.404091   8.882726   7.569326   2.156449   1.097022
    28  H    9.153785   8.518717   7.159436   2.148624   1.099499
    29  H   11.343664  10.826905   9.472956   3.339906   2.046502
    30  H   10.740606  10.300233   8.940930   2.739723   2.047509
                   16         17         18         19         20
    16  N    0.000000
    17  H    4.870473   0.000000
    18  H    6.300396   2.921456   0.000000
    19  H    8.686132   4.244758   3.416764   0.000000
    20  H    7.088721   2.929539   3.064794   4.284459   0.000000
    21  H    6.469945   3.342240   2.494199   5.033133   1.768065
    22  H    9.836824   5.334088   4.573621   4.144283   2.835382
    23  H   10.843782   7.372600   4.920902   5.694771   5.366820
    24  H    8.338320   5.357064   2.837305   5.024653   3.835730
    25  H    2.696147   2.269378   4.447558   6.326556   4.784275
    26  H    2.669216   3.121686   4.677283   7.189046   4.644803
    27  H    2.081943   3.998686   4.805207   7.136958   6.366929
    28  H    2.175088   4.483138   4.875273   7.799216   6.181514
    29  H    1.018603   5.724021   6.929015   9.340797   7.985340
    30  H    1.019939   5.249881   6.683722   9.227363   7.160867
                   21         22         23         24         25
    21  H    0.000000
    22  H    3.911668   0.000000
    23  H    4.889254   4.182208   0.000000
    24  H    2.761798   4.196963   2.549751   0.000000
    25  H    4.666391   7.457124   9.120430   6.803301   0.000000
    26  H    4.105031   7.466803   8.841618   6.418779   1.761199
    27  H    5.688072   8.870982   9.510497   7.074275   2.478050
    28  H    5.129166   8.778027   9.090096   6.550583   3.058421
    29  H    7.272832  10.694072  11.461948   8.943816   3.601381
    30  H    6.478206   9.966517  10.998195   8.478837   3.127950
                   26         27         28         29         30
    26  H    0.000000
    27  H    3.060044   0.000000
    28  H    2.528840   1.763692   0.000000
    29  H    3.630067   2.331949   2.498046   0.000000
    30  H    2.532055   2.929065   2.426641   1.625116   0.000000
 Symmetry turned off by external request.
 Stoichiometry    C9H14N4O3
 Framework group  C1[X(C9H14N4O3)]
 Deg. of freedom    84
 Full point group                 C1      NOp   1
 Rotational constants (GHZ):      1.0728051      0.2275152      0.2025033
 Standard basis: 6-31G(d) (6D, 7F)
   268 basis functions,   504 primitive gaussians,   268 cartesian basis functions
    60 alpha electrons       60 beta electrons
       nuclear repulsion energy      1094.4800311189 Hartrees.
 NAtoms=   30 NActive=   30 NUniq=   30 SFac= 1.00D+00 NAtFMM=   60 NAOKFM=F Big=F
 Integral buffers will be    131072 words long.
 Raffenetti 2 integral format.
 Two-electron integral symmetry is turned off.
 One-electron integrals computed using PRISM.
 NBasis=   268 RedAO= T EigKep=  1.22D-03  NBF=   268
 NBsUse=   268 1.00D-06 EigRej= -1.00D+00 NBFU=   268
 Initial guess from the checkpoint file:  "conf-591.chk"
 B after Tr=    -0.009868    0.020391    0.000125
         Rot=    0.999759   -0.021035   -0.000653    0.006276 Ang=  -2.52 deg.
 ExpMin= 1.61D-01 ExpMax= 5.48D+03 ExpMxC= 8.25D+02 IAcc=2 IRadAn=         4 AccDes= 0.00D+00
 Harris functional with IExCor=  402 and IRadAn=       4 diagonalized for initial guess.
 HarFok:  IExCor=  402 AccDes= 0.00D+00 IRadAn=         4 IDoV= 1 UseB2=F ITyADJ=14
 ICtDFT=  3500011 ScaDFX=  1.000000  1.000000  1.000000  1.000000
 FoFCou: FMM=F IPFlag=           0 FMFlag=      100000 FMFlg1=           0
         NFxFlg=           0 DoJE=T BraDBF=F KetDBF=T FulRan=T
         wScrn=  0.000000 ICntrl=     500 IOpCl=  0 I1Cent=   200000004 NGrid=           0
         NMat0=    1 NMatS0=      1 NMatT0=    0 NMatD0=    1 NMtDS0=    0 NMtDT0=    0
 Symmetry not used in FoFCou.
[...]
 ,-0.06362632,-0.02121551,-0.00804125,0.00027205,0.00074048,-0.00071763
 ,-0.00012855,-0.00007386,-0.00015444,0.00019735,0.00002347,-0.00001268
 ,-0.00003634,0.00006210,0.00003122,0.00013382,-0.00081983,0.00062831,0
 .00003982,0.00002951,0.00001812,-0.00000312,-0.00034754,0.00013098,0.0
 0019713,-0.00023687,-0.00059120,-0.00007902,0.00201754,-0.00001609,0.0
 0016952,-0.00116153,-0.00001853,0.06009003,0.03097653,-0.00417540,-0.0
 0225472,0.00242311,0.00133651,0.00115213,-0.00769830,0.00126598,-0.000
 40951,0.00175821,-0.00031804,0.00032258,-0.00061567,-0.00072211,0.0007
 1390,-0.00038802,0.00059688,-0.00033518,0.00018539,0.00032290,-0.00032
 550,0.00035459,0.00003529,-0.00023821,0.00099586,-0.02830590,-0.004087
 46,0.00949883,-0.00485605,-0.00058430,-0.00732020,0.00615876,0.0003476
 5,-0.00436354,0.01913619,0.00343454,0.01469867,-0.03123217,-0.00609659
 ,-0.07965252,-0.00029704,0.00025415,0.00071763,0.00031021,0.00022587,0
 .00045093,-0.00025948,-0.00013593,-0.00008547,0.00013026,-0.00004810,-
 0.00018990,-0.00005254,0.00055924,-0.00025147,-0.00005966,0.00001728,-
 0.00000775,0.00019204,-0.00002641,0.00022932,0.00025763,-0.00037215,-0
 .00066757,-0.00134948,-0.00008101,0.00089966,-0.00050301,-0.00008049,-
 0.00052184,0.04283752,0.00797184,0.06939346,-0.00870192,0.00168551,0.0
 0334065,0.00017538,-0.01062738,0.03157672,0.00044685,0.00033291,-0.001
 39502,0.00037333,-0.00002669,-0.00007376,-0.00018899,-0.00001173,0.000
 23911,0.00016729,-0.00004973,-0.00003834,0.00017901,0.00002093,-0.0001
 7644,0.00006138,-0.00004854,0.00003265,0.00012103,0.00004044,0.0002074
 5,-0.00007775,-0.00000401,0.00003085,-0.00018805,-0.00001794,-0.000053
 83,0.00015094,-0.00000493,-0.00024383,-0.00043734,-0.00013775,0.000181
 31,-0.06272352,-0.01294280,0.05048424,0.00384238,0.00538660,-0.0200297
 8,0.00149573,0.00044058,0.00059614,-0.00234651,0.00046837,-0.00063088,
 0.00018174,-0.00006894,0.00006161,-0.00002408,0.00000353,-0.00000073,-
 0.00000101,0.00002033,-0.00002203,0.00001549,0.00002782,0.00001556,-0.
 00001852,-0.00000239,-0.00000129,-0.00000088,0.00000112,0.00000294,0.0
 0068752,0.00031740,-0.00032732,0.06747017,0.00140379,0.00211760,-0.000
 81294,0.00147706,-0.00173361,-0.00542857,-0.00018527,-0.00035874,-0.00
 031893,-0.00010118,-0.00001374,-0.00020755,0.00001350,0.00000088,0.000
 04932,-0.00002931,0.00001732,-0.00001719,-0.00003788,-0.00005567,-0.00
 005000,-0.00002163,0.00002039,-0.00001285,0.00000097,-0.00001321,-0.00
 000434,0.00000354,-0.00000222,0.00000064,-0.00000088,0.00000192,0.0000
 0085,0.00001285,0.00000321,0.00000227,0.00005497,0.00001102,-0.0000285
 8,-0.01454433,-0.06868978,0.06730387,0.00354498,0.00465235,-0.01887052
 ,0.00099420,0.00010589,0.00112781,0.00021494,0.00086798,-0.00000179,0.
 00005882,-0.00000748,-0.00001420,0.00000614,0.00000932,0.00000564,-0.0
 0001931,-0.00000276,0.00000025,-0.00000245,-0.00000835,0.00002485,-0.0
 0000058,0.00000129,-0.00000091,0.00000124,-0.00000152,-0.00000165,-0.0
 0005120,-0.00000333,0.00004308,0.01573250,0.07081008,0.00198831,0.0001
 8985,0.00164553,-0.00252949,0.00117288,-0.00741083,-0.00143658,-0.0000
 3392,0.00075169,0.00039342,-0.00046911,0.00043529,0.00027122,0.0000278
 6,-0.00020041,-0.00010323,0.00001731,0.00004668,-0.00015487,-0.0000414
 4,0.00012171,-0.00007982,0.00006452,-0.00000939,-0.00006770,-0.0000399
 6,-0.00008812,0.00005359,-0.00000221,-0.00001155,0.00008144,0.00001336
 ,0.00005591,-0.00009240,-0.00000830,0.00010394,0.00013218,0.00002546,-
 0.00008602,0.05325633,0.06612019,-0.28204602,0.00463255,0.00517244,-0.
 02202665,0.00068430,0.00068573,0.00253462,0.00015453,0.00007737,0.0012
 5395,-0.00008381,0.00005652,0.00004289,0.00002441,-0.00000539,0.000001
 07,-0.00000189,-0.00001716,0.00001524,-0.00000787,-0.00000877,-0.00001
 009,0.00001051,0.00000031,0.00000179,-0.00000457,-0.00000052,0.0000054
 8,-0.00024898,-0.00005892,0.00009163,-0.05502551,-0.07071716,0.3076469
 7,0.00043837,-0.00408003,-0.00031529,-0.00823716,0.03654753,-0.0045169
 2,-0.00344086,-0.00134325,0.00057340,-0.00048179,-0.00156661,-0.000714
 14,0.00008025,-0.00029059,0.00028586,-0.00014688,0.00013029,-0.0000973
 8,-0.00006508,0.00008013,-0.00018366,-0.00039245,0.00039614,-0.0001377
 9,-0.00002982,-0.00007764,-0.00002922,0.00001988,-0.00002462,0.0000135
 6,-0.00004762,0.00000897,0.00005050,-0.00000921,0.00000425,-0.00003786
 ,-0.00009035,-0.00003396,0.00007833,-0.05722964,0.05434611,-0.00258871
 ,0.00310159,-0.02145908,0.00175048,0.00206725,-0.00022526,0.00055664,-
 0.00006120,0.00072122,0.00046832,0.00013003,-0.00001784,0.00002155,0.0
 0000770,0.00001092,0.00000819,-0.00009646,-0.00013418,0.00003314,-0.00
 001302,-0.00000531,-0.00000915,-0.00000088,0.00000264,-0.00000308,-0.0
 0000312,0.00000179,0.00000939,0.00017793,0.00000630,-0.00015702,0.0015
 3632,-0.00720444,0.00038199,0.06444426,-0.00019529,0.00145056,-0.00031
 176,0.00145127,-0.00419006,0.00207310,0.00076342,0.00018046,-0.0008751
 2,-0.00004174,0.00002459,0.00011665,-0.00005055,0.00001225,-0.00003135
 ,0.00007455,-0.00002749,0.00002829,0.00006441,0.00001547,0.00000932,0.
 00005032,-0.00008380,0.00002942,0.00002138,0.00002497,0.00002861,-0.00
 001577,0.00000715,-0.00000281,-0.00000274,0.00000088,-0.00002001,0.000
 01885,0.00000129,-0.00000960,0.00000078,0.00002849,-0.00001002,0.05193
 170,-0.28807041,0.02825371,0.00242724,-0.02026940,0.00068090,0.0009975
 8,0.00200640,0.00052922,-0.00024142,-0.00013385,-0.00025935,-0.0000035
 0,-0.00001657,-0.00000820,-0.00000818,-0.00000764,-0.00000428,0.000023
 75,0.00001628,-0.00001378,0.00000402,-0.00000921,-0.00000015,-0.000001
 32,-0.00000280,0.00000060,0.00000182,-0.00000431,-0.00000287,0.0000323
 4,-0.00004952,0.00001296,0.00153412,-0.00749991,0.00098851,-0.05533518
 ,0.31543506,0.00080632,0.00138185,-0.00031317,0.00029029,-0.00679117,-
 0.00041217,-0.00054544,-0.00017549,0.00002412,-0.00001322,-0.00042417,
 0.00003957,0.00013120,0.00001106,-0.00003874,-0.00006834,0.00002203,0.
 00000466,-0.00009755,-0.00003466,0.00001453,-0.00011718,0.00011294,0.0
 0001101,-0.00003393,-0.00004450,-0.00002738,0.00002097,-0.00000713,0.0
 0000031,0.00001905,0.00001205,0.00001071,-0.00001630,-0.00000344,0.000
 04102,0.00005470,0.00000789,-0.00004381,-0.00272101,0.02809887,-0.0509
 2240,0.00282048,-0.02445775,0.00120141,0.00167821,0.00097039,0.0004039
 6,0.00038039,0.00057390,0.00041978,0.00001840,0.00001615,0.00002202,0.
 00001103,0.00000194,0.00000354,-0.00001941,-0.00002059,0.00000513,0.00
 000101,-0.00001633,0.00000906,0.00000157,0.00000019,-0.00000098,0.0000
 0272,-0.00000312,-0.00000296,-0.00012441,0.00000124,0.00007831,-0.0075
 2143,0.03039133,-0.00249388,0.00723781,-0.02794378,0.05254688,-0.00032
 869,0.00055378,0.00043764,0.00188854,-0.00128076,-0.00013744,-0.000069
 80,0.00042954,-0.00007481,-0.00003275,-0.00004746,-0.00003894,-0.00001
 727,-0.00000486,-0.00002503,0.00000110,0.00000536,0.00000644,0.0000040
 6,0.00000949,0.00002125,0.00000720,-0.00002424,0.00000075,0.00000358,0
 .00000608,0.00000090,-0.00000174,0.00000268,-0.00000079,-0.00000066,0.
 00000140,0.00000087,-0.00000097,-0.00000097,-0.00000070,-0.00000986,0.
 00001297,0.00000409,0.00247297,-0.02067674,0.00281823,-0.05565169,0.03
 445732,-0.00422938,-0.01265145,0.03814078,-0.00197308,0.00002579,-0.00
 010297,-0.00004466,-0.00002145,-0.00001544,0.00001140,-0.00000302,-0.0
 0000275,-0.00000352,0.00000340,0.00000632,-0.00000146,0.00000233,0.000
 00766,0.00000371,0.00000030,-0.00000090,0.00000018,0.00000002,-0.00000
 235,0.00000074,0.00001420,-0.00002293,-0.00000612,0.00052834,0.0009371
 4,0.00042725,-0.00236021,-0.00236403,-0.00313722,0.06989383,-0.0009216
 3,0.00052518,0.00064771,0.00188475,-0.00078100,-0.00064681,-0.00076520
 ,0.00052711,-0.00024396,0.00005152,-0.00011721,-0.00013800,-0.00004026
 ,-0.00008497,0.00009918,-0.00001950,0.00004930,-0.00003003,0.00002023,
 0.00008018,-0.00004661,-0.00002208,-0.00001071,-0.00000597,0.00001130,
 0.00000410,0.00000869,-0.00000263,0.00000381,0.00000339,-0.00002482,0.
 00000704,0.00000870,0.00001185,-0.00000043,-0.00002150,-0.00004995,0.0
 0002479,0.00002265,0.00016890,-0.01606589,0.00179556,0.04112208,-0.295
 98701,0.03491241,0.00390181,-0.00458213,-0.00079419,-0.00000421,-0.000
 20748,0.00000823,-0.00004851,-0.00001397,0.00003406,-0.00001345,-0.000
 01455,-0.00000829,-0.00001015,-0.00000142,-0.00000062,0.00000424,0.000
 02845,0.00000846,-0.00000084,-0.00000344,-0.00000074,0.00000082,-0.000
 00802,0.00000249,0.00007737,-0.00004295,-0.00004751,0.00028373,0.00091
 397,-0.00018603,-0.00214644,-0.00026559,-0.00235488,-0.04574618,0.3211
 9572,0.00020415,-0.00025363,0.00028514,0.00115094,-0.00011911,0.000433
 31,0.00012993,0.00033848,-0.00004712,-0.00004179,-0.00004010,-0.000031
 87,-0.00007984,-0.00000787,0.00004910,0.00005042,-0.00001823,-0.000008
 59,0.00006078,0.00002394,-0.00002975,0.00000195,-0.00002805,-0.0000042
 1,0.00000138,0.00000780,0.00000222,-0.00000274,0.00000232,0.00000031,0
 .00000497,-0.00000507,-0.00000577,-0.00000137,0.00000077,-0.00000206,0
 .00000356,-0.00000977,0.00000511,0.00229184,-0.02230405,0.00198853,-0.
 00441090,0.03836539,-0.05890179,0.00160093,-0.00897947,0.00139172,-0.0
 0008153,-0.00011087,-0.00004571,0.00001998,-0.00000388,0.00000762,-0.0
 0000917,0.00000163,0.00000026,0.00000279,0.00000216,-0.00000079,0.0000
 0176,0.00000396,-0.00000104,-0.00000040,0.00000025,0.00000027,-0.00000
 142,0.00000451,-0.00000052,-0.00001178,0.00001506,-0.00000456,0.000920
 92,0.00011970,0.00104107,-0.00303837,-0.00289526,-0.00208382,0.0052999
 2,-0.03506757,0.05807009,-0.00131264,-0.00021099,0.00121217,0.00156718
 ,0.00078392,-0.00281520,-0.00022686,-0.00016881,0.00080644,-0.00005316
 ,0.00006460,0.00010461,0.00006555,0.00000508,-0.00004390,-0.00004128,0
 .00001042,0.00000820,-0.00004649,-0.00001415,0.00004166,-0.00000126,0.
 00000224,-0.00001471,-0.00002954,-0.00000668,-0.00004300,0.00001926,0.
 00000114,-0.00000555,0.00003576,0.00000367,0.00001227,-0.00003327,-0.0
 0000006,0.00005268,0.00006192,0.00001617,-0.00003754,0.00396887,0.0044
 4014,-0.01912028,-0.06159094,-0.01233631,0.05155217,-0.02189937,-0.004
 94220,0.03453281,0.00040338,-0.00013293,0.00009410,-0.00007748,0.00002
 731,-0.00002557,0.00000829,-0.00000232,0.00000196,-0.00000007,-0.00000
 382,0.00000487,-0.00000257,-0.00000507,-0.00000654,0.00000378,0.000000
 51,-0.00000046,0.00000058,-0.00000074,-0.00000053,-0.00013493,-0.00004
 416,0.00007363,-0.00294265,-0.00244519,-0.00287914,0.00074883,0.000067
 15,0.00094508,0.00255977,0.00084004,-0.00511485,0.07618487,-0.00013855
 ,-0.00069578,0.00022680,0.00048068,0.00029239,-0.00032834,-0.00018394,
 0.00030842,0.00007047,-0.00003840,0.00005919,0.00007162,-0.00000353,-0
 .00002800,0.00003691,-0.00000842,0.00001002,-0.00001052,0.00000420,0.0
 0002896,-0.00001481,-0.00000276,0.00000242,0.00000133,-0.00000829,-0.0
 0000269,-0.00000643,0.00000377,0.00000005,-0.00000158,0.00000304,-0.00
 000461,0.00000062,-0.00000122,0.00000104,0.00001303,0.00000939,-0.0000
 1298,-0.00001385,0.00132739,0.00377913,-0.01853797,-0.01165148,-0.0726
 8592,0.05898866,0.00352880,0.00524557,-0.00754170,0.00020267,-0.000134
 69,0.00004027,-0.00005182,0.00000523,-0.00000982,-0.00000307,-0.000004
 05,-0.00000113,-0.00000024,-0.00000338,0.00000069,0.00000268,0.0000003
 1,-0.00000885,-0.00000012,0.00000071,-0.00000092,0.00000121,0.00000607
 ,-0.00000201,-0.00001941,0.00002788,0.00003049,-0.00229307,-0.00096339
 ,-0.00284781,0.00108157,0.00114723,0.00019595,-0.00627396,-0.00779748,
 0.03138581,0.01497269,0.07062937,0.00138748,0.00027621,0.00361172,0.00
 250684,0.00020984,-0.00481776,-0.00038499,-0.00002971,0.00084585,-0.00
 000527,0.00007975,0.00001932,0.00007330,0.00003965,-0.00012729,-0.0000
 6906,0.00001820,0.00001978,-0.00007666,-0.00002938,0.00011824,0.000009
 29,0.00002115,-0.00003070,-0.00004363,-0.00001226,-0.00007347,0.000029
 35,0.00000109,-0.00000693,0.00006521,0.00000889,0.00004242,-0.00008327
 ,-0.00000705,0.00005938,0.00008799,0.00001214,-0.00002211,0.00077445,0
 .00537946,-0.02255027,0.04704238,0.05780461,-0.26820865,0.00876948,-0.
 00129166,-0.00041380,0.00022184,-0.00018385,0.00019135,-0.00007126,0.0
 0002788,-0.00000901,0.00000700,-0.00000051,-0.00000536,0.00000357,-0.0
 0000667,0.00001028,-0.00000718,-0.00000661,-0.00000903,0.00000879,0.00
 000123,0.00000333,-0.00000843,-0.00000131,0.00000994,-0.00015445,-0.00
 002900,0.00001780,-0.00230800,-0.00276436,-0.00159133,0.00053943,-0.00
 004389,0.00123768,0.00005647,0.00186391,-0.00316266,-0.05924102,-0.060
 66927,0.29294396,-0.00014359,0.00019583,0.00065461,0.00027637,-0.00139
 080,-0.00234818,-0.00084468,0.00018744,0.00018176,0.00011573,0.0001101
 4,-0.00016723,-0.00000010,-0.00007122,0.00011456,-0.00006991,0.0000582
 2,-0.00005047,-0.00002776,0.00004541,-0.00004859,0.00001314,0.00003059
 ,-0.00001901,0.00000844,-0.00000969,0.00000004,0.00000869,-0.00000132,
 0.00000371,-0.00002015,0.00000198,0.00002840,-0.00000209,-0.00000113,-
 0.00002139,-0.00004082,-0.00000744,0.00001287,-0.00731015,0.00266684,0
 .00345061,-0.02270373,-0.02434971,-0.02381987,-0.16902603,-0.11599058,
 -0.11074148,-0.00000473,-0.00007910,0.00006782,-0.00003724,0.00000220,
 0.00000399,-0.00000382,-0.00000458,-0.00000303,-0.00001357,-0.00000679
 ,0.00000213,0.00000428,0.00001093,0.00000851,0.00000044,-0.00000004,0.
 ,-0.00000318,-0.00000204,0.00000616,0.00007158,0.00002064,-0.00006222,
 0.00020618,0.00029654,0.00009481,0.00032850,0.00010938,0.00043710,0.00
 122876,0.00057594,-0.00051152,0.00099090,-0.00061634,0.00050358,0.1902
 7369,0.00020358,-0.00010768,-0.00004043,-0.00008758,0.00106584,0.00005
 476,0.00028364,-0.00024719,0.00018815,-0.00008523,-0.00008994,0.000026
 70,-0.00001741,0.00006745,-0.00010374,0.00004247,-0.00004148,0.0000353
 6,0.00001380,-0.00004847,0.00006115,-0.00000706,-0.00000872,0.00000667
 ,-0.00001211,0.00000258,-0.00001472,-0.00000145,-0.00000005,-0.0000033
 0,0.00002906,-0.00000078,-0.00000659,-0.00002131,-0.00000156,0.0000177
 5,0.00004503,0.00000226,-0.00000273,0.00227466,0.00057164,0.00019242,0
 .00554783,0.00544286,0.00419698,-0.11429125,-0.18784806,-0.11535467,0.
 00000872,0.00006787,-0.00004117,0.00003105,0.00000001,-0.00000284,0.00
 000254,0.00000852,0.00000117,0.00001026,0.00000324,0.00000145,-0.00000
 550,-0.00001158,-0.00000525,0.00000194,0.00000111,0.00000182,-0.000002
 11,0.00000216,0.00000018,-0.00006668,-0.00001005,0.00002120,-0.0000595
 5,-0.00010523,-0.00011683,0.00009978,0.00034336,-0.00002941,0.00037061
 ,0.00044304,0.00037044,0.00032136,-0.00041203,-0.00005619,0.13026039,0
 .20476753,-0.00055777,0.00008278,0.00045056,0.00110569,-0.00082383,0.0
 0000258,-0.00055377,0.00025960,-0.00030420,0.00020109,0.00002679,-0.00
 006969,0.00007776,-0.00014027,0.00018883,-0.00010139,0.00008081,-0.000
 06670,-0.00004993,0.00009012,-0.00011627,-0.00000509,0.00002047,-0.000
 01796,0.00002934,-0.00000755,0.00003771,0.00000513,-0.00000080,0.00000
 785,-0.00007244,-0.00000342,0.00001906,0.00005307,0.00000339,-0.000047
 83,-0.00011702,-0.00001778,0.00001285,-0.00167316,0.00008979,-0.000028
 63,0.01436252,0.00736175,-0.00039010,-0.14799561,-0.15621658,-0.139628
 20,0.00001858,-0.00006782,0.00009883,-0.00003629,-0.00000139,0.0000117
 6,0.00000603,-0.00001541,0.00000490,-0.00002400,-0.00000992,-0.0000023
 5,0.00000657,0.00002454,0.00001148,-0.00000435,-0.00000115,-0.00000475
 ,0.00000446,-0.00000083,-0.00000048,0.00015936,0.00004014,-0.00005968,
 0.00028188,-0.00004479,0.00039140,0.00024122,0.00012368,-0.00004737,-0
 .00073945,0.00030093,0.00044911,0.00071019,0.00047952,0.00077433,0.126
 86617,0.13586990,0.13653433,0.00025661,-0.00016770,-0.00015973,-0.0004
 0893,-0.00032896,0.00044130,0.00042440,-0.00008395,0.00005372,-0.00005
 956,0.00008805,0.00009054,-0.00004120,0.00006765,-0.00006356,0.0000553
 3,-0.00004323,0.00002564,0.00003037,-0.00003911,0.00003635,0.00001349,
 -0.00000766,0.00001092,-0.00001294,0.00000417,-0.00001577,-0.00000372,
 -0.00000030,-0.00000320,0.00003406,-0.00000024,-0.00001330,-0.00002372
 ,-0.00000166,0.00002308,0.00005504,-0.00000607,-0.00000730,0.00114998,
 0.00128611,-0.00005448,-0.01117740,0.04058731,-0.01098861,-0.07889359,
 0.06814968,-0.02795149,-0.00002217,0.00003826,-0.00004658,0.00001333,0
 .00000314,-0.00001448,-0.00000466,0.00000690,-0.00000138,0.00001232,0.
 00000445,0.00000018,-0.00000153,-0.00001586,-0.00000971,0.00000143,0.0
 0000096,0.00000221,-0.00000225,0.00000286,-0.00000029,-0.00007148,0.00
 001132,0.00002976,0.00001214,-0.00010951,0.00012901,-0.00037517,-0.001
 31437,-0.00044089,-0.00748463,0.00086128,0.00155946,0.00177361,-0.0003
 2345,0.00036680,0.00672485,-0.02488948,0.00780120,0.08802600,0.0000676
 2,-0.00003292,-0.00015561,-0.00011922,0.00005808,0.00011397,0.00002161
 ,0.00000973,-0.00002411,-0.00000610,-0.00000432,0.00000498,-0.00002576
 ,0.00000667,0.00000203,0.00002052,-0.00000795,0.00000255,0.00001717,-0
 .00000026,-0.00000299,-0.00000631,-0.00000316,0.00000668,-0.00000390,0
 .00000140,-0.00000262,-0.00000292,-0.00000009,-0.00000047,0.00000681,0
 .00000023,-0.00000889,-0.00000172,0.00000007,0.00000834,0.00001335,0.0
 0000262,-0.00000415,0.00008718,0.00150802,0.00013736,-0.00014120,-0.00
 654396,0.00428428,0.07503043,-0.36692545,0.07203100,-0.00000717,0.0000
 0145,-0.00000749,-0.00000174,-0.00000119,-0.00000092,-0.00000448,0.000
 00055,-0.00000101,0.00000192,0.00000076,-0.00000019,0.00000155,-0.0000
 0129,-0.00000264,-0.00000035,-0.00000008,0.00000017,0.00000072,0.00000
 013,-0.00000132,-0.00001446,-0.00000454,0.00001615,-0.00000047,-0.0000
 7423,-0.00005877,0.00050680,-0.00006386,0.00050864,0.00162542,0.002181
 58,-0.00079927,-0.00124302,0.00120101,-0.00061229,0.00795830,-0.023856
 64,0.01249734,-0.08378060,0.39254766,-0.00000261,0.00007002,-0.0005665
 7,-0.00028884,-0.00052778,0.00061415,0.00001498,-0.00002882,-0.0002171
 9,0.00003310,0.00006807,0.00002142,-0.00000946,0.00000010,0.00005492,0
 .00000856,-0.00000807,-0.00001564,0.00000751,-0.00001168,-0.00005008,-
 0.00000264,0.00000841,0.00001377,0.00000803,-0.00000279,0.00002176,-0.
 00000655,-0.00000320,0.00000197,-0.00002033,-0.00000528,-0.00002149,0.
 00003223,0.00000369,-0.00000391,-0.00002056,-0.00000818,-0.00001079,-0
 .00067899,0.00119516,-0.00001974,0.01000183,-0.01169693,-0.00235010,-0
 .04361687,0.12594731,-0.04873015,-0.00002430,0.00006563,0.00001545,0.0
 0000195,-0.00000086,-0.00000440,0.00000184,0.00000684,0.00000619,-0.00
 000446,0.00000156,-0.00000391,0.00000771,-0.00000499,0.00000151,-0.000
 00410,0.00000110,-0.00000250,0.00000558,0.00000196,-0.00000671,0.00002
 649,0.00001457,0.00003310,-0.00012384,0.00022674,-0.00021257,-0.000421
 20,-0.00044275,0.00031298,0.00132276,-0.00012365,0.00060640,-0.0008045
 7,-0.00154717,0.00112297,0.00535614,-0.02526823,0.00178864,0.02920060,
 -0.08793076,0.04760051\\-0.00000203,-0.00000015,0.00000186,0.00000343,
 0.00000084,0.00000109,-0.00000003,-0.00000028,-0.00000255,-0.00000069,
 -0.00000392,0.00000292,-0.00000450,0.00000039,0.00000061,0.00000070,-0
 .00000107,0.00000067,0.00000238,0.00000028,0.00000065,0.00000077,0.000
 00094,-0.00000378,0.00000100,0.00000188,-0.00000040,-0.00000083,-0.000
 00024,0.00000145,0.00000059,-0.00000029,-0.00000138,-0.00000139,-0.000
 00047,0.00000037,0.00000053,-0.00000046,-0.00000164,-0.00000032,-0.000
 00028,-0.00000102,0.00000022,0.00000037,0.00000068,0.00000003,0.000000
 18,-0.00000046,0.00000018,0.00000008,-0.00000107,-0.00000073,0.0000004
 3,0.00000049,-0.00000012,0.00000126,-0.00000071,-0.00000012,0.00000134
 ,-0.00000080,0.00000043,0.00000004,0.00000024,-0.00000016,-0.00000007,
 0.00000008,-0.00000006,-0.00000035,0.00000044,0.00000043,-0.00000001,0
 .00000155,0.00000035,0.00000016,-0.00000022,-0.00000022,-0.00000067,-0
 .00000014,0.00000002,0.00000048,0.00000037,-0.00000023,-0.00000022,-0.
 00000002,0.00000029,0.00000044,0.00000053,0.00000009,-0.00000061,0.000
 00017\\\@


 PATIENCE IS THE ABILITY TO IDLE YOUR MOTOR WHEN
 YOU FEEL LIKE STRIPPING YOUR GEARS.
 Job cpu time:       0 days  1 hours  0 minutes  0.8 seconds.
 File lengths (MBytes):  RWF=    260 Int=      0 D2E=      0 Chk=      8 Scr=      1
 Normal termination of Gaussian 09 at Wed Jul 28 22:53:39 2021.
