 Entering Gaussian System, Link 0=g09
 Input=opt_freq-conf-118.com
 Output=opt_freq-conf-118.log
 Initial command:
 /aerosol/software/g09/l1.exe "/scratch/nicole/10600/Gau-95082.inp" -scrdir="/scratch/nicole/10600/"
 Entering Link 1 = /aerosol/software/g09/l1.exe PID=     95087.
  
 Copyright (c) 1988,1990,1992,1993,1995,1998,2003,2009,2013,
            Gaussian, Inc.  All Rights Reserved.
  
 This is part of the Gaussian(R) 09 program.  It is based on
 the Gaussian(R) 03 system (copyright 2003, Gaussian, Inc.),
 the Gaussian(R) 98 system (copyright 1998, Gaussian, Inc.),
 the Gaussian(R) 94 system (copyright 1995, Gaussian, Inc.),
 the Gaussian 92(TM) system (copyright 1992, Gaussian, Inc.),
 the Gaussian 90(TM) system (copyright 1990, Gaussian, Inc.),
 the Gaussian 88(TM) system (copyright 1988, Gaussian, Inc.),
 the Gaussian 86(TM) system (copyright 1986, Carnegie Mellon
 University), and the Gaussian 82(TM) system (copyright 1983,
 Carnegie Mellon University). Gaussian is a federally registered
 trademark of Gaussian, Inc.
  
 This software contains proprietary and confidential information,
 including trade secrets, belonging to Gaussian, Inc.
  
 This software is provided under written license and may be
 used, copied, transmitted, or stored only in accord with that
 written license.
  
 The following legend is applicable only to US Government
 contracts under FAR:
  
                    RESTRICTED RIGHTS LEGEND
  
 Use, reproduction and disclosure by the US Government is
 subject to restrictions as set forth in subparagraphs (a)
 and (c) of the Commercial Computer Software - Restricted
 Rights clause in FAR 52.227-19.
  
 Gaussian, Inc.
 340 Quinnipiac St., Bldg. 40, Wallingford CT 06492
  
  
 ---------------------------------------------------------------
 Warning -- This program may not be used in any manner that
 competes with the business of Gaussian, Inc. or will provide
 assistance to any competitor of Gaussian, Inc.  The licensee
 of this program is prohibited from giving any competitor of
 Gaussian, Inc. access to this program.  By using this program,
 the user acknowledges that Gaussian, Inc. is engaged in the
 business of creating and licensing software in the field of
 computational chemistry and represents and warrants to the
 licensee that it is not a competitor of Gaussian, Inc. and that
 it will not use this program in any manner prohibited above.
 ---------------------------------------------------------------
  

 Cite this work as:
 Gaussian 09, Revision D.01,
 M. J. Frisch, G. W. Trucks, H. B. Schlegel, G. E. Scuseria, 
 M. A. Robb, J. R. Cheeseman, G. Scalmani, V. Barone, B. Mennucci, 
 G. A. Petersson, H. Nakatsuji, M. Caricato, X. Li, H. P. Hratchian, 
 A. F. Izmaylov, J. Bloino, G. Zheng, J. L. Sonnenberg, M. Hada, 
 M. Ehara, K. Toyota, R. Fukuda, J. Hasegawa, M. Ishida, T. Nakajima, 
 Y. Honda, O. Kitao, H. Nakai, T. Vreven, J. A. Montgomery, Jr., 
 J. E. Peralta, F. Ogliaro, M. Bearpark, J. J. Heyd, E. Brothers, 
 K. N. Kudin, V. N. Staroverov, T. Keith, R. Kobayashi, J. Normand, 
 K. Raghavachari, A. Rendell, J. C. Burant, S. S. Iyengar, J. Tomasi, 
 M. Cossi, N. Rega, J. M. Millam, M. Klene, J. E. Knox, J. B. Cross, 
 V. Bakken, C. Adamo, J. Jaramillo, R. Gomperts, R. E. Stratmann, 
 O. Yazyev, A. J. Austin, R. Cammi, C. Pomelli, J. W. Ochterski, 
 R. L. Martin, K. Morokuma, V. G. Zakrzewski, G. A. Voth, 
 P. Salvador, J. J. Dannenberg, S. Dapprich, A. D. Daniels, 
 O. Farkas, J. B. Foresman, J. V. Ortiz, J. Cioslowski, 
 and D. J. Fox, Gaussian, Inc., Wallingford CT, 2013.
 
 ******************************************
 Gaussian 09:  ES64L-G09RevD.01 24-Apr-2013
                28-Jul-2021 
 ******************************************
 %mem=2gb
 %nproc=4
 Will use up to    4 processors via shared memory.
 %chk=conf-118.chk
 ----------------------------------------------------------------------
 # B3LYP/6-31G(d) opt=calcfc freq=noraman nosymm integral(ultrafinegrid
 )
 ----------------------------------------------------------------------
 1/10=4,14=-1,18=20,19=15,26=4,38=1/1,3;
 2/9=110,12=2,15=1,17=6,18=5,40=1/2;
 3/5=1,6=6,7=1,11=2,16=1,25=1,30=1,71=2,74=-5,75=-5,140=1/1,2,3;
 4//1;
 5/5=2,38=5/2;
 8/6=4,10=90,11=11/1;
 11/6=1,8=1,9=11,15=111,16=1,31=1/1,2,10;
 10/6=1,13=1,31=1/2;
 6/7=2,8=2,9=2,10=2,28=1/1;
 7/10=1,18=20,25=1,30=1/1,2,3,16;
 1/10=4,14=-1,18=20,19=15,26=4/3(2);
 2/9=110,15=1/2;
 99//99;
 2/9=110,15=1/2;
 3/5=1,6=6,7=1,11=2,16=1,25=1,30=1,71=1,74=-5,75=-5/1,2,3;
 4/5=5,16=3,69=1/1;
 5/5=2,38=5/2;
 7/30=1/1,2,3,16;
 1/14=-1,18=20,19=15,26=4/3(-5);
 2/9=110,15=1/2;
 6/7=2,8=2,9=2,10=2,19=2,28=1/1;
 99/9=1/99;
 ------------------------------------------------------------
 Candidate Structure: Conf:118 OPT and FREQ calc in gas phase
 ------------------------------------------------------------
 Symbolic Z-matrix:
 Charge =  0 Multiplicity = 1
 O                    -1.09191  -1.49774   1.89457 
 C                    -1.1329   -0.84889   0.84816 
 N                     0.0024   -0.36345   0.30113 
 C                     1.31616  -0.70184   0.84222 
 C                     1.64724   0.13858   2.0826 
 O                     0.82949  -0.05171   3.11585 
 O                     2.58036   0.90366   2.13873 
 C                     2.38232  -0.62065  -0.26115 
 C                     2.39816   0.65456  -1.03751 
 C                     2.19552   0.92086  -2.36066 
 N                     2.29483   2.27751  -2.60422 
 C                     2.56319   2.81405  -1.43534 
 N                     2.63864   1.87574  -0.46004 
 C                    -2.41621  -0.54902   0.10388 
 C                    -3.64785  -1.14676   0.78295 
 N                    -4.91229  -0.89688   0.0982 
 H                    -0.03659   0.23313  -0.50776 
 H                     1.26051  -1.73828   1.18222 
 H                     0.12995  -0.69885   2.87109 
 H                     2.19392  -1.44042  -0.95928 
 H                     3.35377  -0.80864   0.20316 
 H                     1.97224   0.21971  -3.15329 
 H                     2.71402   3.8582   -1.22877 
 H                     2.81452   2.00188   0.52833 
 H                    -2.32914  -0.93079  -0.9212 
 H                    -2.52727   0.53913   0.01542 
 H                    -3.51243  -2.2239    0.87785 
 H                    -3.72173  -0.75134   1.79546 
 H                    -5.07644   0.09998   0.0138 
 H                    -4.88239  -1.26779  -0.84492 
 

 GradGradGradGradGradGradGradGradGradGradGradGradGradGradGradGradGradGrad
 Berny optimization.
 Initialization pass.
                           ----------------------------
                           !    Initial Parameters    !
                           ! (Angstroms and Degrees)  !
 --------------------------                            --------------------------
 ! Name  Definition              Value          Derivative Info.                !
 --------------------------------------------------------------------------------
 ! R1    R(1,2)                  1.2319         calculate D2E/DX2 analytically  !
 ! R2    R(2,3)                  1.3505         calculate D2E/DX2 analytically  !
 ! R3    R(2,14)                 1.5135         calculate D2E/DX2 analytically  !
 ! R4    R(3,4)                  1.4606         calculate D2E/DX2 analytically  !
 ! R5    R(3,17)                 1.0058         calculate D2E/DX2 analytically  !
 ! R6    R(4,5)                  1.5344         calculate D2E/DX2 analytically  !
 ! R7    R(4,8)                  1.5365         calculate D2E/DX2 analytically  !
 ! R8    R(4,18)                 1.0922         calculate D2E/DX2 analytically  !
 ! R9    R(5,6)                  1.3314         calculate D2E/DX2 analytically  !
 ! R10   R(5,7)                  1.208          calculate D2E/DX2 analytically  !
 ! R11   R(6,19)                 0.9839         calculate D2E/DX2 analytically  !
 ! R12   R(8,9)                  1.493          calculate D2E/DX2 analytically  !
 ! R13   R(8,20)                 1.0931         calculate D2E/DX2 analytically  !
 ! R14   R(8,21)                 1.093          calculate D2E/DX2 analytically  !
 ! R15   R(9,10)                 1.3648         calculate D2E/DX2 analytically  !
 ! R16   R(9,13)                 1.3721         calculate D2E/DX2 analytically  !
 ! R17   R(10,11)                1.3819         calculate D2E/DX2 analytically  !
 ! R18   R(10,22)                1.0815         calculate D2E/DX2 analytically  !
 ! R19   R(11,12)                1.3138         calculate D2E/DX2 analytically  !
 ! R20   R(12,13)                1.3555         calculate D2E/DX2 analytically  !
 ! R21   R(12,23)                1.075          calculate D2E/DX2 analytically  !
 ! R22   R(13,24)                1.0118         calculate D2E/DX2 analytically  !
 ! R23   R(14,15)                1.5282         calculate D2E/DX2 analytically  !
 ! R24   R(14,25)                1.0973         calculate D2E/DX2 analytically  !
 ! R25   R(14,26)                1.0974         calculate D2E/DX2 analytically  !
 ! R26   R(15,16)                1.4595         calculate D2E/DX2 analytically  !
 ! R27   R(15,27)                1.0898         calculate D2E/DX2 analytically  !
 ! R28   R(15,28)                1.0895         calculate D2E/DX2 analytically  !
 ! R29   R(16,29)                1.0138         calculate D2E/DX2 analytically  !
 ! R30   R(16,30)                1.0139         calculate D2E/DX2 analytically  !
 ! A1    A(1,2,3)              120.3589         calculate D2E/DX2 analytically  !
 ! A2    A(1,2,14)             123.3848         calculate D2E/DX2 analytically  !
 ! A3    A(3,2,14)             116.2562         calculate D2E/DX2 analytically  !
 ! A4    A(2,3,4)              121.5221         calculate D2E/DX2 analytically  !
 ! A5    A(2,3,17)             120.421          calculate D2E/DX2 analytically  !
 ! A6    A(4,3,17)             118.0478         calculate D2E/DX2 analytically  !
 ! A7    A(3,4,5)              111.5098         calculate D2E/DX2 analytically  !
 ! A8    A(3,4,8)              110.2353         calculate D2E/DX2 analytically  !
 ! A9    A(3,4,18)             106.8192         calculate D2E/DX2 analytically  !
 ! A10   A(5,4,8)              113.6936         calculate D2E/DX2 analytically  !
 ! A11   A(5,4,18)             106.2061         calculate D2E/DX2 analytically  !
 ! A12   A(8,4,18)             108.0019         calculate D2E/DX2 analytically  !
 ! A13   A(4,5,6)              114.6171         calculate D2E/DX2 analytically  !
 ! A14   A(4,5,7)              123.4447         calculate D2E/DX2 analytically  !
 ! A15   A(6,5,7)              121.9325         calculate D2E/DX2 analytically  !
 ! A16   A(5,6,19)             109.7335         calculate D2E/DX2 analytically  !
 ! A17   A(4,8,9)              115.2081         calculate D2E/DX2 analytically  !
 ! A18   A(4,8,20)             107.4225         calculate D2E/DX2 analytically  !
 ! A19   A(4,8,21)             107.613          calculate D2E/DX2 analytically  !
 ! A20   A(9,8,20)             108.0754         calculate D2E/DX2 analytically  !
 ! A21   A(9,8,21)             111.0            calculate D2E/DX2 analytically  !
 ! A22   A(20,8,21)            107.1877         calculate D2E/DX2 analytically  !
 ! A23   A(8,9,10)             132.0047         calculate D2E/DX2 analytically  !
 ! A24   A(8,9,13)             122.9011         calculate D2E/DX2 analytically  !
 ! A25   A(10,9,13)            105.0931         calculate D2E/DX2 analytically  !
 ! A26   A(9,10,11)            110.5946         calculate D2E/DX2 analytically  !
 ! A27   A(9,10,22)            127.9267         calculate D2E/DX2 analytically  !
 ! A28   A(11,10,22)           121.474          calculate D2E/DX2 analytically  !
 ! A29   A(10,11,12)           104.9978         calculate D2E/DX2 analytically  !
 ! A30   A(11,12,13)           111.6429         calculate D2E/DX2 analytically  !
 ! A31   A(11,12,23)           126.6024         calculate D2E/DX2 analytically  !
 ! A32   A(13,12,23)           121.7547         calculate D2E/DX2 analytically  !
 ! A33   A(9,13,12)            107.669          calculate D2E/DX2 analytically  !
 ! A34   A(9,13,24)            123.5427         calculate D2E/DX2 analytically  !
 ! A35   A(12,13,24)           128.7737         calculate D2E/DX2 analytically  !
 ! A36   A(2,14,15)            112.7895         calculate D2E/DX2 analytically  !
 ! A37   A(2,14,25)            108.8547         calculate D2E/DX2 analytically  !
 ! A38   A(2,14,26)            108.779          calculate D2E/DX2 analytically  !
 ! A39   A(15,14,25)           110.0579         calculate D2E/DX2 analytically  !
 ! A40   A(15,14,26)           110.0054         calculate D2E/DX2 analytically  !
 ! A41   A(25,14,26)           106.1236         calculate D2E/DX2 analytically  !
 ! A42   A(14,15,16)           115.0106         calculate D2E/DX2 analytically  !
 ! A43   A(14,15,27)           108.9749         calculate D2E/DX2 analytically  !
 ! A44   A(14,15,28)           109.0053         calculate D2E/DX2 analytically  !
 ! A45   A(16,15,27)           108.5268         calculate D2E/DX2 analytically  !
 ! A46   A(16,15,28)           108.3686         calculate D2E/DX2 analytically  !
 ! A47   A(27,15,28)           106.6325         calculate D2E/DX2 analytically  !
 ! A48   A(15,16,29)           110.3457         calculate D2E/DX2 analytically  !
 ! A49   A(15,16,30)           110.3798         calculate D2E/DX2 analytically  !
 ! A50   A(29,16,30)           106.6816         calculate D2E/DX2 analytically  !
 ! D1    D(1,2,3,4)              6.4647         calculate D2E/DX2 analytically  !
 ! D2    D(1,2,3,17)          -174.6497         calculate D2E/DX2 analytically  !
 ! D3    D(14,2,3,4)          -173.4245         calculate D2E/DX2 analytically  !
 ! D4    D(14,2,3,17)            5.4611         calculate D2E/DX2 analytically  !
 ! D5    D(1,2,14,15)           -0.4965         calculate D2E/DX2 analytically  !
 ! D6    D(1,2,14,25)         -122.9478         calculate D2E/DX2 analytically  !
 ! D7    D(1,2,14,26)          121.8338         calculate D2E/DX2 analytically  !
 ! D8    D(3,2,14,15)          179.389          calculate D2E/DX2 analytically  !
 ! D9    D(3,2,14,25)           56.9378         calculate D2E/DX2 analytically  !
 ! D10   D(3,2,14,26)          -58.2807         calculate D2E/DX2 analytically  !
 ! D11   D(2,3,4,5)            -79.7678         calculate D2E/DX2 analytically  !
 ! D12   D(2,3,4,8)            152.9589         calculate D2E/DX2 analytically  !
 ! D13   D(2,3,4,18)            35.86           calculate D2E/DX2 analytically  !
 ! D14   D(17,3,4,5)           101.3211         calculate D2E/DX2 analytically  !
 ! D15   D(17,3,4,8)           -25.9523         calculate D2E/DX2 analytically  !
 ! D16   D(17,3,4,18)         -143.0511         calculate D2E/DX2 analytically  !
 ! D17   D(3,4,5,6)             62.9539         calculate D2E/DX2 analytically  !
 ! D18   D(3,4,5,7)           -117.8971         calculate D2E/DX2 analytically  !
 ! D19   D(8,4,5,6)           -171.6701         calculate D2E/DX2 analytically  !
 ! D20   D(8,4,5,7)              7.4788         calculate D2E/DX2 analytically  !
 ! D21   D(18,4,5,6)           -53.0496         calculate D2E/DX2 analytically  !
 ! D22   D(18,4,5,7)           126.0994         calculate D2E/DX2 analytically  !
 ! D23   D(3,4,8,9)             51.5157         calculate D2E/DX2 analytically  !
 ! D24   D(3,4,8,20)           -68.9577         calculate D2E/DX2 analytically  !
 ! D25   D(3,4,8,21)           175.919          calculate D2E/DX2 analytically  !
 ! D26   D(5,4,8,9)            -74.5362         calculate D2E/DX2 analytically  !
 ! D27   D(5,4,8,20)           164.9904         calculate D2E/DX2 analytically  !
 ! D28   D(5,4,8,21)            49.8671         calculate D2E/DX2 analytically  !
 ! D29   D(18,4,8,9)           167.8781         calculate D2E/DX2 analytically  !
 ! D30   D(18,4,8,20)           47.4047         calculate D2E/DX2 analytically  !
 ! D31   D(18,4,8,21)          -67.7186         calculate D2E/DX2 analytically  !
 ! D32   D(4,5,6,19)            -1.5849         calculate D2E/DX2 analytically  !
 ! D33   D(7,5,6,19)           179.2519         calculate D2E/DX2 analytically  !
 ! D34   D(4,8,9,10)          -118.2744         calculate D2E/DX2 analytically  !
 ! D35   D(4,8,9,13)            61.288          calculate D2E/DX2 analytically  !
 ! D36   D(20,8,9,10)            1.8412         calculate D2E/DX2 analytically  !
 ! D37   D(20,8,9,13)         -178.5964         calculate D2E/DX2 analytically  !
 ! D38   D(21,8,9,10)          119.1149         calculate D2E/DX2 analytically  !
 ! D39   D(21,8,9,13)          -61.3227         calculate D2E/DX2 analytically  !
 ! D40   D(8,9,10,11)          179.0972         calculate D2E/DX2 analytically  !
 ! D41   D(8,9,10,22)           -0.1142         calculate D2E/DX2 analytically  !
 ! D42   D(13,9,10,11)          -0.5223         calculate D2E/DX2 analytically  !
 ! D43   D(13,9,10,22)        -179.7337         calculate D2E/DX2 analytically  !
 ! D44   D(8,9,13,12)         -179.2098         calculate D2E/DX2 analytically  !
 ! D45   D(8,9,13,24)           -0.4902         calculate D2E/DX2 analytically  !
 ! D46   D(10,9,13,12)           0.4534         calculate D2E/DX2 analytically  !
 ! D47   D(10,9,13,24)         179.173          calculate D2E/DX2 analytically  !
 ! D48   D(9,10,11,12)           0.3856         calculate D2E/DX2 analytically  !
 ! D49   D(22,10,11,12)        179.6563         calculate D2E/DX2 analytically  !
 ! D50   D(10,11,12,13)         -0.0869         calculate D2E/DX2 analytically  !
 ! D51   D(10,11,12,23)        179.8016         calculate D2E/DX2 analytically  !
 ! D52   D(11,12,13,9)          -0.2354         calculate D2E/DX2 analytically  !
 ! D53   D(11,12,13,24)       -178.8665         calculate D2E/DX2 analytically  !
 ! D54   D(23,12,13,9)         179.87           calculate D2E/DX2 analytically  !
 ! D55   D(23,12,13,24)          1.2388         calculate D2E/DX2 analytically  !
 ! D56   D(2,14,15,16)        -179.4662         calculate D2E/DX2 analytically  !
 ! D57   D(2,14,15,27)         -57.3806         calculate D2E/DX2 analytically  !
 ! D58   D(2,14,15,28)          58.6314         calculate D2E/DX2 analytically  !
 ! D59   D(25,14,15,16)        -57.6922         calculate D2E/DX2 analytically  !
 ! D60   D(25,14,15,27)         64.3934         calculate D2E/DX2 analytically  !
 ! D61   D(25,14,15,28)       -179.5946         calculate D2E/DX2 analytically  !
 ! D62   D(26,14,15,16)         58.8948         calculate D2E/DX2 analytically  !
 ! D63   D(26,14,15,27)       -179.0196         calculate D2E/DX2 analytically  !
 ! D64   D(26,14,15,28)        -63.0076         calculate D2E/DX2 analytically  !
 ! D65   D(14,15,16,29)        -58.9619         calculate D2E/DX2 analytically  !
 ! D66   D(14,15,16,30)         58.7065         calculate D2E/DX2 analytically  !
 ! D67   D(27,15,16,29)        178.711          calculate D2E/DX2 analytically  !
 ! D68   D(27,15,16,30)        -63.6206         calculate D2E/DX2 analytically  !
 ! D69   D(28,15,16,29)         63.2841         calculate D2E/DX2 analytically  !
 ! D70   D(28,15,16,30)       -179.0475         calculate D2E/DX2 analytically  !
 --------------------------------------------------------------------------------
 Trust Radius=3.00D-01 FncErr=1.00D-07 GrdErr=1.00D-06
 Number of steps in this run=    160 maximum allowed number of steps=    180.
 GradGradGradGradGradGradGradGradGradGradGradGradGradGradGradGradGradGrad

                          Input orientation:                          
 ---------------------------------------------------------------------
 Center     Atomic      Atomic             Coordinates (Angstroms)
 Number     Number       Type             X           Y           Z
 ---------------------------------------------------------------------
      1          8           0       -1.091914   -1.497744    1.894566
      2          6           0       -1.132901   -0.848885    0.848165
      3          7           0        0.002404   -0.363454    0.301131
      4          6           0        1.316159   -0.701839    0.842219
      5          6           0        1.647238    0.138577    2.082596
      6          8           0        0.829491   -0.051707    3.115846
      7          8           0        2.580358    0.903658    2.138729
      8          6           0        2.382319   -0.620651   -0.261154
      9          6           0        2.398160    0.654561   -1.037507
     10          6           0        2.195523    0.920864   -2.360663
     11          7           0        2.294832    2.277508   -2.604224
     12          6           0        2.563187    2.814045   -1.435339
     13          7           0        2.638639    1.875738   -0.460036
     14          6           0       -2.416206   -0.549018    0.103885
     15          6           0       -3.647851   -1.146761    0.782954
     16          7           0       -4.912292   -0.896875    0.098203
     17          1           0       -0.036590    0.233126   -0.507759
     18          1           0        1.260513   -1.738284    1.182224
     19          1           0        0.129951   -0.698845    2.871087
     20          1           0        2.193921   -1.440421   -0.959280
     21          1           0        3.353770   -0.808644    0.203161
     22          1           0        1.972239    0.219708   -3.153286
     23          1           0        2.714018    3.858200   -1.228767
     24          1           0        2.814521    2.001875    0.528325
     25          1           0       -2.329135   -0.930794   -0.921196
     26          1           0       -2.527269    0.539126    0.015416
     27          1           0       -3.512426   -2.223902    0.877853
     28          1           0       -3.721732   -0.751344    1.795461
     29          1           0       -5.076436    0.099980    0.013796
     30          1           0       -4.882394   -1.267793   -0.844918
 ---------------------------------------------------------------------
                    Distance matrix (angstroms):
                    1          2          3          4          5
     1  O    0.000000
     2  C    1.231931   0.000000
     3  N    2.241246   1.350484   0.000000
     4  C    2.745854   2.453478   1.460558   0.000000
     5  C    3.196225   3.198137   2.476112   1.534421   0.000000
     6  O    2.697099   3.103040   2.950234   2.414311   1.331362
     7  O    4.394534   4.304098   3.410013   2.420074   1.207979
     8  C    4.181712   3.693163   2.458924   1.536464   2.570979
     9  C    5.040842   4.276038   2.927106   2.558107   3.250410
    10  C    5.896091   4.950455   3.680271   3.696607   4.544793
    11  N    6.779505   5.782964   4.546536   4.659643   5.192367
    12  C    6.560454   5.682651   4.435024   4.370788   4.513641
    13  N    5.553517   4.833164   3.541622   3.176274   3.235055
    14  C    2.420820   1.513520   2.433724   3.807760   4.571615
    15  C    2.809214   2.533368   3.764318   4.984261   5.601708
    16  N    4.264183   3.853381   4.947723   6.275763   6.930903
    17  H    3.143372   2.052115   1.005849   2.127564   3.090980
    18  H    2.469656   2.575083   2.061387   1.092208   2.117271
    19  H    1.756356   2.389461   2.594885   2.350193   1.903984
    20  H    4.352521   3.832038   2.747952   2.135736   3.470606
    21  H    4.806227   4.532976   3.382225   2.138145   2.709568
    22  H    6.149756   5.176427   4.019120   4.152559   5.246587
    23  H    7.275058   6.424102   5.245551   5.199706   5.093009
    24  H    5.419795   4.879679   3.681630   3.107038   2.692617
    25  H    3.127405   2.137363   2.692960   4.055887   5.096849
    26  H    3.120944   2.136424   2.701024   4.122564   4.675488
    27  H    2.723948   2.748398   4.018446   5.062922   5.801280
    28  H    2.735485   2.758429   4.031460   5.127520   5.449793
    29  H    4.686836   4.141012   5.108028   6.495726   7.034857
    30  H    4.682456   4.135301   5.098286   6.448937   7.292758
                    6          7          8          9         10
     6  O    0.000000
     7  O    2.221040   0.000000
     8  C    3.760200   2.849943   0.000000
     9  C    4.495540   3.191194   1.493030   0.000000
    10  C    5.727486   4.515853   2.611341   1.364816   0.000000
    11  N    6.347572   4.946169   3.727862   2.258149   1.381906
    12  C    5.650799   4.052633   3.634358   2.202017   2.139050
    13  N    4.446908   2.775232   2.517381   1.372069   2.172675
    14  C    4.455758   5.587174   4.812922   5.092101   5.431629
    15  C    5.166055   6.695740   6.142467   6.566055   6.949995
    16  N    6.541296   7.971542   7.308679   7.559068   7.737651
    17  H    3.736542   3.781790   2.576989   2.527103   2.981370
    18  H    2.601772   3.104312   2.142637   3.456465   4.527401
    19  H    0.983896   3.018089   3.858784   4.717371   5.853312
    20  H    4.516287   3.904062   1.093113   2.106367   2.745823
    21  H    3.927936   2.697512   1.092999   2.143226   3.302413
    22  H    6.378210   5.370570   3.039539   2.201597   1.081539
    23  H    6.141212   4.481876   4.594171   3.224849   3.190292
    24  H    3.853934   1.963240   2.772674   2.107235   3.146108
    25  H    5.200713   6.068895   4.767562   4.987404   5.096395
    26  H    4.607558   5.543392   5.052290   5.038038   5.300589
    27  H    5.345960   6.963725   6.214159   6.847567   7.277240
    28  H    4.790254   6.524815   6.442529   6.888784   7.421830
    29  H    6.672758   7.986722   7.498529   7.568512   7.693718
    30  H    7.056355   8.325264   7.316805   7.532530   7.562051
                   11         12         13         14         15
    11  N    0.000000
    12  C    1.313841   0.000000
    13  N    2.208430   1.355481   0.000000
    14  C    6.125110   6.202722   5.634616   0.000000
    15  C    7.649449   7.693231   7.085229   1.528196   0.000000
    16  N    8.326011   8.485604   8.063224   2.520216   1.459499
    17  H    3.743019   3.778941   3.139634   2.578454   4.075688
    18  H    5.615477   5.410388   4.202071   4.011910   4.959975
    19  H    6.597304   6.066823   4.900854   3.763346   4.339668
    20  H    4.066819   4.296914   3.382887   4.814373   6.103107
    21  H    4.304311   4.053835   2.856072   5.776667   7.033718
    22  H    2.154083   3.167199   3.231117   5.518926   6.996187
    23  H    2.136863   1.075026   2.127624   6.893383   8.340865
    24  H    3.187305   2.139805   1.011782   5.835041   7.193121
    25  H    5.874254   6.182474   5.724340   1.097325   2.165589
    26  H    5.756487   5.761310   5.357163   1.097369   2.164955
    27  H    8.130916   8.224649   7.512163   2.146150   1.089760
    28  H    8.045508   7.915193   7.241764   2.146338   1.089488
    29  H    8.119805   8.235896   7.930965   2.739734   2.046172
    30  H    8.196151   8.511562   8.160628   2.738421   2.046635
                   16         17         18         19         20
    16  N    0.000000
    17  H    5.041484   0.000000
    18  H    6.323495   2.902581   0.000000
    19  H    5.757805   3.508976   2.282731   0.000000
    20  H    7.204997   2.824856   2.354997   4.413799   0.000000
    21  H    8.267200   3.617352   2.490888   4.186036   1.759449
    22  H    7.695175   3.321805   4.810087   6.366384   2.760224
    23  H    9.084724   4.607262   6.264678   6.652283   5.330901
    24  H    8.263861   3.511521   4.102599   4.470944   3.800989
    25  H    2.777233   2.604112   4.238158   4.525739   4.551836
    26  H    2.785191   2.563363   4.571141   4.092462   5.211361
    27  H    2.080500   4.476420   4.807225   4.423312   6.045767
    28  H    2.078292   4.455813   5.115943   3.999398   6.561888
    29  H    1.013799   5.068510   6.700847   5.992387   7.495185
    30  H    1.013879   5.084117   6.485828   6.265461   7.079344
                   21         22         23         24         25
    21  H    0.000000
    22  H    3.772515   0.000000
    23  H    4.923326   4.182419   0.000000
    24  H    2.880198   4.176101   2.558010   0.000000
    25  H    5.794352   4.980734   6.961498   6.095806   0.000000
    26  H    6.036419   5.512557   6.327348   5.562143   1.754184
    27  H    7.042927   7.232072   8.955357   7.616404   2.511748
    28  H    7.252685   7.606204   8.474239   7.204752   3.058063
    29  H    8.481146   7.728426   8.738384   8.133212   3.079669
    30  H    8.315269   7.384255   9.172166   8.474611   2.576532
                   26         27         28         29         30
    26  H    0.000000
    27  H    3.057557   0.000000
    28  H    2.502122   1.747638   0.000000
    29  H    2.586716   2.931407   2.394641   0.000000
    30  H    3.090590   2.399770   2.930095   1.626606   0.000000
 Symmetry turned off by external request.
 Stoichiometry    C9H14N4O3
 Framework group  C1[X(C9H14N4O3)]
 Deg. of freedom    84
 Full point group                 C1      NOp   1
 Rotational constants (GHZ):      0.7486288      0.3003188      0.2383304
 Standard basis: 6-31G(d) (6D, 7F)
   268 basis functions,   504 primitive gaussians,   268 cartesian basis functions
    60 alpha electrons       60 beta electrons
       nuclear repulsion energy      1127.6577624082 Hartrees.
 NAtoms=   30 NActive=   30 NUniq=   30 SFac= 1.00D+00 NAtFMM=   60 NAOKFM=F Big=F
 Integral buffers will be    131072 words long.
 Raffenetti 2 integral format.
 Two-electron integral symmetry is turned off.
 One-electron integrals computed using PRISM.
 NBasis=   268 RedAO= T EigKep=  1.24D-03  NBF=   268
 NBsUse=   268 1.00D-06 EigRej= -1.00D+00 NBFU=   268
 ExpMin= 1.61D-01 ExpMax= 5.48D+03 ExpMxC= 8.25D+02 IAcc=3 IRadAn=         5 AccDes= 0.00D+00
 Harris functional with IExCor=  402 and IRadAn=       5 diagonalized for initial guess.
 HarFok:  IExCor=  402 AccDes= 0.00D+00 IRadAn=         5 IDoV= 1 UseB2=F ITyADJ=14
 ICtDFT=  3500011 ScaDFX=  1.000000  1.000000  1.000000  1.000000
 FoFCou: FMM=F IPFlag=           0 FMFlag=      100000 FMFlg1=           0
         NFxFlg=           0 DoJE=T BraDBF=F KetDBF=T FulRan=T
         wScrn=  0.000000 ICntrl=     500 IOpCl=  0 I1Cent=   200000004 NGrid=           0
         NMat0=    1 NMatS0=      1 NMatT0=    0 NMatD0=    1 NMtDS0=    0 NMtDT0=    0
 Symmetry not used in FoFCou.
 Requested convergence on RMS density matrix=1.00D-08 within 128 cycles.
 Requested convergence on MAX density matrix=1.00D-06.
 Requested convergence on             energy=1.00D-06.
 No special actions if energy rises.
 Integral accuracy reduced to 1.0D-05 until final iterations.
 Initial convergence to 1.0D-05 achieved.  Increase integral accuracy.
 SCF Done:  E(RB3LYP) =  -796.088346724     A.U. after   14 cycles
            NFock= 14  Conv=0.63D-08     -V/T= 2.0088
 DoSCS=F DFT=T ScalE2(SS,OS)=  1.000000  1.000000
 Range of M.O.s used for correlation:     1   268
 NBasis=   268 NAE=    60 NBE=    60 NFC=     0 NFV=     0
 NROrb=    268 NOA=    60 NOB=    60 NVA=   208 NVB=   208
 Symmetrizing basis deriv contribution to polar:
 IMax=3 JMax=2 DiffMx= 0.00D+00
 G2DrvN: will do    31 centers at a time, making    1 passes.
 Calling FoFCou, ICntrl=  3107 FMM=F I1Cent=   0 AccDes= 0.00D+00.
 End of G2Drv F.D. properties file   721 does not exist.
 End of G2Drv F.D. properties file   722 does not exist.
 End of G2Drv F.D. properties file   788 does not exist.
          IDoAtm=111111111111111111111111111111
          Differentiating once with respect to nuclear coordinates.
          There are    93 degrees of freedom in the 1st order CPHF.  IDoFFX=6 NUNeed=     0.
     87 vectors produced by pass  0 Test12= 1.34D-14 1.08D-09 XBig12= 1.64D-01 1.02D-01.
 AX will form    87 AO Fock derivatives at one time.
     87 vectors produced by pass  1 Test12= 1.34D-14 1.08D-09 XBig12= 1.77D-02 2.46D-02.
     87 vectors produced by pass  2 Test12= 1.34D-14 1.08D-09 XBig12= 2.04D-04 2.23D-03.
     87 vectors produced by pass  3 Test12= 1.34D-14 1.08D-09 XBig12= 5.71D-07 7.80D-05.
     87 vectors produced by pass  4 Test12= 1.34D-14 1.08D-09 XBig12= 7.26D-10 3.39D-06.
     70 vectors produced by pass  5 Test12= 1.34D-14 1.08D-09 XBig12= 6.56D-13 1.24D-07.
      9 vectors produced by pass  6 Test12= 1.34D-14 1.08D-09 XBig12= 5.14D-16 2.11D-09.
 InvSVY:  IOpt=1 It=  1 EMax= 4.44D-16
 Solved reduced A of dimension   514 with    93 vectors.
 End of Minotr F.D. properties file   721 does not exist.
 End of Minotr F.D. properties file   722 does not exist.
 End of Minotr F.D. properties file   788 does not exist.

 **********************************************************************

            Population analysis using the SCF density.

 **********************************************************************

 Alpha  occ. eigenvalues --  -19.19364 -19.15378 -19.15317 -14.39363 -14.38167
 Alpha  occ. eigenvalues --  -14.32376 -14.30943 -10.33410 -10.32133 -10.26503
 Alpha  occ. eigenvalues --  -10.23650 -10.22217 -10.22136 -10.22014 -10.21703
 Alpha  occ. eigenvalues --  -10.19895  -1.11491  -1.07449  -1.03347  -1.01526
 Alpha  occ. eigenvalues --   -0.96023  -0.89578  -0.86787  -0.82062  -0.77837
 Alpha  occ. eigenvalues --   -0.74505  -0.68311  -0.65391  -0.62379  -0.61476
 Alpha  occ. eigenvalues --   -0.60657  -0.59329  -0.56303  -0.55072  -0.52256
 Alpha  occ. eigenvalues --   -0.51961  -0.50422  -0.47600  -0.46494  -0.45921
 Alpha  occ. eigenvalues --   -0.45145  -0.44840  -0.43884  -0.43120  -0.42379
 Alpha  occ. eigenvalues --   -0.40946  -0.40726  -0.40360  -0.39364  -0.39251
 Alpha  occ. eigenvalues --   -0.37817  -0.36152  -0.32764  -0.31471  -0.29448
 Alpha  occ. eigenvalues --   -0.27867  -0.27436  -0.26351  -0.24510  -0.23082
 Alpha virt. eigenvalues --   -0.01741  -0.00399   0.02542   0.06079   0.06208
 Alpha virt. eigenvalues --    0.07709   0.08794   0.11688   0.11934   0.12239
 Alpha virt. eigenvalues --    0.12956   0.14307   0.14518   0.15697   0.16449
 Alpha virt. eigenvalues --    0.16726   0.17103   0.17284   0.18713   0.20376
 Alpha virt. eigenvalues --    0.21229   0.21606   0.23516   0.24547   0.24795
 Alpha virt. eigenvalues --    0.28368   0.29197   0.31364   0.32029   0.34105
 Alpha virt. eigenvalues --    0.36640   0.39114   0.40445   0.45351   0.48801
 Alpha virt. eigenvalues --    0.50605   0.51118   0.51482   0.52501   0.54117
 Alpha virt. eigenvalues --    0.54548   0.55561   0.55681   0.56349   0.59380
 Alpha virt. eigenvalues --    0.60269   0.61145   0.62320   0.62443   0.63070
 Alpha virt. eigenvalues --    0.63739   0.64318   0.66010   0.66742   0.67484
 Alpha virt. eigenvalues --    0.67718   0.69784   0.72505   0.72774   0.73696
 Alpha virt. eigenvalues --    0.76281   0.77143   0.78119   0.78767   0.80414
 Alpha virt. eigenvalues --    0.80855   0.81875   0.82278   0.82997   0.83434
 Alpha virt. eigenvalues --    0.84843   0.84974   0.87196   0.87351   0.88569
 Alpha virt. eigenvalues --    0.89671   0.90963   0.91373   0.91622   0.92262
 Alpha virt. eigenvalues --    0.92541   0.93357   0.94042   0.96634   0.97659
 Alpha virt. eigenvalues --    0.99340   1.00167   1.00599   1.03546   1.05750
 Alpha virt. eigenvalues --    1.08663   1.11459   1.12580   1.14253   1.15585
 Alpha virt. eigenvalues --    1.18484   1.22943   1.25253   1.27735   1.28040
 Alpha virt. eigenvalues --    1.30749   1.33444   1.35334   1.35512   1.36418
 Alpha virt. eigenvalues --    1.37109   1.40288   1.41345   1.42622   1.43501
 Alpha virt. eigenvalues --    1.44940   1.47863   1.49764   1.52075   1.54858
 Alpha virt. eigenvalues --    1.56146   1.58320   1.59428   1.63255   1.69083
 Alpha virt. eigenvalues --    1.69280   1.69930   1.71731   1.72620   1.73860
 Alpha virt. eigenvalues --    1.75320   1.75989   1.78876   1.81011   1.81949
 Alpha virt. eigenvalues --    1.83480   1.85362   1.86486   1.86781   1.89181
 Alpha virt. eigenvalues --    1.91068   1.92014   1.92784   1.94077   1.96087
 Alpha virt. eigenvalues --    1.96925   1.99488   2.02648   2.03436   2.05770
 Alpha virt. eigenvalues --    2.07162   2.08406   2.08783   2.11644   2.12946
 Alpha virt. eigenvalues --    2.15283   2.17702   2.22040   2.22488   2.24511
 Alpha virt. eigenvalues --    2.26159   2.26676   2.28756   2.30921   2.34039
 Alpha virt. eigenvalues --    2.34319   2.37927   2.40354   2.40926   2.42167
 Alpha virt. eigenvalues --    2.43387   2.47622   2.48664   2.49451   2.51507
 Alpha virt. eigenvalues --    2.58823   2.59347   2.60630   2.61721   2.63210
 Alpha virt. eigenvalues --    2.65722   2.66261   2.68522   2.71216   2.75299
 Alpha virt. eigenvalues --    2.77293   2.79236   2.84150   2.87754   2.92827
 Alpha virt. eigenvalues --    2.99376   3.01128   3.01315   3.05218   3.09015
 Alpha virt. eigenvalues --    3.14577   3.16955   3.77445   3.90283   3.93984
 Alpha virt. eigenvalues --    3.99372   4.05781   4.07792   4.16361   4.20680
 Alpha virt. eigenvalues --    4.20857   4.25057   4.32362   4.40767   4.42130
 Alpha virt. eigenvalues --    4.51521   4.57517   4.64339
          Condensed to atoms (all electrons):
               1          2          3          4          5          6
     1  O    8.160163   0.499258  -0.103342   0.008737  -0.004526  -0.027658
     2  C    0.499258   4.401708   0.277115  -0.020021  -0.003409   0.008956
     3  N   -0.103342   0.277115   7.154525   0.234124  -0.043387   0.002317
     4  C    0.008737  -0.020021   0.234124   5.243195   0.307033  -0.098032
     5  C   -0.004526  -0.003409  -0.043387   0.307033   4.342894   0.317813
     6  O   -0.027658   0.008956   0.002317  -0.098032   0.317813   8.248293
     7  O   -0.000012  -0.000072   0.000606  -0.095046   0.545364  -0.072361
     8  C    0.000657   0.005293  -0.044377   0.292004  -0.030459   0.003628
     9  C   -0.000030   0.000547  -0.009751  -0.038775  -0.007745  -0.000012
    10  C    0.000000   0.000039  -0.001323  -0.002192   0.000059   0.000000
    11  N    0.000000  -0.000001  -0.000018  -0.000038  -0.000014   0.000000
    12  C    0.000000  -0.000005   0.000236  -0.000034   0.000023   0.000001
    13  N    0.000000   0.000029  -0.000391  -0.001280   0.004051  -0.000015
    14  C   -0.083533   0.287370  -0.107346   0.005578  -0.000279  -0.000135
    15  C    0.005887  -0.023516   0.003304  -0.000105   0.000005   0.000008
    16  N    0.000264   0.005581  -0.000073   0.000001   0.000000   0.000000
    17  H    0.003031  -0.019591   0.293817  -0.036866   0.000539  -0.000190
    18  H    0.010690  -0.002699  -0.051635   0.360672  -0.040507   0.002324
    19  H    0.074837  -0.003948  -0.009616   0.011948  -0.020710   0.194594
    20  H    0.000003  -0.000066  -0.000050  -0.029562   0.004560  -0.000059
    21  H   -0.000001  -0.000037   0.004248  -0.046093  -0.001762   0.000096
    22  H    0.000000   0.000000  -0.000024   0.000048   0.000001   0.000000
    23  H    0.000000   0.000000   0.000001  -0.000001   0.000005   0.000000
    24  H    0.000000  -0.000001  -0.000050  -0.000518  -0.002491   0.000184
    25  H    0.001139  -0.022137  -0.000504  -0.000159   0.000004  -0.000001
    26  H    0.000753  -0.022813  -0.000360   0.000077   0.000016   0.000029
    27  H    0.003700  -0.000503   0.000107   0.000008   0.000000   0.000001
    28  H    0.003941  -0.000467   0.000106  -0.000001   0.000001  -0.000003
    29  H    0.000002   0.000129  -0.000002   0.000000   0.000000   0.000000
    30  H    0.000002   0.000127  -0.000003   0.000000   0.000000   0.000000
               7          8          9         10         11         12
     1  O   -0.000012   0.000657  -0.000030   0.000000   0.000000   0.000000
     2  C   -0.000072   0.005293   0.000547   0.000039  -0.000001  -0.000005
     3  N    0.000606  -0.044377  -0.009751  -0.001323  -0.000018   0.000236
     4  C   -0.095046   0.292004  -0.038775  -0.002192  -0.000038  -0.000034
     5  C    0.545364  -0.030459  -0.007745   0.000059  -0.000014   0.000023
     6  O   -0.072361   0.003628  -0.000012   0.000000   0.000000   0.000001
     7  O    8.060382   0.009526  -0.004377   0.000071  -0.000015   0.000670
     8  C    0.009526   5.201364   0.361398  -0.056369   0.007018   0.006671
     9  C   -0.004377   0.361398   4.735135   0.564878  -0.045327  -0.093484
    10  C    0.000071  -0.056369   0.564878   4.960295   0.425142  -0.121267
    11  N   -0.000015   0.007018  -0.045327   0.425142   6.675474   0.532866
    12  C    0.000670   0.006671  -0.093484  -0.121267   0.532866   4.739465
    13  N   -0.017679  -0.074428   0.366451  -0.077078  -0.086272   0.358796
    14  C   -0.000001  -0.000108  -0.000089  -0.000018   0.000000   0.000001
    15  C    0.000000   0.000000   0.000000   0.000000   0.000000   0.000000
    16  N    0.000000   0.000000   0.000000   0.000000   0.000000   0.000000
    17  H    0.000071  -0.005668   0.020617   0.008351  -0.000197  -0.000836
    18  H    0.002280  -0.027054   0.003882  -0.000055   0.000000   0.000008
    19  H    0.002538   0.000182  -0.000021   0.000000   0.000000   0.000000
    20  H    0.000334   0.355854  -0.033561  -0.004376   0.000035  -0.000071
    21  H    0.003488   0.361432  -0.025289   0.001051  -0.000136   0.000174
    22  H    0.000001  -0.001595  -0.061098   0.380848  -0.042922   0.007492
    23  H   -0.000010  -0.000188   0.003305   0.007506  -0.039392   0.382466
    24  H    0.042219  -0.002280  -0.023712   0.008041   0.003878  -0.018593
    25  H    0.000000  -0.000012   0.000002   0.000003   0.000000   0.000000
    26  H    0.000000  -0.000001  -0.000004   0.000000   0.000000   0.000000
    27  H    0.000000   0.000000   0.000000   0.000000   0.000000   0.000000
    28  H    0.000000   0.000000   0.000000   0.000000   0.000000   0.000000
    29  H    0.000000   0.000000   0.000000   0.000000   0.000000   0.000000
    30  H    0.000000   0.000000   0.000000   0.000000   0.000000   0.000000
              13         14         15         16         17         18
     1  O    0.000000  -0.083533   0.005887   0.000264   0.003031   0.010690
     2  C    0.000029   0.287370  -0.023516   0.005581  -0.019591  -0.002699
     3  N   -0.000391  -0.107346   0.003304  -0.000073   0.293817  -0.051635
     4  C   -0.001280   0.005578  -0.000105   0.000001  -0.036866   0.360672
     5  C    0.004051  -0.000279   0.000005   0.000000   0.000539  -0.040507
     6  O   -0.000015  -0.000135   0.000008   0.000000  -0.000190   0.002324
     7  O   -0.017679  -0.000001   0.000000   0.000000   0.000071   0.002280
     8  C   -0.074428  -0.000108   0.000000   0.000000  -0.005668  -0.027054
     9  C    0.366451  -0.000089   0.000000   0.000000   0.020617   0.003882
    10  C   -0.077078  -0.000018   0.000000   0.000000   0.008351  -0.000055
    11  N   -0.086272   0.000000   0.000000   0.000000  -0.000197   0.000000
    12  C    0.358796   0.000001   0.000000   0.000000  -0.000836   0.000008
    13  N    6.906043   0.000000   0.000000   0.000000  -0.000746   0.000000
    14  C    0.000000   5.412538   0.343076  -0.060935   0.001489   0.000575
    15  C    0.000000   0.343076   4.843920   0.335407  -0.000077  -0.000004
    16  N    0.000000  -0.060935   0.335407   6.863171  -0.000002   0.000000
    17  H   -0.000746   0.001489  -0.000077  -0.000002   0.379327   0.004178
    18  H    0.000000   0.000575  -0.000004   0.000000   0.004178   0.551820
    19  H    0.000005   0.001815  -0.000045   0.000000  -0.000019  -0.000931
    20  H    0.004508  -0.000005   0.000000   0.000000   0.000360  -0.005800
    21  H   -0.002995   0.000003   0.000000   0.000000   0.000551  -0.000921
    22  H    0.005181   0.000000   0.000000   0.000000   0.000138   0.000001
    23  H   -0.057405   0.000000   0.000000   0.000000  -0.000002   0.000000
    24  H    0.271290   0.000000   0.000000   0.000000   0.000019   0.000011
    25  H    0.000000   0.349691  -0.032170   0.000879   0.001232  -0.000018
    26  H    0.000000   0.349883  -0.030827   0.000721   0.001420  -0.000014
    27  H    0.000000  -0.052523   0.389779  -0.037851   0.000002  -0.000005
    28  H    0.000000  -0.051891   0.388825  -0.037616   0.000001   0.000000
    29  H    0.000000  -0.003197  -0.044002   0.316676   0.000001   0.000000
    30  H    0.000000  -0.003224  -0.044443   0.316666   0.000001   0.000000
              19         20         21         22         23         24
     1  O    0.074837   0.000003  -0.000001   0.000000   0.000000   0.000000
     2  C   -0.003948  -0.000066  -0.000037   0.000000   0.000000  -0.000001
     3  N   -0.009616  -0.000050   0.004248  -0.000024   0.000001  -0.000050
     4  C    0.011948  -0.029562  -0.046093   0.000048  -0.000001  -0.000518
     5  C   -0.020710   0.004560  -0.001762   0.000001   0.000005  -0.002491
     6  O    0.194594  -0.000059   0.000096   0.000000   0.000000   0.000184
     7  O    0.002538   0.000334   0.003488   0.000001  -0.000010   0.042219
     8  C    0.000182   0.355854   0.361432  -0.001595  -0.000188  -0.002280
     9  C   -0.000021  -0.033561  -0.025289  -0.061098   0.003305  -0.023712
    10  C    0.000000  -0.004376   0.001051   0.380848   0.007506   0.008041
    11  N    0.000000   0.000035  -0.000136  -0.042922  -0.039392   0.003878
    12  C    0.000000  -0.000071   0.000174   0.007492   0.382466  -0.018593
    13  N    0.000005   0.004508  -0.002995   0.005181  -0.057405   0.271290
    14  C    0.001815  -0.000005   0.000003   0.000000   0.000000   0.000000
    15  C   -0.000045   0.000000   0.000000   0.000000   0.000000   0.000000
    16  N    0.000000   0.000000   0.000000   0.000000   0.000000   0.000000
    17  H   -0.000019   0.000360   0.000551   0.000138  -0.000002   0.000019
    18  H   -0.000931  -0.005800  -0.000921   0.000001   0.000000   0.000011
    19  H    0.297236  -0.000012   0.000012   0.000000   0.000000  -0.000020
    20  H   -0.000012   0.567293  -0.027434   0.003070   0.000004  -0.000037
    21  H    0.000012  -0.027434   0.549373  -0.000040  -0.000002   0.000600
    22  H    0.000000   0.003070  -0.000040   0.580580  -0.000152  -0.000099
    23  H    0.000000   0.000004  -0.000002  -0.000152   0.546979   0.000187
    24  H   -0.000020  -0.000037   0.000600  -0.000099   0.000187   0.347687
    25  H   -0.000013   0.000001   0.000000   0.000002   0.000000   0.000000
    26  H   -0.000145   0.000000   0.000000   0.000000   0.000000   0.000000
    27  H   -0.000017   0.000000   0.000000   0.000000   0.000000   0.000000
    28  H   -0.000002   0.000000   0.000000   0.000000   0.000000   0.000000
    29  H    0.000000   0.000000   0.000000   0.000000   0.000000   0.000000
    30  H    0.000000   0.000000   0.000000   0.000000   0.000000   0.000000
              25         26         27         28         29         30
     1  O    0.001139   0.000753   0.003700   0.003941   0.000002   0.000002
     2  C   -0.022137  -0.022813  -0.000503  -0.000467   0.000129   0.000127
     3  N   -0.000504  -0.000360   0.000107   0.000106  -0.000002  -0.000003
     4  C   -0.000159   0.000077   0.000008  -0.000001   0.000000   0.000000
     5  C    0.000004   0.000016   0.000000   0.000001   0.000000   0.000000
     6  O   -0.000001   0.000029   0.000001  -0.000003   0.000000   0.000000
     7  O    0.000000   0.000000   0.000000   0.000000   0.000000   0.000000
     8  C   -0.000012  -0.000001   0.000000   0.000000   0.000000   0.000000
     9  C    0.000002  -0.000004   0.000000   0.000000   0.000000   0.000000
    10  C    0.000003   0.000000   0.000000   0.000000   0.000000   0.000000
    11  N    0.000000   0.000000   0.000000   0.000000   0.000000   0.000000
    12  C    0.000000   0.000000   0.000000   0.000000   0.000000   0.000000
    13  N    0.000000   0.000000   0.000000   0.000000   0.000000   0.000000
    14  C    0.349691   0.349883  -0.052523  -0.051891  -0.003197  -0.003224
    15  C   -0.032170  -0.030827   0.389779   0.388825  -0.044002  -0.044443
    16  N    0.000879   0.000721  -0.037851  -0.037616   0.316676   0.316666
    17  H    0.001232   0.001420   0.000002   0.000001   0.000001   0.000001
    18  H   -0.000018  -0.000014  -0.000005   0.000000   0.000000   0.000000
    19  H   -0.000013  -0.000145  -0.000017  -0.000002   0.000000   0.000000
    20  H    0.000001   0.000000   0.000000   0.000000   0.000000   0.000000
    21  H    0.000000   0.000000   0.000000   0.000000   0.000000   0.000000
    22  H    0.000002   0.000000   0.000000   0.000000   0.000000   0.000000
    23  H    0.000000   0.000000   0.000000   0.000000   0.000000   0.000000
    24  H    0.000000   0.000000   0.000000   0.000000   0.000000   0.000000
    25  H    0.565227  -0.033581  -0.004504   0.005367  -0.000323   0.005125
    26  H   -0.033581   0.562997   0.005347  -0.004781   0.004959  -0.000336
    27  H   -0.004504   0.005347   0.558111  -0.029727   0.006300  -0.004577
    28  H    0.005367  -0.004781  -0.029727   0.558152  -0.004669   0.006338
    29  H   -0.000323   0.004959   0.006300  -0.004669   0.463212  -0.034720
    30  H    0.005125  -0.000336  -0.004577   0.006338  -0.034720   0.464060
 Mulliken charges:
               1
     1  O   -0.553962
     2  C    0.633133
     3  N   -0.598252
     4  C   -0.094702
     5  C    0.632918
     6  O   -0.579778
     7  O   -0.477977
     8  C   -0.362490
     9  C    0.287060
    10  C   -0.093606
    11  N   -0.430081
    12  C    0.205418
    13  N   -0.598065
    14  C   -0.388734
    15  C   -0.135021
    16  N   -0.702888
    17  H    0.349047
    18  H    0.193201
    19  H    0.452333
    20  H    0.165010
    21  H    0.183682
    22  H    0.128570
    23  H    0.156699
    24  H    0.373684
    25  H    0.164749
    26  H    0.166658
    27  H    0.166350
    28  H    0.166425
    29  H    0.295635
    30  H    0.294984
 Sum of Mulliken charges =   0.00000
 Mulliken charges with hydrogens summed into heavy atoms:
               1
     1  O   -0.553962
     2  C    0.633133
     3  N   -0.249205
     4  C    0.098498
     5  C    0.632918
     6  O   -0.127445
     7  O   -0.477977
     8  C   -0.013799
     9  C    0.287060
    10  C    0.034964
    11  N   -0.430081
    12  C    0.362117
    13  N   -0.224381
    14  C   -0.057327
    15  C    0.197755
    16  N   -0.112269
 APT charges:
               1
     1  O   -0.132861
     2  C   -0.016264
     3  N   -0.448436
     4  C   -0.515588
     5  C   -0.359256
     6  O   -0.169085
     7  O    0.231717
     8  C   -1.071228
     9  C   -0.281795
    10  C   -0.324629
    11  N   -0.027664
    12  C   -0.406157
    13  N   -0.702327
    14  C   -0.485980
    15  C   -1.043576
    16  N   -0.824266
    17  H    0.384133
    18  H    0.479181
    19  H    0.372266
    20  H    0.382598
    21  H    0.646268
    22  H    0.458881
    23  H    0.823781
    24  H    0.523049
    25  H    0.328859
    26  H    0.306519
    27  H    0.464536
    28  H    0.440021
    29  H    0.471199
    30  H    0.496103
 Sum of APT charges =   0.00000
 APT charges with hydrogens summed into heavy atoms:
               1
     1  O   -0.132861
     2  C   -0.016264
     3  N   -0.064303
     4  C   -0.036408
     5  C   -0.359256
     6  O    0.203182
     7  O    0.231717
     8  C   -0.042362
     9  C   -0.281795
    10  C    0.134251
    11  N   -0.027664
    12  C    0.417624
    13  N   -0.179279
    14  C    0.149399
    15  C   -0.139019
    16  N    0.143036
 Electronic spatial extent (au):  <R**2>=           4676.4584
 Charge=              0.0000 electrons
 Dipole moment (field-independent basis, Debye):
    X=             -1.3374    Y=             -1.1976    Z=             -1.5926  Tot=              2.3999
 Quadrupole moment (field-independent basis, Debye-Ang):
   XX=           -102.6411   YY=            -92.8671   ZZ=           -113.0650
   XY=            -10.9456   XZ=              8.6860   YZ=              9.3432
 Traceless Quadrupole moment (field-independent basis, Debye-Ang):
   XX=              0.2166   YY=              9.9906   ZZ=            -10.2073
   XY=            -10.9456   XZ=              8.6860   YZ=              9.3432
 Octapole moment (field-independent basis, Debye-Ang**2):
  XXX=            -59.3246  YYY=            -25.9136  ZZZ=            -67.1170  XYY=            -21.5454
  XXY=              7.3186  XXZ=            -43.5285  XZZ=            -77.1791  YZZ=            -52.7619
  YYZ=             -8.3858  XYZ=             -0.7630
 Hexadecapole moment (field-independent basis, Debye-Ang**3):
 XXXX=          -4011.0672 YYYY=           -930.0113 ZZZZ=          -1681.8332 XXXY=           -793.5582
 XXXZ=            406.8754 YYYX=           -533.0543 YYYZ=            333.2852 ZZZX=            259.1307
 ZZZY=            370.7962 XXYY=           -739.0529 XXZZ=           -920.2886 YYZZ=           -505.3967
 XXYZ=            165.4304 YYXZ=            134.1700 ZZXY=           -291.6973
 N-N= 1.127657762408D+03 E-N=-4.111200420130D+03  KE= 7.891772293089D+02
  Exact polarizability:   0.000   0.000   0.000   0.000   0.000   0.000
 Approx polarizability: 158.003  21.783 181.781   3.559 -16.523 194.332
 Calling FoFJK, ICntrl=    100147 FMM=F ISym2X=0 I1Cent= 0 IOpClX= 0 NMat=1 NMatS=1 NMatT=0.
 -------------------------------------------------------------------
 Center     Atomic                   Forces (Hartrees/Bohr)
 Number     Number              X              Y              Z
 -------------------------------------------------------------------
      1        8          -0.004334206   -0.007041783    0.011633782
      2        6           0.001340383    0.004880183   -0.006563146
      3        7           0.002295399   -0.001890595    0.003547656
      4        6           0.000785269   -0.001719795   -0.006332191
      5        6          -0.008087444   -0.005294046    0.001249907
      6        8           0.005591354    0.005386890    0.003860781
      7        8           0.009887746    0.008717159    0.004208249
      8        6           0.001149799   -0.000549047   -0.000499656
      9        6           0.000897323   -0.008568501    0.009240660
     10        6          -0.004381375    0.008481440   -0.010158827
     11        7          -0.000946549   -0.001592813   -0.007778923
     12        6           0.000317803   -0.002891835   -0.002031007
     13        7           0.001836274    0.005563233    0.005675726
     14        6          -0.000061232   -0.000128076   -0.001776000
     15        6          -0.003520846    0.000612019   -0.001339075
     16        7          -0.000912212   -0.002743924    0.003922470
     17        1           0.001990467    0.003624707   -0.006513471
     18        1          -0.001086321   -0.003225587    0.001162853
     19        1          -0.006152761   -0.005480271   -0.001288714
     20        1           0.000535863   -0.000994353   -0.001008471
     21        1           0.002055051   -0.000630385    0.001049202
     22        1           0.000517797   -0.000356497   -0.000987376
     23        1           0.000414191    0.005415119   -0.000728320
     24        1           0.001333087   -0.000911850    0.003091469
     25        1           0.000445713   -0.000107153   -0.001442527
     26        1           0.000473496    0.001708339   -0.000322413
     27        1          -0.000382505   -0.003152924    0.001277503
     28        1          -0.000648550    0.000038874    0.003605715
     29        1          -0.001075982    0.004120911   -0.000702757
     30        1          -0.000277031   -0.001269438   -0.004053096
 -------------------------------------------------------------------
 Cartesian Forces:  Max     0.011633782 RMS     0.004083227
 FormGI is forming the generalized inverse of G from B-inverse, IUseBI=4.
 GSVD:  received Info=                   1 from GESDD.

 GradGradGradGradGradGradGradGradGradGradGradGradGradGradGradGradGradGrad
 Berny optimization.
 Internal  Forces:  Max     0.014642716 RMS     0.003388574
 Search for a local minimum.
 Step number   1 out of a maximum of  160
 All quantities printed in internal units (Hartrees-Bohrs-Radians)
 Mixed Optimization -- RFO/linear search
 Second derivative matrix not updated -- analytic derivatives used.
 ITU=  0
     Eigenvalues ---   -0.00103   0.00250   0.00326   0.00330   0.00437
     Eigenvalues ---    0.00487   0.00724   0.00942   0.01137   0.01722
     Eigenvalues ---    0.02129   0.02196   0.02706   0.03117   0.03419
     Eigenvalues ---    0.03902   0.04087   0.04390   0.04523   0.04537
     Eigenvalues ---    0.04774   0.05005   0.05274   0.05529   0.05806
     Eigenvalues ---    0.06278   0.06846   0.07426   0.07885   0.08551
     Eigenvalues ---    0.08996   0.10582   0.10964   0.11120   0.11953
     Eigenvalues ---    0.12076   0.12485   0.13941   0.15019   0.16163
     Eigenvalues ---    0.18369   0.18872   0.18897   0.19844   0.20818
     Eigenvalues ---    0.21439   0.22421   0.23172   0.23476   0.24188
     Eigenvalues ---    0.25483   0.26340   0.27965   0.29293   0.29901
     Eigenvalues ---    0.31631   0.33048   0.33430   0.33840   0.34168
     Eigenvalues ---    0.34457   0.34814   0.34901   0.35084   0.35360
     Eigenvalues ---    0.37358   0.37729   0.38551   0.38912   0.40977
     Eigenvalues ---    0.42867   0.45360   0.45393   0.45664   0.46807
     Eigenvalues ---    0.47322   0.48404   0.49357   0.51676   0.59537
     Eigenvalues ---    0.61438   0.74787   0.83951   0.91020
 RFO step:  Lambda=-4.53295774D-03 EMin=-1.02772779D-03
 Linear search not attempted -- first point.
 Iteration  1 RMS(Cart)=  0.13773404 RMS(Int)=  0.02698182
 Iteration  2 RMS(Cart)=  0.06613899 RMS(Int)=  0.00276379
 Iteration  3 RMS(Cart)=  0.00374738 RMS(Int)=  0.00005978
 Iteration  4 RMS(Cart)=  0.00000911 RMS(Int)=  0.00005961
 Iteration  5 RMS(Cart)=  0.00000000 RMS(Int)=  0.00005961
 Variable       Old X    -DE/DX   Delta X   Delta X   Delta X     New X
                                 (Linear)    (Quad)   (Total)
    R1        2.32801   0.01345   0.00000   0.01608   0.01608   2.34409
    R2        2.55205   0.01035   0.00000   0.00993   0.00993   2.56198
    R3        2.86014   0.00528   0.00000   0.01475   0.01475   2.87488
    R4        2.76005   0.00341   0.00000   0.00675   0.00675   2.76680
    R5        1.90078   0.00731   0.00000   0.01679   0.01679   1.91757
    R6        2.89964   0.00858   0.00000   0.02669   0.02669   2.92632
    R7        2.90350   0.00571   0.00000   0.01220   0.01220   2.91570
    R8        2.06397   0.00348   0.00000   0.01103   0.01103   2.07500
    R9        2.51591   0.00235   0.00000  -0.00185  -0.00185   2.51406
   R10        2.28275   0.01335   0.00000   0.01536   0.01536   2.29811
   R11        1.85929   0.00830   0.00000   0.02274   0.02274   1.88204
   R12        2.82142   0.00630   0.00000   0.00899   0.00899   2.83041
   R13        2.06569   0.00130   0.00000   0.00387   0.00387   2.06956
   R14        2.06547   0.00238   0.00000   0.00504   0.00504   2.07051
   R15        2.57913   0.01464   0.00000   0.02746   0.02750   2.60663
   R16        2.59284   0.00806   0.00000   0.01728   0.01731   2.61014
   R17        2.61142  -0.00221   0.00000  -0.01072  -0.01073   2.60069
   R18        2.04381   0.00085   0.00000   0.00312   0.00312   2.04694
   R19        2.48280   0.00466   0.00000   0.00834   0.00830   2.49110
   R20        2.56149   0.00845   0.00000   0.01223   0.01221   2.57370
   R21        2.03150   0.00518   0.00000   0.01280   0.01280   2.04430
   R22        1.91199   0.00314   0.00000   0.00757   0.00757   1.91957
   R23        2.88787   0.00764   0.00000   0.02153   0.02153   2.90940
   R24        2.07364   0.00142   0.00000   0.00547   0.00547   2.07912
   R25        2.07373   0.00167   0.00000   0.00371   0.00371   2.07744
   R26        2.75805   0.00237   0.00000   0.00388   0.00388   2.76193
   R27        2.05935   0.00318   0.00000   0.00700   0.00700   2.06635
   R28        2.05883   0.00341   0.00000   0.01122   0.01122   2.07005
   R29        1.91580   0.00428   0.00000   0.00962   0.00962   1.92542
   R30        1.91595   0.00423   0.00000   0.00943   0.00943   1.92538
    A1        2.10066   0.00583   0.00000   0.01410   0.01408   2.11474
    A2        2.15347  -0.00521   0.00000  -0.01586  -0.01589   2.13758
    A3        2.02905  -0.00062   0.00000   0.00174   0.00172   2.03077
    A4        2.12096   0.00646   0.00000   0.02516   0.02510   2.14606
    A5        2.10174  -0.00110   0.00000   0.00461   0.00455   2.10630
    A6        2.06032  -0.00537   0.00000  -0.03009  -0.03014   2.03018
    A7        1.94621   0.00026   0.00000   0.00275   0.00267   1.94888
    A8        1.92397  -0.00282   0.00000  -0.00998  -0.01000   1.91397
    A9        1.86435   0.00046   0.00000   0.00324   0.00327   1.86762
   A10        1.98433   0.00337   0.00000  -0.00666  -0.00668   1.97764
   A11        1.85365  -0.00178   0.00000  -0.00294  -0.00292   1.85072
   A12        1.88499   0.00042   0.00000   0.01516   0.01519   1.90018
   A13        2.00045   0.00001   0.00000   0.00409   0.00407   2.00451
   A14        2.15452   0.00403   0.00000   0.00182   0.00180   2.15632
   A15        2.12812  -0.00405   0.00000  -0.00606  -0.00608   2.12204
   A16        1.91521   0.00150   0.00000   0.00743   0.00743   1.92264
   A17        2.01076   0.00423   0.00000  -0.00562  -0.00563   2.00513
   A18        1.87488  -0.00196   0.00000   0.00110   0.00108   1.87596
   A19        1.87820  -0.00018   0.00000   0.00607   0.00608   1.88428
   A20        1.88627  -0.00189   0.00000  -0.00258  -0.00259   1.88368
   A21        1.93732  -0.00073   0.00000   0.00229   0.00230   1.93961
   A22        1.87078   0.00027   0.00000  -0.00109  -0.00110   1.86968
   A23        2.30392  -0.00233   0.00000  -0.00005  -0.00012   2.30380
   A24        2.14503   0.00599   0.00000   0.00966   0.00960   2.15463
   A25        1.83422  -0.00365   0.00000  -0.00956  -0.00946   1.82476
   A26        1.93024   0.00356   0.00000   0.00976   0.00965   1.93989
   A27        2.23274  -0.00140   0.00000  -0.00635  -0.00656   2.22618
   A28        2.12012  -0.00214   0.00000  -0.00299  -0.00321   2.11691
   A29        1.83256  -0.00115   0.00000  -0.00341  -0.00341   1.82914
   A30        1.94854   0.00343   0.00000   0.00816   0.00814   1.95668
   A31        2.20963  -0.00354   0.00000  -0.01743  -0.01743   2.19219
   A32        2.12502   0.00011   0.00000   0.00929   0.00929   2.13431
   A33        1.87918  -0.00218   0.00000  -0.00486  -0.00487   1.87431
   A34        2.15623  -0.00008   0.00000  -0.01124  -0.01132   2.14490
   A35        2.24752   0.00228   0.00000   0.01564   0.01553   2.26305
   A36        1.96855   0.00227   0.00000   0.01013   0.01007   1.97862
   A37        1.89987  -0.00082   0.00000  -0.01539  -0.01537   1.88450
   A38        1.89855  -0.00121   0.00000   0.00535   0.00524   1.90379
   A39        1.92087  -0.00025   0.00000  -0.00224  -0.00220   1.91867
   A40        1.91996  -0.00020   0.00000   0.00583   0.00573   1.92569
   A41        1.85221   0.00006   0.00000  -0.00470  -0.00468   1.84752
   A42        2.00731   0.00073   0.00000   0.00326   0.00324   2.01056
   A43        1.90197   0.00050   0.00000   0.00254   0.00254   1.90451
   A44        1.90250   0.00043   0.00000   0.00584   0.00585   1.90835
   A45        1.89415  -0.00064   0.00000   0.00093   0.00091   1.89506
   A46        1.89139  -0.00046   0.00000  -0.00356  -0.00358   1.88781
   A47        1.86109  -0.00066   0.00000  -0.01017  -0.01018   1.85091
   A48        1.92590   0.00070   0.00000   0.00339   0.00339   1.92929
   A49        1.92649   0.00065   0.00000   0.00146   0.00146   1.92795
   A50        1.86195  -0.00055   0.00000  -0.00487  -0.00487   1.85708
    D1        0.11283   0.00074   0.00000   0.03339   0.03342   0.14625
    D2       -3.04821   0.00043   0.00000   0.01294   0.01276  -3.03545
    D3       -3.02683   0.00055   0.00000   0.04577   0.04595  -2.98088
    D4        0.09531   0.00024   0.00000   0.02532   0.02528   0.12060
    D5       -0.00867   0.00002   0.00000   0.30213   0.30206   0.29339
    D6       -2.14584  -0.00060   0.00000   0.30919   0.30915  -1.83669
    D7        2.12640   0.00042   0.00000   0.32014   0.32012   2.44652
    D8        3.13093   0.00023   0.00000   0.28938   0.28939  -2.86287
    D9        0.99375  -0.00039   0.00000   0.29643   0.29649   1.29024
   D10       -1.01719   0.00063   0.00000   0.30738   0.30745  -0.70974
   D11       -1.39221   0.00193   0.00000   0.04071   0.04078  -1.35143
   D12        2.66964  -0.00052   0.00000   0.05513   0.05521   2.72484
   D13        0.62588   0.00021   0.00000   0.04053   0.04060   0.66648
   D14        1.76839   0.00219   0.00000   0.06034   0.06026   1.82865
   D15       -0.45295  -0.00026   0.00000   0.07476   0.07469  -0.37826
   D16       -2.49671   0.00047   0.00000   0.06015   0.06008  -2.43663
   D17        1.09875   0.00056   0.00000  -0.01022  -0.01020   1.08855
   D18       -2.05769  -0.00016   0.00000  -0.02183  -0.02183  -2.07952
   D19       -2.99621  -0.00036   0.00000  -0.02674  -0.02674  -3.02295
   D20        0.13053  -0.00107   0.00000  -0.03835  -0.03837   0.09216
   D21       -0.92589   0.00090   0.00000  -0.01379  -0.01378  -0.93967
   D22        2.20085   0.00019   0.00000  -0.02540  -0.02541   2.17544
   D23        0.89912  -0.00094   0.00000  -0.00573  -0.00569   0.89343
   D24       -1.20354   0.00020   0.00000   0.00037   0.00041  -1.20313
   D25        3.07037   0.00095   0.00000  -0.00192  -0.00189   3.06848
   D26       -1.30090  -0.00162   0.00000   0.00384   0.00382  -1.29709
   D27        2.87963  -0.00048   0.00000   0.00994   0.00991   2.88954
   D28        0.87034   0.00027   0.00000   0.00765   0.00762   0.87796
   D29        2.93003  -0.00168   0.00000   0.00139   0.00139   2.93141
   D30        0.82737  -0.00055   0.00000   0.00749   0.00749   0.83486
   D31       -1.18191   0.00021   0.00000   0.00520   0.00519  -1.17672
   D32       -0.02766  -0.00021   0.00000  -0.03228  -0.03226  -0.05992
   D33        3.12854   0.00042   0.00000  -0.02094  -0.02096   3.10758
   D34       -2.06428   0.00234   0.00000   0.10157   0.10154  -1.96274
   D35        1.06968   0.00276   0.00000   0.11191   0.11194   1.18161
   D36        0.03214   0.00119   0.00000   0.09743   0.09741   0.12955
   D37       -3.11709   0.00161   0.00000   0.10777   0.10781  -3.00928
   D38        2.07895  -0.00003   0.00000   0.09585   0.09582   2.17477
   D39       -1.07028   0.00039   0.00000   0.10620   0.10622  -0.96406
   D40        3.12584   0.00083   0.00000   0.01812   0.01818  -3.13917
   D41       -0.00199  -0.00011   0.00000  -0.01701  -0.01700  -0.01899
   D42       -0.00912   0.00043   0.00000   0.00907   0.00916   0.00004
   D43       -3.13695  -0.00051   0.00000  -0.02607  -0.02602   3.12022
   D44       -3.12780  -0.00078   0.00000  -0.01585  -0.01585   3.13953
   D45       -0.00856   0.00001   0.00000  -0.03585  -0.03565  -0.04421
   D46        0.00791  -0.00046   0.00000  -0.00787  -0.00785   0.00006
   D47        3.12716   0.00033   0.00000  -0.02788  -0.02765   3.09951
   D48        0.00673  -0.00027   0.00000  -0.00679  -0.00686  -0.00013
   D49        3.13559   0.00061   0.00000   0.02567   0.02573  -3.12186
   D50       -0.00152  -0.00001   0.00000   0.00167   0.00169   0.00018
   D51        3.13813  -0.00006   0.00000   0.00708   0.00713  -3.13793
   D52       -0.00411   0.00028   0.00000   0.00392   0.00395  -0.00016
   D53       -3.12181  -0.00053   0.00000   0.02578   0.02604  -3.09577
   D54        3.13932   0.00033   0.00000  -0.00116  -0.00124   3.13808
   D55        0.02162  -0.00047   0.00000   0.02071   0.02084   0.04247
   D56       -3.13228  -0.00013   0.00000   0.01978   0.01980  -3.11247
   D57       -1.00148  -0.00008   0.00000   0.02521   0.02524  -0.97624
   D58        1.02331  -0.00036   0.00000   0.01770   0.01772   1.04103
   D59       -1.00692   0.00020   0.00000   0.00537   0.00538  -1.00154
   D60        1.12388   0.00025   0.00000   0.01080   0.01081   1.13469
   D61       -3.13452  -0.00003   0.00000   0.00329   0.00329  -3.13123
   D62        1.02791   0.00000   0.00000   0.00177   0.00175   1.02966
   D63       -3.12448   0.00005   0.00000   0.00720   0.00718  -3.11730
   D64       -1.09969  -0.00023   0.00000  -0.00031  -0.00034  -1.10003
   D65       -1.02908  -0.00009   0.00000   0.01515   0.01516  -1.01392
   D66        1.02462   0.00005   0.00000   0.01214   0.01215   1.03677
   D67        3.11909  -0.00075   0.00000   0.00888   0.00889   3.12798
   D68       -1.11039  -0.00061   0.00000   0.00587   0.00588  -1.10451
   D69        1.10452   0.00061   0.00000   0.02227   0.02226   1.12678
   D70       -3.12497   0.00076   0.00000   0.01926   0.01925  -3.10571
         Item               Value     Threshold  Converged?
 Maximum Force            0.014643     0.000450     NO 
 RMS     Force            0.003389     0.000300     NO 
 Maximum Displacement     0.952648     0.001800     NO 
 RMS     Displacement     0.193959     0.001200     NO 
 Predicted change in Energy=-2.889977D-03
 GradGradGradGradGradGradGradGradGradGradGradGradGradGradGradGradGradGrad

                          Input orientation:                          
 ---------------------------------------------------------------------
 Center     Atomic      Atomic             Coordinates (Angstroms)
 Number     Number       Type             X           Y           Z
 ---------------------------------------------------------------------
      1          8           0       -1.106673   -1.558303    1.903690
      2          6           0       -1.112211   -0.948917    0.823267
      3          7           0        0.033489   -0.461458    0.286811
      4          6           0        1.359009   -0.762901    0.830685
      5          6           0        1.657733    0.068665    2.102397
      6          8           0        0.838965   -0.160805    3.125568
      7          8           0        2.581474    0.854791    2.189731
      8          6           0        2.423739   -0.594239   -0.273173
      9          6           0        2.369921    0.710523   -1.006704
     10          6           0        2.046203    1.023681   -2.310467
     11          7           0        2.141812    2.378240   -2.534145
     12          6           0        2.519996    2.884742   -1.377351
     13          7           0        2.672260    1.925230   -0.422865
     14          6           0       -2.383968   -0.722572    0.019634
     15          6           0       -3.670019   -0.939830    0.837685
     16          7           0       -4.916679   -0.769929    0.093972
     17          1           0        0.010180    0.113943   -0.548688
     18          1           0        1.343310   -1.812901    1.151549
     19          1           0        0.129109   -0.806501    2.858995
     20          1           0        2.271982   -1.397305   -1.002170
     21          1           0        3.408562   -0.752078    0.180363
     22          1           0        1.766992    0.340837   -3.103606
     23          1           0        2.694111    3.933212   -1.175661
     24          1           0        2.916843    2.019966    0.558479
     25          1           0       -2.367431   -1.406627   -0.841924
     26          1           0       -2.366531    0.292399   -0.402344
     27          1           0       -3.655270   -1.944953    1.268004
     28          1           0       -3.681535   -0.247224    1.686285
     29          1           0       -4.967438    0.164019   -0.310128
     30          1           0       -4.957838   -1.423700   -0.686401
 ---------------------------------------------------------------------
                    Distance matrix (angstroms):
                    1          2          3          4          5
     1  O    0.000000
     2  C    1.240441   0.000000
     3  N    2.262153   1.355739   0.000000
     4  C    2.804209   2.478222   1.464128   0.000000
     5  C    3.213791   3.216246   2.493102   1.548544   0.000000
     6  O    2.689143   3.119102   2.966096   2.428879   1.330382
     7  O    4.416704   4.331731   3.441780   2.440974   1.216108
     8  C    4.258164   3.718995   2.458558   1.542919   2.582546
     9  C    5.069977   4.269400   2.916442   2.562991   3.253568
    10  C    5.862285   4.866930   3.605899   3.678444   4.531703
    11  N    6.763388   5.738542   4.524015   4.669222   5.202499
    12  C    6.607466   5.721241   4.488787   4.419120   4.558776
    13  N    5.641647   4.912818   3.628089   3.243773   3.294396
    14  C    2.424788   1.521323   2.446152   3.830053   4.615117
    15  C    2.844225   2.557865   3.774688   5.032144   5.567899
    16  N    4.291009   3.877871   4.963517   6.318785   6.925309
    17  H    3.171423   2.066808   1.014735   2.119166   3.121655
    18  H    2.575452   2.623704   2.071184   1.098043   2.131493
    19  H    1.733485   2.388586   2.596985   2.372466   1.917041
    20  H    4.459288   3.871180   2.747387   2.143676   3.487794
    21  H    4.899714   4.570499   3.389235   2.150280   2.726396
    22  H    6.077639   5.037222   3.891483   4.106499   5.214258
    23  H    7.354258   6.505305   5.341429   5.278390   5.172473
    24  H    5.549980   5.011751   3.813790   3.200826   2.788658
    25  H    3.025048   2.134933   2.816345   4.135016   5.200717
    26  H    3.214053   2.148560   2.608320   4.063702   4.745366
    27  H    2.654984   2.767133   4.095172   5.170250   5.742723
    28  H    2.897603   2.799749   3.975654   5.138585   5.364767
    29  H    4.772095   4.169650   5.075118   6.494964   7.051402
    30  H    4.643077   4.158529   5.175557   6.529989   7.332826
                    6          7          8          9         10
     6  O    0.000000
     7  O    2.223413   0.000000
     8  C    3.775025   2.861899   0.000000
     9  C    4.492073   3.206676   1.497788   0.000000
    10  C    5.693058   4.535066   2.628833   1.379368   0.000000
    11  N    6.338495   4.982892   3.745279   2.272969   1.376228
    12  C    5.690124   4.104700   3.651272   2.210685   2.135119
    13  N    4.505983   2.824843   2.536118   1.381227   2.183524
    14  C    4.511064   5.643847   4.818325   5.070167   5.301432
    15  C    5.115880   6.643031   6.203815   6.527351   6.814794
    16  N    6.533685   7.953252   7.351693   7.516499   7.581562
    17  H    3.776576   3.828752   2.530355   2.476704   2.841985
    18  H    2.623078   3.118886   2.163861   3.475580   4.530542
    19  H    0.995932   3.036758   3.888555   4.718711   5.809316
    20  H    4.541001   3.918668   1.095163   2.110107   2.761121
    21  H    3.953058   2.702529   1.095667   2.151071   3.348668
    22  H    6.317871   5.380237   3.052382   2.212959   1.083192
    23  H    6.221183   4.562371   4.624435   3.243358   3.189505
    24  H    3.957687   2.032507   2.787268   2.112714   3.159343
    25  H    5.251099   6.228692   4.892725   5.191529   5.248159
    26  H    4.788190   5.614081   4.873346   4.793126   4.862913
    27  H    5.179949   6.898197   6.415139   6.966260   7.356972
    28  H    4.744884   6.379121   6.421391   6.692502   7.099028
    29  H    6.754541   7.982013   7.430061   7.390583   7.343809
    30  H    7.051875   8.384801   7.439519   7.638950   7.594989
                   11         12         13         14         15
    11  N    0.000000
    12  C    1.318233   0.000000
    13  N    2.223533   1.361945   0.000000
    14  C    6.051406   6.246051   5.724692   0.000000
    15  C    7.493745   7.605920   7.072626   1.539589   0.000000
    16  N    8.163349   8.415792   8.069881   2.534244   1.461552
    17  H    3.689572   3.829254   3.222306   2.598979   4.071404
    18  H    5.638050   5.463312   4.268314   4.045077   5.098454
    19  H    6.578717   6.106411   4.969967   3.792699   4.305443
    20  H    4.076596   4.305601   3.396329   4.814273   6.237125
    21  H    4.332679   4.054933   2.841479   5.794835   7.111514
    22  H    2.148439   3.165190   3.242867   5.302446   6.836298
    23  H    2.137394   1.081797   2.144569   6.992278   8.264518
    24  H    3.208326   2.157027   1.015791   5.992534   7.226693
    25  H    6.125529   6.526061   6.056018   1.100222   2.176172
    26  H    5.405597   5.616853   5.296789   1.099334   2.180628
    27  H    8.170221   8.273921   7.607561   2.160753   1.093465
    28  H    7.656139   7.593028   7.038379   2.165031   1.095426
    29  H    7.771130   8.037597   7.840889   2.751200   2.054082
    30  H    8.262805   8.657835   8.336856   2.759506   2.053155
                   16         17         18         19         20
    16  N    0.000000
    17  H    5.046601   0.000000
    18  H    6.433795   2.894955   0.000000
    19  H    5.753839   3.531807   2.324328   0.000000
    20  H    7.298765   2.757764   2.381944   4.455284   0.000000
    21  H    8.325708   3.581970   2.516707   4.234719   1.762532
    22  H    7.491979   3.108935   4.787947   6.289011   2.773479
    23  H    9.036350   4.709926   6.344950   6.732204   5.350020
    24  H    8.328465   3.647934   4.185523   4.588327   3.811720
    25  H    2.789257   2.837456   4.231854   4.504405   4.642189
    26  H    2.806799   2.387891   4.539801   4.251133   4.972997
    27  H    2.085710   4.579841   5.001680   4.260146   6.370708
    28  H    2.081889   4.330624   5.290213   4.026046   6.632861
    29  H    1.018888   4.983583   6.772758   6.079477   7.438135
    30  H    1.018869   5.202357   6.575257   6.231195   7.236761
                   21         22         23         24         25
    21  H    0.000000
    22  H    3.830623   0.000000
    23  H    4.929623   4.181111   0.000000
    24  H    2.840596   4.189571   2.591788   0.000000
    25  H    5.902169   5.026160   7.365085   6.451838   0.000000
    26  H    5.897642   4.938135   6.282010   5.641073   1.754970
    27  H    7.245939   7.330534   8.991049   7.708221   2.529847
    28  H    7.265821   7.278414   8.143442   7.067580   3.076187
    29  H    8.440213   7.292964   8.582267   8.146220   3.083792
    30  H    8.437951   7.360693   9.353514   8.684421   2.595128
                   26         27         28         29         30
    26  H    0.000000
    27  H    3.075168   0.000000
    28  H    2.526420   1.748694   0.000000
    29  H    2.605705   2.942796   2.410048   0.000000
    30  H    3.120986   2.405845   2.939844   1.631725   0.000000
 Symmetry turned off by external request.
 Stoichiometry    C9H14N4O3
 Framework group  C1[X(C9H14N4O3)]
 Deg. of freedom    84
 Full point group                 C1      NOp   1
 Rotational constants (GHZ):      0.7247943      0.3033759      0.2389172
 Standard basis: 6-31G(d) (6D, 7F)
   268 basis functions,   504 primitive gaussians,   268 cartesian basis functions
    60 alpha electrons       60 beta electrons
       nuclear repulsion energy      1122.8063268203 Hartrees.
 NAtoms=   30 NActive=   30 NUniq=   30 SFac= 1.00D+00 NAtFMM=   60 NAOKFM=F Big=F
 Integral buffers will be    131072 words long.
 Raffenetti 2 integral format.
 Two-electron integral symmetry is turned off.
 One-electron integrals computed using PRISM.
 NBasis=   268 RedAO= T EigKep=  1.31D-03  NBF=   268
 NBsUse=   268 1.00D-06 EigRej= -1.00D+00 NBFU=   268
 Initial guess from the checkpoint file:  "conf-118.chk"
 B after Tr=    -0.021691    0.013881    0.021249
         Rot=    0.999903   -0.013347   -0.003961    0.001023 Ang=  -1.60 deg.
 ExpMin= 1.61D-01 ExpMax= 5.48D+03 ExpMxC= 8.25D+02 IAcc=2 IRadAn=         4 AccDes= 0.00D+00
 Harris functional with IExCor=  402 and IRadAn=       4 diagonalized for initial guess.
 HarFok:  IExCor=  402 AccDes= 0.00D+00 IRadAn=         4 IDoV= 1 UseB2=F ITyADJ=14
 ICtDFT=  3500011 ScaDFX=  1.000000  1.000000  1.000000  1.000000
 FoFCou: FMM=F IPFlag=           0 FMFlag=      100000 FMFlg1=           0
         NFxFlg=           0 DoJE=T BraDBF=F KetDBF=T FulRan=T
         wScrn=  0.000000 ICntrl=     500 IOpCl=  0 I1Cent=   200000004 NGrid=           0
         NMat0=    1 NMatS0=      1 NMatT0=    0 NMatD0=    1 NMtDS0=    0 NMtDT0=    0
 Symmetry not used in FoFCou.
[...]
 0.00020082,-0.00007353,-0.00003153,0.00029726,0.00024314,-0.00030438,0
 .00005176,0.00014547,0.00037582,-0.00053101,-0.00073158,-0.00057794,0.
 00018446,0.00021848,0.00023847,0.00050638,-0.00086178,0.00013466,-0.00
 059747,0.00088650,-0.00121886,-0.00005554,-0.00052806,-0.00050012,0.00
 975973,0.06390133,-0.00045709,-0.00017609,-0.00117663,-0.00014007,-0.0
 0028197,0.00079989,0.00026877,-0.00002066,-0.00104716,-0.00017400,-0.0
 0018750,0.00104943,0.00782063,0.00697606,0.00167890,-0.00427319,-0.002
 82096,0.00123161,-0.00372429,-0.00633167,-0.00623504,-0.00001304,-0.00
 061082,0.00092614,-0.00009001,-0.00074565,-0.00621738,0.00040139,-0.00
 091153,0.00142430,-0.00065662,0.00274363,0.00281590,-0.00003239,-0.002
 39025,-0.00823211,-0.09582754,-0.04074823,-0.41364517,-0.00009772,0.00
 005646,0.00009980,0.00008369,-0.00000578,-0.00004078,-0.00010954,0.000
 02072,-0.00001406,-0.00063812,-0.00042045,0.00041707,0.00010981,-0.000
 10778,-0.00054333,0.00080555,0.00116379,0.00091962,0.00009905,0.000425
 69,-0.00035030,-0.00017627,0.00009264,0.00015405,-0.00040805,0.0001091
 7,0.00048554,0.00022269,0.00014016,0.00014658,0.09701371,0.04400766,0.
 42544904,0.00106865,0.00293048,0.00225077,-0.01082512,-0.03074327,-0.0
 0988950,-0.00316042,0.00232773,-0.00163784,-0.00062930,0.00069720,0.00
 107189,0.00015221,0.00020904,0.00062939,0.00029273,0.00020687,-0.00015
 479,-0.00005036,-0.00011060,-0.00014116,-0.00032253,0.00012475,-0.0004
 1092,-0.00002065,0.00000717,0.00002325,-0.00003879,-0.00000967,-0.0000
 8671,0.00000431,-0.00005877,0.00002994,0.00001480,-0.00000798,0.000023
 86,0.00000454,0.00004967,0.00005478,-0.06438798,-0.06858683,-0.0260223
 6,0.00487431,0.02511113,0.00947485,0.00345571,-0.00035875,-0.00012761,
 0.00034137,-0.00041816,-0.00076535,-0.00029793,-0.00002925,-0.00008214
 ,-0.00028596,-0.00022295,-0.00005490,-0.00000655,0.00000794,0.00003185
 ,-0.00011801,-0.00004577,0.00014982,-0.00000345,0.00000021,0.00000940,
 0.00000003,-0.00000259,0.00000217,0.00002055,0.00003415,-0.00001194,0.
 07499509,0.00059303,0.00017718,0.00012784,-0.00000184,0.00374286,0.002
 58085,0.00007382,0.00000973,-0.00054332,0.00025141,-0.00011932,-0.0002
 4913,-0.00013746,-0.00003101,0.00010719,0.00012714,0.00006627,-0.00001
 621,0.00003117,0.00002655,-0.00003921,0.00004159,-0.00003806,0.0000134
 7,-0.00000021,-0.00000608,0.00002158,-0.00003199,-0.00002655,-0.000023
 09,-0.00002150,0.00002358,0.00001360,0.00000734,0.00001972,-0.00000557
 ,-0.00001735,0.00000236,0.00000906,-0.06763474,-0.26143637,-0.06989596
 ,-0.00295096,-0.01312684,-0.00576976,-0.00092467,0.00202966,0.00138243
 ,0.00045243,0.00000325,-0.00013888,-0.00008667,-0.00000066,-0.00002283
 ,-0.00016568,-0.00006665,-0.00012780,-0.00000544,0.00000429,0.00000749
 ,0.00000880,0.00000998,-0.00001052,0.00000712,-0.00000308,-0.00000079,
 0.00000627,0.00000302,-0.00000181,0.00001998,-0.00000589,0.00000621,0.
 07175591,0.28344562,-0.00007580,0.00292517,0.00070569,-0.00394786,-0.0
 1735866,-0.00513108,-0.00098271,0.00067869,-0.00092653,-0.00017303,-0.
 00019833,0.00044325,0.00013567,0.00013994,0.00012244,0.00000975,0.0000
 8892,-0.00001570,-0.00008172,-0.00010398,-0.00004042,-0.00014645,0.000
 11204,-0.00016113,-0.00000681,0.00000896,-0.00002397,0.00001898,0.0000
 2707,-0.00000865,0.00002256,-0.00004921,0.00000935,-0.00000541,-0.0000
 1731,-0.00000008,0.00001117,0.00001301,0.00003124,-0.02570892,-0.07073
 897,-0.07270964,-0.00364952,-0.02071947,-0.00837704,-0.00164760,0.0020
 5775,0.00061948,-0.00035487,0.00015827,0.00008706,0.00002304,-0.000039
 34,0.00003123,0.00000742,-0.00013251,0.00002512,0.00001132,-0.00000501
 ,0.00000765,-0.00004179,-0.00002534,0.00005616,-0.00000696,0.00000662,
 0.00000127,-0.00000194,-0.00000252,0.00000046,0.00000213,0.00002268,-0
 .00002144,0.02489744,0.07978379,0.07617789,-0.00637270,0.00043206,-0.0
 0648410,0.00891914,0.01858509,-0.02148977,-0.00031827,-0.00055894,0.00
 074000,0.00052568,0.00006669,0.00009359,0.00050418,0.00014869,-0.00047
 001,-0.00072194,-0.00063318,0.00005850,-0.00023637,-0.00015963,0.00012
 822,0.00004776,0.00000193,0.00007234,-0.00001913,-0.00000396,-0.000092
 15,0.00007491,-0.00000471,0.00001668,0.00001344,-0.00002894,0.00000605
 ,-0.00001150,0.00001777,0.00002211,0.00000902,0.00001511,0.00004568,-0
 .05712469,-0.02488596,0.03076457,-0.00424844,-0.01481106,0.02107088,0.
 00260961,-0.00065986,-0.00067443,-0.00184753,-0.00033611,-0.00072563,0
 .00013302,0.00001554,-0.00001938,0.00078725,0.00095681,0.00060127,-0.0
 0001356,0.00000553,0.00001035,0.00002814,-0.00000422,-0.00002057,-0.00
 002970,0.00000563,0.00002629,0.00000103,0.00000070,0.00000371,0.000004
 74,0.00003326,-0.00004881,-0.00159035,-0.00508589,0.00830481,0.0625176
 9,0.00150461,0.00235481,0.00117993,-0.00353231,-0.00471989,0.00049813,
 -0.00013790,0.00021165,-0.00096274,0.00025344,0.00004308,-0.00020458,-
 0.00037784,-0.00014207,0.00026829,0.00047701,0.00030883,-0.00004496,0.
 00018789,0.00013876,-0.00008073,0.00001786,-0.00000405,0.00009441,0.00
 004941,0.00003192,0.00003708,-0.00001682,0.00003260,0.00006872,-0.0000
 2209,0.00001483,-0.00003849,-0.00000103,-0.00002150,-0.00000560,-0.000
 00795,-0.00003972,-0.00008883,-0.02065187,-0.13579547,0.11936643,0.002
 64956,0.00831424,-0.01156408,-0.00158686,0.00041253,-0.00060952,0.0002
 2928,0.00092658,0.00002361,-0.00003514,0.00003903,-0.00003902,-0.00046
 279,-0.00037203,-0.00032718,0.00001963,-0.00001798,-0.00001313,0.00000
 699,0.00000731,-0.00002528,0.00003366,-0.00001023,-0.00003534,-0.00000
 361,-0.00000385,-0.00000378,-0.00001615,-0.00003174,0.00004633,-0.0034
 9102,-0.01613325,0.02442354,0.02340484,0.14359241,-0.00496044,0.000622
 04,-0.00144165,0.00852201,0.00988620,-0.01428109,0.00082179,-0.0009098
 9,0.00108598,-0.00033029,-0.00029098,0.00022022,0.00050370,0.00022931,
 -0.00048228,-0.00057538,-0.00044252,0.00014693,-0.00023961,-0.00019669
 ,0.00013521,-0.00001561,0.00005002,-0.00004496,-0.00003553,-0.00000933
 ,-0.00006963,0.00006429,0.00002755,0.00000921,0.00006015,-0.00005000,0
 .00001267,-0.00002482,-0.00001986,-0.00000663,0.00003630,0.00000972,0.
 00005259,0.02674666,0.11920943,-0.21484051,0.00206285,0.01147909,-0.01
 648188,-0.00090707,-0.00087683,0.00203155,-0.00138484,-0.00023223,0.00
 068757,0.00020483,-0.00006441,0.00008926,0.00051738,0.00063301,0.00040
 338,-0.00001001,0.00000144,0.00000912,0.00000626,-0.00001229,0.0000119
 3,-0.00002499,0.00000817,0.00001839,-0.00000788,-0.00000265,0.00000370
 ,-0.00002194,0.00003849,-0.00006414,-0.00123740,-0.00567353,0.00931731
 ,-0.03283951,-0.13110464,0.23373209,0.00058117,0.00100177,-0.00217082,
 0.00052562,-0.00270260,0.00412284,0.00012086,0.00060123,-0.00086945,-0
 .00004300,-0.00002384,-0.00010136,-0.00032867,-0.00014396,0.00025209,0
 .00033795,0.00018815,-0.00010592,0.00014845,0.00011950,-0.00006497,-0.
 00001576,0.00000246,0.00001168,0.00002823,0.00000730,0.00003199,-0.000
 02135,-0.00000062,0.00001341,-0.00002260,0.00002673,-0.00001604,0.0000
 0520,0.00000122,-0.00000205,-0.00001041,-0.00001710,-0.00004266,-0.005
 13599,-0.01305105,0.02023274,-0.05199281,-0.02326259,0.02775884,-0.002
 40268,0.02373193,-0.02943351,0.00039725,0.00015676,0.00008914,-0.00006
 397,0.00001712,-0.00000854,-0.00034080,-0.00022412,-0.00021138,0.00000
 882,-0.00000251,-0.00000887,-0.00000319,0.00000792,-0.00000392,0.00001
 583,-0.00000480,-0.00001198,0.00000142,0.00000081,-0.00000216,-0.00000
 124,-0.00002647,0.00003515,0.00112048,0.00019828,-0.00075344,-0.003741
 64,0.00251097,0.00261303,0.06537976,0.00042090,-0.00065560,-0.00057895
 ,-0.00024738,0.00036836,0.00040928,0.00008516,0.00017215,0.00018020,0.
 00000645,0.00002016,0.00003853,-0.00008690,-0.00008579,0.00011246,0.00
 008230,-0.00004962,-0.00013079,0.00005282,0.00006156,-0.00002785,-0.00
 001175,-0.00001418,0.00000001,0.00000575,0.00000081,-0.00000970,0.0000
 1028,-0.00000904,-0.00000033,-0.00001350,0.00000974,-0.00000772,0.0000
 0396,0.00000424,0.00001143,-0.00000942,0.00000511,-0.00000657,0.003288
 17,0.00730683,-0.01201840,-0.02013509,-0.14349931,0.12501479,0.0014702
 1,-0.00011490,0.00127136,-0.00015782,-0.00007949,-0.00009125,-0.000003
 35,-0.00000994,0.00000654,-0.00004598,0.00013127,0.00014142,-0.0000004
 4,0.00000382,-0.00000366,-0.00000202,0.00000466,0.00000039,-0.00000412
 ,0.00000071,0.00000565,0.00000479,0.00000233,0.00000048,0.00000476,-0.
 00001179,0.00001620,-0.00083527,0.00111205,0.00002774,0.00273061,0.000
 05214,-0.00201671,0.01608805,0.14912574,-0.00173974,-0.00062832,0.0014
 7945,-0.00071058,0.00126991,-0.00266523,0.00018047,0.00001411,0.000414
 71,-0.00001588,0.00009262,0.00008427,0.00011942,-0.00000877,-0.0001241
 2,-0.00010125,-0.00005874,0.00003445,-0.00002601,0.00000776,0.00004632
 ,0.00000931,-0.00001237,0.00000316,-0.00001035,-0.00000926,-0.00002150
 ,0.00001830,-0.00000333,-0.00000536,0.00001556,-0.00000299,0.00000796,
 -0.00000464,0.00000068,-0.00000381,0.00000632,0.00001063,0.00002449,0.
 00721575,0.01061089,-0.01696045,0.02440695,0.12211678,-0.22272132,-0.0
 0423225,0.01062837,-0.01221617,-0.00014625,-0.00018861,0.00001864,0.00
 003000,-0.00001464,0.00000536,0.00007829,0.00007974,0.00009532,-0.0000
 0730,0.00000461,0.00000076,0.00000748,0.00000078,-0.00000094,-0.000013
 38,0.00000427,0.00001012,0.00000006,0.00000158,0.00000098,-0.00000152,
 0.00000262,-0.00001284,-0.00076561,0.00013452,0.00061669,0.00250351,-0
 .00181689,-0.00127307,-0.02390050,-0.13518109,0.24381706,-0.00010043,-
 0.00018485,-0.00062839,0.00216791,0.00089509,0.00118282,-0.00005787,-0
 .00055409,-0.00021843,-0.00008275,0.00002926,0.00006336,-0.00004942,-0
 .00000361,0.00001866,0.00003514,-0.00005583,-0.00001385,0.00002733,0.0
 0001959,0.00000200,-0.00001440,0.00000664,0.00000511,0.00000714,0.0000
 1558,0.00000436,0.00000220,0.00000614,0.00000922,-0.00000201,0.0000005
 9,-0.00000899,-0.00000108,-0.00001710,0.00000680,0.00000895,-0.0000066
 1,-0.00002006,0.00435426,0.02351462,0.00792363,-0.06348733,-0.05603630
 ,-0.01836575,-0.01769874,-0.03133817,-0.01071615,-0.00002075,0.0001064
 0,0.00011916,0.00002740,0.00000079,0.00000701,0.00000137,0.00009205,0.
 00000483,0.00000621,-0.00000188,-0.00000761,-0.00000335,-0.00000060,0.
 00000041,0.00000293,0.,-0.00000532,-0.00000035,-0.00000098,0.,-0.00001
 433,-0.00000658,0.00000813,-0.00380137,0.00226340,0.00326890,0.0008793
 3,-0.00076562,-0.00055199,-0.00067700,-0.00332057,-0.00078433,0.082076
 50,0.00065384,0.00019087,0.00107888,-0.00140829,-0.00046604,-0.0016923
 5,0.00080614,0.00049683,0.00029603,0.00003014,-0.00002702,-0.00003862,
 0.00022786,-0.00008149,-0.00028941,-0.00018373,0.00019324,0.00020286,-
 0.00005645,0.00004918,0.00009004,0.00002750,-0.00001270,0.00003118,-0.
 00000265,-0.00003126,-0.00002143,0.00000860,-0.00001713,-0.00000550,-0
 .00000279,0.00002174,0.00002305,-0.00000490,0.00003094,-0.00002316,-0.
 00001672,0.00000651,0.00004287,-0.00088352,-0.01095779,-0.00290009,-0.
 06185883,-0.27151403,-0.07026845,-0.00051916,0.00556570,0.00081752,-0.
 00000430,-0.00017821,-0.00009767,0.00000910,0.00000716,-0.00000132,0.0
 0004509,-0.00031335,-0.00014512,-0.00001258,0.00000576,0.00001375,0.00
 001527,0.00000467,-0.00001368,-0.00000577,0.00000306,0.00001073,0.0000
 0760,0.00000599,-0.00000249,0.00002984,-0.00000176,-0.00002449,0.00193
 152,0.00067572,-0.00125498,0.00022412,0.00092675,-0.00019853,-0.004713
 36,-0.01630891,-0.00599880,0.06467674,0.28889981,0.00003094,-0.0002425
 6,0.00042727,-0.00154709,-0.00031481,-0.00074642,0.00041934,0.00053760
 ,0.00011870,0.00001172,0.00001906,-0.00006614,-0.00010821,-0.00012837,
 0.00007564,0.00013033,0.00004460,-0.00005751,0.00006967,0.00009889,-0.
 00001315,0.00001104,-0.00003701,0.00002371,0.00001156,-0.00000990,0.00
 001087,-0.00000728,-0.00002430,-0.00000287,-0.00003191,0.00003363,-0.0
 0000771,0.00000835,0.00001892,0.00001072,-0.00002090,0.00000103,-0.000
 01365,-0.00082002,-0.01982264,-0.00625456,-0.01873910,-0.06679086,-0.0
 7545919,-0.01023101,-0.01514643,-0.00423780,0.00009866,-0.00016982,-0.
 00005478,-0.00000495,0.00000626,-0.00001579,-0.00010141,-0.00001859,-0
 .00000765,-0.00000529,0.00000636,0.00000136,0.00000567,0.00001217,-0.0
 0001048,0.00000265,-0.00000180,0.00000505,0.00000915,0.00000501,-0.000
 00077,0.00001429,-0.00002077,0.00002287,0.00301794,-0.00169039,-0.0014
 3601,-0.00104819,0.00029002,0.00049195,0.00731754,0.02406393,0.0104213
 5,0.02372731,0.08003516,0.07870376,0.00004696,-0.00021482,0.00115396,-
 0.00095353,-0.00013912,-0.00134667,0.00052704,0.00015394,0.00016330,-0
 .00014176,0.00009025,-0.00000180,-0.00005775,-0.00019085,-0.00013935,0
 .00009629,0.00011648,0.00010288,0.00010441,0.00015532,0.00007590,-0.00
 000190,-0.00001874,0.00005828,0.00001948,0.00000029,-0.00004444,0.0000
 5284,-0.00000725,0.00002541,0.00002061,0.00003601,-0.00001699,-0.00001
 204,-0.00001330,0.00000038,0.00001635,0.00000644,-0.00001242,0.0028623
 2,0.00070527,-0.00169862,-0.00290546,0.02507985,-0.03246334,-0.0419929
 0,-0.04967664,0.02295172,-0.00016052,-0.00007766,0.00006114,0.00001977
 ,-0.00001659,0.00001812,-0.00013363,-0.00012805,-0.00016434,-0.0000139
 8,0.00000584,-0.00000146,0.00002197,0.00001281,-0.00001271,-0.00002048
 ,0.00000261,0.00001712,-0.00000165,0.00000303,0.00000344,-0.00002608,-
 0.00002828,0.00000471,-0.00019746,0.00006134,0.00020984,-0.00062870,-0
 .00032366,0.00090202,-0.00522987,0.00006122,-0.00262674,0.00110410,-0.
 00051038,0.00077357,0.04989538,-0.00044435,0.00015865,-0.00069831,0.00
 093894,0.00038025,0.00080675,-0.00063313,-0.00034610,-0.00011168,0.000
 12550,-0.00009459,0.00001370,0.00010049,0.00024591,0.00009663,-0.00014
 062,-0.00016166,-0.00007577,-0.00012120,-0.00019957,-0.00006054,-0.000
 00136,0.00003748,-0.00006167,-0.00002583,0.00000377,0.00002869,-0.0000
 3361,0.00003224,-0.00001429,0.00001993,-0.00005900,0.00001341,0.000002
 79,-0.00000369,-0.00001112,0.00000473,-0.00000605,0.00001642,-0.002169
 99,-0.00002569,-0.00022468,0.00282458,-0.00082591,0.00238178,-0.028367
 03,-0.16261596,0.15593667,0.00006682,0.00014253,-0.00003199,-0.0000046
 5,0.00001074,-0.00000939,0.00018109,0.00016686,0.00018033,0.00001242,-
 0.00000979,-0.00000003,-0.00001985,-0.00001798,0.00001818,0.00001189,-
 0.00000158,-0.00001557,-0.00000998,-0.00000763,-0.00000133,0.00000408,
 0.00003871,-0.00001657,0.00021088,-0.00035024,0.00002882,0.00067451,-0
 .00001676,-0.00008775,-0.00021220,0.00198262,-0.00087887,0.00011481,0.
 00044538,-0.00068708,0.02942534,0.18271735,-0.00028960,-0.00004108,0.0
 0023883,0.00077787,0.00010637,-0.00034376,-0.00031562,-0.00024468,0.00
 007525,0.00009040,-0.00002168,0.00001376,0.00010421,0.00016182,0.00001
 178,-0.00011258,-0.00008956,-0.00000207,-0.00008667,-0.00013058,-0.000
 02444,0.00000561,0.00002284,-0.00003363,-0.00001817,0.00000109,0.00001
 738,-0.00002026,0.00001918,-0.00000757,0.00001242,-0.00003766,0.000007
 23,0.00000191,-0.00000128,-0.00000456,0.00000447,-0.00000378,0.0000084
 5,0.00032068,-0.00077502,0.00229894,0.00857075,0.00820745,-0.01679511,
 -0.00267951,0.19736404,-0.29169349,0.00002552,0.00008567,-0.00000664,-
 0.00000157,0.00000283,-0.00000451,0.00012830,0.00007765,0.00007381,0.0
 0000689,-0.00000614,0.00000048,-0.00000940,-0.00001112,0.00000941,0.00
 000729,-0.00000185,-0.00000916,-0.00000737,-0.00000526,-0.00000037,0.0
 0000100,0.00002688,-0.00001380,-0.00001032,-0.00006515,0.00002587,-0.0
 0069069,0.00051658,0.00054271,-0.00494142,-0.00087855,-0.00073749,0.00
 006988,-0.00030565,-0.00021191,-0.00194364,-0.19048329,0.29798046,0.00
 034698,-0.00009143,0.00075837,-0.00054561,0.00043470,-0.00120946,0.000
 80813,0.00016382,0.00030171,-0.00008784,0.00006907,-0.00010359,-0.0000
 6888,-0.00022066,-0.00018294,0.00009753,0.00013784,0.00013079,0.000111
 16,0.00017350,0.00008927,0.00002412,-0.00002921,0.00008607,0.00002269,
 -0.00000895,-0.00003775,0.00004649,-0.00001371,0.00002533,0.00001406,0
 .00004516,-0.00001335,-0.00001070,0.00000116,-0.00000518,0.00001082,0.
 00000181,-0.00001151,0.00206650,-0.00213899,0.00033053,-0.01758042,-0.
 03436850,-0.01255863,-0.06107611,-0.08158347,-0.04333858,-0.00009752,-
 0.00011559,0.00005481,0.00001465,-0.00000916,0.00001129,-0.00015860,-0
 .00016176,-0.00020246,-0.00001703,0.00000663,-0.00000011,0.00003219,0.
 00001848,-0.00002395,-0.00001786,0.00000134,0.00001621,-0.00000155,0.0
 0000445,0.00000213,-0.00002100,-0.00003099,0.00000540,-0.00060854,0.00
 116537,0.00066179,-0.00015040,0.00008751,0.00010604,0.00135993,0.00055
 818,0.00049492,-0.00468960,0.00149006,-0.00299436,-0.00230984,-0.00253
 500,0.00099960,0.08248625,-0.00006390,-0.00006252,0.00004823,0.0004015
 6,0.00002503,-0.00015417,0.00001183,-0.00001793,0.00008836,0.00002262,
 0.00002296,0.00000711,0.00003705,0.00000871,-0.00001886,-0.00003096,-0
 .00000202,0.00001179,-0.00001954,-0.00000868,0.00000277,0.00000541,-0.
 00000028,-0.00000168,-0.00000391,-0.00000317,0.00000105,-0.00000515,-0
 .00000359,-0.00000717,-0.00000379,-0.00000110,0.00000786,0.00000050,0.
 00000346,-0.00000296,-0.00000367,0.00000151,0.00001180,0.00087628,0.00
 140084,0.00143374,0.00678472,0.00309750,-0.00065337,-0.11986940,-0.354
 67643,-0.07676674,0.00000982,-0.00001197,-0.00001506,-0.00000338,-0.00
 000087,-0.00000072,0.00001890,0.00000080,0.00000499,0.00000072,0.00000
 069,0.00000054,-0.00000024,-0.00000126,-0.00000058,0.00000035,0.000001
 50,-0.00000054,0.00000286,0.00000104,-0.00000080,0.00000777,0.00000257
 ,-0.00000432,-0.00068375,-0.00000782,0.00014263,-0.00014643,-0.0000989
 1,-0.00000563,-0.00027501,0.00047427,-0.00017721,0.00055107,0.00238038
 ,-0.00006728,-0.00457068,-0.02162027,-0.01349008,0.11694835,0.36909555
 ,-0.00016186,0.00027941,-0.00037408,0.00067866,-0.00029796,0.00047433,
 -0.00024805,-0.00002118,-0.00011535,0.00009253,-0.00005607,0.00002626,
 0.00009136,0.00010975,0.00006206,-0.00010644,-0.00002501,-0.00005822,-
 0.00008370,-0.00009145,-0.00004378,-0.00000081,0.00001365,-0.00003862,
 -0.00001441,-0.00000459,0.00002289,-0.00002894,0.00000956,-0.00001176,
 -0.00001050,-0.00002318,0.00001082,0.00000579,0.00000890,-0.00000506,-
 0.00001627,-0.00000250,0.00001309,0.00016121,0.00148493,0.00069891,0.0
 0010780,-0.02011605,-0.00642901,-0.06617073,-0.10541637,-0.08032894,0.
 00007507,0.00004704,-0.00005495,-0.00001126,0.00000644,-0.00000646,0.0
 0011229,0.00001138,0.00011528,0.00000951,-0.00000435,0.00000354,-0.000
 01562,-0.00001042,0.00000807,0.00001261,-0.00000112,-0.00000893,0.0000
 0301,-0.00000144,-0.00000268,0.00002473,0.00001733,-0.00000657,-0.0002
 6880,0.00008591,0.00057353,0.00013468,0.00015172,-0.00001592,0.0001705
 6,-0.00034886,-0.00033879,-0.00510074,0.00063965,-0.00171688,0.0139507
 2,0.03394856,0.00858413,0.05660760,0.08960631,0.07896311\\-0.00000031,
 -0.00000006,-0.00000184,0.00000076,-0.00000085,-0.00000045,0.00000069,
 0.00000057,0.00000002,0.00000019,0.00000015,0.00000030,0.00000012,-0.0
 0000060,-0.00000029,-0.00000013,-0.00000125,-0.00000034,-0.00000070,-0
 .00000150,0.00000133,-0.00000044,0.00000078,0.00000006,0.00000022,0.00
 000117,-0.00000019,0.00000006,0.00000096,0.00000078,-0.00000019,0.0000
 0111,0.00000124,-0.00000033,0.00000045,0.00000131,-0.00000046,0.000001
 10,-0.00000012,-0.00000018,-0.00000076,-0.00000008,0.00000012,-0.00000
 016,0.00000001,0.00000009,-0.00000080,-0.00000056,0.00000026,-0.000000
 30,-0.00000005,0.00000030,0.00000004,-0.00000069,0.00000018,-0.0000005
 9,-0.00000048,0.00000010,0.00000083,-0.00000037,0.00000007,0.00000042,
 -0.00000019,-0.00000002,0.00000140,0.00000034,-0.00000050,0.00000042,0
 .00000161,-0.00000021,0.00000030,0.00000045,0.00000024,-0.00000017,-0.
 00000105,0.00000022,0.00000014,0.00000004,-0.00000004,-0.00000076,-0.0
 0000037,-0.00000037,-0.00000121,0.00000007,0.00000003,-0.00000044,0.00
 000012,0.00000024,-0.00000040,-0.00000061\\\@


 IN SO FAR AS QUANTUM MECHANICS IS CORRECT, CHEMICAL 
 QUESTIONS ARE PROBLEMS IN APPLIED MATHEMATICS.

                    -- EYRING, WALTER, & KIMBALL, 1944
 Job cpu time:       0 days  1 hours  2 minutes 56.3 seconds.
 File lengths (MBytes):  RWF=    260 Int=      0 D2E=      0 Chk=      8 Scr=      1
 Normal termination of Gaussian 09 at Wed Jul 28 22:41:19 2021.
