 Entering Gaussian System, Link 0=g09
 Input=opt_freq-conf-490.com
 Output=opt_freq-conf-490.log
 Initial command:
 /aerosol/software/g09/l1.exe "/scratch/nicole/10595/Gau-82965.inp" -scrdir="/scratch/nicole/10595/"
 Entering Link 1 = /aerosol/software/g09/l1.exe PID=     82969.
  
 Copyright (c) 1988,1990,1992,1993,1995,1998,2003,2009,2013,
            Gaussian, Inc.  All Rights Reserved.
  
 This is part of the Gaussian(R) 09 program.  It is based on
 the Gaussian(R) 03 system (copyright 2003, Gaussian, Inc.),
 the Gaussian(R) 98 system (copyright 1998, Gaussian, Inc.),
 the Gaussian(R) 94 system (copyright 1995, Gaussian, Inc.),
 the Gaussian 92(TM) system (copyright 1992, Gaussian, Inc.),
 the Gaussian 90(TM) system (copyright 1990, Gaussian, Inc.),
 the Gaussian 88(TM) system (copyright 1988, Gaussian, Inc.),
 the Gaussian 86(TM) system (copyright 1986, Carnegie Mellon
 University), and the Gaussian 82(TM) system (copyright 1983,
 Carnegie Mellon University). Gaussian is a federally registered
 trademark of Gaussian, Inc.
  
 This software contains proprietary and confidential information,
 including trade secrets, belonging to Gaussian, Inc.
  
 This software is provided under written license and may be
 used, copied, transmitted, or stored only in accord with that
 written license.
  
 The following legend is applicable only to US Government
 contracts under FAR:
  
                    RESTRICTED RIGHTS LEGEND
  
 Use, reproduction and disclosure by the US Government is
 subject to restrictions as set forth in subparagraphs (a)
 and (c) of the Commercial Computer Software - Restricted
 Rights clause in FAR 52.227-19.
  
 Gaussian, Inc.
 340 Quinnipiac St., Bldg. 40, Wallingford CT 06492
  
  
 ---------------------------------------------------------------
 Warning -- This program may not be used in any manner that
 competes with the business of Gaussian, Inc. or will provide
 assistance to any competitor of Gaussian, Inc.  The licensee
 of this program is prohibited from giving any competitor of
 Gaussian, Inc. access to this program.  By using this program,
 the user acknowledges that Gaussian, Inc. is engaged in the
 business of creating and licensing software in the field of
 computational chemistry and represents and warrants to the
 licensee that it is not a competitor of Gaussian, Inc. and that
 it will not use this program in any manner prohibited above.
 ---------------------------------------------------------------
  

 Cite this work as:
 Gaussian 09, Revision D.01,
 M. J. Frisch, G. W. Trucks, H. B. Schlegel, G. E. Scuseria, 
 M. A. Robb, J. R. Cheeseman, G. Scalmani, V. Barone, B. Mennucci, 
 G. A. Petersson, H. Nakatsuji, M. Caricato, X. Li, H. P. Hratchian, 
 A. F. Izmaylov, J. Bloino, G. Zheng, J. L. Sonnenberg, M. Hada, 
 M. Ehara, K. Toyota, R. Fukuda, J. Hasegawa, M. Ishida, T. Nakajima, 
 Y. Honda, O. Kitao, H. Nakai, T. Vreven, J. A. Montgomery, Jr., 
 J. E. Peralta, F. Ogliaro, M. Bearpark, J. J. Heyd, E. Brothers, 
 K. N. Kudin, V. N. Staroverov, T. Keith, R. Kobayashi, J. Normand, 
 K. Raghavachari, A. Rendell, J. C. Burant, S. S. Iyengar, J. Tomasi, 
 M. Cossi, N. Rega, J. M. Millam, M. Klene, J. E. Knox, J. B. Cross, 
 V. Bakken, C. Adamo, J. Jaramillo, R. Gomperts, R. E. Stratmann, 
 O. Yazyev, A. J. Austin, R. Cammi, C. Pomelli, J. W. Ochterski, 
 R. L. Martin, K. Morokuma, V. G. Zakrzewski, G. A. Voth, 
 P. Salvador, J. J. Dannenberg, S. Dapprich, A. D. Daniels, 
 O. Farkas, J. B. Foresman, J. V. Ortiz, J. Cioslowski, 
 and D. J. Fox, Gaussian, Inc., Wallingford CT, 2013.
 
 ******************************************
 Gaussian 09:  ES64L-G09RevD.01 24-Apr-2013
                28-Jul-2021 
 ******************************************
 %mem=2gb
 %nproc=4
 Will use up to    4 processors via shared memory.
 %chk=conf-490.chk
 ----------------------------------------------------------------------
 # B3LYP/6-31G(d) opt=calcfc freq=noraman nosymm integral(ultrafinegrid
 )
 ----------------------------------------------------------------------
 1/10=4,14=-1,18=20,19=15,26=4,38=1/1,3;
 2/9=110,12=2,15=1,17=6,18=5,40=1/2;
 3/5=1,6=6,7=1,11=2,16=1,25=1,30=1,71=2,74=-5,75=-5,140=1/1,2,3;
 4//1;
 5/5=2,38=5/2;
 8/6=4,10=90,11=11/1;
 11/6=1,8=1,9=11,15=111,16=1,31=1/1,2,10;
 10/6=1,13=1,31=1/2;
 6/7=2,8=2,9=2,10=2,28=1/1;
 7/10=1,18=20,25=1,30=1/1,2,3,16;
 1/10=4,14=-1,18=20,19=15,26=4/3(2);
 2/9=110,15=1/2;
 99//99;
 2/9=110,15=1/2;
 3/5=1,6=6,7=1,11=2,16=1,25=1,30=1,71=1,74=-5,75=-5/1,2,3;
 4/5=5,16=3,69=1/1;
 5/5=2,38=5/2;
 7/30=1/1,2,3,16;
 1/14=-1,18=20,19=15,26=4/3(-5);
 2/9=110,15=1/2;
 6/7=2,8=2,9=2,10=2,19=2,28=1/1;
 99/9=1/99;
 ------------------------------------------------------------
 Candidate Structure: Conf:490 OPT and FREQ calc in gas phase
 ------------------------------------------------------------
 Symbolic Z-matrix:
 Charge =  0 Multiplicity = 1
 O                     0.913     0.9289   -2.24247 
 C                     1.56627   0.4006   -1.35321 
 N                     1.05027   0.12252  -0.13577 
 C                    -0.32435   0.42458   0.18659 
 C                    -0.43043   0.50298   1.702 
 O                    -1.3911    1.30232   2.19774 
 O                     0.28298  -0.12782   2.43433 
 C                    -1.257    -0.67083  -0.37914 
 C                    -2.70556  -0.35734  -0.2054 
 C                    -3.62833   0.20778  -1.04377 
 N                    -4.84486   0.36254  -0.40561 
 C                    -4.65235  -0.10291   0.80672 
 N                    -3.384    -0.55819   0.97765 
 C                     3.01793  -0.01984  -1.55981 
 C                     3.91774   0.14247  -0.34199 
 N                     3.5602   -0.81054   0.72089 
 H                     1.63306  -0.33931   0.55327 
 H                    -0.58842   1.37988  -0.27792 
 H                    -1.92064   1.69836   1.49395 
 H                    -1.03512  -0.75151  -1.44155 
 H                    -1.00271  -1.62409   0.08654 
 H                    -3.48786   0.51616  -2.06882 
 H                    -5.37716  -0.13527   1.60067 
 H                    -2.98236  -0.89499   1.84194 
 H                     3.0311   -1.06763  -1.88145 
 H                     3.38508   0.57857  -2.39458 
 H                     4.96258   0.03916  -0.65667 
 H                     3.80551   1.15342   0.05491 
 H                     4.0109   -0.55718   1.58976 
 H                     3.87546  -1.74291   0.48584 
 

 GradGradGradGradGradGradGradGradGradGradGradGradGradGradGradGradGradGrad
 Berny optimization.
 Initialization pass.
                           ----------------------------
                           !    Initial Parameters    !
                           ! (Angstroms and Degrees)  !
 --------------------------                            --------------------------
 ! Name  Definition              Value          Derivative Info.                !
 --------------------------------------------------------------------------------
 ! R1    R(1,2)                  1.2234         calculate D2E/DX2 analytically  !
 ! R2    R(2,3)                  1.3512         calculate D2E/DX2 analytically  !
 ! R3    R(2,14)                 1.5254         calculate D2E/DX2 analytically  !
 ! R4    R(3,4)                  1.4439         calculate D2E/DX2 analytically  !
 ! R5    R(3,17)                 1.0138         calculate D2E/DX2 analytically  !
 ! R6    R(4,5)                  1.5211         calculate D2E/DX2 analytically  !
 ! R7    R(4,8)                  1.5459         calculate D2E/DX2 analytically  !
 ! R8    R(4,18)                 1.0946         calculate D2E/DX2 analytically  !
 ! R9    R(5,6)                  1.3445         calculate D2E/DX2 analytically  !
 ! R10   R(5,7)                  1.2013         calculate D2E/DX2 analytically  !
 ! R11   R(6,19)                 0.9657         calculate D2E/DX2 analytically  !
 ! R12   R(8,9)                  1.4922         calculate D2E/DX2 analytically  !
 ! R13   R(8,20)                 1.0883         calculate D2E/DX2 analytically  !
 ! R14   R(8,21)                 1.091          calculate D2E/DX2 analytically  !
 ! R15   R(9,10)                 1.3688         calculate D2E/DX2 analytically  !
 ! R16   R(9,13)                 1.3785         calculate D2E/DX2 analytically  !
 ! R17   R(10,11)                1.3824         calculate D2E/DX2 analytically  !
 ! R18   R(10,22)                1.0796         calculate D2E/DX2 analytically  !
 ! R19   R(11,12)                1.3128         calculate D2E/DX2 analytically  !
 ! R20   R(12,13)                1.3584         calculate D2E/DX2 analytically  !
 ! R21   R(12,23)                1.0755         calculate D2E/DX2 analytically  !
 ! R22   R(13,24)                1.0108         calculate D2E/DX2 analytically  !
 ! R23   R(14,15)                1.5229         calculate D2E/DX2 analytically  !
 ! R24   R(14,25)                1.0961         calculate D2E/DX2 analytically  !
 ! R25   R(14,26)                1.0907         calculate D2E/DX2 analytically  !
 ! R26   R(15,16)                1.4717         calculate D2E/DX2 analytically  !
 ! R27   R(15,27)                1.0961         calculate D2E/DX2 analytically  !
 ! R28   R(15,28)                1.0919         calculate D2E/DX2 analytically  !
 ! R29   R(16,29)                1.0111         calculate D2E/DX2 analytically  !
 ! R30   R(16,30)                1.0119         calculate D2E/DX2 analytically  !
 ! A1    A(1,2,3)              122.6757         calculate D2E/DX2 analytically  !
 ! A2    A(1,2,14)             121.9219         calculate D2E/DX2 analytically  !
 ! A3    A(3,2,14)             115.3873         calculate D2E/DX2 analytically  !
 ! A4    A(2,3,4)              121.4445         calculate D2E/DX2 analytically  !
 ! A5    A(2,3,17)             119.1189         calculate D2E/DX2 analytically  !
 ! A6    A(4,3,17)             119.3977         calculate D2E/DX2 analytically  !
 ! A7    A(3,4,5)              107.4332         calculate D2E/DX2 analytically  !
 ! A8    A(3,4,8)              110.1472         calculate D2E/DX2 analytically  !
 ! A9    A(3,4,18)             108.5134         calculate D2E/DX2 analytically  !
 ! A10   A(5,4,8)              111.0402         calculate D2E/DX2 analytically  !
 ! A11   A(5,4,18)             111.1595         calculate D2E/DX2 analytically  !
 ! A12   A(8,4,18)             108.5163         calculate D2E/DX2 analytically  !
 ! A13   A(4,5,6)              116.6033         calculate D2E/DX2 analytically  !
 ! A14   A(4,5,7)              122.6042         calculate D2E/DX2 analytically  !
 ! A15   A(6,5,7)              120.7797         calculate D2E/DX2 analytically  !
 ! A16   A(5,6,19)             111.5252         calculate D2E/DX2 analytically  !
 ! A17   A(4,8,9)              113.215          calculate D2E/DX2 analytically  !
 ! A18   A(4,8,20)             106.6644         calculate D2E/DX2 analytically  !
 ! A19   A(4,8,21)             108.803          calculate D2E/DX2 analytically  !
 ! A20   A(9,8,20)             109.095          calculate D2E/DX2 analytically  !
 ! A21   A(9,8,21)             111.1082         calculate D2E/DX2 analytically  !
 ! A22   A(20,8,21)            107.7212         calculate D2E/DX2 analytically  !
 ! A23   A(8,9,10)             132.0529         calculate D2E/DX2 analytically  !
 ! A24   A(8,9,13)             123.166          calculate D2E/DX2 analytically  !
 ! A25   A(10,9,13)            104.7145         calculate D2E/DX2 analytically  !
 ! A26   A(9,10,11)            110.8988         calculate D2E/DX2 analytically  !
 ! A27   A(9,10,22)            127.7144         calculate D2E/DX2 analytically  !
 ! A28   A(11,10,22)           121.3863         calculate D2E/DX2 analytically  !
 ! A29   A(10,11,12)           104.9249         calculate D2E/DX2 analytically  !
 ! A30   A(11,12,13)           111.8363         calculate D2E/DX2 analytically  !
 ! A31   A(11,12,23)           126.409          calculate D2E/DX2 analytically  !
 ! A32   A(13,12,23)           121.7538         calculate D2E/DX2 analytically  !
 ! A33   A(9,13,12)            107.6208         calculate D2E/DX2 analytically  !
 ! A34   A(9,13,24)            125.9311         calculate D2E/DX2 analytically  !
 ! A35   A(12,13,24)           126.1763         calculate D2E/DX2 analytically  !
 ! A36   A(2,14,15)            115.1268         calculate D2E/DX2 analytically  !
 ! A37   A(2,14,25)            108.34           calculate D2E/DX2 analytically  !
 ! A38   A(2,14,26)            105.8295         calculate D2E/DX2 analytically  !
 ! A39   A(15,14,25)           109.235          calculate D2E/DX2 analytically  !
 ! A40   A(15,14,26)           110.7724         calculate D2E/DX2 analytically  !
 ! A41   A(25,14,26)           107.2067         calculate D2E/DX2 analytically  !
 ! A42   A(14,15,16)           111.4072         calculate D2E/DX2 analytically  !
 ! A43   A(14,15,27)           108.8818         calculate D2E/DX2 analytically  !
 ! A44   A(14,15,28)           109.1871         calculate D2E/DX2 analytically  !
 ! A45   A(16,15,27)           112.204          calculate D2E/DX2 analytically  !
 ! A46   A(16,15,28)           108.1845         calculate D2E/DX2 analytically  !
 ! A47   A(27,15,28)           106.8347         calculate D2E/DX2 analytically  !
 ! A48   A(15,16,29)           110.4925         calculate D2E/DX2 analytically  !
 ! A49   A(15,16,30)           110.6847         calculate D2E/DX2 analytically  !
 ! A50   A(29,16,30)           106.9547         calculate D2E/DX2 analytically  !
 ! D1    D(1,2,3,4)              0.6325         calculate D2E/DX2 analytically  !
 ! D2    D(1,2,3,17)           178.3495         calculate D2E/DX2 analytically  !
 ! D3    D(14,2,3,4)          -177.9788         calculate D2E/DX2 analytically  !
 ! D4    D(14,2,3,17)           -0.2618         calculate D2E/DX2 analytically  !
 ! D5    D(1,2,14,15)          144.5836         calculate D2E/DX2 analytically  !
 ! D6    D(1,2,14,25)          -92.813          calculate D2E/DX2 analytically  !
 ! D7    D(1,2,14,26)           21.8904         calculate D2E/DX2 analytically  !
 ! D8    D(3,2,14,15)          -36.7936         calculate D2E/DX2 analytically  !
 ! D9    D(3,2,14,25)           85.8098         calculate D2E/DX2 analytically  !
 ! D10   D(3,2,14,26)         -159.4868         calculate D2E/DX2 analytically  !
 ! D11   D(2,3,4,5)           -158.5048         calculate D2E/DX2 analytically  !
 ! D12   D(2,3,4,8)             80.4281         calculate D2E/DX2 analytically  !
 ! D13   D(2,3,4,18)           -38.2303         calculate D2E/DX2 analytically  !
 ! D14   D(17,3,4,5)            23.7844         calculate D2E/DX2 analytically  !
 ! D15   D(17,3,4,8)           -97.2827         calculate D2E/DX2 analytically  !
 ! D16   D(17,3,4,18)          144.0588         calculate D2E/DX2 analytically  !
 ! D17   D(3,4,5,6)            151.9438         calculate D2E/DX2 analytically  !
 ! D18   D(3,4,5,7)            -29.3497         calculate D2E/DX2 analytically  !
 ! D19   D(8,4,5,6)            -87.5523         calculate D2E/DX2 analytically  !
 ! D20   D(8,4,5,7)             91.1542         calculate D2E/DX2 analytically  !
 ! D21   D(18,4,5,6)            33.3616         calculate D2E/DX2 analytically  !
 ! D22   D(18,4,5,7)          -147.9319         calculate D2E/DX2 analytically  !
 ! D23   D(3,4,8,9)           -174.1792         calculate D2E/DX2 analytically  !
 ! D24   D(3,4,8,20)           -54.1825         calculate D2E/DX2 analytically  !
 ! D25   D(3,4,8,21)            61.7659         calculate D2E/DX2 analytically  !
 ! D26   D(5,4,8,9)             66.9364         calculate D2E/DX2 analytically  !
 ! D27   D(5,4,8,20)          -173.0669         calculate D2E/DX2 analytically  !
 ! D28   D(5,4,8,21)           -57.1185         calculate D2E/DX2 analytically  !
 ! D29   D(18,4,8,9)           -55.5225         calculate D2E/DX2 analytically  !
 ! D30   D(18,4,8,20)           64.4741         calculate D2E/DX2 analytically  !
 ! D31   D(18,4,8,21)         -179.5774         calculate D2E/DX2 analytically  !
 ! D32   D(4,5,6,19)             2.5046         calculate D2E/DX2 analytically  !
 ! D33   D(7,5,6,19)          -176.2271         calculate D2E/DX2 analytically  !
 ! D34   D(4,8,9,10)            96.2482         calculate D2E/DX2 analytically  !
 ! D35   D(4,8,9,13)           -80.3055         calculate D2E/DX2 analytically  !
 ! D36   D(20,8,9,10)          -22.3509         calculate D2E/DX2 analytically  !
 ! D37   D(20,8,9,13)          161.0954         calculate D2E/DX2 analytically  !
 ! D38   D(21,8,9,10)         -140.9653         calculate D2E/DX2 analytically  !
 ! D39   D(21,8,9,13)           42.4809         calculate D2E/DX2 analytically  !
 ! D40   D(8,9,10,11)         -176.74           calculate D2E/DX2 analytically  !
 ! D41   D(8,9,10,22)            3.0061         calculate D2E/DX2 analytically  !
 ! D42   D(13,9,10,11)           0.2778         calculate D2E/DX2 analytically  !
 ! D43   D(13,9,10,22)        -179.9761         calculate D2E/DX2 analytically  !
 ! D44   D(8,9,13,12)          176.7648         calculate D2E/DX2 analytically  !
 ! D45   D(8,9,13,24)            2.4705         calculate D2E/DX2 analytically  !
 ! D46   D(10,9,13,12)          -0.5902         calculate D2E/DX2 analytically  !
 ! D47   D(10,9,13,24)        -174.8844         calculate D2E/DX2 analytically  !
 ! D48   D(9,10,11,12)           0.1513         calculate D2E/DX2 analytically  !
 ! D49   D(22,10,11,12)       -179.6135         calculate D2E/DX2 analytically  !
 ! D50   D(10,11,12,13)         -0.5434         calculate D2E/DX2 analytically  !
 ! D51   D(10,11,12,23)        179.1346         calculate D2E/DX2 analytically  !
 ! D52   D(11,12,13,9)           0.7367         calculate D2E/DX2 analytically  !
 ! D53   D(11,12,13,24)        175.0131         calculate D2E/DX2 analytically  !
 ! D54   D(23,12,13,9)        -178.9585         calculate D2E/DX2 analytically  !
 ! D55   D(23,12,13,24)         -4.6821         calculate D2E/DX2 analytically  !
 ! D56   D(2,14,15,16)          68.7485         calculate D2E/DX2 analytically  !
 ! D57   D(2,14,15,27)        -166.9823         calculate D2E/DX2 analytically  !
 ! D58   D(2,14,15,28)         -50.6803         calculate D2E/DX2 analytically  !
 ! D59   D(25,14,15,16)        -53.3744         calculate D2E/DX2 analytically  !
 ! D60   D(25,14,15,27)         70.8948         calculate D2E/DX2 analytically  !
 ! D61   D(25,14,15,28)       -172.8032         calculate D2E/DX2 analytically  !
 ! D62   D(26,14,15,16)       -171.2428         calculate D2E/DX2 analytically  !
 ! D63   D(26,14,15,27)        -46.9737         calculate D2E/DX2 analytically  !
 ! D64   D(26,14,15,28)         69.3284         calculate D2E/DX2 analytically  !
 ! D65   D(14,15,16,29)       -166.9431         calculate D2E/DX2 analytically  !
 ! D66   D(14,15,16,30)         74.7706         calculate D2E/DX2 analytically  !
 ! D67   D(27,15,16,29)         70.6818         calculate D2E/DX2 analytically  !
 ! D68   D(27,15,16,30)        -47.6044         calculate D2E/DX2 analytically  !
 ! D69   D(28,15,16,29)        -46.9204         calculate D2E/DX2 analytically  !
 ! D70   D(28,15,16,30)       -165.2066         calculate D2E/DX2 analytically  !
 --------------------------------------------------------------------------------
 Trust Radius=3.00D-01 FncErr=1.00D-07 GrdErr=1.00D-06
 Number of steps in this run=    160 maximum allowed number of steps=    180.
 GradGradGradGradGradGradGradGradGradGradGradGradGradGradGradGradGradGrad

                          Input orientation:                          
 ---------------------------------------------------------------------
 Center     Atomic      Atomic             Coordinates (Angstroms)
 Number     Number       Type             X           Y           Z
 ---------------------------------------------------------------------
      1          8           0        0.912995    0.928898   -2.242469
      2          6           0        1.566268    0.400600   -1.353211
      3          7           0        1.050270    0.122519   -0.135770
      4          6           0       -0.324350    0.424580    0.186588
      5          6           0       -0.430428    0.502982    1.702000
      6          8           0       -1.391102    1.302319    2.197742
      7          8           0        0.282982   -0.127818    2.434331
      8          6           0       -1.257004   -0.670830   -0.379137
      9          6           0       -2.705561   -0.357344   -0.205402
     10          6           0       -3.628335    0.207776   -1.043768
     11          7           0       -4.844860    0.362539   -0.405613
     12          6           0       -4.652348   -0.102914    0.806716
     13          7           0       -3.383998   -0.558186    0.977647
     14          6           0        3.017931   -0.019844   -1.559812
     15          6           0        3.917736    0.142471   -0.341993
     16          7           0        3.560197   -0.810536    0.720886
     17          1           0        1.633057   -0.339307    0.553266
     18          1           0       -0.588425    1.379876   -0.277918
     19          1           0       -1.920635    1.698362    1.493947
     20          1           0       -1.035118   -0.751509   -1.441555
     21          1           0       -1.002711   -1.624088    0.086538
     22          1           0       -3.487863    0.516163   -2.068825
     23          1           0       -5.377159   -0.135273    1.600669
     24          1           0       -2.982363   -0.894988    1.841938
     25          1           0        3.031100   -1.067628   -1.881448
     26          1           0        3.385082    0.578567   -2.394580
     27          1           0        4.962581    0.039163   -0.656669
     28          1           0        3.805507    1.153424    0.054911
     29          1           0        4.010903   -0.557177    1.589758
     30          1           0        3.875463   -1.742913    0.485843
 ---------------------------------------------------------------------
                    Distance matrix (angstroms):
                    1          2          3          4          5
     1  O    0.000000
     2  C    1.223374   0.000000
     3  N    2.259928   1.351202   0.000000
     4  C    2.772306   2.438441   1.443861   0.000000
     5  C    4.188678   3.651245   2.390526   1.521142   0.000000
     6  O    5.016351   4.708333   3.577359   2.439903   1.344468
     7  O    4.835910   4.033798   2.693848   2.392979   1.201321
     8  C    3.277199   3.172956   2.451968   1.545902   2.528279
     9  C    4.347184   4.487813   3.787002   2.536775   3.091047
    10  C    4.751903   5.207383   4.766662   3.532293   4.225280
    11  N    6.070230   6.480891   5.906181   4.559557   4.893768
    12  C    6.429246   6.602272   5.784371   4.403904   4.358124
    13  N    5.571779   5.554935   4.622314   3.309539   3.220921
    14  C    2.407672   1.525379   2.433075   3.797139   4.775347
    15  C    3.641256   2.572663   2.874942   4.284190   4.818133
    16  N    4.337601   3.121615   2.811438   4.111045   4.314279
    17  H    3.153247   2.046113   1.013753   2.132937   2.507391
    18  H    2.513385   2.599603   2.070380   1.094574   2.171170
    19  H    4.752089   4.684975   3.737049   2.424837   1.921701
    20  H    2.694509   2.846467   2.611100   2.130546   3.438216
    21  H    3.951195   3.573779   2.704587   2.160376   2.731602
    22  H    4.423580   5.105850   4.948364   3.886269   4.854606
    23  H    7.447699   7.564638   6.662846   5.276736   4.988766
    24  H    5.931505   5.707676   4.605299   3.398011   2.913121
    25  H    2.933056   2.140201   2.896123   4.214558   5.223991
    26  H    2.501416   2.103380   3.280480   4.521728   5.598732
    27  H    4.439091   3.485792   3.947716   5.367613   5.904489
    28  H    3.700675   2.750226   2.947958   4.195745   4.591201
    29  H    5.146981   3.943938   3.493534   4.661239   4.567489
    30  H    4.833060   3.648170   3.442086   4.735611   5.006374
                    6          7          8          9         10
     6  O    0.000000
     7  O    2.214458   0.000000
     8  C    3.248324   3.253003   0.000000
     9  C    3.202715   3.994029   1.492238   0.000000
    10  C    4.087862   5.244826   2.614745   1.368842   0.000000
    11  N    4.425956   5.882219   3.733800   2.266035   1.382435
    12  C    3.813838   5.196849   3.641035   2.208868   2.137620
    13  N    2.986929   3.969117   2.525402   1.378485   2.175435
    14  C    5.941960   4.841981   4.482505   5.891239   6.670154
    15  C    5.998272   4.581754   5.238395   6.643534   7.578914
    16  N    5.582170   3.760603   4.943177   6.350048   7.471676
    17  H    3.813761   2.325045   3.054789   4.404487   5.525582
    18  H    2.603689   3.223165   2.159315   2.739610   3.346849
    19  H    0.965703   3.012505   3.092236   2.780256   3.402658
    20  H    4.193974   4.141120   1.088335   2.115140   2.793427
    21  H    3.629310   3.066589   1.090972   2.142328   3.395175
    22  H    4.818510   5.908672   3.039857   2.201671   1.079619
    23  H    4.279231   5.721210   4.602405   3.232436   3.188905
    24  H    2.736214   3.406165   2.821397   2.134779   3.156052
    25  H    6.466243   5.202052   4.560945   6.018547   6.832015
    26  H    6.665221   5.782767   5.212674   6.539447   7.151936
    27  H    7.079018   5.610776   6.266127   7.691636   8.601285
    28  H    5.623045   4.439753   5.398641   6.689110   7.573860
    29  H    5.745348   3.846433   5.624972   6.955100   8.116561
    30  H    6.319869   4.394435   5.314111   6.760732   7.902650
                   11         12         13         14         15
    11  N    0.000000
    12  C    1.312802   0.000000
    13  N    2.212524   1.358382   0.000000
    14  C    7.956247   8.027486   6.907474   0.000000
    15  C    8.765590   8.650208   7.453032   1.522852   0.000000
    16  N    8.560963   8.243421   6.953520   2.474031   1.471655
    17  H    6.586004   6.294953   5.039727   2.546573   2.500672
    18  H    4.378187   4.459885   3.625984   4.075324   4.673410
    19  H    3.734145   3.343521   2.738613   6.055337   6.314907
    20  H    4.102244   4.308102   3.377447   4.120258   5.151602
    21  H    4.353276   4.019015   2.756946   4.631374   5.245490
    22  H    2.152048   3.163545   3.232028   6.547653   7.613442
    23  H    2.134556   1.075528   2.130658   8.971037   9.499798
    24  H    3.178326   2.118470   1.010814   6.952791   7.311446
    25  H    8.139668   8.197089   7.041834   1.096118   2.149507
    26  H    8.469628   8.678306   7.647520   1.090749   2.164951
    27  H    9.815981   9.726692   8.526030   2.144950   1.096081
    28  H    8.698646   8.583642   7.447821   2.145731   1.091858
    29  H    9.124249   8.710420   7.420191   3.345820   2.056660
    30  H    9.015079   8.690001   7.371921   2.808742   2.059556
                   16         17         18         19         20
    16  N    0.000000
    17  H    1.990985   0.000000
    18  H    4.796517   2.929410   0.000000
    19  H    6.077147   4.203059   2.239581   0.000000
    20  H    5.079031   3.356841   2.469087   3.924688   0.000000
    21  H    4.678075   2.969136   3.054221   3.723179   1.759975
    22  H    7.695308   5.816443   3.515692   4.067818   2.831328
    23  H    9.005905   7.090967   5.362532   3.914226   5.337433
    24  H    6.638447   4.824060   3.924250   2.823796   3.820166
    25  H    2.667992   2.900484   4.654303   6.600278   4.102142
    26  H    3.415612   3.549913   4.572867   6.672722   4.713335
    27  H    2.141571   3.562711   5.723166   7.399780   6.100295
    28  H    2.088263   2.682563   4.412334   5.929291   5.412933
    29  H    1.011071   2.603062   5.328621   6.346635   5.889733
    30  H    1.011911   2.646326   5.501040   6.815673   5.367639
                   21         22         23         24         25
    21  H    0.000000
    22  H    3.924570   0.000000
    23  H    4.862608   4.178396   0.000000
    24  H    2.744456   4.188191   2.523970   0.000000
    25  H    4.522637   6.711213   9.148401   7.074966   0.000000
    26  H    5.500942   6.880944   9.656524   7.788697   1.760274
    27  H    6.237264   8.580893  10.584716   8.380800   2.540805
    28  H    5.552886   7.622966   9.400610   7.311952   3.046680
    29  H    5.341750   8.412418   9.397544   7.005960   3.642779
    30  H    4.895931   8.114698   9.457186   7.041857   2.602503
                   26         27         28         29         30
    26  H    0.000000
    27  H    2.408276   0.000000
    28  H    2.550926   1.756912   0.000000
    29  H    4.190050   2.511523   2.307401   0.000000
    30  H    3.731833   2.379696   2.929055   1.625712   0.000000
 Symmetry turned off by external request.
 Stoichiometry    C9H14N4O3
 Framework group  C1[X(C9H14N4O3)]
 Deg. of freedom    84
 Full point group                 C1      NOp   1
 Rotational constants (GHZ):      1.0604546      0.2826876      0.2409768
 Standard basis: 6-31G(d) (6D, 7F)
   268 basis functions,   504 primitive gaussians,   268 cartesian basis functions
    60 alpha electrons       60 beta electrons
       nuclear repulsion energy      1133.1818804999 Hartrees.
 NAtoms=   30 NActive=   30 NUniq=   30 SFac= 1.00D+00 NAtFMM=   60 NAOKFM=F Big=F
 Integral buffers will be    131072 words long.
 Raffenetti 2 integral format.
 Two-electron integral symmetry is turned off.
 One-electron integrals computed using PRISM.
 NBasis=   268 RedAO= T EigKep=  1.18D-03  NBF=   268
 NBsUse=   268 1.00D-06 EigRej= -1.00D+00 NBFU=   268
 ExpMin= 1.61D-01 ExpMax= 5.48D+03 ExpMxC= 8.25D+02 IAcc=3 IRadAn=         5 AccDes= 0.00D+00
 Harris functional with IExCor=  402 and IRadAn=       5 diagonalized for initial guess.
 HarFok:  IExCor=  402 AccDes= 0.00D+00 IRadAn=         5 IDoV= 1 UseB2=F ITyADJ=14
 ICtDFT=  3500011 ScaDFX=  1.000000  1.000000  1.000000  1.000000
 FoFCou: FMM=F IPFlag=           0 FMFlag=      100000 FMFlg1=           0
         NFxFlg=           0 DoJE=T BraDBF=F KetDBF=T FulRan=T
         wScrn=  0.000000 ICntrl=     500 IOpCl=  0 I1Cent=   200000004 NGrid=           0
         NMat0=    1 NMatS0=      1 NMatT0=    0 NMatD0=    1 NMtDS0=    0 NMtDT0=    0
 Symmetry not used in FoFCou.
 Requested convergence on RMS density matrix=1.00D-08 within 128 cycles.
 Requested convergence on MAX density matrix=1.00D-06.
 Requested convergence on             energy=1.00D-06.
 No special actions if energy rises.
 Integral accuracy reduced to 1.0D-05 until final iterations.
 Initial convergence to 1.0D-05 achieved.  Increase integral accuracy.
 SCF Done:  E(RB3LYP) =  -796.076287591     A.U. after   14 cycles
            NFock= 14  Conv=0.62D-08     -V/T= 2.0087
 DoSCS=F DFT=T ScalE2(SS,OS)=  1.000000  1.000000
 Range of M.O.s used for correlation:     1   268
 NBasis=   268 NAE=    60 NBE=    60 NFC=     0 NFV=     0
 NROrb=    268 NOA=    60 NOB=    60 NVA=   208 NVB=   208
 Symmetrizing basis deriv contribution to polar:
 IMax=3 JMax=2 DiffMx= 0.00D+00
 G2DrvN: will do    31 centers at a time, making    1 passes.
 Calling FoFCou, ICntrl=  3107 FMM=F I1Cent=   0 AccDes= 0.00D+00.
 End of G2Drv F.D. properties file   721 does not exist.
 End of G2Drv F.D. properties file   722 does not exist.
 End of G2Drv F.D. properties file   788 does not exist.
          IDoAtm=111111111111111111111111111111
          Differentiating once with respect to nuclear coordinates.
          There are    93 degrees of freedom in the 1st order CPHF.  IDoFFX=6 NUNeed=     0.
     87 vectors produced by pass  0 Test12= 1.34D-14 1.08D-09 XBig12= 1.52D-01 1.07D-01.
 AX will form    87 AO Fock derivatives at one time.
     87 vectors produced by pass  1 Test12= 1.34D-14 1.08D-09 XBig12= 2.35D-02 3.71D-02.
     87 vectors produced by pass  2 Test12= 1.34D-14 1.08D-09 XBig12= 2.24D-04 1.89D-03.
     87 vectors produced by pass  3 Test12= 1.34D-14 1.08D-09 XBig12= 7.05D-07 1.31D-04.
     87 vectors produced by pass  4 Test12= 1.34D-14 1.08D-09 XBig12= 9.79D-10 2.91D-06.
     71 vectors produced by pass  5 Test12= 1.34D-14 1.08D-09 XBig12= 8.45D-13 9.49D-08.
      7 vectors produced by pass  6 Test12= 1.34D-14 1.08D-09 XBig12= 7.33D-16 2.43D-09.
 InvSVY:  IOpt=1 It=  1 EMax= 5.00D-16
 Solved reduced A of dimension   513 with    93 vectors.
 End of Minotr F.D. properties file   721 does not exist.
 End of Minotr F.D. properties file   722 does not exist.
 End of Minotr F.D. properties file   788 does not exist.

 **********************************************************************

            Population analysis using the SCF density.

 **********************************************************************

 Alpha  occ. eigenvalues --  -19.21127 -19.14950 -19.10340 -14.39498 -14.34508
 Alpha  occ. eigenvalues --  -14.33820 -14.31206 -10.33153 -10.27812 -10.24728
 Alpha  occ. eigenvalues --  -10.23996 -10.22749 -10.22166 -10.20987 -10.19675
 Alpha  occ. eigenvalues --  -10.19514  -1.12083  -1.03868  -1.02737  -1.01949
 Alpha  occ. eigenvalues --   -0.92531  -0.90264  -0.87277  -0.80733  -0.76767
 Alpha  occ. eigenvalues --   -0.73485  -0.67742  -0.64368  -0.62952  -0.61787
 Alpha  occ. eigenvalues --   -0.59558  -0.57865  -0.56035  -0.53677  -0.51780
 Alpha  occ. eigenvalues --   -0.49686  -0.48017  -0.47282  -0.46124  -0.45869
 Alpha  occ. eigenvalues --   -0.44688  -0.43977  -0.42827  -0.42413  -0.41333
 Alpha  occ. eigenvalues --   -0.40768  -0.39820  -0.39190  -0.38677  -0.38091
 Alpha  occ. eigenvalues --   -0.37147  -0.34791  -0.33253  -0.28937  -0.28166
 Alpha  occ. eigenvalues --   -0.26729  -0.26284  -0.25285  -0.24113  -0.22614
 Alpha virt. eigenvalues --   -0.00658   0.02264   0.03272   0.05912   0.06468
 Alpha virt. eigenvalues --    0.06724   0.07591   0.11605   0.11884   0.12956
 Alpha virt. eigenvalues --    0.13488   0.13912   0.14759   0.15425   0.15653
 Alpha virt. eigenvalues --    0.17343   0.17874   0.18238   0.20715   0.21887
 Alpha virt. eigenvalues --    0.22190   0.23402   0.23979   0.24719   0.25633
 Alpha virt. eigenvalues --    0.27762   0.28348   0.31407   0.33789   0.35534
 Alpha virt. eigenvalues --    0.37752   0.39097   0.42788   0.45128   0.49564
 Alpha virt. eigenvalues --    0.49814   0.51215   0.52706   0.53112   0.54555
 Alpha virt. eigenvalues --    0.55191   0.55540   0.56367   0.58511   0.59583
 Alpha virt. eigenvalues --    0.60233   0.61468   0.62809   0.63247   0.63928
 Alpha virt. eigenvalues --    0.64861   0.65171   0.66689   0.67177   0.69629
 Alpha virt. eigenvalues --    0.70510   0.71448   0.72821   0.75404   0.76265
 Alpha virt. eigenvalues --    0.78569   0.78779   0.79496   0.80660   0.81454
 Alpha virt. eigenvalues --    0.81621   0.82031   0.83406   0.83681   0.85488
 Alpha virt. eigenvalues --    0.85773   0.86289   0.86640   0.87828   0.89184
 Alpha virt. eigenvalues --    0.89881   0.90997   0.91236   0.92704   0.93841
 Alpha virt. eigenvalues --    0.94231   0.94708   0.95066   0.96270   0.98833
 Alpha virt. eigenvalues --    0.99238   1.00875   1.03887   1.05195   1.05469
 Alpha virt. eigenvalues --    1.08758   1.09347   1.11604   1.13264   1.14609
 Alpha virt. eigenvalues --    1.18286   1.21911   1.23712   1.26148   1.30139
 Alpha virt. eigenvalues --    1.31516   1.33482   1.34354   1.35963   1.36510
 Alpha virt. eigenvalues --    1.38707   1.40608   1.41900   1.42974   1.46350
 Alpha virt. eigenvalues --    1.48727   1.49014   1.51764   1.52935   1.55222
 Alpha virt. eigenvalues --    1.55674   1.56743   1.62173   1.63319   1.64942
 Alpha virt. eigenvalues --    1.68686   1.72026   1.74950   1.76396   1.77515
 Alpha virt. eigenvalues --    1.78071   1.78376   1.80629   1.82310   1.83092
 Alpha virt. eigenvalues --    1.84451   1.85932   1.87156   1.87938   1.89128
 Alpha virt. eigenvalues --    1.89518   1.90789   1.93356   1.95344   1.96417
 Alpha virt. eigenvalues --    1.98172   1.98860   2.02415   2.04588   2.05242
 Alpha virt. eigenvalues --    2.08314   2.09190   2.12160   2.12678   2.15546
 Alpha virt. eigenvalues --    2.18139   2.18850   2.20221   2.22515   2.25643
 Alpha virt. eigenvalues --    2.27346   2.28223   2.31770   2.33457   2.34781
 Alpha virt. eigenvalues --    2.36809   2.39835   2.40925   2.41817   2.42703
 Alpha virt. eigenvalues --    2.44893   2.48028   2.49180   2.51455   2.52649
 Alpha virt. eigenvalues --    2.55892   2.58866   2.60365   2.61774   2.62355
 Alpha virt. eigenvalues --    2.66043   2.68217   2.69378   2.71820   2.75611
 Alpha virt. eigenvalues --    2.76641   2.81242   2.83933   2.85320   2.95307
 Alpha virt. eigenvalues --    2.98781   3.00087   3.01488   3.03734   3.09402
 Alpha virt. eigenvalues --    3.14505   3.20239   3.83962   3.88541   3.93522
 Alpha virt. eigenvalues --    4.03675   4.06446   4.08270   4.16153   4.20462
 Alpha virt. eigenvalues --    4.22748   4.25295   4.35023   4.37311   4.39570
 Alpha virt. eigenvalues --    4.56264   4.59707   4.67045
          Condensed to atoms (all electrons):
               1          2          3          4          5          6
     1  O    8.099552   0.584558  -0.110933   0.007547   0.000620  -0.000001
     2  C    0.584558   4.298923   0.276780  -0.021379   0.005248  -0.000058
     3  N   -0.110933   0.276780   7.280203   0.205932  -0.027580   0.002395
     4  C    0.007547  -0.021379   0.205932   5.219049   0.279593  -0.090725
     5  C    0.000620   0.005248  -0.027580   0.279593   4.398442   0.257460
     6  O   -0.000001  -0.000058   0.002395  -0.090725   0.257460   8.247270
     7  O   -0.000004   0.000436  -0.007545  -0.094277   0.587028  -0.075124
     8  C   -0.005920  -0.005282  -0.048085   0.325383  -0.025802  -0.001393
     9  C   -0.000254  -0.000022   0.005396  -0.046352  -0.006715   0.004266
    10  C    0.000025  -0.000008   0.000008  -0.001954  -0.000747  -0.000226
    11  N    0.000000   0.000000   0.000000  -0.000041   0.000005  -0.000020
    12  C    0.000000   0.000000   0.000000   0.000157   0.000091   0.000612
    13  N   -0.000001   0.000000  -0.000020  -0.002489   0.004387  -0.005392
    14  C   -0.075254   0.356583  -0.128267   0.007779  -0.000118   0.000000
    15  C    0.001859  -0.021622   0.010269  -0.000356   0.000013   0.000000
    16  N   -0.000046  -0.004768  -0.033932   0.001584  -0.000034  -0.000001
    17  H    0.002300  -0.005674   0.246249  -0.035591  -0.002322   0.000610
    18  H    0.014431  -0.000383  -0.046597   0.353303  -0.035551   0.002025
    19  H   -0.000002  -0.000026   0.000074   0.006347  -0.016449   0.225301
    20  H    0.010163   0.005702  -0.012661  -0.026635   0.004091  -0.000119
    21  H    0.000054   0.000278   0.001518  -0.047886  -0.005810   0.000195
    22  H    0.000006  -0.000002  -0.000002   0.000059   0.000022  -0.000004
    23  H    0.000000   0.000000   0.000000  -0.000001   0.000002   0.000018
    24  H    0.000000   0.000000  -0.000021   0.000402   0.002236   0.002455
    25  H    0.000294  -0.026608   0.000681  -0.000246  -0.000002   0.000000
    26  H    0.005242  -0.024425   0.005086  -0.000166   0.000001   0.000000
    27  H   -0.000087   0.003484  -0.000156   0.000019   0.000000   0.000000
    28  H    0.000192  -0.003973   0.002890  -0.000215   0.000012   0.000000
    29  H    0.000002   0.000073   0.000682  -0.000036   0.000003   0.000000
    30  H    0.000002  -0.000137   0.000796  -0.000040   0.000000   0.000000
               7          8          9         10         11         12
     1  O   -0.000004  -0.005920  -0.000254   0.000025   0.000000   0.000000
     2  C    0.000436  -0.005282  -0.000022  -0.000008   0.000000   0.000000
     3  N   -0.007545  -0.048085   0.005396   0.000008   0.000000   0.000000
     4  C   -0.094277   0.325383  -0.046352  -0.001954  -0.000041   0.000157
     5  C    0.587028  -0.025802  -0.006715  -0.000747   0.000005   0.000091
     6  O   -0.075124  -0.001393   0.004266  -0.000226  -0.000020   0.000612
     7  O    8.004644  -0.001124  -0.000495  -0.000006   0.000000   0.000001
     8  C   -0.001124   5.232610   0.328975  -0.056155   0.006636   0.006155
     9  C   -0.000495   0.328975   4.785388   0.577357  -0.046211  -0.090865
    10  C   -0.000006  -0.056155   0.577357   4.940142   0.421231  -0.120141
    11  N    0.000000   0.006636  -0.046211   0.421231   6.665697   0.536365
    12  C    0.000001   0.006155  -0.090865  -0.120141   0.536365   4.751443
    13  N   -0.000111  -0.068238   0.331300  -0.077619  -0.083504   0.349089
    14  C   -0.000029  -0.000674   0.000000   0.000000   0.000000   0.000000
    15  C    0.000009   0.000053   0.000000   0.000000   0.000000   0.000000
    16  N   -0.000472  -0.000036   0.000000   0.000000   0.000000   0.000000
    17  H    0.024980   0.001496  -0.000018   0.000001   0.000000   0.000000
    18  H    0.002506  -0.045995   0.003400   0.002809  -0.000077  -0.000070
    19  H    0.004404  -0.002494   0.006738   0.001248  -0.000139  -0.000258
    20  H   -0.000054   0.365109  -0.026378  -0.003716   0.000049  -0.000087
    21  H    0.002916   0.349160  -0.021775   0.003015  -0.000182   0.000047
    22  H    0.000000  -0.001166  -0.056581   0.383024  -0.042877   0.007411
    23  H    0.000000  -0.000161   0.003284   0.007303  -0.038686   0.382975
    24  H    0.000136  -0.002381  -0.027809   0.008350   0.004926  -0.022405
    25  H    0.000000   0.000097  -0.000001   0.000000   0.000000   0.000000
    26  H    0.000000  -0.000001   0.000000   0.000000   0.000000   0.000000
    27  H    0.000000   0.000000   0.000000   0.000000   0.000000   0.000000
    28  H    0.000013   0.000007   0.000000   0.000000   0.000000   0.000000
    29  H    0.000074   0.000000   0.000000   0.000000   0.000000   0.000000
    30  H    0.000006   0.000002   0.000000   0.000000   0.000000   0.000000
              13         14         15         16         17         18
     1  O   -0.000001  -0.075254   0.001859  -0.000046   0.002300   0.014431
     2  C    0.000000   0.356583  -0.021622  -0.004768  -0.005674  -0.000383
     3  N   -0.000020  -0.128267   0.010269  -0.033932   0.246249  -0.046597
     4  C   -0.002489   0.007779  -0.000356   0.001584  -0.035591   0.353303
     5  C    0.004387  -0.000118   0.000013  -0.000034  -0.002322  -0.035551
     6  O   -0.005392   0.000000   0.000000  -0.000001   0.000610   0.002025
     7  O   -0.000111  -0.000029   0.000009  -0.000472   0.024980   0.002506
     8  C   -0.068238  -0.000674   0.000053  -0.000036   0.001496  -0.045995
     9  C    0.331300   0.000000   0.000000   0.000000  -0.000018   0.003400
    10  C   -0.077619   0.000000   0.000000   0.000000   0.000001   0.002809
    11  N   -0.083504   0.000000   0.000000   0.000000   0.000000  -0.000077
    12  C    0.349089   0.000000   0.000000   0.000000   0.000000  -0.000070
    13  N    6.902150   0.000000   0.000000   0.000000  -0.000001  -0.000359
    14  C    0.000000   5.310757   0.313222  -0.052911  -0.005188   0.000935
    15  C    0.000000   0.313222   4.949952   0.280827  -0.009273  -0.000122
    16  N    0.000000  -0.052911   0.280827   6.957975   0.052752  -0.000039
    17  H   -0.000001  -0.005188  -0.009273   0.052752   0.327200   0.003823
    18  H   -0.000359   0.000935  -0.000122  -0.000039   0.003823   0.567368
    19  H    0.001636   0.000000   0.000000   0.000000  -0.000067   0.003711
    20  H    0.003534   0.000078   0.000001   0.000001  -0.000322  -0.005307
    21  H   -0.004791   0.000048  -0.000007  -0.000016   0.001446   0.006265
    22  H    0.004873   0.000000   0.000000   0.000000   0.000000   0.000092
    23  H   -0.059178   0.000000   0.000000   0.000000   0.000000  -0.000001
    24  H    0.300344   0.000000   0.000000   0.000000   0.000000   0.000050
    25  H    0.000000   0.356627  -0.036738  -0.004784  -0.000070  -0.000017
    26  H    0.000000   0.347155  -0.027065   0.003866   0.000164   0.000006
    27  H    0.000000  -0.043338   0.374237  -0.043130   0.000884   0.000000
    28  H    0.000000  -0.042615   0.386429  -0.040497  -0.001077  -0.000022
    29  H    0.000000   0.005606  -0.028912   0.313424  -0.001200   0.000001
    30  H    0.000000  -0.002622  -0.031966   0.309168  -0.001024   0.000000
              19         20         21         22         23         24
     1  O   -0.000002   0.010163   0.000054   0.000006   0.000000   0.000000
     2  C   -0.000026   0.005702   0.000278  -0.000002   0.000000   0.000000
     3  N    0.000074  -0.012661   0.001518  -0.000002   0.000000  -0.000021
     4  C    0.006347  -0.026635  -0.047886   0.000059  -0.000001   0.000402
     5  C   -0.016449   0.004091  -0.005810   0.000022   0.000002   0.002236
     6  O    0.225301  -0.000119   0.000195  -0.000004   0.000018   0.002455
     7  O    0.004404  -0.000054   0.002916   0.000000   0.000000   0.000136
     8  C   -0.002494   0.365109   0.349160  -0.001166  -0.000161  -0.002381
     9  C    0.006738  -0.026378  -0.021775  -0.056581   0.003284  -0.027809
    10  C    0.001248  -0.003716   0.003015   0.383024   0.007303   0.008350
    11  N   -0.000139   0.000049  -0.000182  -0.042877  -0.038686   0.004926
    12  C   -0.000258  -0.000087   0.000047   0.007411   0.382975  -0.022405
    13  N    0.001636   0.003534  -0.004791   0.004873  -0.059178   0.300344
    14  C    0.000000   0.000078   0.000048   0.000000   0.000000   0.000000
    15  C    0.000000   0.000001  -0.000007   0.000000   0.000000   0.000000
    16  N    0.000000   0.000001  -0.000016   0.000000   0.000000   0.000000
    17  H   -0.000067  -0.000322   0.001446   0.000000   0.000000   0.000000
    18  H    0.003711  -0.005307   0.006265   0.000092  -0.000001   0.000050
    19  H    0.341351  -0.000007   0.000160   0.000004   0.000013  -0.000448
    20  H   -0.000007   0.510608  -0.027955   0.002273   0.000003  -0.000027
    21  H    0.000160  -0.027955   0.580109  -0.000035  -0.000006   0.001877
    22  H    0.000004   0.002273  -0.000035   0.557867  -0.000152  -0.000096
    23  H    0.000013   0.000003  -0.000006  -0.000152   0.546311   0.000393
    24  H   -0.000448  -0.000027   0.001877  -0.000096   0.000393   0.387830
    25  H    0.000000  -0.000052  -0.000014   0.000000   0.000000   0.000000
    26  H    0.000000   0.000001   0.000000   0.000000   0.000000   0.000000
    27  H    0.000000   0.000000   0.000000   0.000000   0.000000   0.000000
    28  H    0.000000  -0.000001   0.000000   0.000000   0.000000   0.000000
    29  H    0.000000   0.000000   0.000000   0.000000   0.000000   0.000000
    30  H    0.000000   0.000000   0.000001   0.000000   0.000000   0.000000
              25         26         27         28         29         30
     1  O    0.000294   0.005242  -0.000087   0.000192   0.000002   0.000002
     2  C   -0.026608  -0.024425   0.003484  -0.003973   0.000073  -0.000137
     3  N    0.000681   0.005086  -0.000156   0.002890   0.000682   0.000796
     4  C   -0.000246  -0.000166   0.000019  -0.000215  -0.000036  -0.000040
     5  C   -0.000002   0.000001   0.000000   0.000012   0.000003   0.000000
     6  O    0.000000   0.000000   0.000000   0.000000   0.000000   0.000000
     7  O    0.000000   0.000000   0.000000   0.000013   0.000074   0.000006
     8  C    0.000097  -0.000001   0.000000   0.000007   0.000000   0.000002
     9  C   -0.000001   0.000000   0.000000   0.000000   0.000000   0.000000
    10  C    0.000000   0.000000   0.000000   0.000000   0.000000   0.000000
    11  N    0.000000   0.000000   0.000000   0.000000   0.000000   0.000000
    12  C    0.000000   0.000000   0.000000   0.000000   0.000000   0.000000
    13  N    0.000000   0.000000   0.000000   0.000000   0.000000   0.000000
    14  C    0.356627   0.347155  -0.043338  -0.042615   0.005606  -0.002622
    15  C   -0.036738  -0.027065   0.374237   0.386429  -0.028912  -0.031966
    16  N   -0.004784   0.003866  -0.043130  -0.040497   0.313424   0.309168
    17  H   -0.000070   0.000164   0.000884  -0.001077  -0.001200  -0.001024
    18  H   -0.000017   0.000006   0.000000  -0.000022   0.000001   0.000000
    19  H    0.000000   0.000000   0.000000   0.000000   0.000000   0.000000
    20  H   -0.000052   0.000001   0.000000  -0.000001   0.000000   0.000000
    21  H   -0.000014   0.000000   0.000000   0.000000   0.000000   0.000001
    22  H    0.000000   0.000000   0.000000   0.000000   0.000000   0.000000
    23  H    0.000000   0.000000   0.000000   0.000000   0.000000   0.000000
    24  H    0.000000   0.000000   0.000000   0.000000   0.000000   0.000000
    25  H    0.568247  -0.024163  -0.003595   0.005567  -0.000005   0.004526
    26  H   -0.024163   0.544976  -0.002140  -0.001179  -0.000181  -0.000184
    27  H   -0.003595  -0.002140   0.625142  -0.040987  -0.001219  -0.006285
    28  H    0.005567  -0.001179  -0.040987   0.573791  -0.005236   0.006112
    29  H   -0.000005  -0.000181  -0.001219  -0.005236   0.427484  -0.030171
    30  H    0.004526  -0.000184  -0.006285   0.006112  -0.030171   0.442062
 Mulliken charges:
               1
     1  O   -0.534345
     2  C    0.582305
     3  N   -0.623160
     4  C   -0.038762
     5  C    0.581878
     6  O   -0.569546
     7  O   -0.447910
     8  C   -0.350775
     9  C    0.277374
    10  C   -0.083941
    11  N   -0.423171
    12  C    0.199482
    13  N   -0.595608
    14  C   -0.347775
    15  C   -0.160808
    16  N   -0.738932
    17  H    0.399923
    18  H    0.173816
    19  H    0.428905
    20  H    0.201709
    21  H    0.161390
    22  H    0.145285
    23  H    0.157882
    24  H    0.344189
    25  H    0.160256
    26  H    0.173009
    27  H    0.137173
    28  H    0.160790
    29  H    0.319614
    30  H    0.309753
 Sum of Mulliken charges =   0.00000
 Mulliken charges with hydrogens summed into heavy atoms:
               1
     1  O   -0.534345
     2  C    0.582305
     3  N   -0.223237
     4  C    0.135054
     5  C    0.581878
     6  O   -0.140641
     7  O   -0.447910
     8  C    0.012323
     9  C    0.277374
    10  C    0.061344
    11  N   -0.423171
    12  C    0.357364
    13  N   -0.251419
    14  C   -0.014510
    15  C    0.137155
    16  N   -0.109565
 APT charges:
               1
     1  O   -0.185392
     2  C    0.034608
     3  N   -0.626911
     4  C   -0.380951
     5  C   -0.201669
     6  O   -0.313656
     7  O    0.007985
     8  C   -0.800874
     9  C   -0.599197
    10  C   -0.230503
    11  N    0.262288
    12  C   -0.572322
    13  N   -0.687879
    14  C   -0.821651
    15  C   -1.050268
    16  N   -1.517357
    17  H    0.521007
    18  H    0.372030
    19  H    0.563892
    20  H    0.390931
    21  H    0.356050
    22  H    0.472129
    23  H    0.984705
    24  H    0.441445
    25  H    0.403960
    26  H    0.620618
    27  H    0.771337
    28  H    0.309427
    29  H    0.763635
    30  H    0.712583
 Sum of APT charges =   0.00000
 APT charges with hydrogens summed into heavy atoms:
               1
     1  O   -0.185392
     2  C    0.034608
     3  N   -0.105904
     4  C   -0.008921
     5  C   -0.201669
     6  O    0.250236
     7  O    0.007985
     8  C   -0.053892
     9  C   -0.599197
    10  C    0.241626
    11  N    0.262288
    12  C    0.412382
    13  N   -0.246434
    14  C    0.202927
    15  C    0.030496
    16  N   -0.041139
 Electronic spatial extent (au):  <R**2>=           4532.8868
 Charge=              0.0000 electrons
 Dipole moment (field-independent basis, Debye):
    X=              4.1038    Y=             -2.0161    Z=              2.1988  Tot=              5.0735
 Quadrupole moment (field-independent basis, Debye-Ang):
   XX=            -88.0653   YY=            -89.6096   ZZ=           -103.8144
   XY=             -0.7002   XZ=             -8.8555   YZ=              2.4080
 Traceless Quadrupole moment (field-independent basis, Debye-Ang):
   XX=              5.7644   YY=              4.2202   ZZ=             -9.9846
   XY=             -0.7002   XZ=             -8.8555   YZ=              2.4080
 Octapole moment (field-independent basis, Debye-Ang**2):
  XXX=            295.6027  YYY=            -25.7059  ZZZ=            -24.3702  XYY=             46.4695
  XXY=            -39.9887  XXZ=             55.6307  XZZ=             24.3637  YZZ=            -24.5849
  YYZ=              0.7933  XYZ=              6.8243
 Hexadecapole moment (field-independent basis, Debye-Ang**3):
 XXXX=          -4816.9935 YYYY=           -281.2182 ZZZZ=          -1148.2843 XXXY=             79.1158
 XXXZ=            -38.5209 YYYX=              6.2410 YYYZ=             15.0397 ZZZX=            217.8380
 ZZZY=              8.5329 XXYY=           -783.2379 XXZZ=           -814.4010 YYZZ=           -232.9229
 XXYZ=            -15.0180 YYXZ=             62.2340 ZZXY=             17.6122
 N-N= 1.133181880500D+03 E-N=-4.123285030647D+03  KE= 7.891990726395D+02
  Exact polarizability:   0.000   0.000   0.000   0.000   0.000   0.000
 Approx polarizability: 199.009 -28.402 139.688   3.322 -27.697 195.817
 Calling FoFJK, ICntrl=    100147 FMM=F ISym2X=0 I1Cent= 0 IOpClX= 0 NMat=1 NMatS=1 NMatT=0.
 -------------------------------------------------------------------
 Center     Atomic                   Forces (Hartrees/Bohr)
 Number     Number              X              Y              Z
 -------------------------------------------------------------------
      1        8          -0.005542868    0.005319772   -0.009306450
      2        6           0.003207750   -0.003550937   -0.000736554
      3        7          -0.005005474    0.002752498    0.003212289
      4        6           0.008402438    0.000358470   -0.003477368
      5        6           0.000184062    0.004383377   -0.008609366
      6        8          -0.003480099    0.001024236    0.010877857
      7        8           0.005533967   -0.006039586    0.010168960
      8        6          -0.008885402    0.001472679   -0.000317571
      9        6           0.007825496   -0.003297209   -0.003220633
     10        6          -0.008505349    0.003015900    0.000523901
     11        7           0.000119588    0.001519908   -0.003722044
     12        6          -0.004093291    0.001105099   -0.001755985
     13        7           0.002678934   -0.002375047    0.007596347
     14        6          -0.002705167    0.000714390   -0.000914363
     15        6           0.005181728   -0.002245464    0.002105435
     16        7          -0.004677938    0.004893616   -0.001150012
     17        1           0.005614256   -0.004472561    0.006184230
     18        1          -0.000912303    0.000358005   -0.000892746
     19        1          -0.002176496    0.002518041   -0.006371960
     20        1           0.000868531    0.000430412   -0.002949034
     21        1           0.002109037   -0.003386223    0.001809906
     22        1           0.000196984    0.000014532   -0.001762184
     23        1          -0.004364842   -0.000214261    0.002648440
     24        1          -0.000647010   -0.001354276   -0.000172462
     25        1          -0.000176959   -0.001947228   -0.002021708
     26        1           0.001690899    0.000319156   -0.001491292
     27        1           0.003758942    0.000894476   -0.001550851
     28        1          -0.000124353    0.001955498    0.002360087
     29        1           0.002283281    0.000943367    0.004935471
     30        1           0.001641660   -0.005110638   -0.002000341
 -------------------------------------------------------------------
 Cartesian Forces:  Max     0.010877857 RMS     0.004003076
 FormGI is forming the generalized inverse of G from B-inverse, IUseBI=4.

 GradGradGradGradGradGradGradGradGradGradGradGradGradGradGradGradGradGrad
 Berny optimization.
 Internal  Forces:  Max     0.012656411 RMS     0.003423033
 Search for a local minimum.
 Step number   1 out of a maximum of  160
 All quantities printed in internal units (Hartrees-Bohrs-Radians)
 Mixed Optimization -- RFO/linear search
 Second derivative matrix not updated -- analytic derivatives used.
 ITU=  0
     Eigenvalues ---   -0.00043   0.00035   0.00153   0.00296   0.00363
     Eigenvalues ---    0.00367   0.00474   0.00533   0.01051   0.01274
     Eigenvalues ---    0.01582   0.02020   0.02577   0.03032   0.03361
     Eigenvalues ---    0.03802   0.04262   0.04413   0.04509   0.04539
     Eigenvalues ---    0.04722   0.05125   0.05191   0.05325   0.05590
     Eigenvalues ---    0.05734   0.05976   0.06171   0.07904   0.08042
     Eigenvalues ---    0.08616   0.10525   0.10943   0.11183   0.11502
     Eigenvalues ---    0.11997   0.13003   0.13686   0.15260   0.15661
     Eigenvalues ---    0.16531   0.17086   0.17275   0.18823   0.20619
     Eigenvalues ---    0.22212   0.22703   0.23417   0.23531   0.23657
     Eigenvalues ---    0.24600   0.25015   0.25644   0.28040   0.30649
     Eigenvalues ---    0.31092   0.32368   0.33576   0.33723   0.33958
     Eigenvalues ---    0.34194   0.34635   0.34993   0.35172   0.35618
     Eigenvalues ---    0.36361   0.37720   0.38264   0.38775   0.40323
     Eigenvalues ---    0.42367   0.43267   0.45111   0.45740   0.46163
     Eigenvalues ---    0.46661   0.47317   0.48975   0.49868   0.52462
     Eigenvalues ---    0.59037   0.59603   0.85335   0.94413
 RFO step:  Lambda=-5.24813631D-03 EMin=-4.32498242D-04
 Linear search not attempted -- first point.
 Iteration  1 RMS(Cart)=  0.22407740 RMS(Int)=  0.03112893
 Iteration  2 RMS(Cart)=  0.08954985 RMS(Int)=  0.00322612
 Iteration  3 RMS(Cart)=  0.00490312 RMS(Int)=  0.00013969
 Iteration  4 RMS(Cart)=  0.00001381 RMS(Int)=  0.00013950
 Iteration  5 RMS(Cart)=  0.00000000 RMS(Int)=  0.00013950
 Variable       Old X    -DE/DX   Delta X   Delta X   Delta X     New X
                                 (Linear)    (Quad)   (Total)
    R1        2.31184   0.01202   0.00000   0.01178   0.01178   2.32362
    R2        2.55340   0.01098   0.00000   0.01987   0.01987   2.57327
    R3        2.88255   0.00639   0.00000   0.01128   0.01128   2.89383
    R4        2.72850   0.00488   0.00000  -0.00089  -0.00089   2.72761
    R5        1.91572   0.00947   0.00000   0.02054   0.02054   1.93625
    R6        2.87454   0.00613   0.00000   0.01063   0.01063   2.88517
    R7        2.92133   0.01032   0.00000   0.02947   0.02947   2.95080
    R8        2.06844   0.00091   0.00000   0.00236   0.00236   2.07080
    R9        2.54068   0.00781   0.00000   0.00698   0.00698   2.54766
   R10        2.27017   0.01266   0.00000   0.01611   0.01611   2.28628
   R11        1.82491   0.00687   0.00000   0.01517   0.01517   1.84008
   R12        2.81992   0.00627   0.00000   0.00624   0.00624   2.82616
   R13        2.05666   0.00302   0.00000   0.01013   0.01013   2.06678
   R14        2.06164   0.00422   0.00000   0.00969   0.00969   2.07133
   R15        2.58674   0.00851   0.00000   0.01906   0.01908   2.60582
   R16        2.60496   0.00888   0.00000   0.01298   0.01299   2.61795
   R17        2.61242  -0.00105   0.00000  -0.00697  -0.00696   2.60547
   R18        2.04018   0.00170   0.00000   0.00548   0.00548   2.04567
   R19        2.48084   0.00238   0.00000   0.00635   0.00633   2.48717
   R20        2.56697   0.00898   0.00000   0.01041   0.01039   2.57736
   R21        2.03245   0.00490   0.00000   0.01139   0.01139   2.04384
   R22        1.91016   0.00005   0.00000   0.00086   0.00086   1.91102
   R23        2.87777   0.00867   0.00000   0.02311   0.02311   2.90089
   R24        2.07136   0.00245   0.00000   0.00760   0.00760   2.07896
   R25        2.06122   0.00189   0.00000   0.00545   0.00545   2.06667
   R26        2.78103   0.00100   0.00000   0.00203   0.00203   2.78306
   R27        2.07129   0.00394   0.00000   0.01077   0.01077   2.08206
   R28        2.06331   0.00268   0.00000   0.00762   0.00762   2.07094
   R29        1.91065   0.00550   0.00000   0.01207   0.01207   1.92271
   R30        1.91224   0.00568   0.00000   0.01291   0.01291   1.92515
    A1        2.14110  -0.00097   0.00000   0.00143   0.00142   2.14251
    A2        2.12794  -0.00334   0.00000  -0.00629  -0.00630   2.12164
    A3        2.01389   0.00432   0.00000   0.00503   0.00502   2.01891
    A4        2.11961  -0.00307   0.00000  -0.01189  -0.01191   2.10770
    A5        2.07902   0.00125   0.00000  -0.00257  -0.00258   2.07643
    A6        2.08388   0.00183   0.00000   0.01482   0.01481   2.09869
    A7        1.87506   0.00054   0.00000   0.03129   0.03128   1.90635
    A8        1.92243   0.00238   0.00000   0.03024   0.03026   1.95269
    A9        1.89392  -0.00087   0.00000  -0.00375  -0.00335   1.89057
   A10        1.93802  -0.00025   0.00000  -0.01602  -0.01699   1.92103
   A11        1.94010  -0.00028   0.00000  -0.01535  -0.01589   1.92421
   A12        1.89397  -0.00147   0.00000  -0.02505  -0.02540   1.86857
   A13        2.03511  -0.00178   0.00000  -0.01160  -0.01165   2.02346
   A14        2.13985   0.00440   0.00000   0.01056   0.01051   2.15035
   A15        2.10800  -0.00264   0.00000   0.00068   0.00063   2.10863
   A16        1.94648  -0.00357   0.00000  -0.02436  -0.02436   1.92212
   A17        1.97597   0.01002   0.00000   0.00273   0.00263   1.97861
   A18        1.86164  -0.00412   0.00000  -0.01307  -0.01327   1.84838
   A19        1.89897  -0.00285   0.00000  -0.01071  -0.01083   1.88814
   A20        1.90407  -0.00235   0.00000   0.03554   0.03558   1.93965
   A21        1.93920  -0.00253   0.00000  -0.01421  -0.01424   1.92497
   A22        1.88009   0.00143   0.00000  -0.00022  -0.00027   1.87981
   A23        2.30476  -0.00038   0.00000   0.02706   0.02698   2.33174
   A24        2.14965   0.00408   0.00000  -0.01847  -0.01852   2.13114
   A25        1.82761  -0.00366   0.00000  -0.00925  -0.00921   1.81840
   A26        1.93555   0.00324   0.00000   0.00619   0.00614   1.94169
   A27        2.22904  -0.00174   0.00000  -0.00396  -0.00409   2.22495
   A28        2.11859  -0.00150   0.00000  -0.00213  -0.00226   2.11633
   A29        1.83128   0.00120   0.00000   0.00230   0.00231   1.83359
   A30        1.95191  -0.00006   0.00000  -0.00119  -0.00122   1.95069
   A31        2.20625  -0.00127   0.00000  -0.00943  -0.00944   2.19682
   A32        2.12501   0.00133   0.00000   0.01067   0.01066   2.13567
   A33        1.87834  -0.00072   0.00000   0.00201   0.00203   1.88037
   A34        2.19791   0.00073   0.00000  -0.00886  -0.00888   2.18903
   A35        2.20219   0.00010   0.00000   0.00683   0.00683   2.20902
   A36        2.00934   0.00712   0.00000   0.02132   0.02127   2.03061
   A37        1.89089  -0.00269   0.00000  -0.00790  -0.00796   1.88293
   A38        1.84707  -0.00152   0.00000   0.00512   0.00513   1.85220
   A39        1.90651  -0.00068   0.00000   0.00182   0.00178   1.90829
   A40        1.93334  -0.00294   0.00000  -0.01002  -0.01012   1.92322
   A41        1.87111   0.00031   0.00000  -0.01264  -0.01268   1.85843
   A42        1.94442   0.00007   0.00000  -0.00554  -0.00556   1.93886
   A43        1.90035  -0.00061   0.00000  -0.00302  -0.00302   1.89733
   A44        1.90567   0.00117   0.00000   0.00481   0.00476   1.91043
   A45        1.95833   0.00099   0.00000   0.01679   0.01681   1.97514
   A46        1.88818  -0.00134   0.00000  -0.01200  -0.01199   1.87618
   A47        1.86462  -0.00028   0.00000  -0.00101  -0.00097   1.86364
   A48        1.92846   0.00103   0.00000   0.00398   0.00399   1.93244
   A49        1.93181  -0.00105   0.00000  -0.00615  -0.00615   1.92566
   A50        1.86671   0.00012   0.00000  -0.00233  -0.00232   1.86439
    D1        0.01104  -0.00038   0.00000  -0.01631  -0.01626  -0.00523
    D2        3.11279  -0.00024   0.00000  -0.00526  -0.00528   3.10751
    D3       -3.10632  -0.00063   0.00000  -0.02408  -0.02406  -3.13038
    D4       -0.00457  -0.00049   0.00000  -0.01304  -0.01308  -0.01765
    D5        2.52346  -0.00112   0.00000   0.01276   0.01284   2.53630
    D6       -1.61989   0.00086   0.00000   0.02385   0.02385  -1.59604
    D7        0.38206  -0.00079   0.00000   0.00816   0.00812   0.39018
    D8       -0.64217  -0.00083   0.00000   0.02059   0.02065  -0.62152
    D9        1.49766   0.00115   0.00000   0.03168   0.03166   1.52933
   D10       -2.78357  -0.00050   0.00000   0.01599   0.01593  -2.76764
   D11       -2.76643   0.00065   0.00000   0.03152   0.03191  -2.73452
   D12        1.40374  -0.00078   0.00000   0.01391   0.01359   1.41732
   D13       -0.66724   0.00014   0.00000   0.02897   0.02896  -0.63828
   D14        0.41512   0.00052   0.00000   0.02083   0.02118   0.43630
   D15       -1.69790  -0.00091   0.00000   0.00322   0.00286  -1.69504
   D16        2.51430   0.00001   0.00000   0.01828   0.01824   2.53254
   D17        2.65192  -0.00092   0.00000  -0.02560  -0.02555   2.62637
   D18       -0.51225  -0.00192   0.00000  -0.04405  -0.04402  -0.55627
   D19       -1.52808   0.00219   0.00000   0.02169   0.02154  -1.50654
   D20        1.59094   0.00118   0.00000   0.00324   0.00306   1.59401
   D21        0.58227  -0.00003   0.00000  -0.03148  -0.03134   0.55093
   D22       -2.58190  -0.00104   0.00000  -0.04993  -0.04982  -2.63171
   D23       -3.04000   0.00100   0.00000  -0.22739  -0.22734   3.01584
   D24       -0.94566   0.00128   0.00000  -0.19046  -0.19053  -1.13619
   D25        1.07802  -0.00063   0.00000  -0.20290  -0.20287   0.87515
   D26        1.16826  -0.00104   0.00000  -0.27560  -0.27533   0.89293
   D27       -3.02059  -0.00076   0.00000  -0.23867  -0.23852   3.02408
   D28       -0.99691  -0.00267   0.00000  -0.25111  -0.25086  -1.24776
   D29       -0.96905   0.00044   0.00000  -0.22939  -0.22958  -1.19863
   D30        1.12529   0.00073   0.00000  -0.19246  -0.19276   0.93253
   D31       -3.13422  -0.00118   0.00000  -0.20491  -0.20510   2.94387
   D32        0.04371  -0.00114   0.00000   0.05069   0.05073   0.09445
   D33       -3.07574  -0.00025   0.00000   0.06864   0.06859  -3.00715
   D34        1.67985  -0.00123   0.00000  -0.31606  -0.31602   1.36383
   D35       -1.40160  -0.00213   0.00000  -0.29849  -0.29840  -1.70000
   D36       -0.39010  -0.00077   0.00000  -0.32542  -0.32556  -0.71566
   D37        2.81164  -0.00166   0.00000  -0.30786  -0.30794   2.50370
   D38       -2.46031   0.00048   0.00000  -0.33890  -0.33887  -2.79918
   D39        0.74143  -0.00042   0.00000  -0.32133  -0.32126   0.42018
   D40       -3.08470  -0.00099   0.00000   0.01403   0.01425  -3.07044
   D41        0.05247  -0.00044   0.00000   0.04138   0.04149   0.09396
   D42        0.00485  -0.00002   0.00000  -0.00166  -0.00163   0.00322
   D43       -3.14118   0.00053   0.00000   0.02568   0.02561  -3.11556
   D44        3.08513   0.00101   0.00000  -0.00876  -0.00847   3.07665
   D45        0.04312  -0.00016   0.00000  -0.00910  -0.00888   0.03424
   D46       -0.01030   0.00030   0.00000   0.00348   0.00342  -0.00688
   D47       -3.05231  -0.00087   0.00000   0.00314   0.00302  -3.04929
   D48        0.00264  -0.00024   0.00000  -0.00084  -0.00084   0.00180
   D49       -3.13485  -0.00075   0.00000  -0.02617  -0.02612   3.12222
   D50       -0.00948   0.00042   0.00000   0.00313   0.00311  -0.00638
   D51        3.12649   0.00077   0.00000   0.01387   0.01381   3.14030
   D52        0.01286  -0.00046   0.00000  -0.00427  -0.00422   0.00863
   D53        3.05455   0.00076   0.00000  -0.00507  -0.00496   3.04959
   D54       -3.12342  -0.00077   0.00000  -0.01436  -0.01442  -3.13784
   D55       -0.08172   0.00045   0.00000  -0.01516  -0.01516  -0.09688
   D56        1.19989  -0.00043   0.00000  -0.02419  -0.02415   1.17574
   D57       -2.91439   0.00045   0.00000  -0.00874  -0.00870  -2.92309
   D58       -0.88454   0.00043   0.00000  -0.00897  -0.00892  -0.89346
   D59       -0.93156  -0.00141   0.00000  -0.03030  -0.03032  -0.96188
   D60        1.23735  -0.00053   0.00000  -0.01485  -0.01487   1.22248
   D61       -3.01599  -0.00055   0.00000  -0.01508  -0.01509  -3.03107
   D62       -2.98875   0.00039   0.00000  -0.00998  -0.01001  -2.99876
   D63       -0.81985   0.00127   0.00000   0.00547   0.00544  -0.81441
   D64        1.21001   0.00125   0.00000   0.00524   0.00522   1.21522
   D65       -2.91371  -0.00029   0.00000  -0.01832  -0.01835  -2.93205
   D66        1.30499  -0.00042   0.00000  -0.01409  -0.01411   1.29088
   D67        1.23363  -0.00026   0.00000  -0.02248  -0.02250   1.21113
   D68       -0.83085  -0.00040   0.00000  -0.01825  -0.01827  -0.84912
   D69       -0.81892   0.00034   0.00000  -0.02346  -0.02341  -0.84233
   D70       -2.88340   0.00021   0.00000  -0.01922  -0.01918  -2.90258
         Item               Value     Threshold  Converged?
 Maximum Force            0.012656     0.000450     NO 
 RMS     Force            0.003423     0.000300     NO 
 Maximum Displacement     1.216039     0.001800     NO 
 RMS     Displacement     0.297334     0.001200     NO 
 Predicted change in Energy=-3.835471D-03
 GradGradGradGradGradGradGradGradGradGradGradGradGradGradGradGradGradGrad

                          Input orientation:                          
 ---------------------------------------------------------------------
 Center     Atomic      Atomic             Coordinates (Angstroms)
 Number     Number       Type             X           Y           Z
 ---------------------------------------------------------------------
      1          8           0        1.057576    0.797151   -2.378531
      2          6           0        1.651465    0.320854   -1.412934
      3          7           0        1.058519    0.136195   -0.201079
      4          6           0       -0.320916    0.505096    0.009746
      5          6           0       -0.554928    0.745971    1.499121
      6          8           0       -1.513556    1.642164    1.808004
      7          8           0        0.039574    0.150035    2.368119
      8          6           0       -1.302870   -0.588862   -0.516837
      9          6           0       -2.731628   -0.322875   -0.163940
     10          6           0       -3.696353    0.519587   -0.674861
     11          7           0       -4.856447    0.459463    0.067787
     12          6           0       -4.605191   -0.408455    1.024786
     13          7           0       -3.342670   -0.915452    0.929081
     14          6           0        3.113105   -0.125210   -1.511269
     15          6           0        3.974288    0.081544   -0.257436
     16          7           0        3.530747   -0.794234    0.840390
     17          1           0        1.599280   -0.293623    0.555677
     18          1           0       -0.523666    1.419676   -0.558812
     19          1           0       -1.970173    1.936368    0.999861
     20          1           0       -1.163674   -0.619632   -1.601201
     21          1           0       -0.985267   -1.556839   -0.112381
     22          1           0       -3.622081    1.151773   -1.550460
     23          1           0       -5.292522   -0.709598    1.803664
     24          1           0       -2.892211   -1.538488    1.586027
     25          1           0        3.123522   -1.189692   -1.788892
     26          1           0        3.540852    0.420236   -2.357174
     27          1           0        5.032471   -0.064059   -0.527549
     28          1           0        3.875266    1.117256    0.086771
     29          1           0        3.965767   -0.519565    1.718189
     30          1           0        3.811533   -1.756900    0.660740
 ---------------------------------------------------------------------
                    Distance matrix (angstroms):
                    1          2          3          4          5
     1  O    0.000000
     2  C    1.229609   0.000000
     3  N    2.275556   1.361718   0.000000
     4  C    2.772977   2.438904   1.443391   0.000000
     5  C    4.199877   3.678173   2.421924   1.526767   0.000000
     6  O    4.985162   4.705068   3.594431   2.439067   1.348162
     7  O    4.897527   4.113847   2.763914   2.412041   1.209846
     8  C    3.310384   3.218489   2.490295   1.561495   2.530866
     9  C    4.529562   4.602812   3.818028   2.554846   2.940447
    10  C    5.057605   5.402167   4.793774   3.444193   3.827009
    11  N    6.408913   6.675677   5.929891   4.536132   4.542452
    12  C    6.715875   6.754267   5.820396   4.496654   4.238199
    13  N    5.765021   5.652865   4.664085   3.463255   3.294963
    14  C    2.414145   1.531351   2.450766   3.808317   4.824507
    15  C    3.676730   2.605370   2.916826   4.324299   4.903137
    16  N    4.360107   3.138884   2.839413   4.148920   4.415755
    17  H    3.176917   2.062943   1.024620   2.150151   2.571275
    18  H    2.489827   2.582272   2.068479   1.095820   2.165628
    19  H    4.677458   4.641953   3.722346   2.397689   1.915523
    20  H    2.746901   2.974049   2.733085   2.137851   3.442011
    21  H    3.853558   3.488485   2.655427   2.169759   2.843424
    22  H    4.765569   5.340377   4.975967   3.708116   4.344197
    23  H    7.751438   7.721871   6.713426   5.423144   4.965504
    24  H    6.064135   5.752904   4.648287   3.643138   3.269434
    25  H    2.926321   2.142440   2.922903   4.239288   5.299888
    26  H    2.511809   2.114533   3.300212   4.530206   5.634938
    27  H    4.468513   3.516144   3.992365   5.410304   5.998547
    28  H    3.757600   2.797975   2.996565   4.241299   4.664676
    29  H    5.193691   3.983244   3.544814   4.726982   4.699601
    30  H    4.831628   3.644597   3.450453   4.755792   5.102276
                    6          7          8          9         10
     6  O    0.000000
     7  O    2.225396   0.000000
     8  C    3.229048   3.266664   0.000000
     9  C    3.038691   3.783455   1.495538   0.000000
    10  C    3.491332   4.832540   2.642421   1.378940   0.000000
    11  N    3.949944   5.418329   3.750823   2.276094   1.378753
    12  C    3.791659   4.867268   3.648900   2.220503   2.139170
    13  N    3.264899   3.826966   2.521532   1.385358   2.181068
    14  C    5.962146   4.957016   4.550243   6.001273   6.890868
    15  C    6.067785   4.730772   5.325893   6.718750   7.694469
    16  N    5.684831   3.926053   5.024748   6.359890   7.500205
    17  H    3.873674   2.431967   3.108042   4.390384   5.497205
    18  H    2.575113   3.239777   2.154796   2.840335   3.299935
    19  H    0.973730   3.016985   3.020340   2.653004   2.791354
    20  H    4.106193   4.218494   1.093695   2.147618   2.927523
    21  H    3.768367   3.180660   1.096100   2.138949   3.460912
    22  H    3.995703   5.455864   3.078462   2.211319   1.082520
    23  H    4.450999   5.430361   4.616993   3.252568   3.194016
    24  H    3.473689   3.472483   2.801754   2.136793   3.161318
    25  H    6.516101   5.346621   4.644575   6.137966   7.118525
    26  H    6.662497   5.887305   5.278899   6.686292   7.430827
    27  H    7.156569   5.775791   6.357050   7.776917   8.749555
    28  H    5.681336   4.566465   5.485278   6.766675   7.633263
    29  H    5.891021   4.035563   5.723520   6.959612   8.094109
    30  H    6.420781   4.558423   5.376628   6.749036   7.958302
                   11         12         13         14         15
    11  N    0.000000
    12  C    1.316152   0.000000
    13  N    2.218949   1.363879   0.000000
    14  C    8.145491   8.129201   6.946714   0.000000
    15  C    8.844799   8.688594   7.479285   1.535083   0.000000
    16  N    8.515497   8.147166   6.875058   2.480387   1.472732
    17  H    6.517790   6.223240   4.994895   2.567546   2.538221
    18  H    4.481922   4.744333   3.951384   4.064475   4.702448
    19  H    3.373513   3.527341   3.165697   6.032877   6.352778
    20  H    4.193631   4.334103   3.352292   4.306203   5.356865
    21  H    4.368520   3.964314   2.655818   4.561043   5.225182
    22  H    2.149809   3.167445   3.240311   6.855287   7.779597
    23  H    2.137787   1.081555   2.146903   9.054549   9.526165
    24  H    3.186704   2.127503   1.011269   6.903218   7.291890
    25  H    8.357445   8.261969   7.019561   1.100139   2.164533
    26  H    8.740516   8.859030   7.743799   1.093634   2.170594
    27  H    9.920646   9.767953   8.543397   2.157640   1.101777
    28  H    8.756476   8.667516   7.545859   2.162948   1.095893
    29  H    9.028498   8.599679   7.361567   3.363324   2.065067
    30  H    8.966478   8.531828   7.208514   2.804967   2.061411
                   16         17         18         19         20
    16  N    0.000000
    17  H    2.015499   0.000000
    18  H    4.826741   2.946927   0.000000
    19  H    6.143431   4.232157   2.188337   0.000000
    20  H    5.294284   3.520272   2.378016   3.734850   0.000000
    21  H    4.678004   2.953286   3.044999   3.796000   1.768268
    22  H    7.788842   5.812710   3.264248   3.138236   3.030548
    23  H    8.876099   7.016227   5.732110   4.322643   5.352437
    24  H    6.508784   4.773343   4.354431   3.642577   3.740395
    25  H    2.689860   2.936539   4.650148   6.595084   4.329001
    26  H    3.420447   3.572674   4.555578   6.628706   4.877027
    27  H    2.158608   3.607337   5.750923   7.441218   6.312971
    28  H    2.083370   2.718559   4.456326   5.972758   5.590791
    29  H    1.017456   2.646270   5.394479   6.463976   6.110608
    30  H    1.018745   2.654483   5.511070   6.869015   5.582333
                   21         22         23         24         25
    21  H    0.000000
    22  H    4.044433   0.000000
    23  H    4.789727   4.183924   0.000000
    24  H    2.553695   4.196161   2.548710   0.000000
    25  H    4.452824   7.144402   9.163338   6.906575   0.000000
    26  H    5.425282   7.245244   9.829426   7.795494   1.757549
    27  H    6.214011   8.799198  10.604564   8.333170   2.549926
    28  H    5.551147   7.674108   9.504392   7.422903   3.066797
    29  H    5.379560   8.429287   9.260634   6.934517   3.668524
    30  H    4.862822   8.283020   9.235093   6.770823   2.606873
                   26         27         28         29         30
    26  H    0.000000
    27  H    2.409771   0.000000
    28  H    2.563306   1.764092   0.000000
    29  H    4.203851   2.527584   2.312768   0.000000
    30  H    3.731086   2.401756   2.931600   1.634927   0.000000
 Symmetry turned off by external request.
 Stoichiometry    C9H14N4O3
 Framework group  C1[X(C9H14N4O3)]
 Deg. of freedom    84
 Full point group                 C1      NOp   1
 Rotational constants (GHZ):      1.1044461      0.2721232      0.2420547
 Standard basis: 6-31G(d) (6D, 7F)
   268 basis functions,   504 primitive gaussians,   268 cartesian basis functions
    60 alpha electrons       60 beta electrons
       nuclear repulsion energy      1128.9560462118 Hartrees.
 NAtoms=   30 NActive=   30 NUniq=   30 SFac= 1.00D+00 NAtFMM=   60 NAOKFM=F Big=F
 Integral buffers will be    131072 words long.
 Raffenetti 2 integral format.
 Two-electron integral symmetry is turned off.
 One-electron integrals computed using PRISM.
 NBasis=   268 RedAO= T EigKep=  1.22D-03  NBF=   268
 NBsUse=   268 1.00D-06 EigRej= -1.00D+00 NBFU=   268
 Initial guess from the checkpoint file:  "conf-490.chk"
 B after Tr=    -0.022247    0.039380    0.000660
         Rot=    0.999593    0.028238   -0.003360   -0.002283 Ang=   3.27 deg.
 ExpMin= 1.61D-01 ExpMax= 5.48D+03 ExpMxC= 8.25D+02 IAcc=2 IRadAn=         4 AccDes= 0.00D+00
 Harris functional with IExCor=  402 and IRadAn=       4 diagonalized for initial guess.
 HarFok:  IExCor=  402 AccDes= 0.00D+00 IRadAn=         4 IDoV= 1 UseB2=F ITyADJ=14
 ICtDFT=  3500011 ScaDFX=  1.000000  1.000000  1.000000  1.000000
 FoFCou: FMM=F IPFlag=           0 FMFlag=      100000 FMFlg1=           0
         NFxFlg=           0 DoJE=T BraDBF=F KetDBF=T FulRan=T
         wScrn=  0.000000 ICntrl=     500 IOpCl=  0 I1Cent=   200000004 NGrid=           0
         NMat0=    1 NMatS0=      1 NMatT0=    0 NMatD0=    1 NMtDS0=    0 NMtDT0=    0
 Symmetry not used in FoFCou.
[...]
 066726,0.20267875,0.00001676,0.00000751,-0.00000954,-0.00002000,-0.000
 01313,-0.00000056,0.00006092,-0.00001802,-0.00001192,-0.00009441,0.000
 06601,0.00002659,0.00001670,-0.00004706,-0.00001497,-0.00011949,-0.000
 46340,0.00046247,0.00031340,0.00014942,-0.00007700,-0.00022880,0.00024
 163,0.00029147,0.00065904,0.00068631,0.00089361,-0.00001424,-0.0002998
 6,-0.00069287,-0.08419941,0.29439768,-0.00009968,-0.00005865,-0.000007
 11,0.00013531,0.00000937,-0.00005619,-0.00028583,-0.00007613,-0.000091
 56,0.00023334,-0.00006702,0.00031349,-0.00075004,0.00010777,0.00102504
 ,0.00067443,0.00020221,-0.00052477,0.00015644,0.00006995,-0.00040681,-
 0.00108629,-0.00085289,-0.00082584,-0.01146617,0.00716883,-0.00906419,
 0.00247433,0.00283220,-0.00138361,0.00290780,0.00130322,0.00462162,-0.
 00258212,-0.00734011,-0.00178145,-0.03710941,0.20353647,-0.16183018,-0
 .00000470,0.00003187,-0.00000714,0.00002484,-0.00000256,0.00004610,-0.
 00002220,0.00001231,-0.00005806,0.00001661,-0.00001495,0.00013229,-0.0
 0010437,-0.00015501,-0.00009234,0.00000356,-0.00012743,0.00044518,0.00
 009211,-0.00000783,0.00000877,0.00085880,-0.00036627,0.00038058,-0.000
 07268,0.00133018,0.00121768,-0.00024621,-0.00041119,-0.00070054,0.0462
 9621,-0.20711970,0.16863306,-0.00337115,-0.00369720,-0.00075743,-0.000
 01017,0.03554395,0.00304946,-0.00131743,-0.00185218,0.00080992,-0.0001
 9277,-0.00141258,-0.00023989,0.00004602,-0.00015162,-0.00034267,-0.000
 06761,0.00007277,0.00010181,0.00003575,0.00001888,0.00020546,-0.000376
 92,0.00020622,0.00019990,-0.00003963,-0.00015166,-0.00004631,0.0000273
 2,-0.00000619,-0.00000023,-0.00005377,-0.00001412,0.00003193,-0.000050
 01,0.00002129,0.00001204,-0.00003793,0.00001020,-0.00002296,-0.0481516
 6,0.01844483,0.00332928,0.00118038,-0.02337685,-0.00395670,0.00076808,
 0.00045283,0.00183049,-0.00041452,0.00073021,0.00004709,0.00006097,0.0
 0000355,-0.00011526,0.00003800,-0.00001247,-0.00001950,0.00005497,0.00
 019699,0.00000399,-0.00002179,-0.00003683,0.00008701,0.00000986,-0.000
 01140,0.00000593,-0.00000457,0.00000492,0.00000602,0.00000578,0.000019
 69,-0.00000496,0.05292885,0.00171489,0.00122740,-0.00029004,0.00036744
 ,-0.00792595,0.00024655,0.00044859,0.00080011,0.00029294,0.00015814,0.
 00020852,-0.00016089,-0.00000999,0.00003506,0.00011179,0.00006242,-0.0
 0002792,-0.00005477,0.00001937,0.00001990,-0.00006335,0.00006450,-0.00
 007323,-0.00001780,-0.00000332,0.00004295,0.00000609,-0.00001029,0.000
 00566,0.00001097,0.00001537,0.00001269,-0.00000937,0.00001944,-0.00000
 819,-0.00000545,0.00001339,0.00000696,0.00000877,0.01369239,-0.2955736
 4,-0.03280128,-0.00002544,-0.01002335,-0.00142641,0.00026172,0.0019865
 3,0.00087725,0.00002706,-0.00042243,-0.00008170,-0.00009448,0.00002254
 ,0.00007072,-0.00003314,-0.00000750,-0.00000513,-0.00003769,-0.0000790
 7,-0.00001500,0.00001490,0.00002542,-0.00003741,-0.00000731,0.00000202
 ,-0.00000664,0.00000149,-0.00000166,-0.00000303,-0.00000204,-0.0000141
 8,-0.00000287,-0.01490936,0.32179593,-0.00107179,-0.00040055,0.0001263
 6,0.00041298,-0.00592507,-0.00214321,0.00102865,0.00076891,-0.00027028
 ,0.00012320,0.00043267,0.00002669,0.00002460,-0.00002716,0.00004721,-0
 .00002728,0.00000547,0.00000117,-0.00001714,0.00005884,-0.00002019,0.0
 0010687,-0.00008574,-0.00004399,0.00003013,0.00003750,0.00001732,-0.00
 000272,0.00000118,-0.00000202,-0.00000426,0.00000376,-0.00000614,0.000
 00778,-0.00000707,0.00000011,0.00000051,-0.00000069,0.00000021,0.00303
 793,-0.03297171,-0.04980618,0.00011985,-0.02740667,-0.00615983,0.00102
 303,-0.00032692,0.00251758,0.00023222,-0.00061320,-0.00005540,0.000005
 67,-0.00001239,-0.00003170,0.00000056,-0.00000212,0.00000405,0.0000252
 6,0.00001903,-0.00000424,0.00000385,0.00001007,-0.00001063,0.00000313,
 0.00000043,0.00000103,0.00000013,-0.00000113,-0.00000014,0.00000643,-0
 .00000072,0.00000257,0.00028760,0.03756175,0.05342764,0.00340834,0.000
 95771,-0.00208485,-0.01054757,-0.01641970,0.03223445,-0.00650758,0.002
 77587,-0.00091265,0.00052191,0.00019744,0.00162031,-0.00054523,0.00008
 375,-0.00054034,-0.00019695,0.00014827,0.00037677,0.00011768,0.0000010
 4,0.00022175,0.00008797,0.00011721,0.00005579,-0.00000121,-0.00005701,
 -0.00004902,0.00001038,-0.00004147,0.00002235,-0.00005008,0.00000054,0
 .00000523,-0.00002575,0.00001696,0.00000891,-0.00000361,0.00002103,-0.
 00003868,-0.07100551,-0.03437896,0.06405974,0.00675628,0.01112896,-0.0
 1669136,-0.00224926,-0.00241892,-0.00407592,-0.00050222,-0.00014679,-0
 .00074779,-0.00010827,0.00007022,0.00005258,0.00010989,-0.00003410,0.0
 0001499,-0.00002359,-0.00007102,0.00000649,-0.00000376,-0.00001585,-0.
 00001821,0.00000110,0.00000222,0.00000847,-0.00000211,0.00000416,0.000
 00406,0.00001292,0.00001304,-0.00000493,0.00023005,0.00059557,-0.00201
 659,0.07966179,-0.00124437,-0.00021231,-0.00086327,0.00588575,0.003115
 29,-0.00908298,0.00158176,0.00007679,0.00047175,0.00038885,0.00027922,
 -0.00052600,0.00014110,-0.00001205,0.00001837,-0.00000780,-0.00003423,
 -0.00003238,-0.00003328,0.00002074,-0.00000139,-0.00002554,-0.00006052
 ,0.00000319,0.00001960,0.00000416,0.00000384,-0.00000039,0.00000014,0.
 00000070,-0.00001547,0.00000145,-0.00000076,0.00000050,-0.00000192,0.0
 0000205,-0.00000928,0.00000343,-0.00000051,-0.03631282,-0.09874633,0.0
 9999072,0.00389704,0.00420425,-0.00873963,-0.00085630,0.00014575,-0.00
 154431,-0.00016300,-0.00028983,-0.00007636,-0.00007887,0.00001790,0.00
 002126,0.00000285,0.00000717,-0.00000304,0.00002279,0.00002051,0.00002
 141,0.00001445,0.00000459,-0.00001539,0.00000339,-0.00000014,0.0000027
 0,-0.00000098,0.00000015,0.00000099,0.00000638,0.00000143,-0.00000190,
 -0.00999732,-0.01388834,0.02853349,0.03635102,0.10408875,-0.00241246,-
 0.00077347,0.00190237,0.00187743,0.00267541,-0.00774244,0.00156262,-0.
 00022377,0.00123274,-0.00020861,0.00020483,-0.00022667,-0.00005175,0.0
 0003540,0.00001380,0.00011792,-0.00006738,-0.00005740,0.00010787,-0.00
 003184,0.00002787,0.00000852,-0.00003739,0.00000815,0.00001375,0.00002
 221,0.00001662,-0.00000153,0.00001766,-0.00000886,0.00001250,-0.000005
 06,0.00000358,0.00000026,-0.00000191,-0.00000428,0.00000105,-0.0000069
 4,0.00001886,0.06743033,0.09910005,-0.24605560,0.00878236,0.01121709,-
 0.01727522,-0.00301205,-0.00298972,-0.00369830,-0.00074598,-0.00002531
 ,0.00011079,0.00005949,-0.00001785,-0.00003537,-0.00002913,0.00000651,
 -0.00001527,0.00005576,0.00005713,-0.00000249,-0.00000516,-0.00000757,
 0.00000996,0.00000116,-0.00000139,-0.00000156,-0.00000036,-0.00000174,
 -0.00000173,-0.00000568,-0.00000371,-0.00000267,-0.00185619,-0.0021375
 9,0.00535131,-0.07125797,-0.10795246,0.26597997,-0.00207173,0.00118776
 ,-0.00031799,0.00199920,-0.00273421,-0.00443364,-0.00017567,-0.0000792
 9,0.00040019,0.00042153,0.00012157,-0.00003361,0.00029580,-0.00021000,
 -0.00023950,-0.00029129,0.00014815,0.00016290,-0.00020072,0.00010312,0
 .00014624,-0.00001728,0.00003050,0.00003163,0.00005093,-0.00005674,-0.
 00004677,0.00002706,-0.00002755,0.00000940,-0.00009192,-0.00000168,0.0
 0002547,-0.00003668,0.00001588,0.00000933,-0.00002122,0.00002304,-0.00
 003529,-0.02193638,0.00423459,0.00454058,-0.26618932,0.03421702,0.0644
 8539,-0.00082932,-0.00439598,0.00831605,0.00072104,-0.00015892,0.00026
 737,-0.00009964,0.00000666,0.00000708,0.00008288,-0.00001427,0.0000043
 6,0.00003882,0.00005644,0.00000091,-0.00000049,-0.00000335,0.00001437,
 0.00001538,-0.00001144,0.00001102,-0.00000498,0.00000186,0.00000609,0.
 00002681,0.00002291,-0.00001046,0.00081026,-0.00047627,0.00060491,0.00
 048599,0.00043049,-0.00043664,0.28906899,-0.00087109,0.00055452,-0.000
 10565,0.00000339,-0.00039680,-0.00242533,0.00008728,0.00058952,0.00024
 350,-0.00017621,0.00001278,-0.00005706,0.00010591,-0.00009824,0.000112
 65,-0.00006763,0.00004335,-0.00002393,-0.00011068,0.00011900,-0.000054
 47,0.00000581,-0.00000841,-0.00001791,0.00000174,0.00000494,0.00001047
 ,-0.00000208,-0.00000074,0.00000191,-0.00000015,0.00000431,-0.00000345
 ,0.00000417,-0.00000394,0.00000085,-0.00000217,0.00000229,-0.00000394,
 -0.01125358,0.00204606,0.00146649,0.03400335,-0.06090492,-0.01240409,-
 0.01997680,0.00123771,0.01416079,0.00078246,-0.00073695,0.00076070,-0.
 00003761,-0.00001419,-0.00002692,-0.00001051,-0.00000602,0.00000656,0.
 00000401,0.00000694,0.00000059,0.00000541,0.00001040,0.00000165,-0.000
 00044,-0.00000076,-0.00000163,0.00000014,0.00000012,-0.00000005,0.0000
 0336,0.00000048,0.00000302,0.00018998,0.00043497,0.00093004,0.00063973
 ,0.00039416,0.00026450,-0.03333159,0.05864462,-0.00218928,0.00137927,0
 .00003831,0.00099661,-0.00348749,-0.00529180,-0.00001348,-0.00023136,0
 .00201495,0.00025597,-0.00002625,0.00038436,-0.00061406,0.00020916,-0.
 00053961,0.00022860,-0.00009707,0.00014236,0.00045598,-0.00015483,0.00
 032223,-0.00004612,0.00001466,0.00000742,0.00002165,-0.00001652,-0.000
 00598,0.00001429,0.00002081,-0.00000133,-0.00001207,-0.00001406,0.0000
 2495,-0.00003093,0.00001253,-0.00000516,-0.00000120,-0.00000112,0.0000
 1803,-0.02644426,0.00378740,0.00668468,0.06541126,-0.01231733,-0.06914
 095,0.03096498,0.00497910,-0.02011013,-0.00261746,0.00106961,-0.001417
 08,0.00005581,-0.00004507,-0.00001527,0.00000923,-0.00002132,-0.000047
 60,0.00006111,0.00005567,0.00000910,-0.00001408,-0.00002085,0.00000805
 ,0.00000406,-0.00000790,-0.00000255,-0.00000287,-0.00000083,-0.0000008
 4,-0.00000969,-0.00000090,-0.00001366,0.00092231,0.00000172,0.00075050
 ,0.00038919,0.00045465,0.00087472,-0.07495956,0.00765720,0.08478520,0.
 00020237,0.00008486,0.00006985,0.00120280,-0.00131322,-0.00016682,0.00
 007464,0.00053711,0.00022625,-0.00024209,0.00013296,0.00012087,-0.0001
 6554,0.00006239,0.00010479,0.00010041,-0.00004583,-0.00005596,0.000098
 51,0.00002453,-0.00007715,0.00007940,-0.00004848,-0.00003525,-0.000003
 46,0.00004217,0.00002730,-0.00001153,0.00001139,-0.00000018,0.00003075
 ,0.00000549,-0.00001095,0.00001839,-0.00000976,-0.00000522,0.00000947,
 -0.00000447,0.00001312,0.00160561,-0.02180591,-0.00548365,-0.05793030,
 0.03662938,0.01023992,0.00115779,-0.00790776,-0.00191499,0.00004569,-0
 .00070852,0.00017084,-0.00001122,-0.00001480,-0.00000536,-0.00003812,-
 0.00000442,-0.00000301,-0.00000336,-0.00002111,-0.00000413,0.00000680,
 0.00001083,-0.00001178,-0.00000583,0.00000267,-0.00000600,0.00000186,-
 0.00000147,-0.00000295,-0.00000653,-0.00001061,0.00000347,-0.00234509,
 -0.00166672,-0.00356678,0.00044192,0.00056998,0.00046372,-0.00373377,0
 .03091401,0.00742717,0.05838307,-0.00053417,0.00014983,-0.00000846,0.0
 0128548,0.00005267,-0.00059852,-0.00038714,0.00087323,0.00059206,-0.00
 015277,-0.00006918,0.00003494,-0.00012536,-0.00003352,-0.00005516,0.00
 003143,0.00001229,0.00001469,0.00008673,0.00011411,0.00002653,-0.00000
 663,-0.00001906,-0.00000732,0.00000760,0.00000563,0.00001669,-0.000001
 79,0.00000702,0.00000899,-0.00000466,0.00001031,-0.00000011,0.00000515
 ,-0.00000739,-0.00000132,-0.00000242,0.00001156,0.00000106,-0.00037665
 ,-0.00688942,-0.00312459,0.03303375,-0.29196593,-0.05208409,0.00111758
 ,-0.01992420,0.00029617,0.00035929,-0.00080624,0.00020554,-0.00003644,
 -0.00000436,-0.00003348,-0.00002072,-0.00002345,-0.00001452,0.00001505
 ,0.00000709,0.00000810,0.00001010,0.00001170,-0.00000785,-0.00000121,-
 0.00000334,-0.00000511,-0.00000032,-0.00000098,-0.00000147,0.00000300,
 -0.00000820,-0.00000305,-0.00066610,0.00105923,-0.00124689,-0.00017378
 ,0.00014898,-0.00044230,0.00179882,-0.00347980,-0.00192281,-0.03481181
 ,0.32041196,-0.00035459,0.00034290,-0.00021451,0.00190679,-0.00032309,
 0.00054476,-0.00018895,0.00021604,0.00044558,-0.00000199,-0.00010959,0
 .00012523,0.00003779,-0.00001894,-0.00000986,-0.00003444,0.00003075,0.
 00002333,-0.00005197,-0.00005071,0.00001121,-0.00001849,0.00001377,-0.
 00001388,0.00000512,-0.00000726,0.00000344,0.00000429,-0.00000407,0.00
 000668,-0.00001217,0.00000176,0.00000526,-0.00000683,0.00000249,-0.000
 00005,-0.00000191,0.00000925,-0.00000454,0.00175097,-0.02462017,-0.005
 40395,0.00977224,-0.06049561,-0.06322612,-0.00298630,0.03559887,0.0024
 3954,-0.00040326,0.00019763,-0.00011467,-0.00000060,-0.00000167,-0.000
 02668,0.00000702,-0.00000705,0.00000047,0.00001692,0.00000025,0.000005
 96,-0.00000019,-0.00000053,-0.00000452,0.00000013,-0.00000373,-0.00000
 133,-0.00000108,0.00000004,-0.00000032,0.00000159,0.00000148,-0.000005
 10,-0.00369837,-0.00091504,-0.00358338,0.00060366,0.00034791,0.0004343
 1,0.00090534,-0.00929801,-0.00117571,-0.00814201,0.05452961,0.07351895
 ,-0.00034979,0.00018260,0.00002520,0.00098697,-0.00061667,0.00019347,-
 0.00212548,0.00123317,0.00029433,0.00043393,0.00014218,-0.00041913,-0.
 00131437,0.00037429,-0.00126056,0.00065345,-0.00027305,0.00026025,0.00
 124507,-0.00007879,0.00090560,-0.00014033,0.00000099,0.00008453,0.0000
 2450,-0.00001781,-0.00000157,0.00000698,0.00004446,0.00001700,-0.00001
 143,-0.00001110,0.00002975,-0.00004075,0.00000826,-0.00000897,-0.00000
 434,0.00000582,0.00003829,0.00020223,0.00031238,-0.00051257,-0.0009165
 4,0.00233213,0.01353989,-0.11652749,-0.08954737,-0.17981908,0.00116410
 ,-0.00214070,-0.00210936,-0.00022996,0.00007758,0.00005687,-0.00001904
 ,-0.00006785,-0.00012734,0.00007452,0.00005330,0.00003601,0.00001444,-
 0.00000976,-0.00002474,0.00000147,-0.00000882,-0.00000643,-0.00000443,
 -0.00000113,-0.00000252,-0.00001600,-0.00002157,-0.00002901,0.00001154
 ,0.00012881,0.00027907,0.00003841,-0.00005585,-0.00032955,0.00041804,0
 .00012176,0.00100862,0.00059231,0.00053739,-0.00060047,0.11310896,0.00
 028222,-0.00015262,-0.00018089,-0.00082294,0.00021909,0.00038486,0.000
 55761,-0.00016979,-0.00028783,-0.00002825,0.00001391,0.00000674,0.0002
 4505,-0.00001583,0.00019260,-0.00008503,0.00001562,-0.00004696,-0.0002
 0287,-0.00016082,-0.00011224,0.00002522,-0.00000208,-0.00001174,-0.000
 00149,0.00000938,-0.00000616,-0.00000087,-0.00001206,-0.00000465,0.000
 00142,-0.00000580,-0.00000321,0.00000061,0.00000472,0.00000071,0.00000
 215,-0.00000589,-0.00000354,-0.00134805,-0.00241523,0.00352139,0.01188
 321,0.00938483,0.01847576,-0.06649064,-0.12189034,-0.10987176,-0.00027
 834,0.00024620,0.00026934,0.00003797,-0.00000625,0.00000543,0.00001661
 ,0.00002734,0.00002525,-0.00001769,-0.00001955,-0.00000259,-0.00000127
 ,-0.00000266,-0.00000483,0.00000016,0.00000309,0.00000415,0.00000005,0
 .00000071,0.00000080,0.00000063,0.00000701,0.00000031,-0.00013317,0.00
 029390,0.00006664,0.00072375,0.00058403,0.00114198,-0.00029587,-0.0002
 2319,-0.00001970,0.00052615,0.00032643,0.00017020,0.07809558,0.1283852
 9,-0.00018336,-0.00006525,0.00033257,0.00046745,0.00018013,-0.00064513
 ,0.00069902,-0.00040366,0.00044781,-0.00014607,-0.00008257,0.00022238,
 0.00018679,-0.00006127,0.00029020,-0.00012713,0.00005505,-0.00006890,-
 0.00018647,0.00004046,-0.00028212,0.00003042,-0.00000284,-0.00002488,-
 0.00000893,0.00000567,0.00000790,-0.00000201,-0.00000679,-0.00000471,0
 .00000705,0.00000521,-0.00000885,0.00001402,-0.00000530,0.00000171,0.0
 0000059,-0.00000089,-0.00000915,0.00339100,0.00477164,-0.00435670,-0.0
 1819062,-0.01361331,-0.02333064,-0.13534686,-0.10945643,-0.26746547,-0
 .00129820,0.00083433,0.00014966,0.00007986,-0.00004232,-0.00002201,-0.
 00000248,0.00000945,0.00003156,-0.00000872,-0.00000436,-0.00000911,-0.
 00000513,0.00000398,0.00000961,-0.00000102,0.00000154,-0.00000072,0.00
 000182,0.00000015,0.00000038,0.00000327,0.00000444,0.00001099,0.000373
 86,0.00006980,0.00042423,-0.00145260,-0.00051550,-0.00091428,0.0003355
 1,-0.00087365,0.00048774,-0.00038253,0.00016650,0.00161924,0.15468825,
 0.11861949,0.29487404,-0.00001508,0.00008305,-0.00021074,-0.00029642,0
 .00034585,0.00026853,-0.00214150,-0.00096121,-0.00106258,-0.00007023,-
 0.00007322,-0.00031108,0.00006264,0.00006026,-0.00003035,-0.00002536,0
 .00000758,0.00000425,-0.00018709,-0.00028607,0.00009198,-0.00008920,0.
 00018289,-0.00002948,-0.00004614,-0.00005975,-0.00001491,0.00001398,0.
 00000116,-0.00002055,0.00003125,-0.00003651,0.00001335,-0.00003756,0.0
 0002387,0.00000194,0.00000748,-0.00002895,0.00000632,-0.00027395,0.001
 53661,-0.00010920,-0.00139598,-0.01399837,0.00457607,-0.06183825,0.148
 38107,0.00523545,0.00290824,0.00279529,0.00109906,-0.00000054,-0.00000
 528,0.00000726,0.00002099,0.00003583,0.00001202,-0.00000048,0.00001404
 ,-0.00001759,-0.00005190,-0.00005735,0.00004671,0.00000118,0.00000171,
 0.00000554,0.00000032,0.00000284,0.00000206,-0.00002770,0.00001632,0.0
 0000179,0.00024720,-0.00032943,-0.00065781,-0.00011192,-0.00051468,-0.
 00014167,0.00123767,-0.00103194,-0.00127175,0.00044504,-0.00098941,0.0
 0149174,0.00272304,-0.02269191,-0.00293673,0.05891027,-0.00016732,0.00
 009970,-0.00014470,0.00009437,-0.00018712,0.00001814,-0.00040439,-0.00
 003076,-0.00031869,0.00005401,0.00004322,-0.00004202,0.00001961,-0.000
 03001,-0.00002946,-0.00002464,0.00001415,0.00001852,-0.00002429,0.0000
 1944,0.00003748,-0.00000627,0.00001316,-0.00000556,0.00000290,-0.00000
 804,-0.00000613,0.00000301,-0.00000121,-0.00000111,-0.00000325,-0.0000
 0560,0.00000415,-0.00000991,0.00000509,0.00000077,-0.00000036,-0.00000
 304,-0.00000095,-0.00005012,0.00114497,0.00015168,0.00802083,-0.019591
 45,-0.00329078,0.09606090,-0.37262237,-0.03613187,0.00103820,-0.000045
 22,0.00041478,-0.00003261,0.00000765,-0.00000584,0.00000769,-0.0000002
 4,0.00000008,0.00000744,0.00000992,-0.00000168,-0.00000181,-0.00000351
 ,0.00000772,0.00000138,-0.00000120,0.00000141,-0.00000059,0.00000064,0
 .00000074,-0.00000138,0.00000565,-0.00000018,0.00051274,0.00006569,0.0
 0059824,-0.00009089,0.00012678,-0.00001538,-0.00060166,0.00176779,-0.0
 0125638,-0.00117904,0.00003302,0.00439254,0.00919976,-0.01443944,0.000
 36626,-0.11242431,0.40361232,0.00031264,-0.00007529,0.00008941,-0.0004
 5889,0.00009996,0.00009875,0.00037185,-0.00002034,-0.00003213,-0.00013
 297,0.00004967,0.00003424,-0.00008919,0.00004213,0.00009975,0.00008450
 ,-0.00005063,-0.00006120,0.00014159,0.00011303,-0.00009945,0.00004324,
 -0.00004448,0.00000233,-0.00001463,0.00002233,0.00001569,-0.00001280,0
 .00000671,-0.00000324,0.00002553,0.00001081,-0.00001793,0.00002632,-0.
 00001430,-0.00000033,0.00000351,-0.00000443,0.00000268,0.00044147,0.00
 117010,0.00163108,-0.01054897,0.03524428,0.00331354,0.00128152,-0.0407
 7121,-0.06767361,-0.00040555,-0.00026312,-0.00029987,0.00003082,-0.000
 00849,0.00001067,-0.00002488,-0.00000312,0.00000453,-0.00002230,-0.000
 00899,-0.00000877,0.00000364,0.00001153,0.00000270,-0.00000392,0.00000
 518,-0.00000267,0.00000311,-0.00000055,-0.00000093,0.00000056,-0.00000
 905,0.00001384,-0.00024361,-0.00122459,-0.00056067,0.00020615,-0.00051
 715,0.00005706,0.00022932,-0.00032484,0.00121505,0.00100742,0.00365617
 ,-0.00539937,0.01379416,-0.03232954,-0.00176735,-0.00604964,0.03523822
 ,0.06933622\\-0.00000372,-0.00000029,-0.00000083,-0.00000057,-0.000001
 45,0.00000361,-0.00000149,0.00000272,-0.00000063,0.00000478,0.00000494
 ,-0.00000150,0.00000632,-0.00000195,-0.00000710,-0.00000501,0.00000062
 ,-0.00000548,-0.00000177,-0.00000136,0.00000525,-0.00000260,-0.0000013
 9,0.00000440,0.00000356,0.00000345,-0.00000075,-0.00000500,-0.00000064
 ,0.00000072,0.00000484,0.00000317,-0.00000449,0.00000223,-0.00000377,0
 .00000158,-0.00000597,-0.00000250,0.00000254,-0.00000008,0.00000048,0.
 00000063,0.00000047,-0.00000082,-0.00000003,0.00000007,0.00000051,0.00
 000037,0.00000069,-0.00000087,-0.00000109,-0.00000158,-0.00000031,0.00
 000008,0.00000297,0.00000015,0.00000188,0.00000165,0.00000086,-0.00000
 052,-0.00000092,-0.00000134,-0.00000036,0.00000080,0.00000042,0.000000
 40,-0.00000095,-0.00000013,0.00000018,-0.00000030,0.00000067,-0.000000
 10,-0.00000002,-0.00000082,0.00000005,0.00000043,-0.00000036,-0.000000
 17,0.00000072,0.,-0.00000010,-0.00000017,0.00000038,0.00000053,0.00000
 040,0.00000051,0.00000085,0.00000022,-0.00000089,0.00000004\\\@


 GOOD SENSE ABOUT TRIVIALITIES IS BETTER THAN NONSENSE
 ABOUT THINGS THAT MATTER

                                       -- MAX BEERBOHM
 Job cpu time:       0 days  1 hours  1 minutes 42.6 seconds.
 File lengths (MBytes):  RWF=    260 Int=      0 D2E=      0 Chk=      8 Scr=      1
 Normal termination of Gaussian 09 at Wed Jul 28 22:45:49 2021.
