 Entering Gaussian System, Link 0=g09
 Input=opt_freq-conf-273.com
 Output=opt_freq-conf-273.log
 Initial command:
 /aerosol/software/g09/l1.exe "/scratch/nicole/10593/Gau-83965.inp" -scrdir="/scratch/nicole/10593/"
 Entering Link 1 = /aerosol/software/g09/l1.exe PID=     83970.
  
 Copyright (c) 1988,1990,1992,1993,1995,1998,2003,2009,2013,
            Gaussian, Inc.  All Rights Reserved.
  
 This is part of the Gaussian(R) 09 program.  It is based on
 the Gaussian(R) 03 system (copyright 2003, Gaussian, Inc.),
 the Gaussian(R) 98 system (copyright 1998, Gaussian, Inc.),
 the Gaussian(R) 94 system (copyright 1995, Gaussian, Inc.),
 the Gaussian 92(TM) system (copyright 1992, Gaussian, Inc.),
 the Gaussian 90(TM) system (copyright 1990, Gaussian, Inc.),
 the Gaussian 88(TM) system (copyright 1988, Gaussian, Inc.),
 the Gaussian 86(TM) system (copyright 1986, Carnegie Mellon
 University), and the Gaussian 82(TM) system (copyright 1983,
 Carnegie Mellon University). Gaussian is a federally registered
 trademark of Gaussian, Inc.
  
 This software contains proprietary and confidential information,
 including trade secrets, belonging to Gaussian, Inc.
  
 This software is provided under written license and may be
 used, copied, transmitted, or stored only in accord with that
 written license.
  
 The following legend is applicable only to US Government
 contracts under FAR:
  
                    RESTRICTED RIGHTS LEGEND
  
 Use, reproduction and disclosure by the US Government is
 subject to restrictions as set forth in subparagraphs (a)
 and (c) of the Commercial Computer Software - Restricted
 Rights clause in FAR 52.227-19.
  
 Gaussian, Inc.
 340 Quinnipiac St., Bldg. 40, Wallingford CT 06492
  
  
 ---------------------------------------------------------------
 Warning -- This program may not be used in any manner that
 competes with the business of Gaussian, Inc. or will provide
 assistance to any competitor of Gaussian, Inc.  The licensee
 of this program is prohibited from giving any competitor of
 Gaussian, Inc. access to this program.  By using this program,
 the user acknowledges that Gaussian, Inc. is engaged in the
 business of creating and licensing software in the field of
 computational chemistry and represents and warrants to the
 licensee that it is not a competitor of Gaussian, Inc. and that
 it will not use this program in any manner prohibited above.
 ---------------------------------------------------------------
  

 Cite this work as:
 Gaussian 09, Revision D.01,
 M. J. Frisch, G. W. Trucks, H. B. Schlegel, G. E. Scuseria, 
 M. A. Robb, J. R. Cheeseman, G. Scalmani, V. Barone, B. Mennucci, 
 G. A. Petersson, H. Nakatsuji, M. Caricato, X. Li, H. P. Hratchian, 
 A. F. Izmaylov, J. Bloino, G. Zheng, J. L. Sonnenberg, M. Hada, 
 M. Ehara, K. Toyota, R. Fukuda, J. Hasegawa, M. Ishida, T. Nakajima, 
 Y. Honda, O. Kitao, H. Nakai, T. Vreven, J. A. Montgomery, Jr., 
 J. E. Peralta, F. Ogliaro, M. Bearpark, J. J. Heyd, E. Brothers, 
 K. N. Kudin, V. N. Staroverov, T. Keith, R. Kobayashi, J. Normand, 
 K. Raghavachari, A. Rendell, J. C. Burant, S. S. Iyengar, J. Tomasi, 
 M. Cossi, N. Rega, J. M. Millam, M. Klene, J. E. Knox, J. B. Cross, 
 V. Bakken, C. Adamo, J. Jaramillo, R. Gomperts, R. E. Stratmann, 
 O. Yazyev, A. J. Austin, R. Cammi, C. Pomelli, J. W. Ochterski, 
 R. L. Martin, K. Morokuma, V. G. Zakrzewski, G. A. Voth, 
 P. Salvador, J. J. Dannenberg, S. Dapprich, A. D. Daniels, 
 O. Farkas, J. B. Foresman, J. V. Ortiz, J. Cioslowski, 
 and D. J. Fox, Gaussian, Inc., Wallingford CT, 2013.
 
 ******************************************
 Gaussian 09:  ES64L-G09RevD.01 24-Apr-2013
                28-Jul-2021 
 ******************************************
 %mem=2gb
 %nproc=4
 Will use up to    4 processors via shared memory.
 %chk=conf-273.chk
 ----------------------------------------------------------------------
 # B3LYP/6-31G(d) opt=calcfc freq=noraman nosymm integral(ultrafinegrid
 )
 ----------------------------------------------------------------------
 1/10=4,14=-1,18=20,19=15,26=4,38=1/1,3;
 2/9=110,12=2,15=1,17=6,18=5,40=1/2;
 3/5=1,6=6,7=1,11=2,16=1,25=1,30=1,71=2,74=-5,75=-5,140=1/1,2,3;
 4//1;
 5/5=2,38=5/2;
 8/6=4,10=90,11=11/1;
 11/6=1,8=1,9=11,15=111,16=1,31=1/1,2,10;
 10/6=1,13=1,31=1/2;
 6/7=2,8=2,9=2,10=2,28=1/1;
 7/10=1,18=20,25=1,30=1/1,2,3,16;
 1/10=4,14=-1,18=20,19=15,26=4/3(2);
 2/9=110,15=1/2;
 99//99;
 2/9=110,15=1/2;
 3/5=1,6=6,7=1,11=2,16=1,25=1,30=1,71=1,74=-5,75=-5/1,2,3;
 4/5=5,16=3,69=1/1;
 5/5=2,38=5/2;
 7/30=1/1,2,3,16;
 1/14=-1,18=20,19=15,26=4/3(-5);
 2/9=110,15=1/2;
 6/7=2,8=2,9=2,10=2,19=2,28=1/1;
 99/9=1/99;
 ------------------------------------------------------------
 Candidate Structure: Conf:273 OPT and FREQ calc in gas phase
 ------------------------------------------------------------
 Symbolic Z-matrix:
 Charge =  0 Multiplicity = 1
 O                     0.4812   -1.43972   1.72308 
 C                     0.87057  -0.53629   0.98255 
 N                     0.37138  -0.40017  -0.26514 
 C                    -0.75721  -1.20762  -0.73001 
 C                    -0.28914  -2.59703  -1.19228 
 O                     0.31533  -3.3194   -0.24345 
 O                    -0.45011  -3.01646  -2.30615 
 C                    -1.5072   -0.49074  -1.84649 
 C                    -2.27544   0.70244  -1.37059 
 C                    -2.84205   1.05063  -0.17757 
 N                    -3.45652   2.28666  -0.27192 
 C                    -3.26679   2.67362  -1.51053 
 N                    -2.55969   1.75405  -2.21919 
 C                     1.89393   0.48386   1.40872 
 C                     2.97956  -0.12216   2.28608 
 N                     3.8968    0.93726   2.718 
 H                     0.69071   0.34962  -0.85265 
 H                    -1.42108  -1.35943   0.12342 
 H                     0.33923  -2.81473   0.59778 
 H                    -2.17872  -1.20279  -2.32839 
 H                    -0.79593  -0.19651  -2.61834 
 H                    -2.8511    0.49833   0.75013 
 H                    -3.61409   3.59393  -1.94694 
 H                    -2.28316   1.82072  -3.18404 
 H                     2.33103   0.96023   0.52862 
 H                     1.38125   1.26432   1.97735 
 H                     2.50784  -0.56404   3.1651 
 H                     3.4804   -0.9333    1.74249 
 H                     4.56161   0.56728   3.38681 
 H                     4.44738   1.25773   1.92958 
 

 GradGradGradGradGradGradGradGradGradGradGradGradGradGradGradGradGradGrad
 Berny optimization.
 Initialization pass.
                           ----------------------------
                           !    Initial Parameters    !
                           ! (Angstroms and Degrees)  !
 --------------------------                            --------------------------
 ! Name  Definition              Value          Derivative Info.                !
 --------------------------------------------------------------------------------
 ! R1    R(1,2)                  1.2313         calculate D2E/DX2 analytically  !
 ! R2    R(2,3)                  1.3507         calculate D2E/DX2 analytically  !
 ! R3    R(2,14)                 1.5065         calculate D2E/DX2 analytically  !
 ! R4    R(3,4)                  1.4635         calculate D2E/DX2 analytically  !
 ! R5    R(3,17)                 1.0047         calculate D2E/DX2 analytically  !
 ! R6    R(4,5)                  1.5373         calculate D2E/DX2 analytically  !
 ! R7    R(4,8)                  1.5241         calculate D2E/DX2 analytically  !
 ! R8    R(4,18)                 1.0918         calculate D2E/DX2 analytically  !
 ! R9    R(5,6)                  1.337          calculate D2E/DX2 analytically  !
 ! R10   R(5,7)                  1.2011         calculate D2E/DX2 analytically  !
 ! R11   R(6,19)                 0.9813         calculate D2E/DX2 analytically  !
 ! R12   R(8,9)                  1.4968         calculate D2E/DX2 analytically  !
 ! R13   R(8,20)                 1.091          calculate D2E/DX2 analytically  !
 ! R14   R(8,21)                 1.0901         calculate D2E/DX2 analytically  !
 ! R15   R(9,10)                 1.3659         calculate D2E/DX2 analytically  !
 ! R16   R(9,13)                 1.3809         calculate D2E/DX2 analytically  !
 ! R17   R(10,11)                1.3836         calculate D2E/DX2 analytically  !
 ! R18   R(10,22)                1.0797         calculate D2E/DX2 analytically  !
 ! R19   R(11,12)                1.3114         calculate D2E/DX2 analytically  !
 ! R20   R(12,13)                1.3593         calculate D2E/DX2 analytically  !
 ! R21   R(12,23)                1.0761         calculate D2E/DX2 analytically  !
 ! R22   R(13,24)                1.0059         calculate D2E/DX2 analytically  !
 ! R23   R(14,15)                1.5217         calculate D2E/DX2 analytically  !
 ! R24   R(14,25)                1.092          calculate D2E/DX2 analytically  !
 ! R25   R(14,26)                1.0933         calculate D2E/DX2 analytically  !
 ! R26   R(15,16)                1.4664         calculate D2E/DX2 analytically  !
 ! R27   R(15,27)                1.0911         calculate D2E/DX2 analytically  !
 ! R28   R(15,28)                1.0974         calculate D2E/DX2 analytically  !
 ! R29   R(16,29)                1.013          calculate D2E/DX2 analytically  !
 ! R30   R(16,30)                1.0136         calculate D2E/DX2 analytically  !
 ! A1    A(1,2,3)              120.8376         calculate D2E/DX2 analytically  !
 ! A2    A(1,2,14)             122.7858         calculate D2E/DX2 analytically  !
 ! A3    A(3,2,14)             116.3669         calculate D2E/DX2 analytically  !
 ! A4    A(2,3,4)              121.5214         calculate D2E/DX2 analytically  !
 ! A5    A(2,3,17)             119.8628         calculate D2E/DX2 analytically  !
 ! A6    A(4,3,17)             118.1074         calculate D2E/DX2 analytically  !
 ! A7    A(3,4,5)              111.0619         calculate D2E/DX2 analytically  !
 ! A8    A(3,4,8)              110.6495         calculate D2E/DX2 analytically  !
 ! A9    A(3,4,18)             107.2961         calculate D2E/DX2 analytically  !
 ! A10   A(5,4,8)              110.7731         calculate D2E/DX2 analytically  !
 ! A11   A(5,4,18)             107.1284         calculate D2E/DX2 analytically  !
 ! A12   A(8,4,18)             109.8029         calculate D2E/DX2 analytically  !
 ! A13   A(4,5,6)              114.3675         calculate D2E/DX2 analytically  !
 ! A14   A(4,5,7)              123.6204         calculate D2E/DX2 analytically  !
 ! A15   A(6,5,7)              122.0113         calculate D2E/DX2 analytically  !
 ! A16   A(5,6,19)             109.9703         calculate D2E/DX2 analytically  !
 ! A17   A(4,8,9)              113.2417         calculate D2E/DX2 analytically  !
 ! A18   A(4,8,20)             108.631          calculate D2E/DX2 analytically  !
 ! A19   A(4,8,21)             108.9394         calculate D2E/DX2 analytically  !
 ! A20   A(9,8,20)             110.1707         calculate D2E/DX2 analytically  !
 ! A21   A(9,8,21)             110.1741         calculate D2E/DX2 analytically  !
 ! A22   A(20,8,21)            105.3689         calculate D2E/DX2 analytically  !
 ! A23   A(8,9,10)             133.9358         calculate D2E/DX2 analytically  !
 ! A24   A(8,9,13)             121.1542         calculate D2E/DX2 analytically  !
 ! A25   A(10,9,13)            104.9065         calculate D2E/DX2 analytically  !
 ! A26   A(9,10,11)            110.6353         calculate D2E/DX2 analytically  !
 ! A27   A(9,10,22)            128.5771         calculate D2E/DX2 analytically  !
 ! A28   A(11,10,22)           120.7875         calculate D2E/DX2 analytically  !
 ! A29   A(10,11,12)           105.2927         calculate D2E/DX2 analytically  !
 ! A30   A(11,12,13)           111.594          calculate D2E/DX2 analytically  !
 ! A31   A(11,12,23)           126.0626         calculate D2E/DX2 analytically  !
 ! A32   A(13,12,23)           122.3432         calculate D2E/DX2 analytically  !
 ! A33   A(9,13,12)            107.5703         calculate D2E/DX2 analytically  !
 ! A34   A(9,13,24)            125.686          calculate D2E/DX2 analytically  !
 ! A35   A(12,13,24)           126.7424         calculate D2E/DX2 analytically  !
 ! A36   A(2,14,15)            112.2127         calculate D2E/DX2 analytically  !
 ! A37   A(2,14,25)            109.8338         calculate D2E/DX2 analytically  !
 ! A38   A(2,14,26)            108.1789         calculate D2E/DX2 analytically  !
 ! A39   A(15,14,25)           110.6605         calculate D2E/DX2 analytically  !
 ! A40   A(15,14,26)           108.6005         calculate D2E/DX2 analytically  !
 ! A41   A(25,14,26)           107.1854         calculate D2E/DX2 analytically  !
 ! A42   A(14,15,16)           109.169          calculate D2E/DX2 analytically  !
 ! A43   A(14,15,27)           108.5023         calculate D2E/DX2 analytically  !
 ! A44   A(14,15,28)           109.5343         calculate D2E/DX2 analytically  !
 ! A45   A(16,15,27)           109.0103         calculate D2E/DX2 analytically  !
 ! A46   A(16,15,28)           113.2315         calculate D2E/DX2 analytically  !
 ! A47   A(27,15,28)           107.2794         calculate D2E/DX2 analytically  !
 ! A48   A(15,16,29)           109.9443         calculate D2E/DX2 analytically  !
 ! A49   A(15,16,30)           109.8204         calculate D2E/DX2 analytically  !
 ! A50   A(29,16,30)           105.8152         calculate D2E/DX2 analytically  !
 ! D1    D(1,2,3,4)              7.5256         calculate D2E/DX2 analytically  !
 ! D2    D(1,2,3,17)           179.1912         calculate D2E/DX2 analytically  !
 ! D3    D(14,2,3,4)          -171.3709         calculate D2E/DX2 analytically  !
 ! D4    D(14,2,3,17)            0.2946         calculate D2E/DX2 analytically  !
 ! D5    D(1,2,14,15)           37.429          calculate D2E/DX2 analytically  !
 ! D6    D(1,2,14,25)          160.9631         calculate D2E/DX2 analytically  !
 ! D7    D(1,2,14,26)          -82.3549         calculate D2E/DX2 analytically  !
 ! D8    D(3,2,14,15)         -143.698          calculate D2E/DX2 analytically  !
 ! D9    D(3,2,14,25)          -20.1639         calculate D2E/DX2 analytically  !
 ! D10   D(3,2,14,26)           96.5181         calculate D2E/DX2 analytically  !
 ! D11   D(2,3,4,5)            -81.7802         calculate D2E/DX2 analytically  !
 ! D12   D(2,3,4,8)            154.7647         calculate D2E/DX2 analytically  !
 ! D13   D(2,3,4,18)            34.9931         calculate D2E/DX2 analytically  !
 ! D14   D(17,3,4,5)           106.413          calculate D2E/DX2 analytically  !
 ! D15   D(17,3,4,8)           -17.0421         calculate D2E/DX2 analytically  !
 ! D16   D(17,3,4,18)         -136.8136         calculate D2E/DX2 analytically  !
 ! D17   D(3,4,5,6)             60.0601         calculate D2E/DX2 analytically  !
 ! D18   D(3,4,5,7)           -120.2636         calculate D2E/DX2 analytically  !
 ! D19   D(8,4,5,6)           -176.5556         calculate D2E/DX2 analytically  !
 ! D20   D(8,4,5,7)              3.1206         calculate D2E/DX2 analytically  !
 ! D21   D(18,4,5,6)           -56.816          calculate D2E/DX2 analytically  !
 ! D22   D(18,4,5,7)           122.8603         calculate D2E/DX2 analytically  !
 ! D23   D(3,4,8,9)            -70.7009         calculate D2E/DX2 analytically  !
 ! D24   D(3,4,8,20)           166.5599         calculate D2E/DX2 analytically  !
 ! D25   D(3,4,8,21)            52.268          calculate D2E/DX2 analytically  !
 ! D26   D(5,4,8,9)            165.6775         calculate D2E/DX2 analytically  !
 ! D27   D(5,4,8,20)            42.9384         calculate D2E/DX2 analytically  !
 ! D28   D(5,4,8,21)           -71.3536         calculate D2E/DX2 analytically  !
 ! D29   D(18,4,8,9)            47.5538         calculate D2E/DX2 analytically  !
 ! D30   D(18,4,8,20)          -75.1853         calculate D2E/DX2 analytically  !
 ! D31   D(18,4,8,21)          170.5227         calculate D2E/DX2 analytically  !
 ! D32   D(4,5,6,19)             0.5789         calculate D2E/DX2 analytically  !
 ! D33   D(7,5,6,19)          -179.1032         calculate D2E/DX2 analytically  !
 ! D34   D(4,8,9,10)           -26.9919         calculate D2E/DX2 analytically  !
 ! D35   D(4,8,9,13)           153.7973         calculate D2E/DX2 analytically  !
 ! D36   D(20,8,9,10)           94.8898         calculate D2E/DX2 analytically  !
 ! D37   D(20,8,9,13)          -84.3209         calculate D2E/DX2 analytically  !
 ! D38   D(21,8,9,10)         -149.2757         calculate D2E/DX2 analytically  !
 ! D39   D(21,8,9,13)           31.5136         calculate D2E/DX2 analytically  !
 ! D40   D(8,9,10,11)         -179.6436         calculate D2E/DX2 analytically  !
 ! D41   D(8,9,10,22)            0.4783         calculate D2E/DX2 analytically  !
 ! D42   D(13,9,10,11)          -0.3425         calculate D2E/DX2 analytically  !
 ! D43   D(13,9,10,22)         179.7794         calculate D2E/DX2 analytically  !
 ! D44   D(8,9,13,12)          179.6556         calculate D2E/DX2 analytically  !
 ! D45   D(8,9,13,24)           -0.7376         calculate D2E/DX2 analytically  !
 ! D46   D(10,9,13,12)           0.2438         calculate D2E/DX2 analytically  !
 ! D47   D(10,9,13,24)         179.8506         calculate D2E/DX2 analytically  !
 ! D48   D(9,10,11,12)           0.3093         calculate D2E/DX2 analytically  !
 ! D49   D(22,10,11,12)       -179.8017         calculate D2E/DX2 analytically  !
 ! D50   D(10,11,12,13)         -0.1475         calculate D2E/DX2 analytically  !
 ! D51   D(10,11,12,23)        179.6907         calculate D2E/DX2 analytically  !
 ! D52   D(11,12,13,9)          -0.0609         calculate D2E/DX2 analytically  !
 ! D53   D(11,12,13,24)       -179.6624         calculate D2E/DX2 analytically  !
 ! D54   D(23,12,13,9)        -179.9061         calculate D2E/DX2 analytically  !
 ! D55   D(23,12,13,24)          0.4924         calculate D2E/DX2 analytically  !
 ! D56   D(2,14,15,16)        -177.0867         calculate D2E/DX2 analytically  !
 ! D57   D(2,14,15,27)         -58.4021         calculate D2E/DX2 analytically  !
 ! D58   D(2,14,15,28)          58.4108         calculate D2E/DX2 analytically  !
 ! D59   D(25,14,15,16)         59.8434         calculate D2E/DX2 analytically  !
 ! D60   D(25,14,15,27)        178.5279         calculate D2E/DX2 analytically  !
 ! D61   D(25,14,15,28)        -64.6592         calculate D2E/DX2 analytically  !
 ! D62   D(26,14,15,16)        -57.549          calculate D2E/DX2 analytically  !
 ! D63   D(26,14,15,27)         61.1356         calculate D2E/DX2 analytically  !
 ! D64   D(26,14,15,28)        177.9485         calculate D2E/DX2 analytically  !
 ! D65   D(14,15,16,29)        173.5694         calculate D2E/DX2 analytically  !
 ! D66   D(14,15,16,30)        -70.3925         calculate D2E/DX2 analytically  !
 ! D67   D(27,15,16,29)         55.2023         calculate D2E/DX2 analytically  !
 ! D68   D(27,15,16,30)        171.2403         calculate D2E/DX2 analytically  !
 ! D69   D(28,15,16,29)        -64.1236         calculate D2E/DX2 analytically  !
 ! D70   D(28,15,16,30)         51.9144         calculate D2E/DX2 analytically  !
 --------------------------------------------------------------------------------
 Trust Radius=3.00D-01 FncErr=1.00D-07 GrdErr=1.00D-06
 Number of steps in this run=    160 maximum allowed number of steps=    180.
 GradGradGradGradGradGradGradGradGradGradGradGradGradGradGradGradGradGrad

                          Input orientation:                          
 ---------------------------------------------------------------------
 Center     Atomic      Atomic             Coordinates (Angstroms)
 Number     Number       Type             X           Y           Z
 ---------------------------------------------------------------------
      1          8           0        0.481202   -1.439721    1.723084
      2          6           0        0.870569   -0.536285    0.982547
      3          7           0        0.371376   -0.400166   -0.265140
      4          6           0       -0.757209   -1.207622   -0.730012
      5          6           0       -0.289136   -2.597034   -1.192279
      6          8           0        0.315334   -3.319401   -0.243452
      7          8           0       -0.450114   -3.016463   -2.306155
      8          6           0       -1.507203   -0.490736   -1.846491
      9          6           0       -2.275445    0.702441   -1.370589
     10          6           0       -2.842052    1.050633   -0.177570
     11          7           0       -3.456524    2.286661   -0.271915
     12          6           0       -3.266792    2.673623   -1.510526
     13          7           0       -2.559690    1.754054   -2.219192
     14          6           0        1.893930    0.483862    1.408723
     15          6           0        2.979560   -0.122160    2.286081
     16          7           0        3.896800    0.937264    2.718000
     17          1           0        0.690707    0.349622   -0.852654
     18          1           0       -1.421075   -1.359428    0.123420
     19          1           0        0.339230   -2.814735    0.597781
     20          1           0       -2.178716   -1.202789   -2.328392
     21          1           0       -0.795931   -0.196509   -2.618341
     22          1           0       -2.851101    0.498330    0.750134
     23          1           0       -3.614090    3.593930   -1.946937
     24          1           0       -2.283164    1.820720   -3.184039
     25          1           0        2.331031    0.960230    0.528621
     26          1           0        1.381250    1.264319    1.977355
     27          1           0        2.507837   -0.564041    3.165097
     28          1           0        3.480396   -0.933305    1.742493
     29          1           0        4.561608    0.567281    3.386808
     30          1           0        4.447377    1.257728    1.929579
 ---------------------------------------------------------------------
                    Distance matrix (angstroms):
                    1          2          3          4          5
     1  O    0.000000
     2  C    1.231340   0.000000
     3  N    2.246280   1.350721   0.000000
     4  C    2.757755   2.456260   1.463488   0.000000
     5  C    3.229882   3.212705   2.474287   1.537286   0.000000
     6  O    2.725431   3.091455   2.919854   2.417995   1.336963
     7  O    4.425860   4.325627   3.418421   2.418768   1.201064
     8  C    4.194782   3.695854   2.457221   1.524120   2.519559
     9  C    4.664631   4.119357   3.073015   2.522642   3.855354
    10  C    4.567096   4.200921   3.526840   3.122736   4.566453
    11  N    5.776819   5.316619   4.676741   4.439163   5.893208
    12  C    6.436093   5.799714   4.922949   4.687352   6.061975
    13  N    5.915131   5.221443   4.129180   3.773344   5.014174
    14  C    2.407239   1.506518   2.429299   3.803137   4.585075
    15  C    2.880056   2.513671   3.659049   4.923260   5.376650
    16  N    4.278577   3.786980   4.807958   6.176497   6.730795
    17  H    3.143258   2.045763   1.004653   2.129909   3.123815
    18  H    2.486772   2.582111   2.069793   1.091838   2.131671
    19  H    1.782449   2.371012   2.564334   2.355424   1.909595
    20  H    4.852398   4.550240   3.377008   2.139047   2.608675
    21  H    4.693040   3.982345   2.634699   2.142344   2.837784
    22  H    3.975792   3.869790   3.496060   3.079852   4.462949
    23  H    7.455074   6.764076   5.887714   5.718180   7.067735
    24  H    6.507846   5.732535   4.527570   4.185887   5.240211
    25  H    3.257049   2.139756   2.514156   3.977558   4.741403
    26  H    2.861218   2.119578   2.969703   4.244212   5.267525
    27  H    2.636942   2.728541   4.044483   5.123143   5.562629
    28  H    3.041710   2.747060   3.739096   4.913841   5.058681
    29  H    4.842080   4.541156   5.641872   6.956170   7.383132
    30  H    4.800980   4.112044   4.917234   6.343429   6.858553
                    6          7          8          9         10
     6  O    0.000000
     7  O    2.220906   0.000000
     8  C    3.727294   2.776333   0.000000
     9  C    4.915057   4.247042   1.496780   0.000000
    10  C    5.391718   5.176245   2.634945   1.365861   0.000000
    11  N    6.756897   6.426489   3.740732   2.260926   1.383561
    12  C    7.096015   6.398732   3.636233   2.210861   2.142725
    13  N    6.157049   5.216868   2.507133   1.380874   2.177785
    14  C    4.436943   5.616685   4.807699   5.015580   5.026637
    15  C    4.870215   6.420926   6.111059   6.454942   6.429322
    16  N    6.302087   7.731090   7.216440   7.407314   7.335482
    17  H    3.738150   3.839879   2.554354   3.031633   3.664361
    18  H    2.644089   3.096993   2.154668   2.685762   2.813923
    19  H    0.981292   3.016058   3.845094   4.804324   5.065845
    20  H    3.879085   2.505588   1.090953   2.134630   3.184959
    21  H    4.077678   2.858180   1.090059   2.134000   3.420429
    22  H    5.058517   5.240173   3.086547   2.206923   1.079701
    23  H    8.132428   7.337376   4.597125   3.238033   3.192971
    24  H    6.466846   5.246818   2.781003   2.130542   3.153450
    25  H    4.793159   5.620037   4.741150   4.989296   5.221845
    26  H    5.203715   6.326725   5.103447   4.989574   4.746118
    27  H    4.900744   6.685690   6.421988   6.712392   6.511674
    28  H    4.433402   6.014983   6.160586   6.745121   6.898986
    29  H    6.805581   8.388707   8.083148   8.330449   8.231196
    30  H    6.538039   7.758581   7.264493   7.509713   7.590701
                   11         12         13         14         15
    11  N    0.000000
    12  C    1.311447   0.000000
    13  N    2.209042   1.359341   0.000000
    14  C    5.890839   6.320611   5.883017   0.000000
    15  C    7.332730   7.826080   7.382476   1.521713   0.000000
    16  N    8.051822   8.497789   8.168798   2.435419   1.466377
    17  H    4.613990   4.636332   3.795384   2.565072   3.913194
    18  H    4.194438   4.726727   4.059316   4.004871   5.057027
    19  H    6.417815   6.897131   6.100238   3.735701   4.131786
    20  H    4.247135   4.108453   2.983285   5.779037   7.004922
    21  H    4.330197   3.945892   2.659861   4.890349   6.189767
    22  H    2.146916   3.164693   3.237076   4.790540   6.061415
    23  H    2.130605   1.076121   2.137996   7.160395   8.672023
    24  H    3.174010   2.120286   1.005903   6.350494   7.835385
    25  H    5.991333   6.199150   5.665667   1.092045   2.163521
    26  H    5.432168   5.979610   5.777703   1.093296   2.138277
    27  H    7.450715   8.104952   7.748804   2.135376   1.091078
    28  H    7.908659   8.313640   7.707106   2.153286   1.097397
    29  H    8.979586   9.471241   9.140490   3.322090   2.046901
    30  H    8.269034   8.564314   8.158286   2.718501   2.045892
                   16         17         18         19         20
    16  N    0.000000
    17  H    4.834659   0.000000
    18  H    6.347160   2.886728   0.000000
    19  H    5.588302   3.498636   2.332726   0.000000
    20  H    8.182774   3.580694   2.570980   4.183409   0.000000
    21  H    7.196090   2.371920   3.043097   4.299667   1.734578
    22  H    7.042679   3.890431   2.426728   4.601936   3.580954
    23  H    9.232171   5.500388   5.799263   7.948290   5.021387
    24  H    8.591072   4.055046   4.668600   6.531964   3.143986
    25  H    2.691754   2.229669   4.429820   4.268772   5.760121
    26  H    2.642634   3.053272   4.263115   4.430317   6.107326
    27  H    2.093569   4.503228   5.031977   4.044699   7.249151
    28  H    2.150356   4.020330   5.179518   3.836284   6.976409
    29  H    1.012996   5.744936   7.081978   6.086475   9.012692
    30  H    1.013627   4.762147   6.674612   5.935951   8.251640
                   21         22         23         24         25
    21  H    0.000000
    22  H    4.006638   0.000000
    23  H    4.770769   4.176013   0.000000
    24  H    2.569259   4.189151   2.538909   0.000000
    25  H    4.584682   5.207390   6.957674   5.984571   0.000000
    26  H    5.290989   4.472763   6.766134   6.354329   1.758802
    27  H    6.670691   5.973181   8.994420   8.303752   3.050519
    28  H    6.151969   6.566751   9.189096   8.066846   2.525866
    29  H    8.083837   7.867977  10.220150   9.570687   3.646795
    30  H    7.091591   7.432063   9.245132   8.471495   2.555408
                   26         27         28         29         30
    26  H    0.000000
    27  H    2.454145   0.000000
    28  H    3.048135   1.762393   0.000000
    29  H    3.547830   2.355211   2.474782   0.000000
    30  H    3.066506   2.933797   2.402223   1.616565   0.000000
 Symmetry turned off by external request.
 Stoichiometry    C9H14N4O3
 Framework group  C1[X(C9H14N4O3)]
 Deg. of freedom    84
 Full point group                 C1      NOp   1
 Rotational constants (GHZ):      0.6081288      0.3132744      0.2274180
 Standard basis: 6-31G(d) (6D, 7F)
   268 basis functions,   504 primitive gaussians,   268 cartesian basis functions
    60 alpha electrons       60 beta electrons
       nuclear repulsion energy      1109.6886056220 Hartrees.
 NAtoms=   30 NActive=   30 NUniq=   30 SFac= 1.00D+00 NAtFMM=   60 NAOKFM=F Big=F
 Integral buffers will be    131072 words long.
 Raffenetti 2 integral format.
 Two-electron integral symmetry is turned off.
 One-electron integrals computed using PRISM.
 NBasis=   268 RedAO= T EigKep=  1.15D-03  NBF=   268
 NBsUse=   268 1.00D-06 EigRej= -1.00D+00 NBFU=   268
 ExpMin= 1.61D-01 ExpMax= 5.48D+03 ExpMxC= 8.25D+02 IAcc=3 IRadAn=         5 AccDes= 0.00D+00
 Harris functional with IExCor=  402 and IRadAn=       5 diagonalized for initial guess.
 HarFok:  IExCor=  402 AccDes= 0.00D+00 IRadAn=         5 IDoV= 1 UseB2=F ITyADJ=14
 ICtDFT=  3500011 ScaDFX=  1.000000  1.000000  1.000000  1.000000
 FoFCou: FMM=F IPFlag=           0 FMFlag=      100000 FMFlg1=           0
         NFxFlg=           0 DoJE=T BraDBF=F KetDBF=T FulRan=T
         wScrn=  0.000000 ICntrl=     500 IOpCl=  0 I1Cent=   200000004 NGrid=           0
         NMat0=    1 NMatS0=      1 NMatT0=    0 NMatD0=    1 NMtDS0=    0 NMtDT0=    0
 Symmetry not used in FoFCou.
 Requested convergence on RMS density matrix=1.00D-08 within 128 cycles.
 Requested convergence on MAX density matrix=1.00D-06.
 Requested convergence on             energy=1.00D-06.
 No special actions if energy rises.
 Integral accuracy reduced to 1.0D-05 until final iterations.
 Initial convergence to 1.0D-05 achieved.  Increase integral accuracy.
 SCF Done:  E(RB3LYP) =  -796.076545564     A.U. after   15 cycles
            NFock= 15  Conv=0.46D-08     -V/T= 2.0088
 DoSCS=F DFT=T ScalE2(SS,OS)=  1.000000  1.000000
 Range of M.O.s used for correlation:     1   268
 NBasis=   268 NAE=    60 NBE=    60 NFC=     0 NFV=     0
 NROrb=    268 NOA=    60 NOB=    60 NVA=   208 NVB=   208
 Symmetrizing basis deriv contribution to polar:
 IMax=3 JMax=2 DiffMx= 0.00D+00
 G2DrvN: will do    31 centers at a time, making    1 passes.
 Calling FoFCou, ICntrl=  3107 FMM=F I1Cent=   0 AccDes= 0.00D+00.
 End of G2Drv F.D. properties file   721 does not exist.
 End of G2Drv F.D. properties file   722 does not exist.
 End of G2Drv F.D. properties file   788 does not exist.
          IDoAtm=111111111111111111111111111111
          Differentiating once with respect to nuclear coordinates.
          There are    93 degrees of freedom in the 1st order CPHF.  IDoFFX=6 NUNeed=     0.
     87 vectors produced by pass  0 Test12= 1.34D-14 1.08D-09 XBig12= 1.81D-01 9.51D-02.
 AX will form    87 AO Fock derivatives at one time.
     87 vectors produced by pass  1 Test12= 1.34D-14 1.08D-09 XBig12= 7.55D-03 1.93D-02.
     87 vectors produced by pass  2 Test12= 1.34D-14 1.08D-09 XBig12= 8.29D-05 2.38D-03.
     87 vectors produced by pass  3 Test12= 1.34D-14 1.08D-09 XBig12= 2.98D-07 7.69D-05.
     87 vectors produced by pass  4 Test12= 1.34D-14 1.08D-09 XBig12= 5.87D-10 2.81D-06.
     71 vectors produced by pass  5 Test12= 1.34D-14 1.08D-09 XBig12= 5.51D-13 8.43D-08.
      7 vectors produced by pass  6 Test12= 1.34D-14 1.08D-09 XBig12= 4.18D-16 2.10D-09.
 InvSVY:  IOpt=1 It=  1 EMax= 6.11D-16
 Solved reduced A of dimension   513 with    93 vectors.
 End of Minotr F.D. properties file   721 does not exist.
 End of Minotr F.D. properties file   722 does not exist.
 End of Minotr F.D. properties file   788 does not exist.

 **********************************************************************

            Population analysis using the SCF density.

 **********************************************************************

 Alpha  occ. eigenvalues --  -19.17752 -19.14523 -19.13354 -14.39821 -14.39277
 Alpha  occ. eigenvalues --  -14.32254 -14.31405 -10.31580 -10.31415 -10.25867
 Alpha  occ. eigenvalues --  -10.24247 -10.22732 -10.22086 -10.21989 -10.20985
 Alpha  occ. eigenvalues --  -10.19981  -1.09811  -1.06633  -1.02165  -1.01559
 Alpha  occ. eigenvalues --   -0.95650  -0.89373  -0.87538  -0.82103  -0.77743
 Alpha  occ. eigenvalues --   -0.74248  -0.68328  -0.64763  -0.62275  -0.61168
 Alpha  occ. eigenvalues --   -0.60635  -0.59342  -0.56259  -0.53447  -0.52786
 Alpha  occ. eigenvalues --   -0.51385  -0.50053  -0.47259  -0.45946  -0.45768
 Alpha  occ. eigenvalues --   -0.44329  -0.43999  -0.43300  -0.42660  -0.42295
 Alpha  occ. eigenvalues --   -0.41441  -0.41254  -0.39948  -0.39175  -0.37312
 Alpha  occ. eigenvalues --   -0.37002  -0.36333  -0.30972  -0.30328  -0.28485
 Alpha  occ. eigenvalues --   -0.28314  -0.26847  -0.26184  -0.24616  -0.23031
 Alpha virt. eigenvalues --   -0.00697   0.01280   0.02406   0.05167   0.06171
 Alpha virt. eigenvalues --    0.06684   0.07061   0.09801   0.10762   0.12900
 Alpha virt. eigenvalues --    0.13280   0.13712   0.14358   0.15146   0.16446
 Alpha virt. eigenvalues --    0.17103   0.18324   0.18817   0.20303   0.20837
 Alpha virt. eigenvalues --    0.21800   0.22184   0.22938   0.24251   0.26375
 Alpha virt. eigenvalues --    0.27030   0.27944   0.31469   0.33250   0.36769
 Alpha virt. eigenvalues --    0.37745   0.38695   0.41278   0.45412   0.49265
 Alpha virt. eigenvalues --    0.50155   0.51063   0.52068   0.53437   0.53917
 Alpha virt. eigenvalues --    0.54463   0.55432   0.56412   0.57960   0.58924
 Alpha virt. eigenvalues --    0.60570   0.62498   0.62637   0.63291   0.63959
 Alpha virt. eigenvalues --    0.64538   0.65390   0.65701   0.67270   0.67972
 Alpha virt. eigenvalues --    0.68972   0.71611   0.72340   0.72630   0.75487
 Alpha virt. eigenvalues --    0.76636   0.78469   0.79418   0.79850   0.80668
 Alpha virt. eigenvalues --    0.81394   0.81580   0.82691   0.83841   0.84193
 Alpha virt. eigenvalues --    0.85390   0.85554   0.86326   0.86738   0.87880
 Alpha virt. eigenvalues --    0.88502   0.90093   0.91098   0.91473   0.92409
 Alpha virt. eigenvalues --    0.93312   0.94395   0.94791   0.96138   0.97268
 Alpha virt. eigenvalues --    0.98617   1.00947   1.01900   1.03501   1.05432
 Alpha virt. eigenvalues --    1.08022   1.09364   1.11706   1.14936   1.16459
 Alpha virt. eigenvalues --    1.18191   1.20129   1.22434   1.24945   1.26441
 Alpha virt. eigenvalues --    1.28802   1.31457   1.33443   1.34903   1.36259
 Alpha virt. eigenvalues --    1.37151   1.39625   1.42322   1.43530   1.44625
 Alpha virt. eigenvalues --    1.45708   1.47522   1.49403   1.50488   1.55475
 Alpha virt. eigenvalues --    1.55879   1.58117   1.60180   1.65678   1.67073
 Alpha virt. eigenvalues --    1.68894   1.69396   1.73834   1.74191   1.75558
 Alpha virt. eigenvalues --    1.77741   1.78579   1.79787   1.80060   1.82783
 Alpha virt. eigenvalues --    1.83701   1.85740   1.86119   1.87248   1.88626
 Alpha virt. eigenvalues --    1.91633   1.92552   1.94033   1.94262   1.96475
 Alpha virt. eigenvalues --    1.97622   2.00241   2.01639   2.02820   2.04096
 Alpha virt. eigenvalues --    2.07601   2.08648   2.09832   2.10886   2.14113
 Alpha virt. eigenvalues --    2.15302   2.16170   2.19298   2.21216   2.24105
 Alpha virt. eigenvalues --    2.26314   2.28548   2.30205   2.32235   2.34890
 Alpha virt. eigenvalues --    2.35364   2.38531   2.40561   2.41722   2.42734
 Alpha virt. eigenvalues --    2.45507   2.46122   2.48676   2.52398   2.53573
 Alpha virt. eigenvalues --    2.57257   2.58982   2.59783   2.60875   2.62799
 Alpha virt. eigenvalues --    2.64559   2.66972   2.68177   2.72771   2.73348
 Alpha virt. eigenvalues --    2.74427   2.82249   2.85214   2.88261   2.92328
 Alpha virt. eigenvalues --    2.99187   2.99781   3.00798   3.04387   3.12458
 Alpha virt. eigenvalues --    3.14674   3.17533   3.77429   3.91132   3.93168
 Alpha virt. eigenvalues --    3.99927   4.03811   4.09574   4.15404   4.18619
 Alpha virt. eigenvalues --    4.20870   4.23981   4.31232   4.40704   4.42897
 Alpha virt. eigenvalues --    4.52669   4.54367   4.65534
          Condensed to atoms (all electrons):
               1          2          3          4          5          6
     1  O    8.168928   0.489102  -0.102454   0.009364  -0.004587  -0.025196
     2  C    0.489102   4.370959   0.293082  -0.025979  -0.002778   0.009022
     3  N   -0.102454   0.293082   7.113840   0.224331  -0.038480   0.002726
     4  C    0.009364  -0.025979   0.224331   5.256920   0.275264  -0.103817
     5  C   -0.004587  -0.002778  -0.038480   0.275264   4.321267   0.317460
     6  O   -0.025196   0.009022   0.002726  -0.103817   0.317460   8.267120
     7  O   -0.000013  -0.000031   0.000535  -0.100344   0.591895  -0.074439
     8  C    0.000958   0.005463  -0.038339   0.302529  -0.029881   0.004069
     9  C   -0.000055  -0.000055  -0.002682  -0.030099   0.004672  -0.000011
    10  C   -0.000056   0.000380   0.000783  -0.002142   0.000234  -0.000003
    11  N    0.000000  -0.000002  -0.000011   0.000000  -0.000001   0.000000
    12  C    0.000000  -0.000001   0.000035  -0.000103   0.000002   0.000000
    13  N    0.000000  -0.000004  -0.000189   0.001835  -0.000068   0.000000
    14  C   -0.077932   0.317549  -0.102651   0.006380  -0.000265  -0.000012
    15  C    0.000839  -0.020571   0.001880  -0.000129   0.000017  -0.000010
    16  N    0.000165   0.003512  -0.000038   0.000000   0.000000   0.000000
    17  H    0.003447  -0.017138   0.303440  -0.031264   0.001158  -0.000179
    18  H    0.010740  -0.002033  -0.054344   0.366167  -0.037681   0.002229
    19  H    0.071057  -0.002202  -0.010230   0.012811  -0.019697   0.195054
    20  H    0.000002  -0.000028   0.003735  -0.035657   0.000432   0.000187
    21  H   -0.000010   0.000031  -0.006740  -0.031625  -0.005259   0.000031
    22  H    0.000065   0.000256  -0.000349   0.000793   0.000003   0.000002
    23  H    0.000000   0.000000   0.000000   0.000002   0.000000   0.000000
    24  H    0.000000   0.000000  -0.000007  -0.000035  -0.000002   0.000000
    25  H    0.002774  -0.039000   0.003341   0.000314   0.000008   0.000015
    26  H   -0.000652  -0.015791  -0.001227  -0.000256   0.000000  -0.000001
    27  H    0.008874  -0.005524   0.000467   0.000000   0.000001   0.000006
    28  H    0.000308   0.005831   0.000069  -0.000022   0.000004   0.000003
    29  H    0.000005  -0.000178   0.000002   0.000000   0.000000   0.000000
    30  H    0.000000  -0.000281   0.000003   0.000000   0.000000   0.000000
               7          8          9         10         11         12
     1  O   -0.000013   0.000958  -0.000055  -0.000056   0.000000   0.000000
     2  C   -0.000031   0.005463  -0.000055   0.000380  -0.000002  -0.000001
     3  N    0.000535  -0.038339  -0.002682   0.000783  -0.000011   0.000035
     4  C   -0.100344   0.302529  -0.030099  -0.002142   0.000000  -0.000103
     5  C    0.591895  -0.029881   0.004672   0.000234  -0.000001   0.000002
     6  O   -0.074439   0.004069  -0.000011  -0.000003   0.000000   0.000000
     7  O    8.008329   0.008892   0.001311   0.000009   0.000000   0.000000
     8  C    0.008892   5.289923   0.275791  -0.072217   0.007570   0.006658
     9  C    0.001311   0.275791   4.794836   0.580806  -0.042635  -0.089846
    10  C    0.000009  -0.072217   0.580806   4.948209   0.420687  -0.121034
    11  N    0.000000   0.007570  -0.042635   0.420687   6.657169   0.542430
    12  C    0.000000   0.006658  -0.089846  -0.121034   0.542430   4.738511
    13  N    0.000000  -0.057145   0.334508  -0.072867  -0.082281   0.347490
    14  C    0.000000  -0.000136  -0.000037  -0.000006   0.000000   0.000000
    15  C    0.000000   0.000000   0.000000   0.000000   0.000000   0.000000
    16  N    0.000000   0.000000   0.000000   0.000000   0.000000   0.000000
    17  H   -0.000017  -0.002687   0.001799   0.000469  -0.000017  -0.000023
    18  H    0.001722  -0.035075  -0.004394   0.001885  -0.000068  -0.000001
    19  H    0.002827   0.000103  -0.000038   0.000004   0.000000   0.000000
    20  H    0.008171   0.367664  -0.030293  -0.000941  -0.000031   0.000149
    21  H    0.003331   0.353174  -0.035209   0.003448  -0.000155   0.000052
    22  H    0.000001  -0.001402  -0.059220   0.382458  -0.041871   0.007589
    23  H    0.000000  -0.000126   0.003206   0.007121  -0.038151   0.382516
    24  H    0.000000  -0.002711  -0.028232   0.008830   0.005341  -0.023583
    25  H    0.000000  -0.000039  -0.000002   0.000000   0.000000   0.000000
    26  H    0.000000   0.000004   0.000011   0.000023   0.000000   0.000000
    27  H    0.000000   0.000000   0.000000   0.000000   0.000000   0.000000
    28  H    0.000000   0.000000   0.000000   0.000000   0.000000   0.000000
    29  H    0.000000   0.000000   0.000000   0.000000   0.000000   0.000000
    30  H    0.000000   0.000000   0.000000   0.000000   0.000000   0.000000
              13         14         15         16         17         18
     1  O    0.000000  -0.077932   0.000839   0.000165   0.003447   0.010740
     2  C   -0.000004   0.317549  -0.020571   0.003512  -0.017138  -0.002033
     3  N   -0.000189  -0.102651   0.001880  -0.000038   0.303440  -0.054344
     4  C    0.001835   0.006380  -0.000129   0.000000  -0.031264   0.366167
     5  C   -0.000068  -0.000265   0.000017   0.000000   0.001158  -0.037681
     6  O    0.000000  -0.000012  -0.000010   0.000000  -0.000179   0.002229
     7  O    0.000000   0.000000   0.000000   0.000000  -0.000017   0.001722
     8  C   -0.057145  -0.000136   0.000000   0.000000  -0.002687  -0.035075
     9  C    0.334508  -0.000037   0.000000   0.000000   0.001799  -0.004394
    10  C   -0.072867  -0.000006   0.000000   0.000000   0.000469   0.001885
    11  N   -0.082281   0.000000   0.000000   0.000000  -0.000017  -0.000068
    12  C    0.347490   0.000000   0.000000   0.000000  -0.000023  -0.000001
    13  N    6.894291  -0.000001   0.000000   0.000000  -0.000013   0.000174
    14  C   -0.000001   5.310624   0.341968  -0.058244   0.000882   0.000585
    15  C    0.000000   0.341968   4.881737   0.307332  -0.000078  -0.000033
    16  N    0.000000  -0.058244   0.307332   6.927250  -0.000009   0.000000
    17  H   -0.000013   0.000882  -0.000078  -0.000009   0.389500   0.003666
    18  H    0.000174   0.000585  -0.000033   0.000000   0.003666   0.541000
    19  H    0.000000   0.001360   0.000081   0.000001   0.000058  -0.000943
    20  H   -0.000908   0.000004   0.000000   0.000000   0.000090  -0.002067
    21  H   -0.004344  -0.000019   0.000000   0.000000   0.004257   0.005376
    22  H    0.004640  -0.000002   0.000000   0.000000  -0.000027   0.003043
    23  H   -0.059042   0.000000   0.000000   0.000000   0.000000   0.000000
    24  H    0.301930   0.000000   0.000000   0.000000   0.000005   0.000006
    25  H    0.000000   0.356934  -0.038395  -0.002224   0.003698  -0.000012
    26  H    0.000000   0.349006  -0.027804   0.005831   0.000105   0.000045
    27  H    0.000000  -0.030820   0.381444  -0.037084  -0.000008  -0.000002
    28  H    0.000000  -0.062500   0.380380  -0.047909   0.000004   0.000002
    29  H    0.000000   0.006130  -0.033030   0.313312   0.000000   0.000000
    30  H    0.000000  -0.004897  -0.034134   0.308287   0.000001   0.000000
              19         20         21         22         23         24
     1  O    0.071057   0.000002  -0.000010   0.000065   0.000000   0.000000
     2  C   -0.002202  -0.000028   0.000031   0.000256   0.000000   0.000000
     3  N   -0.010230   0.003735  -0.006740  -0.000349   0.000000  -0.000007
     4  C    0.012811  -0.035657  -0.031625   0.000793   0.000002  -0.000035
     5  C   -0.019697   0.000432  -0.005259   0.000003   0.000000  -0.000002
     6  O    0.195054   0.000187   0.000031   0.000002   0.000000   0.000000
     7  O    0.002827   0.008171   0.003331   0.000001   0.000000   0.000000
     8  C    0.000103   0.367664   0.353174  -0.001402  -0.000126  -0.002711
     9  C   -0.000038  -0.030293  -0.035209  -0.059220   0.003206  -0.028232
    10  C    0.000004  -0.000941   0.003448   0.382458   0.007121   0.008830
    11  N    0.000000  -0.000031  -0.000155  -0.041871  -0.038151   0.005341
    12  C    0.000000   0.000149   0.000052   0.007589   0.382516  -0.023583
    13  N    0.000000  -0.000908  -0.004344   0.004640  -0.059042   0.301930
    14  C    0.001360   0.000004  -0.000019  -0.000002   0.000000   0.000000
    15  C    0.000081   0.000000   0.000000   0.000000   0.000000   0.000000
    16  N    0.000001   0.000000   0.000000   0.000000   0.000000   0.000000
    17  H    0.000058   0.000090   0.004257  -0.000027   0.000000   0.000005
    18  H   -0.000943  -0.002067   0.005376   0.003043   0.000000   0.000006
    19  H    0.304305  -0.000006  -0.000031  -0.000008   0.000000   0.000000
    20  H   -0.000006   0.518056  -0.032197   0.000078   0.000003   0.000146
    21  H   -0.000031  -0.032197   0.592622  -0.000033  -0.000009   0.003058
    22  H   -0.000008   0.000078  -0.000033   0.564382  -0.000152  -0.000094
    23  H    0.000000   0.000003  -0.000009  -0.000152   0.547227   0.000493
    24  H    0.000000   0.000146   0.003058  -0.000094   0.000493   0.404076
    25  H   -0.000124   0.000000  -0.000001   0.000000   0.000000   0.000000
    26  H    0.000003   0.000000   0.000001   0.000009   0.000000   0.000000
    27  H   -0.000067   0.000000   0.000000   0.000000   0.000000   0.000000
    28  H    0.000036   0.000000   0.000000   0.000000   0.000000   0.000000
    29  H    0.000000   0.000000   0.000000   0.000000   0.000000   0.000000
    30  H    0.000000   0.000000   0.000000   0.000000   0.000000   0.000000
              25         26         27         28         29         30
     1  O    0.002774  -0.000652   0.008874   0.000308   0.000005   0.000000
     2  C   -0.039000  -0.015791  -0.005524   0.005831  -0.000178  -0.000281
     3  N    0.003341  -0.001227   0.000467   0.000069   0.000002   0.000003
     4  C    0.000314  -0.000256   0.000000  -0.000022   0.000000   0.000000
     5  C    0.000008   0.000000   0.000001   0.000004   0.000000   0.000000
     6  O    0.000015  -0.000001   0.000006   0.000003   0.000000   0.000000
     7  O    0.000000   0.000000   0.000000   0.000000   0.000000   0.000000
     8  C   -0.000039   0.000004   0.000000   0.000000   0.000000   0.000000
     9  C   -0.000002   0.000011   0.000000   0.000000   0.000000   0.000000
    10  C    0.000000   0.000023   0.000000   0.000000   0.000000   0.000000
    11  N    0.000000   0.000000   0.000000   0.000000   0.000000   0.000000
    12  C    0.000000   0.000000   0.000000   0.000000   0.000000   0.000000
    13  N    0.000000   0.000000   0.000000   0.000000   0.000000   0.000000
    14  C    0.356934   0.349006  -0.030820  -0.062500   0.006130  -0.004897
    15  C   -0.038395  -0.027804   0.381444   0.380380  -0.033030  -0.034134
    16  N   -0.002224   0.005831  -0.037084  -0.047909   0.313312   0.308287
    17  H    0.003698   0.000105  -0.000008   0.000004   0.000000   0.000001
    18  H   -0.000012   0.000045  -0.000002   0.000002   0.000000   0.000000
    19  H   -0.000124   0.000003  -0.000067   0.000036   0.000000   0.000000
    20  H    0.000000   0.000000   0.000000   0.000000   0.000000   0.000000
    21  H   -0.000001   0.000001   0.000000   0.000000   0.000000   0.000000
    22  H    0.000000   0.000009   0.000000   0.000000   0.000000   0.000000
    23  H    0.000000   0.000000   0.000000   0.000000   0.000000   0.000000
    24  H    0.000000   0.000000   0.000000   0.000000   0.000000   0.000000
    25  H    0.601996  -0.030819   0.005540  -0.005390  -0.000056   0.004669
    26  H   -0.030819   0.519313  -0.005928   0.006308  -0.000055  -0.000768
    27  H    0.005540  -0.005928   0.545944  -0.042086  -0.004021   0.005985
    28  H   -0.005390   0.006308  -0.042086   0.643393  -0.001834  -0.006044
    29  H   -0.000056  -0.000055  -0.004021  -0.001834   0.448279  -0.033496
    30  H    0.004669  -0.000768   0.005985  -0.006044  -0.033496   0.466662
 Mulliken charges:
               1
     1  O   -0.555674
     2  C    0.636408
     3  N   -0.590529
     4  C   -0.095237
     5  C    0.626281
     6  O   -0.594257
     7  O   -0.452177
     8  C   -0.383039
     9  C    0.325866
    10  C   -0.086080
    11  N   -0.427973
    12  C    0.209160
    13  N   -0.608007
    14  C   -0.353899
    15  C   -0.141494
    16  N   -0.720181
    17  H    0.338881
    18  H    0.200014
    19  H    0.445647
    20  H    0.203411
    21  H    0.150251
    22  H    0.139841
    23  H    0.156912
    24  H    0.330779
    25  H    0.136773
    26  H    0.202641
    27  H    0.177279
    28  H    0.129446
    29  H    0.304942
    30  H    0.294013
 Sum of Mulliken charges =   0.00000
 Mulliken charges with hydrogens summed into heavy atoms:
               1
     1  O   -0.555674
     2  C    0.636408
     3  N   -0.251647
     4  C    0.104777
     5  C    0.626281
     6  O   -0.148610
     7  O   -0.452177
     8  C   -0.029377
     9  C    0.325866
    10  C    0.053760
    11  N   -0.427973
    12  C    0.366073
    13  N   -0.277228
    14  C   -0.014485
    15  C    0.165232
    16  N   -0.121225
 APT charges:
               1
     1  O   -0.241680
     2  C    0.056615
     3  N   -0.518555
     4  C   -0.418778
     5  C   -0.621088
     6  O   -0.131572
     7  O    0.526067
     8  C   -1.073773
     9  C   -0.179751
    10  C   -0.352885
    11  N   -0.208313
    12  C   -0.373952
    13  N   -0.821150
    14  C   -0.555957
    15  C   -0.652829
    16  N   -1.680226
    17  H    0.473915
    18  H    0.372977
    19  H    0.305896
    20  H    0.660954
    21  H    0.353469
    22  H    0.259237
    23  H    1.003436
    24  H    0.762618
    25  H    0.295325
    26  H    0.398420
    27  H    0.441126
    28  H    0.381794
    29  H    1.025617
    30  H    0.513046
 Sum of APT charges =   0.00000
 APT charges with hydrogens summed into heavy atoms:
               1
     1  O   -0.241680
     2  C    0.056615
     3  N   -0.044639
     4  C   -0.045802
     5  C   -0.621088
     6  O    0.174323
     7  O    0.526067
     8  C   -0.059351
     9  C   -0.179751
    10  C   -0.093648
    11  N   -0.208313
    12  C    0.629484
    13  N   -0.058532
    14  C    0.137787
    15  C    0.170091
    16  N   -0.141563
 Electronic spatial extent (au):  <R**2>=           4807.2349
 Charge=              0.0000 electrons
 Dipole moment (field-independent basis, Debye):
    X=              3.0968    Y=              3.7389    Z=             -2.5563  Tot=              5.4868
 Quadrupole moment (field-independent basis, Debye-Ang):
   XX=            -88.2406   YY=           -112.4142   ZZ=            -90.0257
   XY=              4.1004   XZ=              9.9142   YZ=            -19.2071
 Traceless Quadrupole moment (field-independent basis, Debye-Ang):
   XX=              8.6529   YY=            -15.5207   ZZ=              6.8678
   XY=              4.1004   XZ=              9.9142   YZ=            -19.2071
 Octapole moment (field-independent basis, Debye-Ang**2):
  XXX=            197.4516  YYY=            108.4915  ZZZ=             13.6318  XYY=             23.7042
  XXY=             -8.8632  XXZ=             14.6264  XZZ=             13.5506  YZZ=             55.3753
  YYZ=             12.9653  XYZ=             14.8783
 Hexadecapole moment (field-independent basis, Debye-Ang**3):
 XXXX=          -2694.4882 YYYY=          -1987.2000 ZZZZ=          -1446.5328 XXXY=            439.1444
 XXXZ=           -559.7295 YYYX=            314.1382 YYYZ=           -230.9854 ZZZX=           -661.4957
 ZZZY=           -203.5551 XXYY=           -800.4117 XXZZ=           -592.2687 YYZZ=           -605.1437
 XXYZ=           -113.5029 YYXZ=           -216.3923 ZZXY=              1.7115
 N-N= 1.109688605622D+03 E-N=-4.075667930646D+03  KE= 7.891577754043D+02
  Exact polarizability:   0.000   0.000   0.000   0.000   0.000   0.000
 Approx polarizability: 140.090 -12.553 176.875   0.253  -7.663 211.811
 Calling FoFJK, ICntrl=    100147 FMM=F ISym2X=0 I1Cent= 0 IOpClX= 0 NMat=1 NMatS=1 NMatT=0.
 -------------------------------------------------------------------
 Center     Atomic                   Forces (Hartrees/Bohr)
 Number     Number              X              Y              Z
 -------------------------------------------------------------------
      1        8          -0.001131886   -0.010233095    0.008215826
      2        6           0.001194322    0.007252489   -0.003064392
      3        7          -0.004636343   -0.004494576   -0.001140167
      4        6          -0.002360113    0.002356424   -0.004960290
      5        6           0.004009338   -0.000440283    0.009888462
      6        8           0.001390201   -0.005833913   -0.003419678
      7        8          -0.002422970   -0.003685082   -0.013639720
      8        6          -0.005715957    0.002373311    0.002399766
      9        6           0.007243917   -0.004391270   -0.005831581
     10        6          -0.004560440    0.008159656    0.003465690
     11        7          -0.001695033   -0.000982689    0.004045170
     12        6          -0.002687458    0.001233354    0.004390898
     13        7           0.002559866   -0.001850130   -0.001039436
     14        6          -0.001080154   -0.000024695    0.000993431
     15        6           0.005531966    0.003448632    0.001973041
     16        7          -0.005403307    0.000956528    0.002537257
     17        1           0.001499084    0.004056732   -0.002931039
     18        1          -0.001236476   -0.000370815    0.003235441
     19        1          -0.000048217    0.003014589    0.007448376
     20        1           0.000027177   -0.004334859   -0.001034711
     21        1           0.003850481    0.000374492   -0.004937713
     22        1           0.000395248   -0.000604946    0.001288450
     23        1          -0.001513020    0.003864959   -0.001374662
     24        1           0.000592611    0.000238841   -0.004009696
     25        1           0.001981813    0.002870482   -0.002566267
     26        1          -0.000831881    0.002689515    0.001064144
     27        1          -0.000066837   -0.000825838    0.001352775
     28        1           0.000174124   -0.004470240   -0.001799468
     29        1           0.002428566   -0.001885287    0.003368789
     30        1           0.002511378    0.001537715   -0.003918696
 -------------------------------------------------------------------
 Cartesian Forces:  Max     0.013639720 RMS     0.003909863
 FormGI is forming the generalized inverse of G from B-inverse, IUseBI=4.
 GSVD:  received Info=                   1 from GESDD.

 GradGradGradGradGradGradGradGradGradGradGradGradGradGradGradGradGradGrad
 Berny optimization.
 Internal  Forces:  Max     0.014261272 RMS     0.002979573
 Search for a local minimum.
 Step number   1 out of a maximum of  160
 All quantities printed in internal units (Hartrees-Bohrs-Radians)
 Mixed Optimization -- RFO/linear search
 Second derivative matrix not updated -- analytic derivatives used.
 ITU=  0
     Eigenvalues ---   -0.00001   0.00074   0.00180   0.00242   0.00280
     Eigenvalues ---    0.00287   0.00472   0.00501   0.00925   0.01112
     Eigenvalues ---    0.01979   0.02141   0.02522   0.03299   0.03375
     Eigenvalues ---    0.03769   0.04006   0.04171   0.04445   0.04475
     Eigenvalues ---    0.04745   0.04921   0.05211   0.05271   0.05367
     Eigenvalues ---    0.06158   0.06666   0.07030   0.07823   0.08457
     Eigenvalues ---    0.08465   0.10456   0.10965   0.11167   0.11960
     Eigenvalues ---    0.12160   0.12387   0.13835   0.15475   0.16076
     Eigenvalues ---    0.17117   0.17820   0.19025   0.19480   0.20008
     Eigenvalues ---    0.21252   0.21623   0.22617   0.23493   0.23562
     Eigenvalues ---    0.24380   0.24869   0.27376   0.29569   0.30702
     Eigenvalues ---    0.31702   0.32289   0.33110   0.34075   0.34195
     Eigenvalues ---    0.34430   0.34698   0.34752   0.34857   0.35051
     Eigenvalues ---    0.35649   0.37062   0.38042   0.38507   0.38655
     Eigenvalues ---    0.42333   0.42498   0.45448   0.45454   0.45954
     Eigenvalues ---    0.47772   0.48580   0.48782   0.49313   0.51579
     Eigenvalues ---    0.59267   0.67740   0.83322   0.94458
 RFO step:  Lambda=-4.58491644D-03 EMin=-5.94457831D-06
 Linear search not attempted -- first point.
 Iteration  1 RMS(Cart)=  0.11953662 RMS(Int)=  0.00513717
 Iteration  2 RMS(Cart)=  0.00862669 RMS(Int)=  0.00007673
 Iteration  3 RMS(Cart)=  0.00004737 RMS(Int)=  0.00007372
 Iteration  4 RMS(Cart)=  0.00000000 RMS(Int)=  0.00007372
 Variable       Old X    -DE/DX   Delta X   Delta X   Delta X     New X
                                 (Linear)    (Quad)   (Total)
    R1        2.32689   0.01281   0.00000   0.01667   0.01667   2.34357
    R2        2.55249   0.00936   0.00000   0.01028   0.01028   2.56277
    R3        2.84691   0.00732   0.00000   0.01870   0.01870   2.86561
    R4        2.76559   0.00346   0.00000   0.00960   0.00960   2.77519
    R5        1.89852   0.00522   0.00000   0.01141   0.01141   1.90993
    R6        2.90505   0.00708   0.00000   0.02466   0.02466   2.92971
    R7        2.88017   0.00459   0.00000   0.01099   0.01099   2.89116
    R8        2.06327   0.00333   0.00000   0.01184   0.01184   2.07512
    R9        2.52649   0.00499   0.00000  -0.00146  -0.00146   2.52503
   R10        2.26968   0.01426   0.00000   0.01585   0.01585   2.28553
   R11        1.85437   0.00793   0.00000   0.02297   0.02297   1.87734
   R12        2.82850   0.00464   0.00000   0.00544   0.00544   2.83394
   R13        2.06160   0.00327   0.00000   0.00964   0.00964   2.07124
   R14        2.05991   0.00611   0.00000   0.01688   0.01688   2.07679
   R15        2.58110   0.00978   0.00000   0.01986   0.01986   2.60096
   R16        2.60947   0.00355   0.00000   0.00847   0.00852   2.61799
   R17        2.61455  -0.00106   0.00000  -0.00953  -0.00958   2.60498
   R18        2.04034   0.00141   0.00000   0.00439   0.00439   2.04473
   R19        2.47828   0.00166   0.00000   0.00355   0.00352   2.48180
   R20        2.56878   0.00888   0.00000   0.01586   0.01588   2.58466
   R21        2.03357   0.00435   0.00000   0.01078   0.01078   2.04435
   R22        1.90088   0.00402   0.00000   0.00839   0.00839   1.90927
   R23        2.87562   0.00621   0.00000   0.01972   0.01972   2.89535
   R24        2.06367   0.00411   0.00000   0.01169   0.01169   2.07536
   R25        2.06603   0.00286   0.00000   0.00808   0.00808   2.07411
   R26        2.77105   0.00074   0.00000  -0.00255  -0.00255   2.76850
   R27        2.06184   0.00145   0.00000   0.00450   0.00450   2.06634
   R28        2.07378   0.00428   0.00000   0.01283   0.01283   2.08661
   R29        1.91429   0.00451   0.00000   0.00971   0.00971   1.92399
   R30        1.91548   0.00490   0.00000   0.01083   0.01083   1.92630
    A1        2.10901   0.00137   0.00000   0.00493   0.00492   2.11394
    A2        2.14302  -0.00304   0.00000  -0.01385  -0.01385   2.12917
    A3        2.03098   0.00168   0.00000   0.00902   0.00901   2.04000
    A4        2.12095   0.00503   0.00000   0.01974   0.01940   2.14035
    A5        2.09200  -0.00233   0.00000  -0.01445  -0.01479   2.07721
    A6        2.06136  -0.00270   0.00000  -0.01148  -0.01183   2.04954
    A7        1.93840   0.00070   0.00000   0.00619   0.00619   1.94459
    A8        1.93120  -0.00090   0.00000  -0.00047  -0.00047   1.93073
    A9        1.87267  -0.00066   0.00000  -0.00826  -0.00825   1.86442
   A10        1.93336   0.00079   0.00000  -0.00273  -0.00273   1.93062
   A11        1.86974  -0.00046   0.00000   0.00000   0.00001   1.86975
   A12        1.91642   0.00052   0.00000   0.00519   0.00518   1.92161
   A13        1.99609   0.00173   0.00000   0.00965   0.00965   2.00574
   A14        2.15758  -0.00250   0.00000  -0.01785  -0.01786   2.13973
   A15        2.12950   0.00077   0.00000   0.00816   0.00815   2.13765
   A16        1.91934   0.00183   0.00000   0.00316   0.00316   1.92250
   A17        1.97644   0.00043   0.00000   0.00420   0.00425   1.98069
   A18        1.89597  -0.00293   0.00000  -0.02597  -0.02606   1.86991
   A19        1.90135   0.00041   0.00000  -0.00528  -0.00537   1.89598
   A20        1.92284   0.00289   0.00000   0.02749   0.02753   1.95038
   A21        1.92290  -0.00061   0.00000   0.00599   0.00597   1.92887
   A22        1.83903  -0.00029   0.00000  -0.00797  -0.00830   1.83073
   A23        2.33762   0.00070   0.00000   0.00025   0.00020   2.33782
   A24        2.11454   0.00314   0.00000   0.01210   0.01205   2.12659
   A25        1.83096  -0.00384   0.00000  -0.01244  -0.01238   1.81859
   A26        1.93095   0.00383   0.00000   0.01248   0.01248   1.94343
   A27        2.24409  -0.00201   0.00000  -0.01208  -0.01208   2.23201
   A28        2.10814  -0.00182   0.00000  -0.00040  -0.00040   2.10774
   A29        1.83770  -0.00091   0.00000  -0.00290  -0.00296   1.83474
   A30        1.94768   0.00099   0.00000   0.00161   0.00163   1.94931
   A31        2.20021  -0.00093   0.00000  -0.00109  -0.00110   2.19910
   A32        2.13529  -0.00007   0.00000  -0.00051  -0.00052   2.13477
   A33        1.87746  -0.00007   0.00000   0.00130   0.00123   1.87869
   A34        2.19363   0.00024   0.00000   0.00331   0.00310   2.19674
   A35        2.21207  -0.00017   0.00000  -0.00440  -0.00460   2.20747
   A36        1.95848   0.00008   0.00000   0.00013   0.00012   1.95860
   A37        1.91696   0.00085   0.00000   0.01045   0.01044   1.92740
   A38        1.88808   0.00002   0.00000  -0.00013  -0.00012   1.88796
   A39        1.93139  -0.00040   0.00000   0.00040   0.00037   1.93176
   A40        1.89544  -0.00008   0.00000  -0.00178  -0.00179   1.89365
   A41        1.87074  -0.00051   0.00000  -0.00975  -0.00976   1.86098
   A42        1.90536   0.00133   0.00000   0.00753   0.00746   1.91281
   A43        1.89372  -0.00004   0.00000  -0.00567  -0.00568   1.88804
   A44        1.91173  -0.00107   0.00000  -0.00497  -0.00516   1.90657
   A45        1.90259  -0.00129   0.00000  -0.00830  -0.00824   1.89435
   A46        1.97626   0.00135   0.00000   0.02076   0.02074   1.99701
   A47        1.87238  -0.00038   0.00000  -0.01069  -0.01070   1.86168
   A48        1.91889  -0.00058   0.00000  -0.00508  -0.00508   1.91381
   A49        1.91673  -0.00006   0.00000   0.00277   0.00277   1.91950
   A50        1.84682   0.00044   0.00000   0.00176   0.00177   1.84859
    D1        0.13135   0.00183   0.00000   0.05312   0.05310   0.18445
    D2        3.12748   0.00163   0.00000   0.00172   0.00178   3.12926
    D3       -2.99099   0.00105   0.00000   0.04753   0.04747  -2.94352
    D4        0.00514   0.00086   0.00000  -0.00387  -0.00385   0.00129
    D5        0.65326  -0.00053   0.00000  -0.01081  -0.01081   0.64245
    D6        2.80934  -0.00036   0.00000  -0.00258  -0.00256   2.80678
    D7       -1.43736  -0.00050   0.00000  -0.00859  -0.00858  -1.44594
    D8       -2.50800   0.00031   0.00000  -0.00486  -0.00489  -2.51289
    D9       -0.35193   0.00048   0.00000   0.00336   0.00336  -0.34856
   D10        1.68456   0.00034   0.00000  -0.00264  -0.00266   1.68190
   D11       -1.42733   0.00119   0.00000   0.04529   0.04528  -1.38205
   D12        2.70115   0.00033   0.00000   0.04476   0.04475   2.74590
   D13        0.61075   0.00063   0.00000   0.04379   0.04377   0.65452
   D14        1.85726   0.00136   0.00000   0.09612   0.09613   1.95339
   D15       -0.29744   0.00050   0.00000   0.09559   0.09560  -0.20184
   D16       -2.38785   0.00080   0.00000   0.09462   0.09462  -2.29323
   D17        1.04825   0.00061   0.00000   0.00804   0.00803   1.05627
   D18       -2.09900   0.00021   0.00000   0.00092   0.00094  -2.09806
   D19       -3.08148   0.00050   0.00000   0.00988   0.00986  -3.07162
   D20        0.05447   0.00010   0.00000   0.00276   0.00278   0.05724
   D21       -0.99163   0.00130   0.00000   0.01461   0.01459  -0.97704
   D22        2.14432   0.00089   0.00000   0.00749   0.00750   2.15182
   D23       -1.23396   0.00203   0.00000   0.11248   0.11246  -1.12150
   D24        2.90702   0.00017   0.00000   0.09329   0.09339   3.00041
   D25        0.91225   0.00185   0.00000   0.11919   0.11912   1.03137
   D26        2.89162   0.00122   0.00000   0.10681   0.10679   2.99841
   D27        0.74942  -0.00064   0.00000   0.08762   0.08772   0.83714
   D28       -1.24535   0.00104   0.00000   0.11353   0.11345  -1.13191
   D29        0.82997   0.00098   0.00000   0.10525   0.10522   0.93519
   D30       -1.31223  -0.00088   0.00000   0.08606   0.08616  -1.22607
   D31        2.97618   0.00080   0.00000   0.11196   0.11188   3.08806
   D32        0.01010   0.00049   0.00000  -0.03270  -0.03275  -0.02264
   D33       -3.12594   0.00090   0.00000  -0.02562  -0.02558   3.13167
   D34       -0.47110   0.00093   0.00000   0.07730   0.07725  -0.39385
   D35        2.68427   0.00108   0.00000   0.08817   0.08818   2.77245
   D36        1.65614  -0.00045   0.00000   0.06683   0.06678   1.72292
   D37       -1.47168  -0.00029   0.00000   0.07769   0.07771  -1.39397
   D38       -2.60535   0.00054   0.00000   0.07676   0.07676  -2.52859
   D39        0.55002   0.00069   0.00000   0.08762   0.08769   0.63771
   D40       -3.13537   0.00062   0.00000   0.01782   0.01783  -3.11754
   D41        0.00835   0.00034   0.00000   0.02036   0.02032   0.02867
   D42       -0.00598   0.00051   0.00000   0.00833   0.00838   0.00240
   D43        3.13774   0.00024   0.00000   0.01087   0.01088  -3.13457
   D44        3.13558  -0.00059   0.00000  -0.01764  -0.01764   3.11795
   D45       -0.01287   0.00000   0.00000   0.01384   0.01393   0.00106
   D46        0.00425  -0.00049   0.00000  -0.00959  -0.00955  -0.00530
   D47        3.13898   0.00010   0.00000   0.02190   0.02202  -3.12218
   D48        0.00540  -0.00035   0.00000  -0.00381  -0.00386   0.00154
   D49       -3.13813  -0.00010   0.00000  -0.00614  -0.00617   3.13888
   D50       -0.00257   0.00004   0.00000  -0.00250  -0.00249  -0.00506
   D51        3.13619   0.00006   0.00000   0.00214   0.00221   3.13840
   D52       -0.00106   0.00028   0.00000   0.00776   0.00781   0.00675
   D53       -3.13570  -0.00032   0.00000  -0.02419  -0.02405   3.12344
   D54       -3.13995   0.00026   0.00000   0.00333   0.00332  -3.13664
   D55        0.00859  -0.00034   0.00000  -0.02862  -0.02854  -0.01995
   D56       -3.09075   0.00128   0.00000   0.03063   0.03062  -3.06013
   D57       -1.01931   0.00048   0.00000   0.02167   0.02164  -0.99767
   D58        1.01946  -0.00058   0.00000   0.00290   0.00293   1.02239
   D59        1.04446   0.00042   0.00000   0.01670   0.01669   1.06116
   D60        3.11590  -0.00039   0.00000   0.00774   0.00772   3.12362
   D61       -1.12852  -0.00145   0.00000  -0.01103  -0.01099  -1.13951
   D62       -1.00442   0.00131   0.00000   0.02938   0.02936  -0.97506
   D63        1.06702   0.00051   0.00000   0.02041   0.02039   1.08740
   D64        3.10579  -0.00055   0.00000   0.00164   0.00168   3.10746
   D65        3.02936  -0.00040   0.00000  -0.02492  -0.02500   3.00436
   D66       -1.22858  -0.00023   0.00000  -0.02412  -0.02420  -1.25278
   D67        0.96346  -0.00038   0.00000  -0.01762  -0.01764   0.94582
   D68        2.98871  -0.00021   0.00000  -0.01682  -0.01684   2.97187
   D69       -1.11917   0.00012   0.00000  -0.01166  -0.01156  -1.13073
   D70        0.90608   0.00029   0.00000  -0.01086  -0.01077   0.89531
         Item               Value     Threshold  Converged?
 Maximum Force            0.014261     0.000450     NO 
 RMS     Force            0.002980     0.000300     NO 
 Maximum Displacement     0.578761     0.001800     NO 
 RMS     Displacement     0.122642     0.001200     NO 
 Predicted change in Energy=-2.741331D-03
 GradGradGradGradGradGradGradGradGradGradGradGradGradGradGradGradGradGrad

                          Input orientation:                          
 ---------------------------------------------------------------------
 Center     Atomic      Atomic             Coordinates (Angstroms)
 Number     Number       Type             X           Y           Z
 ---------------------------------------------------------------------
      1          8           0        0.600496   -1.588626    1.673734
      2          6           0        0.880422   -0.603844    0.973843
      3          7           0        0.326595   -0.435368   -0.252557
      4          6           0       -0.788788   -1.258348   -0.737646
      5          6           0       -0.296942   -2.641844   -1.235206
      6          8           0        0.312184   -3.388972   -0.309911
      7          8           0       -0.463609   -3.022788   -2.370934
      8          6           0       -1.555213   -0.529561   -1.843163
      9          6           0       -2.226756    0.727349   -1.376070
     10          6           0       -2.645338    1.187050   -0.148119
     11          7           0       -3.247610    2.422537   -0.253419
     12          6           0       -3.201578    2.718285   -1.532168
     13          7           0       -2.590931    1.732378   -2.257306
     14          6           0        1.836498    0.473338    1.448302
     15          6           0        2.997479   -0.101717    2.266178
     16          7           0        3.820623    0.992367    2.787446
     17          1           0        0.569043    0.384537   -0.791513
     18          1           0       -1.447593   -1.439314    0.122040
     19          1           0        0.358081   -2.896563    0.551693
     20          1           0       -2.274481   -1.242863   -2.261718
     21          1           0       -0.861057   -0.312103   -2.666958
     22          1           0       -2.544834    0.700437    0.813067
     23          1           0       -3.586161    3.619537   -1.990627
     24          1           0       -2.449370    1.722492   -3.257632
     25          1           0        2.212989    1.054386    0.595804
     26          1           0        1.276697    1.172790    2.082383
     27          1           0        2.578375   -0.654596    3.111358
     28          1           0        3.548502   -0.834231    1.650531
     29          1           0        4.512889    0.621384    3.435313
     30          1           0        4.349352    1.422172    2.029291
 ---------------------------------------------------------------------
                    Distance matrix (angstroms):
                    1          2          3          4          5
     1  O    0.000000
     2  C    1.240162   0.000000
     3  N    2.261774   1.356158   0.000000
     4  C    2.802489   2.478675   1.468566   0.000000
     5  C    3.221272   3.227929   2.494582   1.550336   0.000000
     6  O    2.694293   3.118951   2.954196   2.436115   1.336190
     7  O    4.421366   4.341111   3.436086   2.426236   1.209452
     8  C    4.258787   3.724695   2.465786   1.529937   2.532706
     9  C    4.760083   4.116882   3.022216   2.533442   3.885291
    10  C    4.643164   4.110607   3.387556   3.126387   4.621380
    11  N    5.883134   5.263630   4.576304   4.452998   5.942921
    12  C    6.578986   5.829181   4.902135   4.718732   6.103776
    13  N    6.055357   5.286638   4.150915   3.808087   5.043897
    14  C    2.414584   1.516415   2.449178   3.830043   4.632185
    15  C    2.882259   2.530651   3.686322   4.969564   5.437384
    16  N    4.274471   3.805500   4.846471   6.224039   6.807611
    17  H    3.157816   2.047031   1.010692   2.132059   3.178959
    18  H    2.573853   2.615957   2.072673   1.098104   2.147601
    19  H    1.740241   2.389060   2.589458   2.379381   1.920142
    20  H    4.885982   4.564056   3.384430   2.128455   2.630881
    21  H    4.754708   4.046392   2.693518   2.150080   2.792102
    22  H    3.984176   3.668702   3.266605   3.053727   4.518771
    23  H    7.621063   6.824617   5.896846   5.760991   7.112983
    24  H    6.677091   5.865555   4.625236   4.241847   5.269780
    25  H    3.278349   2.160642   2.549032   4.017149   4.828506
    26  H    2.872222   2.131273   2.990118   4.257842   5.294730
    27  H    2.617476   2.730310   4.053949   5.149479   5.577564
    28  H    3.043089   2.762180   3.763180   4.969442   5.136379
    29  H    4.826399   4.555748   5.678219   7.003910   7.456332
    30  H    4.821332   4.153576   4.983960   6.421963   6.982923
                    6          7          8          9         10
     6  O    0.000000
     7  O    2.232434   0.000000
     8  C    3.743563   2.772423   0.000000
     9  C    4.952475   4.261687   1.499656   0.000000
    10  C    5.450972   5.236754   2.647319   1.376371   0.000000
    11  N    6.815347   6.471947   3.755845   2.275115   1.378494
    12  C    7.151155   6.415600   3.654550   2.222267   2.137679
    13  N    6.200697   5.210568   2.522021   1.385382   2.179222
    14  C    4.509133   5.665682   4.831485   4.954960   4.810905
    15  C    4.965188   6.481866   6.147905   6.422301   6.271454
    16  N    6.410842   7.815689   7.256612   7.346828   7.103809
    17  H    3.812779   3.894972   2.540474   2.876755   3.374942
    18  H    2.661684   3.112962   2.168238   2.746972   2.899202
    19  H    0.993446   3.038562   3.872819   4.850814   5.117242
    20  H    3.886666   2.541519   1.096054   2.160645   3.241807
    21  H    4.049603   2.755614   1.098990   2.147554   3.431569
    22  H    5.113404   5.322760   3.089952   2.212288   1.082023
    23  H    8.193967   7.349520   4.621851   3.254292   3.193270
    24  H    6.514775   5.219881   2.805705   2.140127   3.161355
    25  H    4.916992   5.708683   4.759915   4.868940   4.916744
    26  H    5.240518   6.361098   5.131045   4.943025   4.511952
    27  H    4.931280   6.702054   6.453640   6.718338   6.426744
    28  H    4.565500   6.087610   6.192466   6.704659   6.759023
    29  H    6.910541   8.471011   8.124583   8.281512   8.025035
    30  H    6.702067   7.892036   7.325916   7.438041   7.329536
                   11         12         13         14         15
    11  N    0.000000
    12  C    1.313310   0.000000
    13  N    2.218808   1.367746   0.000000
    14  C    5.704681   6.269385   5.909216   0.000000
    15  C    7.191756   7.797958   7.419982   1.532151   0.000000
    16  N    7.826376   8.423132   8.191774   2.449378   1.465028
    17  H    4.360026   4.495835   3.735059   2.575092   3.934872
    18  H    4.277257   4.806090   4.126516   4.025229   5.113234
    19  H    6.476267   6.967077   6.165569   3.787592   4.209162
    20  H    4.291317   4.133091   2.992025   5.797390   7.042557
    21  H    4.358791   3.993625   2.709277   4.982879   6.266450
    22  H    2.144042   3.162776   3.239478   4.432964   5.785517
    23  H    2.136661   1.081825   2.150109   7.150527   8.678274
    24  H    3.186306   2.129471   1.010341   6.486514   7.969214
    25  H    5.693080   6.050980   5.628282   1.098232   2.177647
    26  H    5.242823   5.958899   5.839913   1.097574   2.149241
    27  H    7.398147   8.145337   7.825722   2.142049   1.093459
    28  H    7.772947   8.265200   7.716950   2.163699   1.104185
    29  H    8.779307   9.412006   9.170850   3.336645   2.046025
    30  H    7.995331   8.448695   8.163251   2.748139   2.050833
                   16         17         18         19         20
    16  N    0.000000
    17  H    4.873518   0.000000
    18  H    6.385262   2.868420   0.000000
    19  H    5.666707   3.551665   2.359796   0.000000
    20  H    8.224390   3.591039   2.530738   4.192897   0.000000
    21  H    7.305497   2.459225   3.064822   4.304119   1.740201
    22  H    6.671015   3.517201   2.501998   4.629648   3.647439
    23  H    9.197416   5.400817   5.884625   8.029944   5.043503
    24  H    8.740072   4.121005   4.735267   6.612746   3.133011
    25  H    2.718755   2.252977   4.454532   4.364931   5.794840
    26  H    2.645983   3.062906   4.252974   4.443703   6.108801
    27  H    2.088202   4.511055   5.075454   4.063005   7.264036
    28  H    2.168660   4.040563   5.259599   3.954674   7.027076
    29  H    1.018132   5.785851   7.124016   6.160653   9.055383
    30  H    1.019356   4.829530   6.740199   6.063416   8.330086
                   21         22         23         24         25
    21  H    0.000000
    22  H    3.996363   0.000000
    23  H    4.831295   4.179260   0.000000
    24  H    2.647869   4.198131   2.548799   0.000000
    25  H    4.686434   4.775915   6.848341   6.085469   0.000000
    26  H    5.415823   4.054427   6.798777   6.534639   1.760846
    27  H    6.733196   5.776290   9.071934   8.455342   3.063027
    28  H    6.193346   6.339188   9.165015   8.160966   2.542227
    29  H    8.184644   7.529534  10.199234   9.720134   3.679652
    30  H    7.225706   7.037748   9.162998   8.617678   2.598884
                   26         27         28         29         30
    26  H    0.000000
    27  H    2.468298   0.000000
    28  H    3.061981   1.762791   0.000000
    29  H    3.550691   2.339961   2.496859   0.000000
    30  H    3.083216   2.936017   2.424082   1.626317   0.000000
 Symmetry turned off by external request.
 Stoichiometry    C9H14N4O3
 Framework group  C1[X(C9H14N4O3)]
 Deg. of freedom    84
 Full point group                 C1      NOp   1
 Rotational constants (GHZ):      0.5881474      0.3196278      0.2252378
 Standard basis: 6-31G(d) (6D, 7F)
   268 basis functions,   504 primitive gaussians,   268 cartesian basis functions
    60 alpha electrons       60 beta electrons
       nuclear repulsion energy      1106.0448766661 Hartrees.
 NAtoms=   30 NActive=   30 NUniq=   30 SFac= 1.00D+00 NAtFMM=   60 NAOKFM=F Big=F
 Integral buffers will be    131072 words long.
 Raffenetti 2 integral format.
 Two-electron integral symmetry is turned off.
 One-electron integrals computed using PRISM.
 NBasis=   268 RedAO= T EigKep=  1.17D-03  NBF=   268
 NBsUse=   268 1.00D-06 EigRej= -1.00D+00 NBFU=   268
 Initial guess from the checkpoint file:  "conf-273.chk"
 B after Tr=     0.034839   -0.016226   -0.014202
         Rot=    0.999990   -0.001573    0.001062    0.004090 Ang=  -0.52 deg.
 ExpMin= 1.61D-01 ExpMax= 5.48D+03 ExpMxC= 8.25D+02 IAcc=2 IRadAn=         4 AccDes= 0.00D+00
 Harris functional with IExCor=  402 and IRadAn=       4 diagonalized for initial guess.
 HarFok:  IExCor=  402 AccDes= 0.00D+00 IRadAn=         4 IDoV= 1 UseB2=F ITyADJ=14
 ICtDFT=  3500011 ScaDFX=  1.000000  1.000000  1.000000  1.000000
 FoFCou: FMM=F IPFlag=           0 FMFlag=      100000 FMFlg1=           0
         NFxFlg=           0 DoJE=T BraDBF=F KetDBF=T FulRan=T
         wScrn=  0.000000 ICntrl=     500 IOpCl=  0 I1Cent=   200000004 NGrid=           0
         NMat0=    1 NMatS0=      1 NMatT0=    0 NMatD0=    1 NMtDS0=    0 NMtDT0=    0
 Symmetry not used in FoFCou.
[...]
 -0.00014643,-0.00013035,0.00016643,-0.00016325,0.00078476,0.00325800,-
 0.00681012,-0.00921492,-0.00091537,0.00109938,-0.00170408,0.00028757,-
 0.00197973,-0.00008354,-0.00213246,0.00429977,-0.00689647,-0.02382551,
 -0.04796905,-0.44637175,0.00001747,-0.00000517,0.00003502,-0.00005054,
 0.00001233,-0.00002071,0.00002927,0.00000994,0.00002731,-0.00010121,0.
 00003360,-0.00001455,0.00002679,-0.00001024,0.00002625,-0.00002989,0.0
 0004551,-0.00002389,-0.00010512,0.00026317,0.00010313,-0.00011575,0.00
 035272,0.00013312,-0.00003660,-0.00044209,-0.00009575,0.00026135,-0.00
 015238,0.00015951,0.02311401,0.05168329,0.46326956,-0.00109453,-0.0053
 1103,-0.00280041,-0.00456796,-0.00706947,0.01906823,0.00028025,0.00026
 650,-0.00139653,0.00013941,0.00022447,0.00019893,0.00043817,-0.0003775
 7,0.00052187,-0.00033271,-0.00009143,-0.00088600,-0.00014652,0.0000768
 1,-0.00030118,0.00005657,0.00000088,-0.00000117,0.00002030,-0.00002661
 ,-0.00008024,0.00007166,0.00000789,0.00006525,0.00001511,0.00007028,-0
 .00001200,-0.00002673,0.00001984,-0.00001829,0.00001077,0.00002026,0.0
 0002141,-0.07444873,-0.04625941,0.05412755,0.00893143,0.01726064,-0.02
 238805,0.00187207,0.00054025,0.00127328,-0.00125263,-0.00068287,-0.001
 20219,0.00006135,0.00002144,0.00005878,0.00016991,0.00073416,0.0009595
 9,0.00001163,0.00000055,0.00001517,-0.00001832,-0.00000664,-0.00002021
 ,-0.00001418,-0.00004360,0.00002434,-0.00000637,0.00000011,0.00000023,
 -0.00001381,-0.00001449,-0.00000548,0.07879059,-0.00416536,-0.00480289
 ,-0.00318931,-0.00408561,-0.01497358,0.02261286,0.00186567,0.00103874,
 -0.00080285,0.00004806,-0.00003180,-0.00039469,0.00037411,-0.00047347,
 0.00053408,-0.00023373,-0.00005010,-0.00088811,-0.00011711,0.00010224,
 -0.00029246,0.00002159,0.00004172,0.00001107,0.00000685,0.00002170,-0.
 00000271,0.00000693,0.00001806,0.00001978,0.00000282,-0.00001355,-0.00
 001450,-0.00000425,0.00000142,0.00001359,0.00000757,0.00000736,-0.0000
 2216,-0.04692947,-0.13839599,0.11148847,-0.00389004,-0.00768628,0.0093
 1064,0.00008135,0.00083252,-0.00102022,-0.00150865,0.00056748,-0.00055
 813,0.00021356,0.00012037,0.00011686,-0.00002331,0.00066977,0.00098153
 ,0.00002408,-0.00001886,0.00001205,-0.00002285,-0.00001295,-0.00003528
 ,-0.00000573,-0.00000454,-0.00000147,-0.00000089,-0.00000062,0.0000009
 0,-0.00001301,-0.00000134,-0.00000176,0.05111104,0.15064932,-0.0012031
 6,-0.00362251,0.00016543,-0.00465313,-0.00745472,0.00861679,-0.0005061
 3,-0.00065150,-0.00038314,0.00025997,0.00004234,0.00067691,0.00002085,
 0.00000322,-0.00006611,0.00003121,-0.00005491,-0.00010085,-0.00000061,
 0.00000258,0.00004973,0.00006747,0.00010852,0.00000533,-0.00001315,0.0
 0002197,0.00003947,-0.00007008,0.00001303,-0.00005142,-0.00001656,-0.0
 0005502,0.00001353,0.00001453,-0.00001375,0.00001022,-0.00001348,-0.00
 000462,-0.00000929,0.05715595,0.11461200,-0.19083614,0.00528301,0.0102
 5426,-0.01322268,0.00069356,-0.00054229,0.00112874,-0.00027075,-0.0005
 1298,0.00020913,-0.00008468,-0.00010618,0.00001328,-0.00005558,0.00010
 852,0.00020232,0.00001578,-0.00002743,0.00002624,0.00000438,-0.0000008
 5,0.00001141,0.00000930,0.00001965,-0.00002223,0.00000671,0.00000066,0
 .00000088,0.00001206,0.00001081,0.00000302,-0.05804512,-0.12523635,0.2
 0822635,-0.00184655,0.00025318,0.00134089,0.01403799,-0.01168782,-0.01
 444018,-0.00182399,-0.00038002,-0.00047573,-0.00078207,0.00070715,0.00
 041274,0.00001707,0.00039743,0.00024799,0.00004899,-0.00009403,0.00005
 757,0.00000223,-0.00009741,-0.00013926,-0.00016178,-0.00023471,0.00001
 101,0.00005602,-0.00012490,-0.00009797,0.00002009,0.00010558,-0.000136
 96,0.00000908,0.00004667,0.00004755,-0.00001597,0.00002560,0.00002754,
 0.00001280,-0.00002866,0.00013410,-0.11968392,0.07336247,0.08961002,-0
 .01790691,0.01739170,0.01707815,0.00257538,-0.00092339,0.00115485,0.00
 003111,-0.00019656,-0.00041848,-0.00016407,-0.00010318,-0.00013075,-0.
 00006544,0.00011263,-0.00001492,-0.00004717,0.00008293,-0.00008342,0.0
 0001065,0.00002877,0.00000095,-0.00007158,-0.00006777,0.00001919,-0.00
 000232,0.00000122,0.00001181,0.00000431,-0.00002059,0.00000338,-0.0055
 1685,0.00533602,0.00644860,0.13321344,-0.00333237,0.00085557,0.0018492
 4,0.01428672,-0.01506836,-0.01661341,-0.00111532,-0.00032206,0.0007307
 1,-0.00049525,0.00026902,-0.00013895,0.00003355,0.00020911,0.00012145,
 0.00002525,0.00001536,0.00012003,-0.00000831,-0.00003568,-0.00004122,-
 0.00012819,-0.00013490,0.00002027,0.00001981,-0.00006551,-0.00003296,-
 0.00004240,0.00008549,-0.00014370,-0.00001090,-0.00002434,0.00004165,0
 .00000350,-0.00000280,0.00002288,0.00000678,0.00000283,0.00006225,0.07
 741809,-0.12672813,-0.09271969,0.01010916,-0.00880644,-0.00765260,-0.0
 0180748,0.00108019,0.00007620,-0.00013113,-0.00006592,-0.00016584,-0.0
 0001234,-0.00001633,-0.00012242,-0.00007248,-0.00002587,-0.00006196,-0
 .00002784,0.00004672,-0.00004709,0.00000042,0.00001080,-0.00000550,-0.
 00006270,0.00000026,-0.00000463,0.00000216,0.00000136,0.00000899,0.000
 00609,-0.00000894,0.00000159,-0.01100816,0.01218861,0.01337777,-0.0850
 3231,0.13681586,-0.00009331,0.00126182,0.00030121,0.00516059,-0.006789
 94,-0.00930709,-0.00187396,-0.00091933,0.00036124,-0.00060157,0.000305
 99,0.00030895,-0.00000339,0.00030325,0.00000783,0.00007733,-0.00000982
 ,0.00016383,-0.00000712,-0.00004349,0.00000166,-0.00006290,-0.00017892
 ,-0.00001282,0.00003687,-0.00010677,-0.00016438,0.00007634,0.00013860,
 -0.00014457,0.00003714,0.00008542,0.00006108,-0.00001961,0.00001637,0.
 00000801,0.00002143,-0.00003402,0.00018448,0.09352833,-0.09167644,-0.1
 5247368,-0.01096424,0.01017243,0.01077987,0.00105333,0.00042302,0.0004
 8849,0.00074631,-0.00041409,-0.00055560,-0.00018724,-0.00012496,-0.000
 16105,-0.00011066,-0.00012032,-0.00016279,-0.00003976,0.00007058,-0.00
 003460,-0.00000123,0.00002698,0.00001638,-0.00015854,-0.00011488,0.000
 07442,-0.00000274,-0.00000181,0.00001488,0.00000410,-0.00002273,-0.000
 00816,0.01271554,-0.01332263,-0.01539198,-0.09667887,0.10017470,0.1654
 5393,-0.00111814,-0.00081127,0.00069193,0.00104895,0.00123408,-0.00153
 350,0.00008721,-0.00046936,0.00070023,-0.00005393,-0.00013755,-0.00000
 537,-0.00010941,0.00005253,-0.00016862,0.00006299,0.00009122,0.0002393
 9,0.00003291,0.00000120,0.00009380,-0.00000066,0.00002539,0.00000251,-
 0.00000720,0.00001532,0.00001723,-0.00002208,0.00000207,-0.00001876,-0
 .00000032,-0.00002483,0.00000709,0.00000930,-0.00001107,0.00000387,-0.
 00000192,-0.00000619,-0.00000280,0.00820455,0.01738639,-0.02150953,-0.
 07880313,-0.04963207,0.06700103,-0.00786015,-0.01476303,0.01154607,0.0
 0037866,0.00015544,0.00028355,-0.00003183,-0.00001658,-0.00001821,-0.0
 0000521,-0.00030814,-0.00023999,0.00000450,-0.00000621,0.00000433,0.00
 000508,-0.00000141,0.00000728,0.00000580,0.00001384,-0.00000393,0.0000
 0215,-0.00000090,0.00000063,0.00000360,0.00000576,-0.00000096,-0.00467
 729,0.00186649,-0.00361991,0.00156099,-0.00013702,0.00051926,0.0882532
 2,-0.00092236,-0.00023292,-0.00144591,-0.00042300,-0.00068462,-0.00009
 769,0.00007796,-0.00009645,0.00042755,-0.00008423,-0.00001658,-0.00001
 885,0.00001913,-0.00000493,-0.00005948,0.00001422,-0.00000920,0.000045
 57,-0.00000290,0.00001486,0.00004959,0.00000631,0.00000707,-0.00000651
 ,0.00000016,0.00001014,-0.00000129,0.00001243,-0.00000230,0.00001944,0
 .00000822,0.00000190,-0.00001080,-0.00000050,-0.00000274,0.00000435,0.
 00000460,-0.00000106,-0.00001505,-0.00152651,-0.00721850,0.01083761,-0
 .04937615,-0.14129663,0.11147435,-0.01074910,-0.02026362,0.01789919,-0
 .00000311,0.00008753,-0.00005130,0.00000793,0.00001998,-0.00001713,-0.
 00003393,-0.00000251,-0.00006270,0.00000568,-0.00000325,0.00000510,-0.
 00000045,-0.00000299,-0.00000496,-0.00000634,0.00000008,0.00001103,-0.
 00000177,-0.00000086,-0.00000038,-0.00000473,-0.00000026,-0.00000200,0
 .00160625,-0.00029229,0.00073883,-0.00055692,0.00016490,-0.00003972,0.
 05900445,0.15994473,0.00088114,-0.00167659,0.00220725,0.00111106,0.003
 80682,-0.00216130,-0.00013453,-0.00058583,0.00083713,0.00000250,-0.000
 11030,-0.00008968,-0.00015418,0.00014729,-0.00029781,0.00011123,0.0000
 1043,0.00034221,0.00004343,-0.00002255,0.00015798,-0.00002446,0.000005
 56,-0.00000168,-0.00000865,0.00002031,0.00002095,-0.00001873,-0.000004
 29,-0.00000336,-0.00000428,-0.00002400,-0.00000041,0.00001026,-0.00001
 283,0.00000636,-0.00000410,-0.00000847,-0.00001346,0.00381008,0.009344
 75,-0.01372502,0.06785900,0.11767347,-0.19979425,-0.00672344,-0.012373
 66,0.01388939,0.00021339,-0.00002968,0.00024625,-0.00004505,-0.0000045
 9,-0.00002173,-0.00004527,-0.00027012,-0.00032368,-0.00000201,-0.00000
 362,-0.00000029,0.00001243,-0.00000566,0.00001527,0.00001035,0.0000182
 6,-0.00000066,0.00000294,-0.00000056,-0.00000039,0.00000687,0.00000786
 ,-0.00000132,-0.00333346,0.00079505,-0.00035357,-0.00007378,-0.0004706
 6,0.00119915,-0.06809909,-0.12384733,0.21130536,0.00036887,-0.00166139
 ,-0.00002359,0.00063103,0.00334790,0.00108031,-0.00018553,-0.00062339,
 -0.00080058,0.00002722,0.00006978,0.00003718,-0.00025377,0.00028818,-0
 .00006418,0.00024339,-0.00018830,0.00000306,0.00008546,-0.00010394,-0.
 00002619,-0.00004219,-0.00003060,0.00000865,-0.00000180,0.00001500,0.0
 0005766,-0.00000959,-0.00005483,0.00006019,-0.00002243,-0.00001199,-0.
 00003863,0.00000237,0.00000624,0.00000517,-0.00001155,0.00000965,-0.00
 007465,-0.01782378,0.01329204,0.01586626,-0.13180488,0.07075798,0.0836
 8526,0.01221007,-0.01567592,-0.01564283,-0.00005196,0.00006306,0.00022
 044,-0.00002968,-0.00000837,-0.00000594,-0.00020981,0.00013216,0.00012
 622,-0.00001585,0.00000433,-0.00001889,0.00000872,0.00000822,-0.000005
 59,0.00004551,0.00003047,-0.00001583,-0.00000034,0.00000266,-0.0000069
 2,-0.00000019,0.00000520,0.00000991,0.00138549,-0.00033783,-0.00033592
 ,-0.00394840,0.00193144,-0.00340890,-0.00561256,0.00596883,0.00670126,
 0.14207508,0.00010245,0.00062613,-0.00024753,-0.00024328,-0.00109524,-
 0.00004543,0.00001532,0.00034982,0.00041156,0.00001946,-0.00000194,0.0
 0004407,0.00014745,-0.00012465,0.00002446,-0.00012590,0.00006274,-0.00
 001157,-0.00005881,0.00004408,0.00001290,0.00002681,0.00000793,-0.0000
 0818,-0.00000335,-0.00001465,-0.00002881,0.00000780,0.00001322,-0.0000
 2446,0.00000686,0.00002372,0.00002498,-0.00000143,-0.00000233,-0.00001
 621,-0.00000081,0.00000097,0.00004578,0.01009546,-0.00535559,-0.006281
 28,0.07253746,-0.11798469,-0.07266571,0.00472706,-0.02278992,-0.022316
 97,0.00012313,-0.00006161,-0.00012745,0.00000280,-0.00000582,0.0000136
 2,0.00008112,-0.00002184,-0.00004878,0.00000362,0.00000120,0.00000842,
 -0.00000278,-0.00000158,0.00000970,-0.00001519,-0.00001762,0.00000384,
 -0.00000048,-0.00000090,0.00000130,0.00000531,-0.00000467,-0.00000319,
 -0.00061347,0.00006079,-0.00055162,0.00158975,-0.00025659,0.00086236,-
 0.01051663,0.01194007,0.01105128,-0.07849689,0.13302318,-0.00019564,0.
 00041193,0.00033144,0.00043515,0.00013368,0.00104414,0.00025848,0.0000
 4880,-0.00018838,0.00003854,0.00007074,0.00002477,0.00012716,-0.000126
 49,0.00013181,-0.00015707,0.00009868,-0.00006223,-0.00004605,0.0000274
 3,-0.00005891,0.00000408,0.00000596,0.00000998,-0.00000193,-0.00000698
 ,0.00000472,-0.00000410,-0.00002393,0.00001534,-0.00000771,0.00001646,
 0.00000356,-0.00000190,0.00000391,-0.00001573,-0.00000501,0.00001316,-
 0.00000030,-0.01173579,0.00984994,0.00995728,0.08622863,-0.07253047,-0
 .14230202,0.00076623,-0.01588285,-0.00879613,-0.00001040,-0.00001784,0
 .00000329,0.00000030,-0.00000197,0.00001849,0.00014047,-0.00005612,-0.
 00000660,0.00000170,0.00000073,-0.00000149,-0.00000014,-0.00000252,0.0
 0000187,0.00002494,0.00000739,-0.00001239,-0.00000164,0.00000075,-0.00
 000280,0.00000133,-0.00000368,0.00000221,0.00082827,-0.00036888,0.0010
 8355,-0.00387185,0.00144935,-0.00098855,0.01561132,-0.01351089,-0.0148
 1696,-0.08724685,0.08933056,0.15349163,-0.00007179,-0.00068606,0.00030
 026,-0.00029281,0.00212432,-0.00115641,-0.00064653,-0.00077028,-0.0004
 6001,0.00017083,0.00010546,-0.00010368,-0.00008534,0.00016052,0.000154
 91,-0.00001181,-0.00012152,-0.00010199,0.00001168,-0.00009463,-0.00015
 178,-0.00003405,-0.00008652,0.00000725,0.00000213,-0.00003441,0.000009
 11,-0.00000779,-0.00002647,-0.00000057,-0.00002844,0.00002800,0.000003
 17,-0.00000566,0.00001776,-0.00001599,-0.00001516,0.00001504,0.0000093
 3,-0.00273678,-0.00579185,-0.00183222,-0.01451429,0.01400699,-0.006817
 65,-0.22757227,0.07937635,-0.18934748,0.00001461,-0.00005389,0.0001088
 8,-0.00001790,-0.00001935,0.00000654,0.00003018,0.00019443,0.00011891,
 -0.00002961,0.00002437,-0.00003022,0.00000277,0.00001217,0.00000608,0.
 00002560,0.00000021,-0.00002447,0.00000013,0.00000400,-0.00000368,0.00
 000940,-0.00000593,0.00001015,0.00027655,0.00006795,0.00004855,0.00055
 663,-0.00030175,0.00009814,0.00007647,-0.00012325,0.00054323,0.0013235
 4,0.00011922,0.00028016,0.23073295,0.00021523,-0.00007099,0.00011083,-
 0.00104080,0.00118780,-0.00056218,-0.00013413,-0.00032348,-0.00013273,
 0.00004501,-0.00005149,-0.00010459,-0.00008546,0.00006629,-0.00004458,
 0.00005536,-0.00004267,0.00003573,0.00002869,-0.00002207,0.00000460,-0
 .00000912,-0.00001687,-0.00000145,0.00000400,-0.00000020,-0.00000259,0
 .00000410,0.00000453,0.00000014,0.00000749,-0.00000050,-0.00000048,-0.
 00000344,0.00000428,-0.00000010,0.00000469,-0.00000148,0.00000128,-0.0
 0193522,-0.00403861,-0.00170289,-0.02430700,0.00764033,-0.02468772,0.0
 8812460,-0.10071256,0.11802909,-0.00005675,-0.00001709,0.00005464,0.00
 000295,0.00000850,0.00000121,-0.00002421,0.00001936,-0.00001229,-0.000
 00418,0.00000323,-0.00000441,-0.00000003,-0.00000005,-0.00000198,-0.00
 000360,-0.00000328,0.00000145,-0.00000089,-0.00000031,0.00000103,-0.00
 000516,-0.00000060,-0.00000148,0.00011858,-0.00002114,-0.00029661,-0.0
 0003962,-0.00012465,0.00031565,0.00004022,0.00115455,0.00051653,-0.000
 11167,0.00009855,-0.00034988,-0.08016491,0.10404287,0.00022886,-0.0000
 9207,0.00000501,-0.00049394,0.00057252,0.00017152,0.00006930,0.0000087
 4,0.00009391,-0.00001555,-0.00001675,-0.00001578,-0.00003324,0.0000013
 1,-0.00006207,0.00005673,0.00000044,0.00002514,0.00002062,0.00000997,0
 .00003810,-0.00000283,0.00000837,-0.00000354,0.00000276,0.00001198,-0.
 00000066,0.00000533,0.00001171,0.00000182,0.00001304,-0.00001201,-0.00
 000734,-0.00000015,-0.00000235,0.00001061,0.00000833,-0.00000657,-0.00
 000969,0.00003413,-0.00290286,0.00009374,-0.01224361,0.00436733,-0.011
 27150,-0.14519125,0.08699928,-0.16897600,-0.00003838,0.00001913,-0.000
 01511,0.00000873,0.00000805,-0.00000168,-0.00004491,-0.00002359,-0.000
 00296,0.00000572,-0.00000472,0.00000475,-0.00000010,-0.00000269,-0.000
 00458,-0.00001227,-0.00000129,0.00000977,-0.00000084,-0.00000131,0.000
 00182,-0.00000750,0.00000148,-0.00000276,0.00029345,-0.00016241,0.0002
 3729,-0.00011309,0.00009388,0.00015773,0.00069066,0.00043557,0.0012571
 0,0.00035767,0.00070350,-0.00030883,0.17929449,-0.10161985,0.19815170,
 -0.00004592,0.00091577,-0.00047507,-0.00018377,-0.00098427,-0.00030716
 ,-0.00000303,0.00012593,-0.00003885,-0.00003837,-0.00000299,-0.0000214
 8,0.00008156,-0.00010831,0.00003774,-0.00006658,0.00007863,-0.00002156
 ,-0.00002728,0.00004466,-0.00000205,0.00001010,-0.00000627,-0.00000011
 ,0.00000499,-0.00000988,-0.00002373,0.00002154,0.00000385,0.00000455,0
 .00002158,0.00002802,0.00001336,-0.00000845,0.00000488,-0.00002002,0.0
 0001002,0.00000895,0.00002322,0.00021825,-0.00098496,0.00186093,-0.009
 93027,-0.00463192,0.01845084,-0.13896791,-0.12378417,0.12443930,-0.000
 07639,-0.00003775,-0.00006370,0.00001496,0.00001150,0.00000313,0.00003
 532,-0.00005398,-0.00002372,0.00000481,0.00000467,0.00000263,-0.000005
 33,-0.00000313,-0.00000589,-0.00001376,-0.00001609,0.00000480,-0.00000
 517,-0.00000200,0.00000040,-0.00001104,-0.00000815,-0.00000510,-0.0004
 1464,0.00030376,-0.00118368,-0.00011977,-0.00011704,0.00013933,-0.0014
 3258,-0.00292095,-0.00264815,0.00161756,0.00046795,-0.00146070,0.01283
 678,0.01927527,-0.02289217,0.13647277,-0.00012203,0.00014526,-0.000262
 21,-0.00015461,-0.00049109,0.00012771,0.00011294,0.00003183,-0.0000606
 2,-0.00002982,-0.00000654,0.00000102,-0.00006183,0.00005421,-0.0000405
 6,0.00007428,-0.00003690,0.00002024,0.00003143,-0.00001411,0.00002246,
 -0.00000751,0.00001327,-0.00000157,0.00000090,0.00001444,0.00001179,-0
 .00001037,0.00000880,-0.00000182,-0.00000588,-0.00003131,-0.00001214,0
 .00000487,-0.00000459,0.00002108,-0.00000035,-0.00001073,-0.00002029,0
 .00091672,0.00094399,-0.00009718,-0.01750693,-0.02105025,0.02235599,-0
 .08548194,-0.11648082,0.11691095,-0.00004142,0.00006497,0.00001068,0.0
 0000710,0.00000428,0.00000103,-0.00004871,0.00001388,0.00001730,0.0000
 0269,-0.00000682,0.00000113,0.00000050,0.00000041,-0.00000417,0.000000
 82,0.00000818,0.00000430,0.00000408,0.00000050,0.00000162,0.00000166,0
 .00000776,0.00000039,-0.00057520,0.00045928,-0.00018280,0.00014677,-0.
 00005956,-0.00023729,-0.00305217,-0.00321411,-0.00394683,0.00137199,0.
 00148723,0.00141303,-0.00797599,-0.00878226,0.01159521,0.11239802,0.14
 693078,-0.00017799,0.00014406,-0.00020933,0.00003754,-0.00031581,0.000
 07641,0.00010198,0.00008106,-0.00000703,-0.00005168,-0.00002278,-0.000
 01331,-0.00000359,-0.00002709,-0.00004358,0.00002428,0.00001158,0.0000
 2059,0.00000922,0.00002208,0.00003847,-0.00000148,0.00001541,-0.000000
 72,0.00000345,0.00000996,-0.00000220,-0.00000096,0.00001324,-0.0000021
 9,0.00000698,-0.00001786,-0.00000247,0.00000055,-0.00000303,0.00001021
 ,0.00000739,-0.00000581,-0.00000597,0.00053638,-0.00047032,0.00150413,
 -0.00972698,-0.01519991,0.01154438,0.10837340,0.15539990,-0.24053769,-
 0.00006503,0.00002123,-0.00002016,0.00001103,0.00000974,0.00000172,-0.
 00002359,-0.00002385,-0.00001695,0.00000747,-0.00000555,0.00000406,-0.
 00000175,-0.00000402,-0.00000560,-0.00000600,0.00000143,0.00000655,0.0
 0000079,-0.00000098,0.00000218,-0.00000546,0.00000278,-0.00000367,0.00
 031842,0.00041703,-0.00028224,0.00006896,0.00006967,-0.00017786,-0.002
 19949,-0.00275621,0.00012117,-0.00050376,-0.00017111,0.00143727,0.0190
 4698,0.01045361,-0.01957751,-0.11578707,-0.14764844,0.24614137\\-0.000
 00627,-0.00000690,-0.00000416,-0.00000290,0.00000736,-0.00000975,0.000
 00253,0.00000509,0.00000559,0.00000048,0.00000679,-0.00000371,-0.00000
 101,0.00000167,-0.00000227,0.00000123,0.00000301,0.00000168,-0.0000009
 3,0.00000023,-0.00000095,-0.00000352,-0.00000627,0.00000628,0.00000689
 ,0.00000403,0.00000540,-0.00000067,-0.00000325,-0.00000141,-0.00000029
 ,0.00000052,0.00000070,0.00000050,0.00000032,0.00000312,-0.00000123,-0
 .00000398,-0.00000385,0.00000103,0.00000144,0.00000096,-0.00000017,-0.
 00000007,-0.00000130,-0.00000139,-0.00000095,0.00000107,-0.00000035,-0
 .00000657,0.00000109,-0.00000029,-0.00000391,0.00000140,0.00000014,0.0
 0000029,0.00000209,-0.00000163,-0.00000307,0.00000084,0.00000122,0.000
 00103,-0.00000131,0.00000341,0.00000094,0.00000041,-0.00000073,0.00000
 034,0.00000021,0.00000189,0.00000239,-0.00000026,0.00000096,0.00000112
 ,0.00000031,-0.00000026,-0.00000062,0.00000002,-0.00000042,0.00000101,
 0.00000068,0.00000027,-0.00000203,-0.00000032,0.00000190,-0.00000092,-
 0.00000092,-0.00000039,0.00000095,-0.00000164\\\@


 THE ENLIGHTENED ONE, BECAUSE HE SAW MANKIND DROWNING  
 IN THE GREAT SEA OF BIRTH, DEATH, AND SORROW, LONGED TO SAVE 
 THEM, FOR THIS HE WAS MOVED TO PITY.                         
 BECAUSE HE SAW MEN OF THE WORLD STRAYING IN FALSE PATHS, AND 
 NONE TO GUIDE THEM, FOR THIS HE WAS MOVED TO PITY.           
                     ..................                       
 BECAUSE HE SAW THE MEN OF THE WORLD PLOUGHING THEIR FIELDS,  
 SOWING THE SEED, TRAFFICKING, HUCKSTERING, BUYING, SELLING,  
 AND AT THE END WINNOWING NOTHING BUT BITTERNESS,             
 FOR THIS HE WAS MOVED TO PITY......                   
                   BUDAH'S PITY - UPSAKA SILA SUTRA           
 Job cpu time:       0 days  1 hours  0 minutes 38.3 seconds.
 File lengths (MBytes):  RWF=    260 Int=      0 D2E=      0 Chk=      8 Scr=      1
 Normal termination of Gaussian 09 at Wed Jul 28 22:42:45 2021.
