 Entering Gaussian System, Link 0=g09
 Input=opt_freq-conf-683.com
 Output=opt_freq-conf-683.log
 Initial command:
 /aerosol/software/g09/l1.exe "/scratch/nicole/10587/Gau-85409.inp" -scrdir="/scratch/nicole/10587/"
 Entering Link 1 = /aerosol/software/g09/l1.exe PID=     85415.
  
 Copyright (c) 1988,1990,1992,1993,1995,1998,2003,2009,2013,
            Gaussian, Inc.  All Rights Reserved.
  
 This is part of the Gaussian(R) 09 program.  It is based on
 the Gaussian(R) 03 system (copyright 2003, Gaussian, Inc.),
 the Gaussian(R) 98 system (copyright 1998, Gaussian, Inc.),
 the Gaussian(R) 94 system (copyright 1995, Gaussian, Inc.),
 the Gaussian 92(TM) system (copyright 1992, Gaussian, Inc.),
 the Gaussian 90(TM) system (copyright 1990, Gaussian, Inc.),
 the Gaussian 88(TM) system (copyright 1988, Gaussian, Inc.),
 the Gaussian 86(TM) system (copyright 1986, Carnegie Mellon
 University), and the Gaussian 82(TM) system (copyright 1983,
 Carnegie Mellon University). Gaussian is a federally registered
 trademark of Gaussian, Inc.
  
 This software contains proprietary and confidential information,
 including trade secrets, belonging to Gaussian, Inc.
  
 This software is provided under written license and may be
 used, copied, transmitted, or stored only in accord with that
 written license.
  
 The following legend is applicable only to US Government
 contracts under FAR:
  
                    RESTRICTED RIGHTS LEGEND
  
 Use, reproduction and disclosure by the US Government is
 subject to restrictions as set forth in subparagraphs (a)
 and (c) of the Commercial Computer Software - Restricted
 Rights clause in FAR 52.227-19.
  
 Gaussian, Inc.
 340 Quinnipiac St., Bldg. 40, Wallingford CT 06492
  
  
 ---------------------------------------------------------------
 Warning -- This program may not be used in any manner that
 competes with the business of Gaussian, Inc. or will provide
 assistance to any competitor of Gaussian, Inc.  The licensee
 of this program is prohibited from giving any competitor of
 Gaussian, Inc. access to this program.  By using this program,
 the user acknowledges that Gaussian, Inc. is engaged in the
 business of creating and licensing software in the field of
 computational chemistry and represents and warrants to the
 licensee that it is not a competitor of Gaussian, Inc. and that
 it will not use this program in any manner prohibited above.
 ---------------------------------------------------------------
  

 Cite this work as:
 Gaussian 09, Revision D.01,
 M. J. Frisch, G. W. Trucks, H. B. Schlegel, G. E. Scuseria, 
 M. A. Robb, J. R. Cheeseman, G. Scalmani, V. Barone, B. Mennucci, 
 G. A. Petersson, H. Nakatsuji, M. Caricato, X. Li, H. P. Hratchian, 
 A. F. Izmaylov, J. Bloino, G. Zheng, J. L. Sonnenberg, M. Hada, 
 M. Ehara, K. Toyota, R. Fukuda, J. Hasegawa, M. Ishida, T. Nakajima, 
 Y. Honda, O. Kitao, H. Nakai, T. Vreven, J. A. Montgomery, Jr., 
 J. E. Peralta, F. Ogliaro, M. Bearpark, J. J. Heyd, E. Brothers, 
 K. N. Kudin, V. N. Staroverov, T. Keith, R. Kobayashi, J. Normand, 
 K. Raghavachari, A. Rendell, J. C. Burant, S. S. Iyengar, J. Tomasi, 
 M. Cossi, N. Rega, J. M. Millam, M. Klene, J. E. Knox, J. B. Cross, 
 V. Bakken, C. Adamo, J. Jaramillo, R. Gomperts, R. E. Stratmann, 
 O. Yazyev, A. J. Austin, R. Cammi, C. Pomelli, J. W. Ochterski, 
 R. L. Martin, K. Morokuma, V. G. Zakrzewski, G. A. Voth, 
 P. Salvador, J. J. Dannenberg, S. Dapprich, A. D. Daniels, 
 O. Farkas, J. B. Foresman, J. V. Ortiz, J. Cioslowski, 
 and D. J. Fox, Gaussian, Inc., Wallingford CT, 2013.
 
 ******************************************
 Gaussian 09:  ES64L-G09RevD.01 24-Apr-2013
                28-Jul-2021 
 ******************************************
 %mem=2gb
 %nproc=4
 Will use up to    4 processors via shared memory.
 %chk=conf-683.chk
 ----------------------------------------------------------------------
 # B3LYP/6-31G(d) opt=calcfc freq=noraman nosymm integral(ultrafinegrid
 )
 ----------------------------------------------------------------------
 1/10=4,14=-1,18=20,19=15,26=4,38=1/1,3;
 2/9=110,12=2,15=1,17=6,18=5,40=1/2;
 3/5=1,6=6,7=1,11=2,16=1,25=1,30=1,71=2,74=-5,75=-5,140=1/1,2,3;
 4//1;
 5/5=2,38=5/2;
 8/6=4,10=90,11=11/1;
 11/6=1,8=1,9=11,15=111,16=1,31=1/1,2,10;
 10/6=1,13=1,31=1/2;
 6/7=2,8=2,9=2,10=2,28=1/1;
 7/10=1,18=20,25=1,30=1/1,2,3,16;
 1/10=4,14=-1,18=20,19=15,26=4/3(2);
 2/9=110,15=1/2;
 99//99;
 2/9=110,15=1/2;
 3/5=1,6=6,7=1,11=2,16=1,25=1,30=1,71=1,74=-5,75=-5/1,2,3;
 4/5=5,16=3,69=1/1;
 5/5=2,38=5/2;
 7/30=1/1,2,3,16;
 1/14=-1,18=20,19=15,26=4/3(-5);
 2/9=110,15=1/2;
 6/7=2,8=2,9=2,10=2,19=2,28=1/1;
 99/9=1/99;
 ------------------------------------------------------------
 Candidate Structure: Conf:683 OPT and FREQ calc in gas phase
 ------------------------------------------------------------
 Symbolic Z-matrix:
 Charge =  0 Multiplicity = 1
 O                    -0.48714   0.03411  -2.18319 
 C                     0.46127   0.27928  -1.44052 
 N                     0.32789   0.42795  -0.11044 
 C                    -0.9578    0.66545   0.50158 
 C                    -0.92497   2.00031   1.21365 
 O                    -2.15887   2.3984    1.57874 
 O                     0.07049   2.63591   1.45945 
 C                    -1.34629  -0.41772   1.51388 
 C                    -1.55824  -1.78505   0.92941 
 C                    -1.80804  -2.98089   1.53805 
 N                    -1.96662  -3.98554   0.60476 
 C                    -1.81522  -3.39077  -0.55338 
 N                    -1.57259  -2.06509  -0.41431 
 C                     1.88811   0.37371  -1.96848 
 C                     2.67074   1.56211  -1.4079 
 N                     2.95917   1.38592   0.02671 
 H                     1.16423   0.73916   0.38089 
 H                    -1.71051   0.71537  -0.28595 
 H                    -2.04427   3.24021   2.03676 
 H                    -0.58326  -0.47218   2.29309 
 H                    -2.2642   -0.10001   2.01323 
 H                    -1.8861   -3.18906   2.59558 
 H                    -1.86735  -3.85838  -1.52128 
 H                    -1.36912  -1.41053  -1.15988 
 H                     2.42577  -0.54795  -1.71986 
 H                     1.81067   0.4345   -3.05414 
 H                     2.07238   2.46848  -1.52499 
 H                     3.58337   1.70483  -1.9953 
 H                     3.80746   0.85703   0.17254 
 H                     3.07913   2.28043   0.48106 
 

 GradGradGradGradGradGradGradGradGradGradGradGradGradGradGradGradGradGrad
 Berny optimization.
 Initialization pass.
                           ----------------------------
                           !    Initial Parameters    !
                           ! (Angstroms and Degrees)  !
 --------------------------                            --------------------------
 ! Name  Definition              Value          Derivative Info.                !
 --------------------------------------------------------------------------------
 ! R1    R(1,2)                  1.2293         calculate D2E/DX2 analytically  !
 ! R2    R(2,3)                  1.345          calculate D2E/DX2 analytically  !
 ! R3    R(2,14)                 1.5243         calculate D2E/DX2 analytically  !
 ! R4    R(3,4)                  1.4436         calculate D2E/DX2 analytically  !
 ! R5    R(3,17)                 1.0187         calculate D2E/DX2 analytically  !
 ! R6    R(4,5)                  1.5133         calculate D2E/DX2 analytically  !
 ! R7    R(4,8)                  1.5326         calculate D2E/DX2 analytically  !
 ! R8    R(4,18)                 1.0905         calculate D2E/DX2 analytically  !
 ! R9    R(5,6)                  1.3469         calculate D2E/DX2 analytically  !
 ! R10   R(5,7)                  1.2064         calculate D2E/DX2 analytically  !
 ! R11   R(6,19)                 0.9652         calculate D2E/DX2 analytically  !
 ! R12   R(8,9)                  1.502          calculate D2E/DX2 analytically  !
 ! R13   R(8,20)                 1.0919         calculate D2E/DX2 analytically  !
 ! R14   R(8,21)                 1.0922         calculate D2E/DX2 analytically  !
 ! R15   R(9,10)                 1.3649         calculate D2E/DX2 analytically  !
 ! R16   R(9,13)                 1.3727         calculate D2E/DX2 analytically  !
 ! R17   R(10,11)                1.3804         calculate D2E/DX2 analytically  !
 ! R18   R(10,22)                1.0806         calculate D2E/DX2 analytically  !
 ! R19   R(11,12)                1.3107         calculate D2E/DX2 analytically  !
 ! R20   R(12,13)                1.3549         calculate D2E/DX2 analytically  !
 ! R21   R(12,23)                1.0762         calculate D2E/DX2 analytically  !
 ! R22   R(13,24)                1.0128         calculate D2E/DX2 analytically  !
 ! R23   R(14,15)                1.5294         calculate D2E/DX2 analytically  !
 ! R24   R(14,25)                1.0956         calculate D2E/DX2 analytically  !
 ! R25   R(14,26)                1.0901         calculate D2E/DX2 analytically  !
 ! R26   R(15,16)                1.4739         calculate D2E/DX2 analytically  !
 ! R27   R(15,27)                1.0924         calculate D2E/DX2 analytically  !
 ! R28   R(15,28)                1.0947         calculate D2E/DX2 analytically  !
 ! R29   R(16,29)                1.0102         calculate D2E/DX2 analytically  !
 ! R30   R(16,30)                1.0104         calculate D2E/DX2 analytically  !
 ! A1    A(1,2,3)              122.8875         calculate D2E/DX2 analytically  !
 ! A2    A(1,2,14)             121.6868         calculate D2E/DX2 analytically  !
 ! A3    A(3,2,14)             115.3721         calculate D2E/DX2 analytically  !
 ! A4    A(2,3,4)              121.7189         calculate D2E/DX2 analytically  !
 ! A5    A(2,3,17)             115.4249         calculate D2E/DX2 analytically  !
 ! A6    A(4,3,17)             118.4538         calculate D2E/DX2 analytically  !
 ! A7    A(3,4,5)              108.9833         calculate D2E/DX2 analytically  !
 ! A8    A(3,4,8)              112.9234         calculate D2E/DX2 analytically  !
 ! A9    A(3,4,18)             108.4268         calculate D2E/DX2 analytically  !
 ! A10   A(5,4,8)              108.549          calculate D2E/DX2 analytically  !
 ! A11   A(5,4,18)             108.3251         calculate D2E/DX2 analytically  !
 ! A12   A(8,4,18)             109.535          calculate D2E/DX2 analytically  !
 ! A13   A(4,5,6)              111.6154         calculate D2E/DX2 analytically  !
 ! A14   A(4,5,7)              125.3475         calculate D2E/DX2 analytically  !
 ! A15   A(6,5,7)              123.0221         calculate D2E/DX2 analytically  !
 ! A16   A(5,6,19)             106.1193         calculate D2E/DX2 analytically  !
 ! A17   A(4,8,9)              114.9679         calculate D2E/DX2 analytically  !
 ! A18   A(4,8,20)             109.2354         calculate D2E/DX2 analytically  !
 ! A19   A(4,8,21)             108.0247         calculate D2E/DX2 analytically  !
 ! A20   A(9,8,20)             109.3221         calculate D2E/DX2 analytically  !
 ! A21   A(9,8,21)             108.9127         calculate D2E/DX2 analytically  !
 ! A22   A(20,8,21)            105.9938         calculate D2E/DX2 analytically  !
 ! A23   A(8,9,10)             130.5325         calculate D2E/DX2 analytically  !
 ! A24   A(8,9,13)             124.618          calculate D2E/DX2 analytically  !
 ! A25   A(10,9,13)            104.8255         calculate D2E/DX2 analytically  !
 ! A26   A(9,10,11)            110.9276         calculate D2E/DX2 analytically  !
 ! A27   A(9,10,22)            128.1989         calculate D2E/DX2 analytically  !
 ! A28   A(11,10,22)           120.8735         calculate D2E/DX2 analytically  !
 ! A29   A(10,11,12)           104.7069         calculate D2E/DX2 analytically  !
 ! A30   A(11,12,13)           111.9624         calculate D2E/DX2 analytically  !
 ! A31   A(11,12,23)           126.2929         calculate D2E/DX2 analytically  !
 ! A32   A(13,12,23)           121.7446         calculate D2E/DX2 analytically  !
 ! A33   A(9,13,12)            107.5757         calculate D2E/DX2 analytically  !
 ! A34   A(9,13,24)            125.9221         calculate D2E/DX2 analytically  !
 ! A35   A(12,13,24)           126.3561         calculate D2E/DX2 analytically  !
 ! A36   A(2,14,15)            113.5898         calculate D2E/DX2 analytically  !
 ! A37   A(2,14,25)            109.187          calculate D2E/DX2 analytically  !
 ! A38   A(2,14,26)            106.3738         calculate D2E/DX2 analytically  !
 ! A39   A(15,14,25)           108.6248         calculate D2E/DX2 analytically  !
 ! A40   A(15,14,26)           110.9815         calculate D2E/DX2 analytically  !
 ! A41   A(25,14,26)           107.9245         calculate D2E/DX2 analytically  !
 ! A42   A(14,15,16)           111.3475         calculate D2E/DX2 analytically  !
 ! A43   A(14,15,27)           108.9737         calculate D2E/DX2 analytically  !
 ! A44   A(14,15,28)           109.3448         calculate D2E/DX2 analytically  !
 ! A45   A(16,15,27)           108.1028         calculate D2E/DX2 analytically  !
 ! A46   A(16,15,28)           112.0079         calculate D2E/DX2 analytically  !
 ! A47   A(27,15,28)           106.9165         calculate D2E/DX2 analytically  !
 ! A48   A(15,16,29)           111.5564         calculate D2E/DX2 analytically  !
 ! A49   A(15,16,30)           110.7986         calculate D2E/DX2 analytically  !
 ! A50   A(29,16,30)           107.3892         calculate D2E/DX2 analytically  !
 ! D1    D(1,2,3,4)            -16.8472         calculate D2E/DX2 analytically  !
 ! D2    D(1,2,3,17)          -172.909          calculate D2E/DX2 analytically  !
 ! D3    D(14,2,3,4)           165.7775         calculate D2E/DX2 analytically  !
 ! D4    D(14,2,3,17)            9.7158         calculate D2E/DX2 analytically  !
 ! D5    D(1,2,14,15)          136.0055         calculate D2E/DX2 analytically  !
 ! D6    D(1,2,14,25)         -102.5989         calculate D2E/DX2 analytically  !
 ! D7    D(1,2,14,26)           13.6252         calculate D2E/DX2 analytically  !
 ! D8    D(3,2,14,15)          -46.5847         calculate D2E/DX2 analytically  !
 ! D9    D(3,2,14,25)           74.8109         calculate D2E/DX2 analytically  !
 ! D10   D(3,2,14,26)         -168.965          calculate D2E/DX2 analytically  !
 ! D11   D(2,3,4,5)           -118.9752         calculate D2E/DX2 analytically  !
 ! D12   D(2,3,4,8)            120.312          calculate D2E/DX2 analytically  !
 ! D13   D(2,3,4,18)            -1.2603         calculate D2E/DX2 analytically  !
 ! D14   D(17,3,4,5)            36.3919         calculate D2E/DX2 analytically  !
 ! D15   D(17,3,4,8)           -84.3209         calculate D2E/DX2 analytically  !
 ! D16   D(17,3,4,18)          154.1068         calculate D2E/DX2 analytically  !
 ! D17   D(3,4,5,6)            167.8964         calculate D2E/DX2 analytically  !
 ! D18   D(3,4,5,7)            -13.4842         calculate D2E/DX2 analytically  !
 ! D19   D(8,4,5,6)            -68.7433         calculate D2E/DX2 analytically  !
 ! D20   D(8,4,5,7)            109.876          calculate D2E/DX2 analytically  !
 ! D21   D(18,4,5,6)            50.1173         calculate D2E/DX2 analytically  !
 ! D22   D(18,4,5,7)          -131.2634         calculate D2E/DX2 analytically  !
 ! D23   D(3,4,8,9)            -64.9541         calculate D2E/DX2 analytically  !
 ! D24   D(3,4,8,20)            58.3472         calculate D2E/DX2 analytically  !
 ! D25   D(3,4,8,21)           173.2087         calculate D2E/DX2 analytically  !
 ! D26   D(5,4,8,9)            174.086          calculate D2E/DX2 analytically  !
 ! D27   D(5,4,8,20)           -62.6128         calculate D2E/DX2 analytically  !
 ! D28   D(5,4,8,21)            52.2487         calculate D2E/DX2 analytically  !
 ! D29   D(18,4,8,9)            55.9903         calculate D2E/DX2 analytically  !
 ! D30   D(18,4,8,20)          179.2915         calculate D2E/DX2 analytically  !
 ! D31   D(18,4,8,21)          -65.847          calculate D2E/DX2 analytically  !
 ! D32   D(4,5,6,19)           178.8907         calculate D2E/DX2 analytically  !
 ! D33   D(7,5,6,19)             0.2338         calculate D2E/DX2 analytically  !
 ! D34   D(4,8,9,10)           174.4921         calculate D2E/DX2 analytically  !
 ! D35   D(4,8,9,13)            -7.5697         calculate D2E/DX2 analytically  !
 ! D36   D(20,8,9,10)           51.2371         calculate D2E/DX2 analytically  !
 ! D37   D(20,8,9,13)         -130.8247         calculate D2E/DX2 analytically  !
 ! D38   D(21,8,9,10)          -64.1528         calculate D2E/DX2 analytically  !
 ! D39   D(21,8,9,13)          113.7854         calculate D2E/DX2 analytically  !
 ! D40   D(8,9,10,11)          178.6096         calculate D2E/DX2 analytically  !
 ! D41   D(8,9,10,22)           -1.3372         calculate D2E/DX2 analytically  !
 ! D42   D(13,9,10,11)           0.3647         calculate D2E/DX2 analytically  !
 ! D43   D(13,9,10,22)        -179.5821         calculate D2E/DX2 analytically  !
 ! D44   D(8,9,13,12)         -178.8194         calculate D2E/DX2 analytically  !
 ! D45   D(8,9,13,24)            5.359          calculate D2E/DX2 analytically  !
 ! D46   D(10,9,13,12)          -0.4403         calculate D2E/DX2 analytically  !
 ! D47   D(10,9,13,24)        -176.2619         calculate D2E/DX2 analytically  !
 ! D48   D(9,10,11,12)          -0.1419         calculate D2E/DX2 analytically  !
 ! D49   D(22,10,11,12)        179.8093         calculate D2E/DX2 analytically  !
 ! D50   D(10,11,12,13)         -0.1505         calculate D2E/DX2 analytically  !
 ! D51   D(10,11,12,23)        179.7578         calculate D2E/DX2 analytically  !
 ! D52   D(11,12,13,9)           0.3833         calculate D2E/DX2 analytically  !
 ! D53   D(11,12,13,24)        176.1817         calculate D2E/DX2 analytically  !
 ! D54   D(23,12,13,9)        -179.5298         calculate D2E/DX2 analytically  !
 ! D55   D(23,12,13,24)         -3.7314         calculate D2E/DX2 analytically  !
 ! D56   D(2,14,15,16)          68.9177         calculate D2E/DX2 analytically  !
 ! D57   D(2,14,15,27)         -50.2361         calculate D2E/DX2 analytically  !
 ! D58   D(2,14,15,28)        -166.7754         calculate D2E/DX2 analytically  !
 ! D59   D(25,14,15,16)        -52.7915         calculate D2E/DX2 analytically  !
 ! D60   D(25,14,15,27)       -171.9453         calculate D2E/DX2 analytically  !
 ! D61   D(25,14,15,28)         71.5155         calculate D2E/DX2 analytically  !
 ! D62   D(26,14,15,16)       -171.2862         calculate D2E/DX2 analytically  !
 ! D63   D(26,14,15,27)         69.56           calculate D2E/DX2 analytically  !
 ! D64   D(26,14,15,28)        -46.9793         calculate D2E/DX2 analytically  !
 ! D65   D(14,15,16,29)         86.1649         calculate D2E/DX2 analytically  !
 ! D66   D(14,15,16,30)       -154.2452         calculate D2E/DX2 analytically  !
 ! D67   D(27,15,16,29)       -154.1633         calculate D2E/DX2 analytically  !
 ! D68   D(27,15,16,30)        -34.5734         calculate D2E/DX2 analytically  !
 ! D69   D(28,15,16,29)        -36.6262         calculate D2E/DX2 analytically  !
 ! D70   D(28,15,16,30)         82.9637         calculate D2E/DX2 analytically  !
 --------------------------------------------------------------------------------
 Trust Radius=3.00D-01 FncErr=1.00D-07 GrdErr=1.00D-06
 Number of steps in this run=    160 maximum allowed number of steps=    180.
 GradGradGradGradGradGradGradGradGradGradGradGradGradGradGradGradGradGrad

                          Input orientation:                          
 ---------------------------------------------------------------------
 Center     Atomic      Atomic             Coordinates (Angstroms)
 Number     Number       Type             X           Y           Z
 ---------------------------------------------------------------------
      1          8           0       -0.487137    0.034113   -2.183190
      2          6           0        0.461268    0.279282   -1.440517
      3          7           0        0.327894    0.427946   -0.110441
      4          6           0       -0.957804    0.665448    0.501575
      5          6           0       -0.924970    2.000307    1.213651
      6          8           0       -2.158867    2.398398    1.578742
      7          8           0        0.070491    2.635914    1.459449
      8          6           0       -1.346294   -0.417723    1.513882
      9          6           0       -1.558244   -1.785053    0.929409
     10          6           0       -1.808037   -2.980892    1.538055
     11          7           0       -1.966617   -3.985539    0.604764
     12          6           0       -1.815215   -3.390767   -0.553375
     13          7           0       -1.572589   -2.065091   -0.414312
     14          6           0        1.888109    0.373714   -1.968479
     15          6           0        2.670739    1.562111   -1.407896
     16          7           0        2.959170    1.385918    0.026709
     17          1           0        1.164234    0.739164    0.380893
     18          1           0       -1.710505    0.715370   -0.285954
     19          1           0       -2.044274    3.240207    2.036763
     20          1           0       -0.583259   -0.472180    2.293090
     21          1           0       -2.264205   -0.100005    2.013233
     22          1           0       -1.886099   -3.189059    2.595576
     23          1           0       -1.867355   -3.858382   -1.521281
     24          1           0       -1.369122   -1.410531   -1.159878
     25          1           0        2.425773   -0.547949   -1.719863
     26          1           0        1.810668    0.434499   -3.054138
     27          1           0        2.072378    2.468476   -1.524990
     28          1           0        3.583373    1.704834   -1.995297
     29          1           0        3.807463    0.857035    0.172543
     30          1           0        3.079128    2.280426    0.481062
 ---------------------------------------------------------------------
                    Distance matrix (angstroms):
                    1          2          3          4          5
     1  O    0.000000
     2  C    1.229285   0.000000
     3  N    2.261784   1.344987   0.000000
     4  C    2.797870   2.436105   1.443603   0.000000
     5  C    3.949195   3.453720   2.407323   1.513267   0.000000
     6  O    4.747279   4.524564   3.594440   2.367690   1.346949
     7  O    4.511001   3.757156   2.721384   2.420257   1.206381
     8  C    3.822388   3.532926   2.481227   1.532629   2.472755
     9  C    3.760972   3.735834   3.088069   2.559009   3.848477
    10  C    4.968168   4.964913   4.347403   3.884969   5.069258
    11  N    5.110690   5.316625   5.025450   4.760256   6.106236
    12  C    4.018694   4.408930   4.401327   4.277962   5.742699
    13  N    2.951914   3.268908   3.149509   2.944938   4.426865
    14  C    2.408987   1.524315   2.426833   3.779616   4.548095
    15  C    3.592776   2.555089   2.908375   4.197191   4.471425
    16  N    4.311387   3.101114   2.803593   4.010892   4.107657
    17  H    3.130279   2.005789   1.018691   2.126745   2.578514
    18  H    2.358018   2.497957   2.066032   1.090529   2.125310
    19  H    5.523741   5.209250   4.259868   3.188510   1.862178
    20  H    4.505847   3.949120   2.723489   2.154996   2.719402
    21  H    4.559159   4.415931   3.392300   2.139559   2.616141
    22  H    5.931487   5.816318   5.030608   4.483725   5.455547
    23  H    4.182661   4.748608   5.018186   5.038281   6.533925
    24  H    1.977894   2.506901   2.713149   2.690595   4.179082
    25  H    3.006411   2.149797   2.818458   4.225602   5.130944
    26  H    2.489732   2.109205   3.296060   4.512302   5.305609
    27  H    3.593113   2.719445   3.034458   4.066925   4.086983
    28  H    4.404050   3.476711   3.972564   5.285544   5.541643
    29  H    4.966917   3.759359   3.517328   4.780453   4.978644
    30  H    4.986221   3.814476   3.369101   4.348033   4.080190
                    6          7          8          9         10
     6  O    0.000000
     7  O    2.245146   0.000000
     8  C    2.931726   3.366740   0.000000
     9  C    4.275938   4.741167   1.502040   0.000000
    10  C    5.390871   5.923137   2.604539   1.364872   0.000000
    11  N    6.460669   6.980253   3.733712   2.261482   1.380397
    12  C    6.178872   6.627838   3.651361   2.200682   2.131227
    13  N    4.923284   5.320727   2.546167   1.372667   2.169300
    14  C    5.749794   4.491322   4.818151   4.993534   6.100054
    15  C    5.739728   4.016965   5.347250   5.877993   7.026872
    16  N    5.443181   3.458280   4.899165   5.592580   6.639236
    17  H    3.902678   2.440740   2.987441   3.752923   4.900228
    18  H    2.551608   3.147517   2.157767   2.784314   4.122969
    19  H    0.965172   2.273916   3.760456   5.168723   6.245525
    20  H    3.351574   3.283686   1.091949   2.129285   2.892022
    21  H    2.538089   3.639057   1.092180   2.124251   2.955231
    22  H    5.685774   6.248946   3.023533   2.203368   1.080637
    23  H    6.988735   7.403774   4.617560   3.224922   3.183244
    24  H    4.757276   5.030614   2.852224   2.130998   3.152383
    25  H    6.370296   5.078618   4.970166   4.941807   5.870126
    26  H    6.409187   5.314782   5.617784   5.669623   6.771126
    27  H    5.247999   3.597564   5.408531   6.107209   7.357681
    28  H    6.799125   5.014232   6.412581   6.868001   7.969184
    29  H    6.320624   4.334224   5.475893   6.028622   6.937445
    30  H    5.353074   3.183631   5.284986   6.183393   7.258310
                   11         12         13         14         15
    11  N    0.000000
    12  C    1.310710   0.000000
    13  N    2.209501   1.354852   0.000000
    14  C    6.362671   5.467033   4.509949   0.000000
    15  C    7.505484   6.736839   5.670066   1.529396   0.000000
    16  N    7.310956   6.778493   5.713213   2.480424   1.473881
    17  H    5.672316   5.177481   3.998300   2.485377   2.479227
    18  H    4.791400   4.116169   2.786837   3.987185   4.601199
    19  H    7.366685   7.122577   5.863142   6.302569   6.075609
    20  H    4.136159   4.258900   3.293352   4.998417   5.331430
    21  H    4.143636   4.197402   3.198886   5.772361   6.230604
    22  H    2.145739   3.156201   3.228160   6.911483   7.704944
    23  H    2.132155   1.076208   2.127947   5.675750   7.070283
    24  H    3.178305   2.118532   1.012776   3.800911   5.021812
    25  H    6.042682   5.237202   4.471363   1.095607   2.147018
    26  H    6.869657   5.833824   4.966192   1.090113   2.172866
    27  H    7.905925   7.098461   5.922214   2.149108   1.092357
    28  H    8.363196   7.562344   6.579954   2.155578   1.094673
    29  H    7.548333   7.084158   6.150462   2.915732   2.070521
    30  H    8.045940   7.562214   6.428350   3.324805   2.061775
                   16         17         18         19         20
    16  N    0.000000
    17  H    1.940498   0.000000
    18  H    4.727923   2.951165   0.000000
    19  H    5.702031   4.392225   3.446913   0.000000
    20  H    4.597588   2.859648   3.054902   3.997760   0.000000
    21  H    5.782551   3.888822   2.501535   3.347527   1.744251
    22  H    7.141856   5.444289   4.855781   6.455443   3.028253
    23  H    7.293442   5.826340   4.740237   7.942351   5.259723
    24  H    5.287932   3.662384   2.323735   5.683635   3.663478
    25  H    2.659862   2.767909   4.556409   6.960150   5.016354
    26  H    3.422846   3.508581   4.487805   6.974944   5.928390
    27  H    2.089522   2.729036   4.349574   5.498043   5.502509
    28  H    2.140057   3.525767   5.650313   7.091212   6.363213
    29  H    1.010241   2.654046   5.538796   6.587690   5.053907
    30  H    1.010431   2.460150   5.096891   5.439727   4.926800
                   21         22         23         24         25
    21  H    0.000000
    22  H    3.166123   0.000000
    23  H    5.174522   4.170953   0.000000
    24  H    3.547856   4.187344   2.524049   0.000000
    25  H    6.011036   6.647609   5.424882   3.931775   0.000000
    26  H    6.524457   7.662605   5.857161   4.135628   1.767441
    27  H    6.158090   8.040914   7.453230   5.198454   3.043301
    28  H    7.315731   8.656871   7.802852   5.910214   2.547731
    29  H    6.416324   7.393146   7.570188   5.806395   2.732077
    30  H    6.046917   7.683742   8.134004   6.008558   3.642890
                   26         27         28         29         30
    26  H    0.000000
    27  H    2.558095   0.000000
    28  H    2.424331   1.757112   0.000000
    29  H    3.818010   2.913568   2.338484   0.000000
    30  H    4.184982   2.252366   2.591896   1.628404   0.000000
 Symmetry turned off by external request.
 Stoichiometry    C9H14N4O3
 Framework group  C1[X(C9H14N4O3)]
 Deg. of freedom    84
 Full point group                 C1      NOp   1
 Rotational constants (GHZ):      0.6745708      0.3748381      0.2826775
 Standard basis: 6-31G(d) (6D, 7F)
   268 basis functions,   504 primitive gaussians,   268 cartesian basis functions
    60 alpha electrons       60 beta electrons
       nuclear repulsion energy      1148.3601066720 Hartrees.
 NAtoms=   30 NActive=   30 NUniq=   30 SFac= 1.00D+00 NAtFMM=   60 NAOKFM=F Big=F
 Integral buffers will be    131072 words long.
 Raffenetti 2 integral format.
 Two-electron integral symmetry is turned off.
 One-electron integrals computed using PRISM.
 NBasis=   268 RedAO= T EigKep=  1.12D-03  NBF=   268
 NBsUse=   268 1.00D-06 EigRej= -1.00D+00 NBFU=   268
 ExpMin= 1.61D-01 ExpMax= 5.48D+03 ExpMxC= 8.25D+02 IAcc=3 IRadAn=         5 AccDes= 0.00D+00
 Harris functional with IExCor=  402 and IRadAn=       5 diagonalized for initial guess.
 HarFok:  IExCor=  402 AccDes= 0.00D+00 IRadAn=         5 IDoV= 1 UseB2=F ITyADJ=14
 ICtDFT=  3500011 ScaDFX=  1.000000  1.000000  1.000000  1.000000
 FoFCou: FMM=F IPFlag=           0 FMFlag=      100000 FMFlg1=           0
         NFxFlg=           0 DoJE=T BraDBF=F KetDBF=T FulRan=T
         wScrn=  0.000000 ICntrl=     500 IOpCl=  0 I1Cent=   200000004 NGrid=           0
         NMat0=    1 NMatS0=      1 NMatT0=    0 NMatD0=    1 NMtDS0=    0 NMtDT0=    0
 Symmetry not used in FoFCou.
 Requested convergence on RMS density matrix=1.00D-08 within 128 cycles.
 Requested convergence on MAX density matrix=1.00D-06.
 Requested convergence on             energy=1.00D-06.
 No special actions if energy rises.
 Integral accuracy reduced to 1.0D-05 until final iterations.
 Initial convergence to 1.0D-05 achieved.  Increase integral accuracy.
 SCF Done:  E(RB3LYP) =  -796.088266435     A.U. after   14 cycles
            NFock= 14  Conv=0.70D-08     -V/T= 2.0087
 DoSCS=F DFT=T ScalE2(SS,OS)=  1.000000  1.000000
 Range of M.O.s used for correlation:     1   268
 NBasis=   268 NAE=    60 NBE=    60 NFC=     0 NFV=     0
 NROrb=    268 NOA=    60 NOB=    60 NVA=   208 NVB=   208
 Symmetrizing basis deriv contribution to polar:
 IMax=3 JMax=2 DiffMx= 0.00D+00
 G2DrvN: will do    31 centers at a time, making    1 passes.
 Calling FoFCou, ICntrl=  3107 FMM=F I1Cent=   0 AccDes= 0.00D+00.
 End of G2Drv F.D. properties file   721 does not exist.
 End of G2Drv F.D. properties file   722 does not exist.
 End of G2Drv F.D. properties file   788 does not exist.
          IDoAtm=111111111111111111111111111111
          Differentiating once with respect to nuclear coordinates.
          There are    93 degrees of freedom in the 1st order CPHF.  IDoFFX=6 NUNeed=     0.
     87 vectors produced by pass  0 Test12= 1.34D-14 1.08D-09 XBig12= 1.95D-01 9.76D-02.
 AX will form    87 AO Fock derivatives at one time.
     87 vectors produced by pass  1 Test12= 1.34D-14 1.08D-09 XBig12= 4.26D-02 4.78D-02.
     87 vectors produced by pass  2 Test12= 1.34D-14 1.08D-09 XBig12= 2.78D-04 2.11D-03.
     87 vectors produced by pass  3 Test12= 1.34D-14 1.08D-09 XBig12= 1.09D-06 1.09D-04.
     87 vectors produced by pass  4 Test12= 1.34D-14 1.08D-09 XBig12= 1.35D-09 4.84D-06.
     68 vectors produced by pass  5 Test12= 1.34D-14 1.08D-09 XBig12= 1.22D-12 1.51D-07.
      9 vectors produced by pass  6 Test12= 1.34D-14 1.08D-09 XBig12= 1.07D-15 2.52D-09.
 InvSVY:  IOpt=1 It=  1 EMax= 7.77D-16
 Solved reduced A of dimension   512 with    93 vectors.
 End of Minotr F.D. properties file   721 does not exist.
 End of Minotr F.D. properties file   722 does not exist.
 End of Minotr F.D. properties file   788 does not exist.

 **********************************************************************

            Population analysis using the SCF density.

 **********************************************************************

 Alpha  occ. eigenvalues --  -19.21535 -19.15989 -19.12218 -14.36180 -14.35581
 Alpha  occ. eigenvalues --  -14.34335 -14.28721 -10.33769 -10.29266 -10.24988
 Alpha  occ. eigenvalues --  -10.23422 -10.21223 -10.20620 -10.20211 -10.20085
 Alpha  occ. eigenvalues --  -10.17194  -1.12990  -1.04572  -1.03776  -0.99361
 Alpha  occ. eigenvalues --   -0.93760  -0.90739  -0.84708  -0.80815  -0.76889
 Alpha  occ. eigenvalues --   -0.73555  -0.67152  -0.65450  -0.62075  -0.59487
 Alpha  occ. eigenvalues --   -0.58255  -0.56899  -0.54362  -0.52424  -0.51388
 Alpha  occ. eigenvalues --   -0.50664  -0.48985  -0.47655  -0.47278  -0.46569
 Alpha  occ. eigenvalues --   -0.44992  -0.43702  -0.42642  -0.41960  -0.40659
 Alpha  occ. eigenvalues --   -0.40113  -0.39548  -0.38750  -0.38526  -0.38147
 Alpha  occ. eigenvalues --   -0.37595  -0.35588  -0.33865  -0.29818  -0.27092
 Alpha  occ. eigenvalues --   -0.26911  -0.25731  -0.25569  -0.24272  -0.20275
 Alpha virt. eigenvalues --   -0.00745   0.01350   0.05428   0.06245   0.06474
 Alpha virt. eigenvalues --    0.08440   0.10824   0.11424   0.11845   0.13319
 Alpha virt. eigenvalues --    0.14057   0.14664   0.15163   0.16768   0.17085
 Alpha virt. eigenvalues --    0.18125   0.18248   0.20014   0.20208   0.21056
 Alpha virt. eigenvalues --    0.22019   0.22429   0.23637   0.24116   0.26168
 Alpha virt. eigenvalues --    0.29651   0.31454   0.31556   0.35047   0.35529
 Alpha virt. eigenvalues --    0.37058   0.39662   0.41607   0.46332   0.49598
 Alpha virt. eigenvalues --    0.51618   0.52036   0.53546   0.53890   0.54669
 Alpha virt. eigenvalues --    0.55468   0.56943   0.57420   0.58033   0.59433
 Alpha virt. eigenvalues --    0.61599   0.62694   0.63669   0.64046   0.64824
 Alpha virt. eigenvalues --    0.65303   0.66238   0.67077   0.68953   0.69420
 Alpha virt. eigenvalues --    0.71305   0.72687   0.73634   0.75216   0.76043
 Alpha virt. eigenvalues --    0.77524   0.78006   0.80389   0.81120   0.81757
 Alpha virt. eigenvalues --    0.83133   0.83666   0.84529   0.85116   0.85690
 Alpha virt. eigenvalues --    0.86084   0.87102   0.88528   0.88568   0.89052
 Alpha virt. eigenvalues --    0.90968   0.91352   0.91814   0.92662   0.93742
 Alpha virt. eigenvalues --    0.94164   0.95189   0.96074   0.96910   1.00069
 Alpha virt. eigenvalues --    1.01191   1.02640   1.04987   1.05758   1.05906
 Alpha virt. eigenvalues --    1.06886   1.08042   1.10372   1.14482   1.14930
 Alpha virt. eigenvalues --    1.18758   1.21972   1.25183   1.25996   1.28289
 Alpha virt. eigenvalues --    1.32631   1.33598   1.35989   1.36736   1.37698
 Alpha virt. eigenvalues --    1.38445   1.39942   1.40739   1.43859   1.45219
 Alpha virt. eigenvalues --    1.49159   1.50236   1.53232   1.54273   1.57571
 Alpha virt. eigenvalues --    1.58860   1.58930   1.62994   1.65020   1.66197
 Alpha virt. eigenvalues --    1.67602   1.69614   1.72857   1.75305   1.77458
 Alpha virt. eigenvalues --    1.78454   1.79150   1.79625   1.81402   1.82241
 Alpha virt. eigenvalues --    1.83314   1.85734   1.87232   1.88066   1.88901
 Alpha virt. eigenvalues --    1.91595   1.93566   1.95467   1.96227   1.98915
 Alpha virt. eigenvalues --    1.99772   1.99838   2.02362   2.04346   2.06011
 Alpha virt. eigenvalues --    2.08958   2.11316   2.13586   2.14402   2.17476
 Alpha virt. eigenvalues --    2.17603   2.19732   2.21027   2.22188   2.25198
 Alpha virt. eigenvalues --    2.25862   2.28988   2.31579   2.32032   2.34394
 Alpha virt. eigenvalues --    2.36225   2.38884   2.42569   2.42787   2.43706
 Alpha virt. eigenvalues --    2.46834   2.49407   2.49731   2.51693   2.54347
 Alpha virt. eigenvalues --    2.54505   2.59717   2.61271   2.61988   2.63149
 Alpha virt. eigenvalues --    2.64525   2.66429   2.69070   2.72730   2.76192
 Alpha virt. eigenvalues --    2.77331   2.79676   2.84526   2.89501   2.92603
 Alpha virt. eigenvalues --    2.97436   3.02199   3.03468   3.07669   3.11631
 Alpha virt. eigenvalues --    3.14870   3.20109   3.82879   3.85400   3.95662
 Alpha virt. eigenvalues --    4.03556   4.07786   4.11815   4.13796   4.18895
 Alpha virt. eigenvalues --    4.25127   4.27708   4.32624   4.34124   4.39849
 Alpha virt. eigenvalues --    4.50430   4.57673   4.69716
          Condensed to atoms (all electrons):
               1          2          3          4          5          6
     1  O    8.126900   0.531893  -0.108720  -0.004801   0.000491  -0.000001
     2  C    0.531893   4.341756   0.301332  -0.026467   0.003268   0.000019
     3  N   -0.108720   0.301332   7.194479   0.244726  -0.044615   0.002440
     4  C   -0.004801  -0.026467   0.244726   5.175930   0.293675  -0.100514
     5  C    0.000491   0.003268  -0.044615   0.293675   4.371287   0.278027
     6  O   -0.000001   0.000019   0.002440  -0.100514   0.278027   8.234764
     7  O   -0.000003   0.001063  -0.005461  -0.082824   0.591677  -0.087294
     8  C    0.000407   0.000570  -0.056827   0.320161  -0.039141   0.002180
     9  C   -0.001061   0.000044   0.000611  -0.021604   0.001054   0.000040
    10  C   -0.000004  -0.000066  -0.000151   0.002735  -0.000133  -0.000002
    11  N   -0.000005  -0.000007   0.000004  -0.000137   0.000002   0.000000
    12  C    0.000090   0.000107   0.000014   0.000031   0.000007   0.000000
    13  N   -0.021225   0.003225   0.002437  -0.004088   0.000225   0.000001
    14  C   -0.070904   0.353459  -0.121300   0.007349  -0.000179   0.000000
    15  C    0.001196  -0.020651   0.009467  -0.000819   0.000100   0.000000
    16  N   -0.000055  -0.006416  -0.039506   0.002136  -0.000150  -0.000001
    17  H    0.002495  -0.008513   0.247428  -0.025447  -0.002076   0.000256
    18  H    0.020230  -0.000927  -0.053848   0.356552  -0.021065   0.002641
    19  H    0.000000  -0.000003  -0.000283   0.010954  -0.006200   0.218681
    20  H   -0.000017  -0.000085  -0.004056  -0.030458  -0.002884  -0.000001
    21  H   -0.000010   0.000012   0.004699  -0.036609  -0.002022   0.006548
    22  H    0.000000   0.000001  -0.000007   0.000019   0.000002   0.000000
    23  H   -0.000008   0.000007  -0.000001  -0.000006   0.000000   0.000000
    24  H    0.061675  -0.001699  -0.010364   0.002549  -0.000101   0.000003
    25  H    0.000437  -0.025792   0.000680  -0.000114  -0.000002   0.000000
    26  H    0.005223  -0.024561   0.005288  -0.000124   0.000002   0.000000
    27  H    0.000308  -0.003750   0.001359  -0.000311   0.000229   0.000001
    28  H   -0.000081   0.003665  -0.000163   0.000019  -0.000002   0.000000
    29  H    0.000002   0.000028   0.000792  -0.000052   0.000009   0.000000
    30  H    0.000002   0.000139   0.000702  -0.000108   0.000034   0.000001
               7          8          9         10         11         12
     1  O   -0.000003   0.000407  -0.001061  -0.000004  -0.000005   0.000090
     2  C    0.001063   0.000570   0.000044  -0.000066  -0.000007   0.000107
     3  N   -0.005461  -0.056827   0.000611  -0.000151   0.000004   0.000014
     4  C   -0.082824   0.320161  -0.021604   0.002735  -0.000137   0.000031
     5  C    0.591677  -0.039141   0.001054  -0.000133   0.000002   0.000007
     6  O   -0.087294   0.002180   0.000040  -0.000002   0.000000   0.000000
     7  O    8.021995  -0.002501  -0.000076   0.000000   0.000000   0.000000
     8  C   -0.002501   5.227298   0.343026  -0.064667   0.006824   0.006825
     9  C   -0.000076   0.343026   4.680422   0.567906  -0.039487  -0.090832
    10  C    0.000000  -0.064667   0.567906   4.971260   0.424987  -0.126979
    11  N    0.000000   0.006824  -0.039487   0.424987   6.670280   0.538928
    12  C    0.000000   0.006825  -0.090832  -0.126979   0.538928   4.736515
    13  N   -0.000001  -0.071327   0.380197  -0.067472  -0.087094   0.369209
    14  C   -0.000101  -0.000370  -0.000022   0.000000   0.000000  -0.000002
    15  C   -0.000202   0.000029   0.000001   0.000000   0.000000   0.000000
    16  N   -0.000565  -0.000022   0.000002   0.000000   0.000000   0.000000
    17  H    0.013793  -0.000184  -0.000163   0.000003   0.000000   0.000004
    18  H    0.001831  -0.039498  -0.005671   0.000039  -0.000017  -0.000036
    19  H    0.010833  -0.000293   0.000014   0.000000   0.000000   0.000000
    20  H    0.001239   0.357337  -0.034449  -0.002574   0.000044   0.000057
    21  H    0.000138   0.360315  -0.033477  -0.002815   0.000034   0.000139
    22  H    0.000000  -0.001362  -0.062115   0.382208  -0.044307   0.007855
    23  H    0.000000  -0.000198   0.003033   0.007766  -0.040578   0.381822
    24  H   -0.000001  -0.003597  -0.024555   0.007976   0.003861  -0.019955
    25  H    0.000001   0.000023   0.000006   0.000000   0.000000   0.000000
    26  H    0.000000   0.000000   0.000000   0.000000   0.000000   0.000000
    27  H    0.000632   0.000007   0.000000   0.000000   0.000000   0.000000
    28  H    0.000000   0.000000   0.000000   0.000000   0.000000   0.000000
    29  H    0.000036   0.000002   0.000000   0.000000   0.000000   0.000000
    30  H    0.001562   0.000000   0.000000   0.000000   0.000000   0.000000
              13         14         15         16         17         18
     1  O   -0.021225  -0.070904   0.001196  -0.000055   0.002495   0.020230
     2  C    0.003225   0.353459  -0.020651  -0.006416  -0.008513  -0.000927
     3  N    0.002437  -0.121300   0.009467  -0.039506   0.247428  -0.053848
     4  C   -0.004088   0.007349  -0.000819   0.002136  -0.025447   0.356552
     5  C    0.000225  -0.000179   0.000100  -0.000150  -0.002076  -0.021065
     6  O    0.000001   0.000000   0.000000  -0.000001   0.000256   0.002641
     7  O   -0.000001  -0.000101  -0.000202  -0.000565   0.013793   0.001831
     8  C   -0.071327  -0.000370   0.000029  -0.000022  -0.000184  -0.039498
     9  C    0.380197  -0.000022   0.000001   0.000002  -0.000163  -0.005671
    10  C   -0.067472   0.000000   0.000000   0.000000   0.000003   0.000039
    11  N   -0.087094   0.000000   0.000000   0.000000   0.000000  -0.000017
    12  C    0.369209  -0.000002   0.000000   0.000000   0.000004  -0.000036
    13  N    6.932289  -0.000329   0.000000   0.000000   0.000004   0.001719
    14  C   -0.000329   5.302757   0.319659  -0.058775  -0.006362   0.001319
    15  C    0.000000   0.319659   4.940520   0.279514  -0.009619  -0.000132
    16  N    0.000000  -0.058775   0.279514   6.965603   0.059532  -0.000052
    17  H    0.000004  -0.006362  -0.009619   0.059532   0.327782   0.003976
    18  H    0.001719   0.001319  -0.000132  -0.000052   0.003976   0.528206
    19  H    0.000000   0.000000   0.000000   0.000000  -0.000030  -0.000388
    20  H    0.001885   0.000004  -0.000002  -0.000031   0.001871   0.005585
    21  H    0.001050   0.000006   0.000000   0.000000  -0.000093  -0.002376
    22  H    0.004961   0.000000   0.000000   0.000000   0.000000   0.000000
    23  H   -0.058335   0.000000   0.000000   0.000000   0.000000   0.000003
    24  H    0.243721   0.001389   0.000005  -0.000001   0.000019   0.000875
    25  H    0.000098   0.357013  -0.036553  -0.003458  -0.000093  -0.000022
    26  H    0.000003   0.345539  -0.025196   0.003883   0.000227  -0.000018
    27  H    0.000000  -0.044865   0.386138  -0.037469  -0.000361  -0.000031
    28  H    0.000000  -0.045730   0.379172  -0.040729   0.000944   0.000000
    29  H    0.000000  -0.001039  -0.029746   0.309896  -0.000786   0.000000
    30  H    0.000000   0.005421  -0.027939   0.312798  -0.001639   0.000001
              19         20         21         22         23         24
     1  O    0.000000  -0.000017  -0.000010   0.000000  -0.000008   0.061675
     2  C   -0.000003  -0.000085   0.000012   0.000001   0.000007  -0.001699
     3  N   -0.000283  -0.004056   0.004699  -0.000007  -0.000001  -0.010364
     4  C    0.010954  -0.030458  -0.036609   0.000019  -0.000006   0.002549
     5  C   -0.006200  -0.002884  -0.002022   0.000002   0.000000  -0.000101
     6  O    0.218681  -0.000001   0.006548   0.000000   0.000000   0.000003
     7  O    0.010833   0.001239   0.000138   0.000000   0.000000  -0.000001
     8  C   -0.000293   0.357337   0.360315  -0.001362  -0.000198  -0.003597
     9  C    0.000014  -0.034449  -0.033477  -0.062115   0.003033  -0.024555
    10  C    0.000000  -0.002574  -0.002815   0.382208   0.007766   0.007976
    11  N    0.000000   0.000044   0.000034  -0.044307  -0.040578   0.003861
    12  C    0.000000   0.000057   0.000139   0.007855   0.381822  -0.019955
    13  N    0.000000   0.001885   0.001050   0.004961  -0.058335   0.243721
    14  C    0.000000   0.000004   0.000006   0.000000   0.000000   0.001389
    15  C    0.000000  -0.000002   0.000000   0.000000   0.000000   0.000005
    16  N    0.000000  -0.000031   0.000000   0.000000   0.000000  -0.000001
    17  H   -0.000030   0.001871  -0.000093   0.000000   0.000000   0.000019
    18  H   -0.000388   0.005585  -0.002376   0.000000   0.000003   0.000875
    19  H    0.351187  -0.000091  -0.000046   0.000000   0.000000   0.000000
    20  H   -0.000091   0.577907  -0.036342   0.001009   0.000004  -0.000120
    21  H   -0.000046  -0.036342   0.557765   0.000516   0.000004  -0.000121
    22  H    0.000000   0.001009   0.000516   0.592725  -0.000169  -0.000094
    23  H    0.000000   0.000004   0.000004  -0.000169   0.560216   0.000547
    24  H    0.000000  -0.000120  -0.000121  -0.000094   0.000547   0.364697
    25  H    0.000000  -0.000001   0.000000   0.000000   0.000000  -0.000237
    26  H    0.000000   0.000000   0.000000   0.000000   0.000000  -0.000023
    27  H    0.000000   0.000000   0.000000   0.000000   0.000000  -0.000003
    28  H    0.000000   0.000000   0.000000   0.000000   0.000000   0.000001
    29  H    0.000000   0.000001   0.000000   0.000000   0.000000   0.000000
    30  H    0.000000   0.000001   0.000000   0.000000   0.000000   0.000000
              25         26         27         28         29         30
     1  O    0.000437   0.005223   0.000308  -0.000081   0.000002   0.000002
     2  C   -0.025792  -0.024561  -0.003750   0.003665   0.000028   0.000139
     3  N    0.000680   0.005288   0.001359  -0.000163   0.000792   0.000702
     4  C   -0.000114  -0.000124  -0.000311   0.000019  -0.000052  -0.000108
     5  C   -0.000002   0.000002   0.000229  -0.000002   0.000009   0.000034
     6  O    0.000000   0.000000   0.000001   0.000000   0.000000   0.000001
     7  O    0.000001   0.000000   0.000632   0.000000   0.000036   0.001562
     8  C    0.000023   0.000000   0.000007   0.000000   0.000002   0.000000
     9  C    0.000006   0.000000   0.000000   0.000000   0.000000   0.000000
    10  C    0.000000   0.000000   0.000000   0.000000   0.000000   0.000000
    11  N    0.000000   0.000000   0.000000   0.000000   0.000000   0.000000
    12  C    0.000000   0.000000   0.000000   0.000000   0.000000   0.000000
    13  N    0.000098   0.000003   0.000000   0.000000   0.000000   0.000000
    14  C    0.357013   0.345539  -0.044865  -0.045730  -0.001039   0.005421
    15  C   -0.036553  -0.025196   0.386138   0.379172  -0.029746  -0.027939
    16  N   -0.003458   0.003883  -0.037469  -0.040729   0.309896   0.312798
    17  H   -0.000093   0.000227  -0.000361   0.000944  -0.000786  -0.001639
    18  H   -0.000022  -0.000018  -0.000031   0.000000   0.000000   0.000001
    19  H    0.000000   0.000000   0.000000   0.000000   0.000000   0.000000
    20  H   -0.000001   0.000000   0.000000   0.000000   0.000001   0.000001
    21  H    0.000000   0.000000   0.000000   0.000000   0.000000   0.000000
    22  H    0.000000   0.000000   0.000000   0.000000   0.000000   0.000000
    23  H    0.000000   0.000000   0.000000   0.000000   0.000000   0.000000
    24  H   -0.000237  -0.000023  -0.000003   0.000001   0.000000   0.000000
    25  H    0.556089  -0.023108   0.005418  -0.003264   0.003064  -0.000029
    26  H   -0.023108   0.541154  -0.000581  -0.001539  -0.000186  -0.000172
    27  H    0.005418  -0.000581   0.566527  -0.037199   0.005711  -0.006984
    28  H   -0.003264  -0.001539  -0.037199   0.606953  -0.007325   0.000418
    29  H    0.003064  -0.000186   0.005711  -0.007325   0.434105  -0.029106
    30  H   -0.000029  -0.000172  -0.006984   0.000418  -0.029106   0.416592
 Mulliken charges:
               1
     1  O   -0.544457
     2  C    0.578348
     3  N   -0.571157
     4  C   -0.082352
     5  C    0.578482
     6  O   -0.557790
     7  O   -0.465772
     8  C   -0.345018
     9  C    0.337156
    10  C   -0.100015
    11  N   -0.433330
    12  C    0.196202
    13  N   -0.631153
    14  C   -0.343936
    15  C   -0.164941
    16  N   -0.746135
    17  H    0.397032
    18  H    0.201102
    19  H    0.415666
    20  H    0.164169
    21  H    0.182686
    22  H    0.118757
    23  H    0.145891
    24  H    0.373553
    25  H    0.169846
    26  H    0.174188
    27  H    0.165224
    28  H    0.144858
    29  H    0.314595
    30  H    0.328304
 Sum of Mulliken charges =   0.00000
 Mulliken charges with hydrogens summed into heavy atoms:
               1
     1  O   -0.544457
     2  C    0.578348
     3  N   -0.174126
     4  C    0.118750
     5  C    0.578482
     6  O   -0.142124
     7  O   -0.465772
     8  C    0.001837
     9  C    0.337156
    10  C    0.018742
    11  N   -0.433330
    12  C    0.342093
    13  N   -0.257600
    14  C    0.000097
    15  C    0.145140
    16  N   -0.103235
 APT charges:
               1
     1  O   -0.205032
     2  C    0.002721
     3  N   -0.510204
     4  C   -0.463432
     5  C   -0.197713
     6  O   -0.693865
     7  O    0.009437
     8  C   -0.963187
     9  C   -0.503992
    10  C   -0.302429
    11  N    0.385405
    12  C   -0.566649
    13  N   -0.659818
    14  C   -0.765041
    15  C   -1.033652
    16  N   -1.492904
    17  H    0.509759
    18  H    0.402711
    19  H    0.963724
    20  H    0.374655
    21  H    0.575598
    22  H    0.700000
    23  H    0.699298
    24  H    0.260898
    25  H    0.371206
    26  H    0.581937
    27  H    0.354659
    28  H    0.721877
    29  H    0.735952
    30  H    0.708079
 Sum of APT charges =   0.00000
 APT charges with hydrogens summed into heavy atoms:
               1
     1  O   -0.205032
     2  C    0.002721
     3  N   -0.000446
     4  C   -0.060721
     5  C   -0.197713
     6  O    0.269859
     7  O    0.009437
     8  C   -0.012933
     9  C   -0.503992
    10  C    0.397571
    11  N    0.385405
    12  C    0.132649
    13  N   -0.398919
    14  C    0.188102
    15  C    0.042884
    16  N   -0.048873
 Electronic spatial extent (au):  <R**2>=           4034.2550
 Charge=              0.0000 electrons
 Dipole moment (field-independent basis, Debye):
    X=              4.2434    Y=              5.8081    Z=              0.4606  Tot=              7.2078
 Quadrupole moment (field-independent basis, Debye-Ang):
   XX=            -83.5013   YY=           -106.6568   ZZ=            -90.7095
   XY=             -8.7881   XZ=             -5.1807   YZ=              7.1419
 Traceless Quadrupole moment (field-independent basis, Debye-Ang):
   XX=             10.1212   YY=            -13.0342   ZZ=              2.9130
   XY=             -8.7881   XZ=             -5.1807   YZ=              7.1419
 Octapole moment (field-independent basis, Debye-Ang**2):
  XXX=            155.1371  YYY=            170.7392  ZZZ=              6.5398  XYY=             61.3218
  XXY=             59.8282  XXZ=            -10.6990  XZZ=             26.4283  YZZ=             15.2013
  YYZ=            -23.8611  XYZ=            -24.7815
 Hexadecapole moment (field-independent basis, Debye-Ang**3):
 XXXX=          -1607.5227 YYYY=          -2760.4569 ZZZZ=          -1039.4763 XXXY=           -511.2790
 XXXZ=            344.7099 YYYX=           -764.3218 YYYZ=            173.2710 ZZZX=            276.5282
 ZZZY=             11.6356 XXYY=           -721.4369 XXZZ=           -431.5751 YYZZ=           -504.1432
 XXYZ=             49.1962 YYXZ=            113.5358 ZZXY=           -172.9159
 N-N= 1.148360106672D+03 E-N=-4.153942646336D+03  KE= 7.892267191025D+02
  Exact polarizability:   0.000   0.000   0.000   0.000   0.000   0.000
 Approx polarizability: 157.549  17.762 179.384   2.038  10.344 193.078
 Calling FoFJK, ICntrl=    100147 FMM=F ISym2X=0 I1Cent= 0 IOpClX= 0 NMat=1 NMatS=1 NMatT=0.
 -------------------------------------------------------------------
 Center     Atomic                   Forces (Hartrees/Bohr)
 Number     Number              X              Y              Z
 -------------------------------------------------------------------
      1        8          -0.009907022   -0.003213125   -0.009117665
      2        6           0.008289019   -0.004886140   -0.004175417
      3        7          -0.003370574    0.003287758    0.005641216
      4        6           0.001226085   -0.001841847    0.001256564
      5        6          -0.003616930    0.000316842   -0.001289572
      6        8          -0.004170183   -0.006544599   -0.003714667
      7        8           0.007809805    0.006209973    0.002033795
      8        6          -0.006631913   -0.007709827    0.001936646
      9        6           0.002859521    0.009324484    0.002210767
     10        6          -0.001708521   -0.012498199    0.001942338
     11        7          -0.001655838   -0.004300902    0.007203681
     12        6          -0.000385235   -0.002760349   -0.001609716
     13        7           0.000599111    0.005443551   -0.004702153
     14        6          -0.001028963   -0.000350250    0.001229590
     15        6           0.003698634    0.002139300    0.001799079
     16        7          -0.006669410    0.000559924   -0.001571970
     17        1           0.006129032    0.002040309    0.004704583
     18        1          -0.001192994    0.000055815   -0.002134163
     19        1           0.000058345    0.009190013    0.005563919
     20        1           0.003739050    0.000752016    0.002124379
     21        1          -0.002582994    0.002111750    0.001400535
     22        1           0.000055408    0.000147238    0.001576505
     23        1          -0.000341013   -0.002673900   -0.003554063
     24        1           0.000871739    0.004716983   -0.005790659
     25        1          -0.000291104   -0.002865718   -0.000917143
     26        1           0.000806851   -0.000071784   -0.002011426
     27        1          -0.000482415    0.002278220    0.000794263
     28        1           0.002237220    0.000738611   -0.003175933
     29        1           0.005002742   -0.004206209   -0.000219561
     30        1           0.000652548    0.004610062    0.002566248
 -------------------------------------------------------------------
 Cartesian Forces:  Max     0.012498199 RMS     0.004129432
 FormGI is forming the generalized inverse of G from B-inverse, IUseBI=4.

 GradGradGradGradGradGradGradGradGradGradGradGradGradGradGradGradGradGrad
 Berny optimization.
 Internal  Forces:  Max     0.015445785 RMS     0.003497696
 Search for a local minimum.
 Step number   1 out of a maximum of  160
 All quantities printed in internal units (Hartrees-Bohrs-Radians)
 Mixed Optimization -- RFO/linear search
 Second derivative matrix not updated -- analytic derivatives used.
 ITU=  0
     Eigenvalues ---    0.00047   0.00082   0.00175   0.00326   0.00579
     Eigenvalues ---    0.00602   0.00940   0.00995   0.01251   0.01901
     Eigenvalues ---    0.02087   0.02205   0.02950   0.03151   0.03215
     Eigenvalues ---    0.03937   0.04049   0.04320   0.04472   0.04604
     Eigenvalues ---    0.04726   0.05347   0.05434   0.05789   0.05819
     Eigenvalues ---    0.05994   0.06260   0.06616   0.07914   0.08603
     Eigenvalues ---    0.08621   0.11057   0.11448   0.11800   0.12158
     Eigenvalues ---    0.12943   0.13915   0.14410   0.15249   0.15642
     Eigenvalues ---    0.16707   0.17751   0.18942   0.19561   0.22028
     Eigenvalues ---    0.22231   0.22824   0.23424   0.24523   0.24961
     Eigenvalues ---    0.25562   0.26520   0.27643   0.28672   0.30770
     Eigenvalues ---    0.32505   0.33205   0.33877   0.33973   0.34195
     Eigenvalues ---    0.34821   0.35093   0.35240   0.35372   0.35782
     Eigenvalues ---    0.36520   0.38050   0.38605   0.39003   0.41744
     Eigenvalues ---    0.43113   0.43245   0.44471   0.46671   0.46938
     Eigenvalues ---    0.47067   0.49568   0.52229   0.53253   0.59580
     Eigenvalues ---    0.60244   0.66978   0.83553   0.91935
 RFO step:  Lambda=-5.00799644D-03 EMin= 4.66914731D-04
 Linear search not attempted -- first point.
 Iteration  1 RMS(Cart)=  0.06060624 RMS(Int)=  0.00132399
 Iteration  2 RMS(Cart)=  0.00264110 RMS(Int)=  0.00013192
 Iteration  3 RMS(Cart)=  0.00000511 RMS(Int)=  0.00013189
 Iteration  4 RMS(Cart)=  0.00000000 RMS(Int)=  0.00013189
 Variable       Old X    -DE/DX   Delta X   Delta X   Delta X     New X
                                 (Linear)    (Quad)   (Total)
    R1        2.32301   0.01379   0.00000   0.01627   0.01627   2.33929
    R2        2.54166   0.01545   0.00000   0.02152   0.02152   2.56318
    R3        2.88054   0.00437   0.00000   0.00572   0.00572   2.88626
    R4        2.72801   0.00639   0.00000   0.01182   0.01182   2.73984
    R5        1.92505   0.00792   0.00000   0.01688   0.01688   1.94193
    R6        2.85966   0.00931   0.00000   0.02528   0.02528   2.88494
    R7        2.89625   0.00838   0.00000   0.03205   0.03205   2.92830
    R8        2.06080   0.00237   0.00000   0.00777   0.00777   2.06857
    R9        2.54536   0.00505   0.00000   0.00826   0.00826   2.55362
   R10        2.27973   0.01013   0.00000   0.00882   0.00882   2.28855
   R11        1.82391   0.01066   0.00000   0.01971   0.01971   1.84362
   R12        2.83844   0.00338   0.00000   0.00533   0.00533   2.84377
   R13        2.06348   0.00409   0.00000   0.01122   0.01122   2.07470
   R14        2.06392   0.00343   0.00000   0.00932   0.00932   2.07324
   R15        2.57923   0.01286   0.00000   0.02385   0.02385   2.60308
   R16        2.59396   0.00900   0.00000   0.01770   0.01774   2.61171
   R17        2.60857  -0.00067   0.00000  -0.00840  -0.00845   2.60013
   R18        2.04211   0.00151   0.00000   0.00438   0.00438   2.04649
   R19        2.47688   0.00791   0.00000   0.01250   0.01248   2.48936
   R20        2.56030   0.01002   0.00000   0.01724   0.01726   2.57756
   R21        2.03374   0.00437   0.00000   0.01071   0.01071   2.04445
   R22        1.91387   0.00749   0.00000   0.01916   0.01916   1.93303
   R23        2.89014   0.00710   0.00000   0.01660   0.01660   2.90674
   R24        2.07040   0.00206   0.00000   0.00691   0.00691   2.07730
   R25        2.06002   0.00194   0.00000   0.00584   0.00584   2.06586
   R26        2.78523   0.00044   0.00000  -0.00078  -0.00078   2.78445
   R27        2.06426   0.00207   0.00000   0.00578   0.00578   2.07004
   R28        2.06863   0.00367   0.00000   0.01108   0.01108   2.07971
   R29        1.90908   0.00637   0.00000   0.01439   0.01439   1.92347
   R30        1.90944   0.00531   0.00000   0.01172   0.01172   1.92116
    A1        2.14479  -0.00030   0.00000   0.00539   0.00537   2.15016
    A2        2.12383  -0.00280   0.00000  -0.00863  -0.00865   2.11519
    A3        2.01362   0.00311   0.00000   0.00366   0.00364   2.01727
    A4        2.12440   0.00063   0.00000   0.00929   0.00848   2.13288
    A5        2.01454   0.00118   0.00000   0.00827   0.00742   2.02196
    A6        2.06741  -0.00120   0.00000   0.00952   0.00870   2.07610
    A7        1.90212  -0.00082   0.00000  -0.00621  -0.00655   1.89557
    A8        1.97089  -0.00064   0.00000   0.01696   0.01691   1.98780
    A9        1.89240   0.00021   0.00000  -0.01002  -0.01002   1.88239
   A10        1.89454   0.00354   0.00000   0.01786   0.01780   1.91233
   A11        1.89063  -0.00077   0.00000  -0.00817  -0.00817   1.88246
   A12        1.91175  -0.00155   0.00000  -0.01145  -0.01134   1.90041
   A13        1.94806   0.00006   0.00000  -0.00280  -0.00281   1.94525
   A14        2.18773   0.00100   0.00000   0.00235   0.00235   2.19007
   A15        2.14714  -0.00106   0.00000   0.00058   0.00057   2.14771
   A16        1.85213   0.00230   0.00000   0.00685   0.00685   1.85898
   A17        2.00657  -0.00313   0.00000   0.00204   0.00205   2.00862
   A18        1.90652  -0.00085   0.00000  -0.01678  -0.01681   1.88971
   A19        1.88539   0.00079   0.00000  -0.01148  -0.01153   1.87386
   A20        1.90803   0.00205   0.00000   0.00389   0.00384   1.91187
   A21        1.90089   0.00138   0.00000   0.01630   0.01629   1.91718
   A22        1.84994  -0.00003   0.00000   0.00648   0.00628   1.85622
   A23        2.27822   0.00111   0.00000  -0.00127  -0.00134   2.27688
   A24        2.17499  -0.00058   0.00000   0.00388   0.00381   2.17881
   A25        1.82955  -0.00053   0.00000  -0.00302  -0.00299   1.82656
   A26        1.93605   0.00143   0.00000   0.00574   0.00573   1.94178
   A27        2.23749  -0.00120   0.00000  -0.01101  -0.01101   2.22648
   A28        2.10964  -0.00023   0.00000   0.00527   0.00527   2.11491
   A29        1.82748   0.00052   0.00000  -0.00033  -0.00038   1.82710
   A30        1.95411   0.00169   0.00000   0.00541   0.00544   1.95955
   A31        2.20423  -0.00173   0.00000  -0.00909  -0.00911   2.19512
   A32        2.12484   0.00004   0.00000   0.00368   0.00367   2.12851
   A33        1.87755  -0.00310   0.00000  -0.00780  -0.00781   1.86974
   A34        2.19776   0.00189   0.00000   0.00325   0.00309   2.20085
   A35        2.20533   0.00123   0.00000   0.00275   0.00260   2.20793
   A36        1.98252   0.00613   0.00000   0.02747   0.02738   2.00990
   A37        1.90567  -0.00284   0.00000  -0.01672  -0.01695   1.88873
   A38        1.85657  -0.00144   0.00000   0.00067   0.00062   1.85719
   A39        1.89586   0.00023   0.00000   0.01019   0.01023   1.90608
   A40        1.93699  -0.00246   0.00000  -0.00838  -0.00844   1.92855
   A41        1.88364   0.00006   0.00000  -0.01589  -0.01594   1.86770
   A42        1.94338  -0.00015   0.00000  -0.00526  -0.00525   1.93813
   A43        1.90195   0.00147   0.00000   0.00847   0.00846   1.91041
   A44        1.90843  -0.00115   0.00000  -0.01107  -0.01105   1.89738
   A45        1.88675  -0.00103   0.00000  -0.00835  -0.00834   1.87841
   A46        1.95491   0.00119   0.00000   0.01795   0.01796   1.97286
   A47        1.86605  -0.00030   0.00000  -0.00155  -0.00152   1.86453
   A48        1.94703  -0.00183   0.00000  -0.01167  -0.01168   1.93534
   A49        1.93380   0.00076   0.00000   0.00225   0.00224   1.93604
   A50        1.87429   0.00070   0.00000  -0.00043  -0.00044   1.87385
    D1       -0.29404   0.00029   0.00000   0.05628   0.05635  -0.23769
    D2       -3.01783  -0.00102   0.00000  -0.01583  -0.01583  -3.03366
    D3        2.89336   0.00032   0.00000   0.04642   0.04643   2.93979
    D4        0.16957  -0.00098   0.00000  -0.02569  -0.02575   0.14382
    D5        2.37374  -0.00086   0.00000   0.03747   0.03760   2.41134
    D6       -1.79069   0.00152   0.00000   0.05695   0.05685  -1.73384
    D7        0.23780  -0.00059   0.00000   0.03036   0.03038   0.26819
    D8       -0.81306  -0.00083   0.00000   0.04760   0.04770  -0.76536
    D9        1.30570   0.00155   0.00000   0.06708   0.06695   1.37265
   D10       -2.94900  -0.00056   0.00000   0.04050   0.04048  -2.90852
   D11       -2.07651  -0.00065   0.00000  -0.08540  -0.08551  -2.16202
   D12        2.09984  -0.00414   0.00000  -0.11474  -0.11479   1.98505
   D13       -0.02200  -0.00191   0.00000  -0.10426  -0.10428  -0.12628
   D14        0.63516   0.00126   0.00000  -0.01148  -0.01147   0.62368
   D15       -1.47168  -0.00224   0.00000  -0.04083  -0.04075  -1.51243
   D16        2.68967   0.00000   0.00000  -0.03035  -0.03025   2.65942
   D17        2.93035  -0.00049   0.00000  -0.00200  -0.00196   2.92839
   D18       -0.23534  -0.00035   0.00000   0.00385   0.00390  -0.23145
   D19       -1.19980   0.00045   0.00000   0.02627   0.02625  -1.17354
   D20        1.91770   0.00059   0.00000   0.03212   0.03211   1.94981
   D21        0.87471   0.00015   0.00000   0.01801   0.01799   0.89270
   D22       -2.29098   0.00029   0.00000   0.02387   0.02384  -2.26714
   D23       -1.13366   0.00055   0.00000   0.00360   0.00368  -1.12998
   D24        1.01835   0.00033   0.00000  -0.00299  -0.00291   1.01544
   D25        3.02306   0.00028   0.00000  -0.01022  -0.01006   3.01300
   D26        3.03837  -0.00046   0.00000  -0.01191  -0.01204   3.02633
   D27       -1.09280  -0.00068   0.00000  -0.01850  -0.01864  -1.11144
   D28        0.91191  -0.00073   0.00000  -0.02572  -0.02579   0.88612
   D29        0.97721  -0.00070   0.00000  -0.00593  -0.00595   0.97127
   D30        3.12923  -0.00092   0.00000  -0.01252  -0.01254   3.11669
   D31       -1.14925  -0.00098   0.00000  -0.01975  -0.01969  -1.16894
   D32        3.12223  -0.00024   0.00000  -0.00705  -0.00705   3.11518
   D33        0.00408  -0.00041   0.00000  -0.01277  -0.01277  -0.00869
   D34        3.04546  -0.00101   0.00000  -0.04026  -0.04028   3.00519
   D35       -0.13212  -0.00130   0.00000  -0.05796  -0.05798  -0.19010
   D36        0.89426   0.00076   0.00000  -0.02266  -0.02261   0.87165
   D37       -2.28332   0.00047   0.00000  -0.04035  -0.04032  -2.32364
   D38       -1.11968  -0.00108   0.00000  -0.04148  -0.04149  -1.16117
   D39        1.98593  -0.00137   0.00000  -0.05917  -0.05920   1.92673
   D40        3.11732  -0.00037   0.00000  -0.01703  -0.01700   3.10033
   D41       -0.02334  -0.00019   0.00000  -0.01310  -0.01309  -0.03643
   D42        0.00636  -0.00011   0.00000  -0.00207  -0.00208   0.00428
   D43       -3.13430   0.00006   0.00000   0.00186   0.00183  -3.13247
   D44       -3.12099   0.00025   0.00000   0.01336   0.01337  -3.10762
   D45        0.09353  -0.00002   0.00000   0.03903   0.03904   0.13257
   D46       -0.00768   0.00005   0.00000  -0.00056  -0.00056  -0.00825
   D47       -3.07635  -0.00022   0.00000   0.02511   0.02511  -3.05124
   D48       -0.00248   0.00016   0.00000   0.00400   0.00401   0.00153
   D49        3.13826   0.00000   0.00000   0.00039   0.00037   3.13864
   D50       -0.00263  -0.00015   0.00000  -0.00443  -0.00445  -0.00707
   D51        3.13737   0.00004   0.00000  -0.00654  -0.00654   3.13083
   D52        0.00669   0.00007   0.00000   0.00329   0.00328   0.00997
   D53        3.07495   0.00038   0.00000  -0.02251  -0.02250   3.05245
   D54       -3.13339  -0.00011   0.00000   0.00530   0.00530  -3.12809
   D55       -0.06513   0.00020   0.00000  -0.02049  -0.02048  -0.08561
   D56        1.20284  -0.00019   0.00000  -0.01828  -0.01821   1.18463
   D57       -0.87679   0.00024   0.00000  -0.01016  -0.01007  -0.88685
   D58       -2.91078   0.00041   0.00000  -0.00688  -0.00678  -2.91756
   D59       -0.92139  -0.00081   0.00000  -0.02256  -0.02266  -0.94404
   D60       -3.00101  -0.00038   0.00000  -0.01443  -0.01452  -3.01553
   D61        1.24818  -0.00021   0.00000  -0.01115  -0.01123   1.23695
   D62       -2.98951   0.00042   0.00000  -0.00446  -0.00447  -2.99398
   D63        1.21405   0.00085   0.00000   0.00366   0.00367   1.21772
   D64       -0.81994   0.00102   0.00000   0.00694   0.00695  -0.81299
   D65        1.50386  -0.00096   0.00000  -0.06250  -0.06253   1.44133
   D66       -2.69209  -0.00078   0.00000  -0.06925  -0.06927  -2.76136
   D67       -2.69066   0.00010   0.00000  -0.06055  -0.06054  -2.75120
   D68       -0.60342   0.00028   0.00000  -0.06730  -0.06728  -0.67070
   D69       -0.63925  -0.00022   0.00000  -0.05728  -0.05728  -0.69653
   D70        1.44799  -0.00004   0.00000  -0.06403  -0.06402   1.38397
         Item               Value     Threshold  Converged?
 Maximum Force            0.015446     0.000450     NO 
 RMS     Force            0.003498     0.000300     NO 
 Maximum Displacement     0.238302     0.001800     NO 
 RMS     Displacement     0.060287     0.001200     NO 
 Predicted change in Energy=-2.784489D-03
 GradGradGradGradGradGradGradGradGradGradGradGradGradGradGradGradGradGrad

                          Input orientation:                          
 ---------------------------------------------------------------------
 Center     Atomic      Atomic             Coordinates (Angstroms)
 Number     Number       Type             X           Y           Z
 ---------------------------------------------------------------------
      1          8           0       -0.470255   -0.061501   -2.144473
      2          6           0        0.472724    0.252332   -1.406443
      3          7           0        0.328554    0.494643   -0.079698
      4          6           0       -0.970700    0.689907    0.533412
      5          6           0       -0.973604    2.037968    1.249913
      6          8           0       -2.223143    2.401506    1.613995
      7          8           0        0.006084    2.707466    1.492029
      8          6           0       -1.369006   -0.428205    1.529609
      9          6           0       -1.557337   -1.790231    0.918037
     10          6           0       -1.765352   -3.015630    1.511845
     11          7           0       -1.938676   -4.003421    0.569824
     12          6           0       -1.834788   -3.383023   -0.587600
     13          7           0       -1.612362   -2.045508   -0.439124
     14          6           0        1.900190    0.342941   -1.942088
     15          6           0        2.713179    1.546851   -1.436464
     16          7           0        3.000400    1.424203    0.003525
     17          1           0        1.164985    0.842019    0.405818
     18          1           0       -1.716278    0.733522   -0.266867
     19          1           0       -2.138691    3.252870    2.082869
     20          1           0       -0.601822   -0.480384    2.313225
     21          1           0       -2.295209   -0.110923    2.024717
     22          1           0       -1.803557   -3.238125    2.571007
     23          1           0       -1.908043   -3.846544   -1.562402
     24          1           0       -1.425833   -1.372946   -1.186935
     25          1           0        2.426063   -0.585416   -1.677538
     26          1           0        1.820150    0.365684   -3.032122
     27          1           0        2.134174    2.465256   -1.582142
     28          1           0        3.621683    1.642210   -2.050230
     29          1           0        3.811330    0.829933    0.162491
     30          1           0        3.205231    2.332538    0.411594
 ---------------------------------------------------------------------
                    Distance matrix (angstroms):
                    1          2          3          4          5
     1  O    0.000000
     2  C    1.237897   0.000000
     3  N    2.282694   1.356375   0.000000
     4  C    2.825974   2.457231   1.449859   0.000000
     5  C    4.022808   3.512348   2.417712   1.526646   0.000000
     6  O    4.823391   4.583634   3.607753   2.380304   1.351320
     7  O    4.595457   3.827085   2.733294   2.437949   1.211048
     8  C    3.800145   3.532068   2.514603   1.549591   2.513281
     9  C    3.680927   3.700868   3.126134   2.577434   3.886643
    10  C    4.875738   4.919855   4.386282   3.914053   5.121946
    11  N    5.006236   5.275597   5.078857   4.792247   6.155669
    12  C    3.913861   4.383026   4.469262   4.311853   5.788370
    13  N    2.854629   3.250132   3.216941   2.973223   4.464934
    14  C    2.413202   1.527345   2.441629   3.806638   4.617432
    15  C    3.636252   2.587725   2.938434   4.264473   4.588048
    16  N    4.343577   3.122569   2.830154   4.073034   4.209857
    17  H    3.161383   2.027621   1.027625   2.144893   2.591592
    18  H    2.389568   2.514340   2.067228   1.094640   2.133956
    19  H    5.624869   5.291315   4.286235   3.214622   1.878093
    20  H    4.479268   3.940489   2.746335   2.161801   2.758795
    21  H    4.551379   4.423378   3.417515   2.149336   2.639071
    22  H    5.839896   5.760630   5.050316   4.502764   5.501933
    23  H    4.090549   4.742696   5.103595   5.084333   6.588609
    24  H    1.884117   2.508831   2.791368   2.724354   4.216286
    25  H    2.980130   2.142626   2.849415   4.248852   5.197100
    26  H    2.493264   2.114530   3.310332   4.539494   5.379351
    27  H    3.672025   2.772781   3.066091   4.155439   4.226274
    28  H    4.433449   3.501737   4.005572   5.354630   5.671351
    29  H    4.944564   3.733827   3.507250   4.798437   5.053456
    30  H    5.076820   3.885758   3.448840   4.489039   4.272261
                    6          7          8          9         10
     6  O    0.000000
     7  O    2.253429   0.000000
     8  C    2.957015   3.424138   0.000000
     9  C    4.300967   4.796148   1.504860   0.000000
    10  C    5.437405   5.991011   2.617666   1.377491   0.000000
    11  N    6.495715   7.047593   3.745381   2.272638   1.375927
    12  C    6.201501   6.693857   3.664761   2.209277   2.132479
    13  N    4.936020   5.379543   2.559453   1.382057   2.184222
    14  C    5.821107   4.579495   4.830630   4.968424   6.053582
    15  C    5.865409   4.153488   5.418734   5.909070   7.040313
    16  N    5.552850   3.581667   4.985184   5.651716   6.685772
    17  H    3.920600   2.450061   3.049178   3.821276   4.969068
    18  H    2.564513   3.155424   2.167380   2.792596   4.149984
    19  H    0.975600   2.290550   3.801161   5.208424   6.305517
    20  H    3.379778   3.347581   1.097883   2.138985   2.902324
    21  H    2.546800   3.677367   1.097111   2.142259   2.996850
    22  H    5.735623   6.307856   3.028035   2.211183   1.082954
    23  H    7.016190   7.479871   4.640704   3.240987   3.187753
    24  H    4.767327   5.086944   2.876695   2.149960   3.177593
    25  H    6.432030   5.171607   4.971223   4.904698   5.800523
    26  H    6.486848   5.407654   5.622310   5.626647   6.703488
    27  H    5.404218   3.746727   5.507030   6.163385   7.403997
    28  H    6.940105   5.172516   6.481423   6.885819   7.962663
    29  H    6.402466   4.446650   5.503436   6.021519   6.907134
    30  H    5.560375   3.397419   5.458508   6.319475   7.383776
                   11         12         13         14         15
    11  N    0.000000
    12  C    1.317314   0.000000
    13  N    2.226630   1.363988   0.000000
    14  C    6.319609   5.446788   4.505731   0.000000
    15  C    7.514683   6.760786   5.710520   1.538183   0.000000
    16  N    7.360317   6.843821   5.788990   2.482942   1.473468
    17  H    5.756553   5.276030   4.094557   2.510432   2.507528
    18  H    4.815407   4.130721   2.786302   4.004717   4.652908
    19  H    7.415057   7.159527   5.891543   6.401603   6.231922
    20  H    4.151917   4.284892   3.323587   5.004559   5.399915
    21  H    4.170776   4.212223   3.206152   5.791624   6.309671
    22  H    2.146782   3.162083   3.243422   6.849073   7.704332
    23  H    2.138208   1.081876   2.143108   5.674380   7.103539
    24  H    3.204467   2.137020   1.022914   3.817977   5.071380
    25  H    5.982001   5.212429   4.469275   1.099262   2.164974
    26  H    6.796460   5.778154   4.931494   1.093205   2.176874
    27  H    7.941212   7.137516   5.974112   2.165301   1.095416
    28  H    8.345982   7.560775   6.602284   2.159475   1.100536
    29  H    7.522619   7.084510   6.168188   2.884246   2.067985
    30  H    8.162671   7.685559   6.565075   3.346857   2.067544
                   16         17         18         19         20
    16  N    0.000000
    17  H    1.967111   0.000000
    18  H    4.774642   2.960735   0.000000
    19  H    5.837633   4.420292   3.470851   0.000000
    20  H    4.683820   2.916944   3.061447   4.043787   0.000000
    21  H    5.872420   3.937243   2.509902   3.367935   1.757071
    22  H    7.169887   5.490707   4.882124   6.517945   3.019231
    23  H    7.370598   5.941382   4.763632   7.983914   5.296954
    24  H    5.369616   3.762349   2.316914   5.709462   3.704966
    25  H    2.682238   2.822810   4.570402   7.050537   5.010519
    26  H    3.424705   3.532077   4.504249   7.083177   5.929124
    27  H    2.085300   2.743393   4.422084   5.684190   5.597888
    28  H    2.156717   3.564806   5.700870   7.270395   6.432973
    29  H    1.017857   2.657535   5.545096   6.705313   5.081190
    30  H    1.016636   2.526714   5.219044   5.674300   5.101214
                   21         22         23         24         25
    21  H    0.000000
    22  H    3.212405   0.000000
    23  H    5.193475   4.179254   0.000000
    24  H    3.558543   4.212327   2.547978   0.000000
    25  H    6.018492   6.555661   5.425190   3.962070   0.000000
    26  H    6.537199   7.583783   5.813981   4.118733   1.762561
    27  H    6.266225   8.079785   7.495247   5.249917   3.066088
    28  H    7.395153   8.637519   7.806553   5.942546   2.555528
    29  H    6.453133   7.340096   7.586562   5.839649   2.703310
    30  H    6.231173   7.796365   8.259739   6.142691   3.672333
                   26         27         28         29         30
    26  H    0.000000
    27  H    2.570847   0.000000
    28  H    2.416433   1.763290   0.000000
    29  H    3.792872   2.920766   2.364719   0.000000
    30  H    4.200732   2.267104   2.590476   1.639276   0.000000
 Symmetry turned off by external request.
 Stoichiometry    C9H14N4O3
 Framework group  C1[X(C9H14N4O3)]
 Deg. of freedom    84
 Full point group                 C1      NOp   1
 Rotational constants (GHZ):      0.6563759      0.3737510      0.2779821
 Standard basis: 6-31G(d) (6D, 7F)
   268 basis functions,   504 primitive gaussians,   268 cartesian basis functions
    60 alpha electrons       60 beta electrons
       nuclear repulsion energy      1140.9876078011 Hartrees.
 NAtoms=   30 NActive=   30 NUniq=   30 SFac= 1.00D+00 NAtFMM=   60 NAOKFM=F Big=F
 Integral buffers will be    131072 words long.
 Raffenetti 2 integral format.
 Two-electron integral symmetry is turned off.
 One-electron integrals computed using PRISM.
 NBasis=   268 RedAO= T EigKep=  1.19D-03  NBF=   268
 NBsUse=   268 1.00D-06 EigRej= -1.00D+00 NBFU=   268
 Initial guess from the checkpoint file:  "conf-683.chk"
 B after Tr=    -0.009094    0.005723    0.012232
         Rot=    0.999997    0.000074    0.001723   -0.001902 Ang=   0.29 deg.
 ExpMin= 1.61D-01 ExpMax= 5.48D+03 ExpMxC= 8.25D+02 IAcc=2 IRadAn=         4 AccDes= 0.00D+00
 Harris functional with IExCor=  402 and IRadAn=       4 diagonalized for initial guess.
 HarFok:  IExCor=  402 AccDes= 0.00D+00 IRadAn=         4 IDoV= 1 UseB2=F ITyADJ=14
 ICtDFT=  3500011 ScaDFX=  1.000000  1.000000  1.000000  1.000000
 FoFCou: FMM=F IPFlag=           0 FMFlag=      100000 FMFlg1=           0
         NFxFlg=           0 DoJE=T BraDBF=F KetDBF=T FulRan=T
         wScrn=  0.000000 ICntrl=     500 IOpCl=  0 I1Cent=   200000004 NGrid=           0
         NMat0=    1 NMatS0=      1 NMatT0=    0 NMatD0=    1 NMtDS0=    0 NMtDT0=    0
 Symmetry not used in FoFCou.
 Requested convergence on RMS density matrix=1.00D-08 within 128 cycles.
[...]
 10365,0.00018142,-0.00103848,0.00027407,-0.00011397,0.00040424,-0.0017
 4390,-0.00094019,0.00001728,0.00002118,-0.00005892,-0.00010266,-0.0004
 1460,0.00004413,-0.00011844,-0.00062467,0.00002072,-0.00059510,0.00124
 184,-0.00031552,0.00038040,0.00024846,-0.00070743,0.01714904,0.2192801
 4,-0.00614540,-0.00379634,-0.00907237,0.00557196,0.00195102,0.01223808
 ,-0.00069133,-0.00074199,-0.00647864,-0.00205270,-0.00099851,0.0004649
 9,-0.00010849,-0.00054050,-0.00010227,0.00022796,0.00001300,-0.0001840
 7,0.00057511,0.00040162,0.00008543,-0.00014593,-0.00078833,0.00051772,
 0.00256563,0.02003142,-0.01251657,-0.00062396,-0.00307039,-0.00566182,
 0.00159162,-0.00656073,0.00458478,-0.00084237,0.00182465,0.01414958,0.
 01438640,0.16484038,-0.26663864,-0.00086963,0.00018800,-0.00076200,0.0
 0003210,0.00023035,0.00032631,-0.00013506,-0.00005085,-0.00021687,0.00
 057392,-0.00006579,-0.00010609,0.00022845,-0.00095848,0.00057351,0.000
 04686,-0.00004465,0.00001418,0.00002116,0.00035194,0.00035784,0.000102
 72,0.00044398,-0.00001748,-0.00033205,0.00083328,0.00023830,-0.0001582
 2,-0.00017824,-0.00038093,-0.01342201,-0.17308748,0.26874160,-0.001920
 21,-0.00476834,0.00177863,-0.01287158,0.03080166,-0.00744605,-0.000358
 64,-0.00160608,0.00119395,0.00021159,-0.00136700,0.00065028,0.00019770
 ,-0.00032186,-0.00020725,-0.00007038,0.00007528,0.00005086,0.00003479,
 0.00017977,0.00008755,-0.00040621,0.00039063,0.00003355,-0.00005444,0.
 00007636,-0.00003705,0.00000834,-0.00007542,0.00001510,0.00008923,-0.0
 0015256,0.00006891,-0.00003934,0.00008195,0.00005506,0.00007736,-0.000
 34163,0.00015556,-0.08921557,0.09567676,-0.01641686,0.00896214,-0.0213
 7554,0.00285817,0.00123821,0.00064009,0.00147392,-0.00061210,0.0005992
 0,-0.00011874,0.00005344,-0.00003087,-0.00011562,0.00001349,-0.0000106
 5,-0.00001002,0.00000661,-0.00000869,0.00002005,-0.00006187,-0.0001757
 7,0.00011343,-0.00000228,-0.00000633,0.00000349,-0.00004845,-0.0000281
 9,-0.00001819,0.00013591,0.00067169,-0.00032848,0.09682986,-0.00013705
 ,-0.00029502,-0.00026959,0.00070633,0.00068232,-0.00063126,0.00022447,
 0.00067597,0.00024773,0.00015011,-0.00007492,-0.00021299,-0.00009037,-
 0.00008012,-0.00001084,0.00004012,0.00001397,-0.00000115,0.00006182,0.
 00008851,-0.00002833,-0.00000529,-0.00002966,0.00004147,0.00000385,-0.
 00001536,0.00000401,-0.00001544,0.00001466,0.00000443,-0.00001352,0.00
 000583,-0.00000660,0.00002300,-0.00001871,0.00000540,0.00002455,0.0000
 0289,0.00002966,0.09162913,-0.25319902,0.03777537,0.00909104,-0.024295
 31,0.00348170,0.00056508,0.00258543,0.00117335,0.00010699,-0.00037892,
 0.00006725,-0.00002749,-0.00000045,0.00002706,-0.00000595,-0.00000412,
 0.00001349,0.00000476,-0.00000074,-0.00001306,-0.00001116,0.00000270,0
 .00000178,0.00000410,0.00000060,-0.00000245,0.00000097,0.00000232,-0.0
 0000054,0.00003504,0.00005616,-0.00008414,-0.09886969,0.27845386,-0.00
 062195,0.00041781,0.00021766,0.00577300,-0.01409347,0.00153001,0.00069
 207,0.00100945,-0.00125081,-0.00017190,0.00092787,-0.00035202,-0.00010
 540,0.00007309,0.00010178,0.00001957,-0.00001178,-0.00000082,-0.000004
 54,-0.00002936,-0.00005905,0.00029465,-0.00019794,-0.00006189,-0.00002
 322,-0.00007505,-0.00005218,-0.00001882,0.00000941,-0.00000084,-0.0000
 0935,0.00000337,-0.00000003,0.00002228,0.00004350,0.00003823,-0.000063
 28,0.00000720,0.00003576,-0.01480178,0.03651625,-0.05238216,0.00436039
 ,-0.01356584,0.00092608,0.00118035,-0.00016908,0.00137393,0.00061139,-
 0.00056892,0.00010570,0.00000625,-0.00000623,-0.00001074,-0.00000521,0
 .00000684,0.00000077,-0.00000235,-0.00000769,-0.00001699,0.00003925,0.
 00009177,-0.00007704,0.00000715,-0.00000083,-0.00000678,-0.00001142,-0
 .00000653,-0.00000292,0.00005590,0.00001482,0.00000774,0.01795382,-0.0
 3994057,0.05427828,0.00200872,0.00125250,-0.00216176,0.00202732,-0.004
 54678,0.03607654,-0.00652978,0.00032590,0.00077509,0.00061019,0.000935
 44,0.00098273,-0.00049212,-0.00051198,-0.00005870,-0.00006232,0.000272
 11,0.00014800,0.00014645,0.00018830,0.00007166,-0.00008228,0.00010126,
 0.00000409,-0.00000280,0.00004758,0.00005952,-0.00000667,0.00003506,-0
 .00003386,0.00000025,-0.00002823,-0.00005917,-0.00000083,-0.00005930,-
 0.00000593,0.00001943,0.00010744,-0.00005584,-0.04956360,0.00086703,-0
 .02364838,-0.00135816,0.00508340,-0.01892445,-0.00179966,-0.00464845,-
 0.00175401,-0.00071962,-0.00044999,-0.00033456,-0.00002371,0.00002367,
 0.00003052,-0.00003837,0.00002520,0.00001240,0.00000413,-0.00001235,0.
 00000973,-0.00002441,-0.00007266,0.00004593,-0.00000440,0.00000293,-0.
 00000014,-0.00000408,-0.00001158,-0.00000225,-0.00000858,-0.00018697,0
 .00017711,-0.00109001,0.00112921,-0.01333941,0.05676475,-0.00115038,-0
 .00079804,-0.00013792,0.00288600,-0.00073052,-0.00256973,-0.00000450,0
 .00076514,0.00029922,0.00026442,0.00045161,-0.00031275,-0.00014454,-0.
 00008174,-0.00003210,0.00000052,0.00006240,0.00005640,0.00004972,0.000
 04205,0.00003814,0.00007283,-0.00000468,-0.00005283,-0.00001155,-0.000
 01399,-0.00001883,-0.00001502,0.00000684,-0.00001593,-0.00000081,-0.00
 003677,-0.00000821,0.00001396,0.00004096,0.00004708,-0.00002614,-0.000
 04889,0.00003613,0.00037391,-0.05277319,0.03174234,-0.00024919,0.00458
 063,-0.02345618,-0.00247123,-0.00386358,-0.00214216,-0.00051855,-0.000
 49942,0.00009827,-0.00002129,0.00001412,0.00000797,-0.00000969,0.00000
 721,-0.00000276,0.00000466,-0.00001129,-0.00000148,-0.00000216,0.00000
 447,-0.00000488,0.00000234,-0.00000092,-0.00000184,-0.00001140,-0.0000
 1229,-0.00000337,0.00005697,0.00010800,0.00001333,0.00176365,-0.003240
 29,0.03065786,-0.00061722,0.05438732,-0.00181431,-0.00072099,0.0034349
 3,-0.00230928,0.00102684,-0.01630225,0.00335633,0.00028722,0.00034632,
 -0.00058920,-0.00022792,-0.00019308,0.00007668,0.00019870,0.00005783,0
 .00011513,-0.00014185,-0.00008623,0.00005880,-0.00006741,-0.00002654,0
 .00005635,-0.00006548,-0.00003705,0.00000487,-0.00003760,-0.00007106,0
 .00001435,-0.00003750,0.00002901,0.00001185,0.00000729,0.00006953,-0.0
 0001355,0.00007640,0.00000846,-0.00003718,-0.00014061,0.00004771,-0.01
 964723,0.03192223,-0.31350016,0.00043721,0.00268084,-0.00949568,-0.001
 08457,-0.00270008,-0.00009019,-0.00038019,0.00013355,0.00043500,0.0000
 9933,-0.00002416,-0.00005315,0.00000245,0.00000393,-0.00000805,-0.0000
 0584,0.00001106,0.00001138,0.00001790,0.00005031,-0.00002505,-0.000001
 03,-0.00000555,0.00000595,0.00000662,0.00000923,0.00000314,0.00007906,
 0.00018909,-0.00013893,-0.00031057,0.00091005,-0.00397644,0.02241237,-
 0.03344036,0.33885600,0.00026080,0.00022459,-0.00008376,0.00143637,-0.
 00086057,0.00015685,0.00007846,0.00027946,-0.00000977,-0.00013930,0.00
 014080,0.00010261,-0.00020415,0.00002709,0.00006989,0.00011014,-0.0000
 5496,-0.00003288,0.00011548,-0.00000459,-0.00012513,0.00004367,-0.0000
 5328,-0.00000719,0.00001581,-0.00002385,-0.00000690,0.00000443,0.00000
 198,0.00000854,-0.00000946,0.00003764,-0.00000011,0.00000447,-0.000012
 17,-0.00000405,-0.00001272,0.00003379,-0.00002058,0.00909656,-0.020784
 51,0.00188832,-0.10337302,0.10394641,-0.00596698,-0.00290748,0.0058886
 4,-0.00357600,-0.00002973,-0.00033253,0.00020812,0.00000762,-0.0000130
 6,-0.00000450,-0.00001371,0.00001591,0.00001146,-0.00000398,0.00000737
 ,0.00000018,0.00001278,0.00002975,-0.00001832,-0.00000102,-0.00000075,
 0.00000008,0.00000636,0.00000517,0.00000373,-0.00000525,-0.00006819,0.
 00001109,-0.00232655,-0.00386658,-0.00159846,0.00049457,0.00089958,0.0
 0026030,0.10887307,-0.00054644,0.00008910,0.00005909,0.00202340,0.0000
 3334,-0.00094758,-0.00059594,0.00101498,0.00052623,-0.00010247,-0.0000
 4471,0.00016418,-0.00034031,-0.00022191,0.00003042,0.00014841,0.000010
 11,-0.00001713,0.00021716,0.00018311,-0.00014858,-0.00002107,-0.000031
 18,0.00002778,0.00000889,-0.00002799,-0.00004288,-0.00000014,-0.000005
 46,0.00001155,-0.00002044,0.00002265,0.00002512,0.00000319,0.00003321,
 0.00000837,-0.00005380,-0.00001950,0.00000755,0.00774096,-0.02146716,0
 .00078929,0.10317379,-0.25875895,0.01777434,0.00212279,-0.00408252,0.0
 0229476,0.00050263,-0.00061505,0.00040521,-0.00001491,-0.00002701,-0.0
 0002183,-0.00002178,0.00000234,0.00002945,0.00000499,0.00000624,-0.000
 01238,-0.00000675,0.00001202,-0.00000314,0.00000585,-0.00000135,0.0000
 0043,0.00001420,0.00000700,0.00000356,0.00006825,-0.00000492,-0.000024
 53,-0.00320890,-0.00199522,-0.00224310,0.00002553,0.00041436,-0.000267
 64,-0.11110836,0.28113937,-0.00031460,0.00002256,-0.00016659,0.0008871
 8,0.00063591,0.00025597,0.00015319,-0.00011905,0.00025416,0.00009827,-
 0.00006225,0.00009307,0.00045815,0.00019767,0.00006401,-0.00026672,0.0
 0003986,0.00001108,-0.00036408,-0.00024351,0.00018340,-0.00004462,0.00
 003043,-0.00004786,-0.00000886,0.00000022,-0.00001110,0.00000199,0.000
 00087,-0.00001364,0.00000412,-0.00003632,0.00001110,-0.00000307,0.0000
 3451,0.00000184,-0.00001937,-0.00004213,0.00004126,0.00541955,-0.01168
 091,0.00166736,-0.00252971,0.00911577,-0.05215063,-0.01770849,0.035707
 59,-0.00945613,-0.00085282,0.00040552,-0.00027277,0.00001940,-0.000015
 48,-0.00001320,0.00003604,-0.00002023,-0.00001960,-0.00000074,0.000006
 04,0.00001194,-0.00000343,-0.00001537,0.00001969,-0.00000368,-0.000001
 49,0.00000705,0.00000537,0.00000173,0.00000086,0.00005286,0.00004182,-
 0.00002610,-0.00222614,-0.00179947,-0.00051390,0.00046068,0.00031386,0
 .00017245,0.01158493,-0.01852598,0.06333284,-0.00235327,0.00013029,0.0
 0004839,0.00195078,-0.00358500,-0.00323366,0.00013710,-0.00010490,0.00
 066141,0.00043476,0.00020266,-0.00010499,0.00013183,-0.00027200,-0.000
 18856,-0.00019315,0.00017558,0.00012754,-0.00008153,0.00012063,0.00015
 787,-0.00001533,0.00009194,-0.00001589,-0.00004001,0.00001319,-0.00008
 081,-0.00000924,-0.00000312,-0.00001651,0.00001455,-0.00012843,0.00004
 454,-0.00000463,0.00014126,0.00002110,-0.00003078,-0.00016476,0.000153
 24,-0.01911907,-0.00030269,0.00992923,-0.22923475,-0.00088313,0.107204
 03,0.01264349,-0.00016521,-0.00492025,-0.00033603,0.00012602,-0.000369
 35,0.00002354,-0.00001175,-0.00003157,0.00001741,-0.00001317,-0.000012
 15,0.00000926,-0.00001909,0.00001360,-0.00002933,-0.00004782,0.0000351
 1,0.00000212,-0.00000166,0.00000915,0.00000018,-0.00000114,-0.00000492
 ,0.00014254,0.00027810,-0.00015306,0.00103627,-0.00011156,0.00022926,0
 .00004204,0.00024022,-0.00044576,-0.01226712,0.00010169,0.00714748,0.2
 4470246,-0.00259827,0.00031043,0.00015525,0.00047945,-0.00403627,-0.00
 435855,0.00014651,0.00073685,0.00082999,0.00009423,0.00009132,0.000054
 80,-0.00023539,-0.00029097,-0.00006095,0.00004941,0.00007490,0.0000438
 4,0.00012018,0.00022237,-0.00003710,-0.00001599,0.00002740,0.00001283,
 -0.00001755,0.00000025,-0.00007753,0.00000182,-0.00001348,0.00000638,0
 .00001402,-0.00005823,0.00004275,-0.00000474,0.00009812,0.00001326,-0.
 00002558,-0.00011320,0.00008845,-0.02452925,-0.00125971,0.01193962,-0.
 00060910,-0.05556637,0.00153429,-0.00406164,0.00284306,0.00676439,-0.0
 0006638,-0.00020601,0.00030767,0.00002914,-0.00002939,-0.00003488,-0.0
 0001489,0.00000080,0.00001653,0.00000335,-0.00000610,0.00000297,-0.000
 01555,-0.00001817,0.00001309,0.00000024,-0.00000287,0.00000551,-0.0000
 0143,0.00000049,-0.00000198,0.00009368,0.00019556,-0.00011826,0.000814
 55,0.00094867,0.00083638,0.00060716,0.00097834,-0.00005670,0.02578862,
 0.00175185,-0.01576816,0.00459843,0.05303803,-0.00116704,0.00031112,0.
 00029586,0.00040231,-0.00274877,-0.00163063,0.00046918,0.00024391,0.00
 159039,0.00026828,0.00019954,0.00035344,-0.00058969,-0.00021329,-0.000
 10683,0.00025715,0.00002800,-0.00001194,0.00040937,0.00003995,0.000111
 43,-0.00007683,0.00000926,-0.00004243,0.00001645,-0.00001842,-0.000055
 18,0.00001639,-0.00002282,0.00000668,0.00001232,0.00000919,0.00004296,
 -0.00001010,0.00005009,0.00000477,-0.00000963,-0.00004542,0.00003160,-
 0.01133369,-0.00063998,0.00743585,0.10791087,0.00193997,-0.11348219,0.
 02407689,0.00379274,-0.03505873,-0.00350322,-0.00032091,-0.00108877,0.
 00013896,-0.00002662,-0.00009463,-0.00005292,0.00003397,0.00000925,-0.
 00000764,-0.00000211,0.00005199,0.00000654,-0.00000243,0.00002525,-0.0
 0000798,-0.00000845,0.00000976,0.00000247,0.00000501,0.00000447,0.0000
 2958,0.00007334,-0.00007554,0.00047615,0.00024708,0.00000830,0.0001018
 3,0.00046776,0.00068417,-0.00097130,-0.00091668,0.00237371,-0.11732440
 ,-0.00191410,0.13650485,0.00006609,-0.00000145,-0.00016223,-0.00053047
 ,0.00035003,0.00024035,-0.00159229,-0.00166204,0.00000599,-0.00019171,
 -0.00017316,-0.00019345,0.00033687,0.00025718,0.00004098,-0.00015481,-
 0.00004486,0.00000676,-0.00028491,-0.00014571,0.00009815,-0.00008800,0
 .00007672,-0.00010822,0.00001355,0.00003819,0.00001310,0.00003850,-0.0
 0003037,0.00000009,0.00004754,-0.00001167,0.00000391,-0.00002129,-0.00
 001094,-0.00001907,0.00006736,-0.00002075,0.00000026,-0.00051748,0.001
 00250,-0.00013963,-0.00508539,0.00224491,0.00655022,-0.17857283,0.2071
 5052,-0.04914823,0.00149830,0.00334637,-0.00078915,-0.00006385,0.00000
 450,0.00003263,0.00001385,0.00000238,-0.00002574,-0.00002266,0.0000141
 4,0.00007433,0.00003031,-0.00002547,0.00003993,-0.00002542,-0.00000866
 ,0.00001504,-0.00001101,-0.00000232,0.00000306,-0.00005005,0.00005086,
 -0.00002709,0.00001872,-0.00081232,-0.00066796,0.00018431,-0.00055966,
 0.00010385,0.00071545,-0.00039770,-0.00151074,0.00171640,-0.00123731,-
 0.00023639,0.17318541,-0.00011428,-0.00001006,-0.00017423,-0.00013819,
 -0.00000182,0.00023573,-0.00085106,-0.00079504,-0.00022005,-0.00005363
 ,-0.00003022,-0.00012852,0.00004271,0.00002673,0.00001366,-0.00000061,
 -0.00000884,-0.00000205,-0.00002624,0.00001623,0.00001193,-0.00001008,
 0.00003370,-0.00001376,-0.00000016,0.00002746,-0.00000373,0.00001860,-
 0.00000978,0.00000866,0.00003067,-0.00001837,-0.00000045,-0.00000948,0
 .00000158,-0.00001570,0.00003238,-0.00001996,0.00001321,-0.00047566,0.
 00197016,0.00007494,0.00430916,-0.00493003,0.00098716,0.16150561,-0.27
 241533,0.02249625,0.00156149,0.00131045,-0.00019367,-0.00004400,0.0000
 0854,0.00001121,-0.00000281,0.00000374,-0.00000014,-0.00000639,0.00000
 400,0.00001701,0.00000794,-0.00001383,0.00000876,-0.00001235,-0.000001
 64,0.00000614,-0.00000850,-0.00000199,-0.00000035,-0.00001418,0.000042
 42,-0.00002322,0.00059273,-0.00028424,0.00013322,0.00005404,-0.0002265
 5,0.00004689,-0.00052491,0.00178371,0.00149217,-0.00067757,0.00053476,
 -0.00113016,-0.18946570,0.29723682,0.00042720,0.00011313,0.00012876,-0
 .00034296,-0.00007622,0.00005988,0.00111556,0.00081851,-0.00004042,-0.
 00005877,0.00007648,0.00016410,-0.00033754,-0.00008631,0.00000941,0.00
 024010,-0.00003820,-0.00006528,0.00033294,0.00004911,-0.00011115,0.000
 08207,-0.00006136,0.00009937,0.00000663,-0.00000984,0.00004088,-0.0000
 1654,0.00001039,0.00002710,-0.00002485,0.00005510,-0.00003613,0.000012
 82,-0.00006431,-0.00000264,0.00000311,0.00008274,-0.00008559,0.0006437
 3,0.00081884,0.00112450,-0.02529924,0.03480795,-0.00717310,-0.03040192
 ,0.00642125,-0.05284011,-0.00142823,-0.00188657,0.00012412,0.00005953,
 0.00001493,-0.00001077,-0.00002272,0.00000631,0.00002642,0.00000682,-0
 .00000943,-0.00004968,-0.00000546,0.00002793,-0.00004268,0.00001807,0.
 00000904,-0.00002021,-0.00000316,-0.00000211,-0.00000380,-0.00006276,-
 0.00010708,0.00006739,-0.00015760,-0.00118287,0.00000514,0.00037838,-0
 .00017476,0.00012113,-0.00160205,0.00068790,-0.00745457,0.00056446,0.0
 0032706,0.00178903,0.04221695,-0.02797051,0.06229776,-0.00048431,0.000
 06635,0.00017463,0.00130321,-0.00014243,-0.00016559,-0.00244828,0.0005
 0404,0.00065079,0.00022105,0.00001044,-0.00057067,-0.00152191,-0.00116
 317,-0.00045226,0.00080428,0.00016946,-0.00000877,0.00135089,0.0007237
 5,0.00026407,-0.00011408,0.00003131,0.00006361,0.00002033,-0.00000513,
 -0.00009248,0.00000373,-0.00001449,0.00001196,-0.00000184,0.00001001,0
 .00005817,-0.00000502,0.00007824,0.00000957,-0.00004254,-0.00004823,0.
 00005134,-0.00005425,0.00117388,-0.00329638,-0.00615020,-0.00555055,0.
 00462447,-0.11443518,-0.15248951,-0.10274151,0.00149011,-0.00227066,-0
 .00156328,-0.00017797,0.00005941,0.00008048,-0.00013835,0.00006755,0.0
 0005755,0.00001298,-0.00003540,0.00003140,-0.00002628,-0.00003051,0.00
 004005,0.00000061,-0.00000836,0.00000711,0.00000769,0.00000724,0.00000
 405,0.00008833,0.00007605,-0.00007631,0.00016395,0.00016583,0.00019970
 ,-0.00049077,-0.00081546,-0.00047475,0.00001742,0.00027728,-0.00047213
 ,0.00070954,0.00059227,0.00069611,0.00927951,0.02428046,0.01365544,0.1
 1061735,0.00014279,-0.00008119,-0.00001041,-0.00027436,0.00006165,0.00
 017859,0.00027973,0.00009227,-0.00007344,-0.00003474,0.00000224,-0.000
 01797,0.00009395,0.00013870,0.00003546,-0.00006927,-0.00002141,-0.0000
 0599,-0.00005479,-0.00021513,0.00003716,0.00000597,-0.00000935,-0.0000
 3080,-0.00000304,-0.00000984,0.00000682,-0.00000370,0.00000472,-0.0000
 1129,0.00000078,-0.00000337,-0.00000065,0.00000180,-0.00000044,0.00000
 400,0.00000091,0.00000390,0.00000626,0.00050575,0.00048700,0.00105152,
 0.00336141,0.00774590,0.00696898,-0.11841462,-0.29413788,-0.12149087,-
 0.00061045,-0.00025059,-0.00005197,0.00000800,-0.00000128,0.00001370,0
 .00001534,0.00000689,-0.00001576,-0.00000242,-0.00000201,0.00000688,0.
 00000636,0.00000590,-0.00000048,-0.00000175,-0.00000097,0.00000158,-0.
 00000070,-0.00000030,0.00000044,-0.00000449,-0.00000968,0.00000947,-0.
 00001680,0.00037821,0.00016756,0.00006175,0.00047871,0.00038023,0.0003
 8153,0.00079955,0.00028382,0.00027299,-0.00025245,0.00055921,-0.019928
 22,-0.02423260,-0.01265714,0.13428032,0.30902288,-0.00000554,0.0000534
 3,0.00040287,0.00007446,0.00002031,-0.00095592,0.00160506,-0.00013389,
 0.00026579,-0.00008290,0.00000658,0.00048958,0.00046410,0.00041792,0.0
 0021540,-0.00024415,-0.00007922,-0.00001239,-0.00043992,-0.00019417,-0
 .00030623,0.00004152,-0.00000975,0.00000570,-0.00000492,0.00000781,0.0
 0002264,0.00000787,-0.00000338,0.00001488,0.00000440,0.00000034,-0.000
 02027,-0.00000199,-0.00002620,-0.00001068,0.00001254,0.00000264,-0.000
 02771,0.00022716,0.00327976,-0.00699882,-0.01848119,-0.03175752,-0.016
 27922,-0.07346407,-0.10020789,-0.09835788,-0.00200405,0.00118051,0.000
 67759,0.00014531,-0.00003910,-0.00005458,0.00004977,-0.00003185,0.0000
 0434,-0.00001025,0.00002432,-0.00001653,0.00001042,0.00001279,-0.00001
 911,-0.00000021,0.00000507,-0.00000405,-0.00000249,-0.00000118,-0.0000
 0209,-0.00003020,-0.00001301,0.00001086,0.00040409,0.00015400,0.000135
 25,-0.00136809,-0.00140231,-0.00027915,-0.00027814,0.00032619,0.001644
 30,0.00055547,-0.00056686,0.00031313,0.00358230,0.00431957,0.00185113,
 0.08923364,0.12465510,0.11729119\\0.00000452,0.00000683,-0.00000402,0.
 00000849,-0.00000929,-0.00000395,0.00000812,0.00001130,0.00000250,-0.0
 0000971,-0.00000370,0.00000679,-0.00000202,-0.00000063,0.00000070,0.00
 000106,-0.00000019,-0.00000033,-0.00000040,0.00000149,-0.00000030,0.00
 000392,0.00000358,-0.00000135,-0.00000148,-0.00000279,-0.00000634,0.00
 000038,-0.00000303,-0.00000179,-0.00000066,0.00000117,0.00000307,0.000
 00007,0.00000217,0.00000183,-0.00000304,-0.00000331,0.00000324,-0.0000
 0317,-0.00000070,-0.00000519,0.00000066,0.00000181,0.00000386,-0.00000
 422,-0.00000362,-0.00000017,0.00000032,-0.00000383,0.00000255,0.000000
 40,0.00000014,0.,-0.00000050,0.00000030,-0.00000058,0.00000038,-0.0000
 0033,-0.00000014,-0.00000045,0.00000300,-0.00000066,-0.00000036,-0.000
 00022,-0.00000032,0.00000053,0.00000012,-0.00000049,-0.00000045,-0.000
 00211,-0.00000066,-0.00000068,0.00000157,0.00000122,0.00000098,0.00000
 089,-0.00000090,0.00000109,0.00000060,-0.00000112,-0.00000051,-0.00000
 118,0.00000025,-0.00000014,0.00000048,0.00000075,-0.00000312,-0.000000
 53,0.00000155\\\@


 THOSE WHO TRY TO PASS CHEMISTRY OFF AS A NEW SCIENCE
 SHOW HOW LITTLE KNOWLEDGE THEY HAVE OF THE CHARACTER
 AND LITERATURE OF THE ANCIENTS.
   -- NICOLAS LEFEVRE
 "COURS DE CHYMIE" J.-N.LELOUP, PARIS, 1751
 Job cpu time:       0 days  1 hours  5 minutes 30.5 seconds.
 File lengths (MBytes):  RWF=    260 Int=      0 D2E=      0 Chk=      8 Scr=      1
 Normal termination of Gaussian 09 at Wed Jul 28 22:42:01 2021.
