 Entering Gaussian System, Link 0=g09
 Input=opt_freq-conf-801.com
 Output=opt_freq-conf-801.log
 Initial command:
 /aerosol/software/g09/l1.exe "/scratch/nicole/10599/Gau-95079.inp" -scrdir="/scratch/nicole/10599/"
 Entering Link 1 = /aerosol/software/g09/l1.exe PID=     95085.
  
 Copyright (c) 1988,1990,1992,1993,1995,1998,2003,2009,2013,
            Gaussian, Inc.  All Rights Reserved.
  
 This is part of the Gaussian(R) 09 program.  It is based on
 the Gaussian(R) 03 system (copyright 2003, Gaussian, Inc.),
 the Gaussian(R) 98 system (copyright 1998, Gaussian, Inc.),
 the Gaussian(R) 94 system (copyright 1995, Gaussian, Inc.),
 the Gaussian 92(TM) system (copyright 1992, Gaussian, Inc.),
 the Gaussian 90(TM) system (copyright 1990, Gaussian, Inc.),
 the Gaussian 88(TM) system (copyright 1988, Gaussian, Inc.),
 the Gaussian 86(TM) system (copyright 1986, Carnegie Mellon
 University), and the Gaussian 82(TM) system (copyright 1983,
 Carnegie Mellon University). Gaussian is a federally registered
 trademark of Gaussian, Inc.
  
 This software contains proprietary and confidential information,
 including trade secrets, belonging to Gaussian, Inc.
  
 This software is provided under written license and may be
 used, copied, transmitted, or stored only in accord with that
 written license.
  
 The following legend is applicable only to US Government
 contracts under FAR:
  
                    RESTRICTED RIGHTS LEGEND
  
 Use, reproduction and disclosure by the US Government is
 subject to restrictions as set forth in subparagraphs (a)
 and (c) of the Commercial Computer Software - Restricted
 Rights clause in FAR 52.227-19.
  
 Gaussian, Inc.
 340 Quinnipiac St., Bldg. 40, Wallingford CT 06492
  
  
 ---------------------------------------------------------------
 Warning -- This program may not be used in any manner that
 competes with the business of Gaussian, Inc. or will provide
 assistance to any competitor of Gaussian, Inc.  The licensee
 of this program is prohibited from giving any competitor of
 Gaussian, Inc. access to this program.  By using this program,
 the user acknowledges that Gaussian, Inc. is engaged in the
 business of creating and licensing software in the field of
 computational chemistry and represents and warrants to the
 licensee that it is not a competitor of Gaussian, Inc. and that
 it will not use this program in any manner prohibited above.
 ---------------------------------------------------------------
  

 Cite this work as:
 Gaussian 09, Revision D.01,
 M. J. Frisch, G. W. Trucks, H. B. Schlegel, G. E. Scuseria, 
 M. A. Robb, J. R. Cheeseman, G. Scalmani, V. Barone, B. Mennucci, 
 G. A. Petersson, H. Nakatsuji, M. Caricato, X. Li, H. P. Hratchian, 
 A. F. Izmaylov, J. Bloino, G. Zheng, J. L. Sonnenberg, M. Hada, 
 M. Ehara, K. Toyota, R. Fukuda, J. Hasegawa, M. Ishida, T. Nakajima, 
 Y. Honda, O. Kitao, H. Nakai, T. Vreven, J. A. Montgomery, Jr., 
 J. E. Peralta, F. Ogliaro, M. Bearpark, J. J. Heyd, E. Brothers, 
 K. N. Kudin, V. N. Staroverov, T. Keith, R. Kobayashi, J. Normand, 
 K. Raghavachari, A. Rendell, J. C. Burant, S. S. Iyengar, J. Tomasi, 
 M. Cossi, N. Rega, J. M. Millam, M. Klene, J. E. Knox, J. B. Cross, 
 V. Bakken, C. Adamo, J. Jaramillo, R. Gomperts, R. E. Stratmann, 
 O. Yazyev, A. J. Austin, R. Cammi, C. Pomelli, J. W. Ochterski, 
 R. L. Martin, K. Morokuma, V. G. Zakrzewski, G. A. Voth, 
 P. Salvador, J. J. Dannenberg, S. Dapprich, A. D. Daniels, 
 O. Farkas, J. B. Foresman, J. V. Ortiz, J. Cioslowski, 
 and D. J. Fox, Gaussian, Inc., Wallingford CT, 2013.
 
 ******************************************
 Gaussian 09:  ES64L-G09RevD.01 24-Apr-2013
                28-Jul-2021 
 ******************************************
 %mem=2gb
 %nproc=4
 Will use up to    4 processors via shared memory.
 %chk=conf-801.chk
 ----------------------------------------------------------------------
 # B3LYP/6-31G(d) opt=calcfc freq=noraman nosymm integral(ultrafinegrid
 )
 ----------------------------------------------------------------------
 1/10=4,14=-1,18=20,19=15,26=4,38=1/1,3;
 2/9=110,12=2,15=1,17=6,18=5,40=1/2;
 3/5=1,6=6,7=1,11=2,16=1,25=1,30=1,71=2,74=-5,75=-5,140=1/1,2,3;
 4//1;
 5/5=2,38=5/2;
 8/6=4,10=90,11=11/1;
 11/6=1,8=1,9=11,15=111,16=1,31=1/1,2,10;
 10/6=1,13=1,31=1/2;
 6/7=2,8=2,9=2,10=2,28=1/1;
 7/10=1,18=20,25=1,30=1/1,2,3,16;
 1/10=4,14=-1,18=20,19=15,26=4/3(2);
 2/9=110,15=1/2;
 99//99;
 2/9=110,15=1/2;
 3/5=1,6=6,7=1,11=2,16=1,25=1,30=1,71=1,74=-5,75=-5/1,2,3;
 4/5=5,16=3,69=1/1;
 5/5=2,38=5/2;
 7/30=1/1,2,3,16;
 1/14=-1,18=20,19=15,26=4/3(-5);
 2/9=110,15=1/2;
 6/7=2,8=2,9=2,10=2,19=2,28=1/1;
 99/9=1/99;
 ------------------------------------------------------------
 Candidate Structure: Conf:801 OPT and FREQ calc in gas phase
 ------------------------------------------------------------
 Symbolic Z-matrix:
 Charge =  0 Multiplicity = 1
 O                     1.45238   0.72653  -1.1041 
 C                     1.69694   0.02758  -0.12947 
 N                     0.73044  -0.2788    0.77507 
 C                    -0.61161   0.25591   0.65774 
 C                    -1.22657   0.19322   2.04948 
 O                    -2.2089    1.07001   2.31815 
 O                    -0.86618  -0.60134   2.87563 
 C                    -1.43329  -0.55971  -0.37094 
 C                    -2.78158   0.01959  -0.64015 
 C                    -3.23941   0.85888  -1.61989 
 N                    -4.56772   1.18088  -1.41296 
 C                    -4.90354   0.54226  -0.31618 
 N                    -3.86834  -0.18116   0.18419 
 C                     3.06094  -0.5785    0.15252 
 C                     4.15686  -0.01984  -0.74222 
 N                     5.42262  -0.68134  -0.41472 
 H                     0.92504  -0.80626   1.61402 
 H                    -0.55424   1.28912   0.30078 
 H                    -2.408     1.63003   1.55666 
 H                    -1.51389  -1.59175  -0.02627 
 H                    -0.85985  -0.56242  -1.29566 
 H                    -2.6889    1.25435  -2.46035 
 H                    -5.86438   0.56402   0.16666 
 H                    -3.86647  -0.69349   1.05495 
 H                     3.00019  -1.66478   0.01086 
 H                     3.32333  -0.41997   1.20247 
 H                     4.26651   1.05048  -0.55305 
 H                     3.8512   -0.13073  -1.7896 
 H                     5.39439  -1.64588  -0.72628 
 H                     6.18179  -0.24698  -0.92563 
 

 GradGradGradGradGradGradGradGradGradGradGradGradGradGradGradGradGradGrad
 Berny optimization.
 Initialization pass.
                           ----------------------------
                           !    Initial Parameters    !
                           ! (Angstroms and Degrees)  !
 --------------------------                            --------------------------
 ! Name  Definition              Value          Derivative Info.                !
 --------------------------------------------------------------------------------
 ! R1    R(1,2)                  1.224          calculate D2E/DX2 analytically  !
 ! R2    R(2,3)                  1.3587         calculate D2E/DX2 analytically  !
 ! R3    R(2,14)                 1.519          calculate D2E/DX2 analytically  !
 ! R4    R(3,4)                  1.4494         calculate D2E/DX2 analytically  !
 ! R5    R(3,17)                 1.0099         calculate D2E/DX2 analytically  !
 ! R6    R(4,5)                  1.5228         calculate D2E/DX2 analytically  !
 ! R7    R(4,8)                  1.5487         calculate D2E/DX2 analytically  !
 ! R8    R(4,18)                 1.0946         calculate D2E/DX2 analytically  !
 ! R9    R(5,6)                  1.3438         calculate D2E/DX2 analytically  !
 ! R10   R(5,7)                  1.2016         calculate D2E/DX2 analytically  !
 ! R11   R(6,19)                 0.966          calculate D2E/DX2 analytically  !
 ! R12   R(8,9)                  1.492          calculate D2E/DX2 analytically  !
 ! R13   R(8,20)                 1.0911         calculate D2E/DX2 analytically  !
 ! R14   R(8,21)                 1.0881         calculate D2E/DX2 analytically  !
 ! R15   R(9,10)                 1.3689         calculate D2E/DX2 analytically  !
 ! R16   R(9,13)                 1.3787         calculate D2E/DX2 analytically  !
 ! R17   R(10,11)                1.3824         calculate D2E/DX2 analytically  !
 ! R18   R(10,22)                1.0797         calculate D2E/DX2 analytically  !
 ! R19   R(11,12)                1.3128         calculate D2E/DX2 analytically  !
 ! R20   R(12,13)                1.3584         calculate D2E/DX2 analytically  !
 ! R21   R(12,23)                1.0756         calculate D2E/DX2 analytically  !
 ! R22   R(13,24)                1.0103         calculate D2E/DX2 analytically  !
 ! R23   R(14,15)                1.5211         calculate D2E/DX2 analytically  !
 ! R24   R(14,25)                1.0972         calculate D2E/DX2 analytically  !
 ! R25   R(14,26)                1.0938         calculate D2E/DX2 analytically  !
 ! R26   R(15,16)                1.4653         calculate D2E/DX2 analytically  !
 ! R27   R(15,27)                1.0924         calculate D2E/DX2 analytically  !
 ! R28   R(15,28)                1.0967         calculate D2E/DX2 analytically  !
 ! R29   R(16,29)                1.014          calculate D2E/DX2 analytically  !
 ! R30   R(16,30)                1.0129         calculate D2E/DX2 analytically  !
 ! A1    A(1,2,3)              121.1123         calculate D2E/DX2 analytically  !
 ! A2    A(1,2,14)             123.7151         calculate D2E/DX2 analytically  !
 ! A3    A(3,2,14)             115.1624         calculate D2E/DX2 analytically  !
 ! A4    A(2,3,4)              121.4368         calculate D2E/DX2 analytically  !
 ! A5    A(2,3,17)             122.2572         calculate D2E/DX2 analytically  !
 ! A6    A(4,3,17)             115.9985         calculate D2E/DX2 analytically  !
 ! A7    A(3,4,5)              106.5436         calculate D2E/DX2 analytically  !
 ! A8    A(3,4,8)              110.5325         calculate D2E/DX2 analytically  !
 ! A9    A(3,4,18)             109.0312         calculate D2E/DX2 analytically  !
 ! A10   A(5,4,8)              111.7829         calculate D2E/DX2 analytically  !
 ! A11   A(5,4,18)             110.9798         calculate D2E/DX2 analytically  !
 ! A12   A(8,4,18)             107.9569         calculate D2E/DX2 analytically  !
 ! A13   A(4,5,6)              116.8108         calculate D2E/DX2 analytically  !
 ! A14   A(4,5,7)              122.3082         calculate D2E/DX2 analytically  !
 ! A15   A(6,5,7)              120.8798         calculate D2E/DX2 analytically  !
 ! A16   A(5,6,19)             111.7964         calculate D2E/DX2 analytically  !
 ! A17   A(4,8,9)              113.2552         calculate D2E/DX2 analytically  !
 ! A18   A(4,8,20)             109.1183         calculate D2E/DX2 analytically  !
 ! A19   A(4,8,21)             106.6295         calculate D2E/DX2 analytically  !
 ! A20   A(9,8,20)             110.9481         calculate D2E/DX2 analytically  !
 ! A21   A(9,8,21)             108.8976         calculate D2E/DX2 analytically  !
 ! A22   A(20,8,21)            107.7613         calculate D2E/DX2 analytically  !
 ! A23   A(8,9,10)             132.0246         calculate D2E/DX2 analytically  !
 ! A24   A(8,9,13)             123.2236         calculate D2E/DX2 analytically  !
 ! A25   A(10,9,13)            104.6885         calculate D2E/DX2 analytically  !
 ! A26   A(9,10,11)            110.9196         calculate D2E/DX2 analytically  !
 ! A27   A(9,10,22)            127.6719         calculate D2E/DX2 analytically  !
 ! A28   A(11,10,22)           121.4077         calculate D2E/DX2 analytically  !
 ! A29   A(10,11,12)           104.9241         calculate D2E/DX2 analytically  !
 ! A30   A(11,12,13)           111.8297         calculate D2E/DX2 analytically  !
 ! A31   A(11,12,23)           126.4208         calculate D2E/DX2 analytically  !
 ! A32   A(13,12,23)           121.7484         calculate D2E/DX2 analytically  !
 ! A33   A(9,13,12)            107.632          calculate D2E/DX2 analytically  !
 ! A34   A(9,13,24)            125.9936         calculate D2E/DX2 analytically  !
 ! A35   A(12,13,24)           126.0816         calculate D2E/DX2 analytically  !
 ! A36   A(2,14,15)            113.0307         calculate D2E/DX2 analytically  !
 ! A37   A(2,14,25)            108.745          calculate D2E/DX2 analytically  !
 ! A38   A(2,14,26)            109.6202         calculate D2E/DX2 analytically  !
 ! A39   A(15,14,25)           109.1217         calculate D2E/DX2 analytically  !
 ! A40   A(15,14,26)           109.7901         calculate D2E/DX2 analytically  !
 ! A41   A(25,14,26)           106.3037         calculate D2E/DX2 analytically  !
 ! A42   A(14,15,16)           108.9717         calculate D2E/DX2 analytically  !
 ! A43   A(14,15,27)           109.2867         calculate D2E/DX2 analytically  !
 ! A44   A(14,15,28)           108.8947         calculate D2E/DX2 analytically  !
 ! A45   A(16,15,27)           108.4764         calculate D2E/DX2 analytically  !
 ! A46   A(16,15,28)           114.1156         calculate D2E/DX2 analytically  !
 ! A47   A(27,15,28)           107.0034         calculate D2E/DX2 analytically  !
 ! A48   A(15,16,29)           109.6769         calculate D2E/DX2 analytically  !
 ! A49   A(15,16,30)           109.9444         calculate D2E/DX2 analytically  !
 ! A50   A(29,16,30)           105.889          calculate D2E/DX2 analytically  !
 ! D1    D(1,2,3,4)             -2.8051         calculate D2E/DX2 analytically  !
 ! D2    D(1,2,3,17)          -176.181          calculate D2E/DX2 analytically  !
 ! D3    D(14,2,3,4)           178.3159         calculate D2E/DX2 analytically  !
 ! D4    D(14,2,3,17)            4.94           calculate D2E/DX2 analytically  !
 ! D5    D(1,2,14,15)           11.0544         calculate D2E/DX2 analytically  !
 ! D6    D(1,2,14,25)         -110.2876         calculate D2E/DX2 analytically  !
 ! D7    D(1,2,14,26)          133.8825         calculate D2E/DX2 analytically  !
 ! D8    D(3,2,14,15)         -170.0994         calculate D2E/DX2 analytically  !
 ! D9    D(3,2,14,25)           68.5585         calculate D2E/DX2 analytically  !
 ! D10   D(3,2,14,26)          -47.2714         calculate D2E/DX2 analytically  !
 ! D11   D(2,3,4,5)           -157.6449         calculate D2E/DX2 analytically  !
 ! D12   D(2,3,4,8)             80.7119         calculate D2E/DX2 analytically  !
 ! D13   D(2,3,4,18)           -37.8064         calculate D2E/DX2 analytically  !
 ! D14   D(17,3,4,5)            16.1243         calculate D2E/DX2 analytically  !
 ! D15   D(17,3,4,8)          -105.5189         calculate D2E/DX2 analytically  !
 ! D16   D(17,3,4,18)          135.9628         calculate D2E/DX2 analytically  !
 ! D17   D(3,4,5,6)            154.6107         calculate D2E/DX2 analytically  !
 ! D18   D(3,4,5,7)            -25.785          calculate D2E/DX2 analytically  !
 ! D19   D(8,4,5,6)            -84.5438         calculate D2E/DX2 analytically  !
 ! D20   D(8,4,5,7)             95.0605         calculate D2E/DX2 analytically  !
 ! D21   D(18,4,5,6)            36.0416         calculate D2E/DX2 analytically  !
 ! D22   D(18,4,5,7)          -144.3541         calculate D2E/DX2 analytically  !
 ! D23   D(3,4,8,9)           -174.2995         calculate D2E/DX2 analytically  !
 ! D24   D(3,4,8,20)            61.5881         calculate D2E/DX2 analytically  !
 ! D25   D(3,4,8,21)           -54.5467         calculate D2E/DX2 analytically  !
 ! D26   D(5,4,8,9)             67.2034         calculate D2E/DX2 analytically  !
 ! D27   D(5,4,8,20)           -56.909          calculate D2E/DX2 analytically  !
 ! D28   D(5,4,8,21)          -173.0438         calculate D2E/DX2 analytically  !
 ! D29   D(18,4,8,9)           -55.1288         calculate D2E/DX2 analytically  !
 ! D30   D(18,4,8,20)         -179.2412         calculate D2E/DX2 analytically  !
 ! D31   D(18,4,8,21)           64.624          calculate D2E/DX2 analytically  !
 ! D32   D(4,5,6,19)             1.0735         calculate D2E/DX2 analytically  !
 ! D33   D(7,5,6,19)          -178.5368         calculate D2E/DX2 analytically  !
 ! D34   D(4,8,9,10)            95.5167         calculate D2E/DX2 analytically  !
 ! D35   D(4,8,9,13)           -81.125          calculate D2E/DX2 analytically  !
 ! D36   D(20,8,9,10)         -141.3747         calculate D2E/DX2 analytically  !
 ! D37   D(20,8,9,13)           41.9836         calculate D2E/DX2 analytically  !
 ! D38   D(21,8,9,10)          -22.9305         calculate D2E/DX2 analytically  !
 ! D39   D(21,8,9,13)          160.4278         calculate D2E/DX2 analytically  !
 ! D40   D(8,9,10,11)         -176.7469         calculate D2E/DX2 analytically  !
 ! D41   D(8,9,10,22)            2.9376         calculate D2E/DX2 analytically  !
 ! D42   D(13,9,10,11)           0.3493         calculate D2E/DX2 analytically  !
 ! D43   D(13,9,10,22)        -179.9662         calculate D2E/DX2 analytically  !
 ! D44   D(8,9,13,12)          176.736          calculate D2E/DX2 analytically  !
 ! D45   D(8,9,13,24)            2.6631         calculate D2E/DX2 analytically  !
 ! D46   D(10,9,13,12)          -0.6855         calculate D2E/DX2 analytically  !
 ! D47   D(10,9,13,24)        -174.7585         calculate D2E/DX2 analytically  !
 ! D48   D(9,10,11,12)           0.1325         calculate D2E/DX2 analytically  !
 ! D49   D(22,10,11,12)       -179.575          calculate D2E/DX2 analytically  !
 ! D50   D(10,11,12,13)         -0.588          calculate D2E/DX2 analytically  !
 ! D51   D(10,11,12,23)        179.0302         calculate D2E/DX2 analytically  !
 ! D52   D(11,12,13,9)           0.8276         calculate D2E/DX2 analytically  !
 ! D53   D(11,12,13,24)        174.8939         calculate D2E/DX2 analytically  !
 ! D54   D(23,12,13,9)        -178.8111         calculate D2E/DX2 analytically  !
 ! D55   D(23,12,13,24)         -4.7448         calculate D2E/DX2 analytically  !
 ! D56   D(2,14,15,16)        -178.8788         calculate D2E/DX2 analytically  !
 ! D57   D(2,14,15,27)          62.7396         calculate D2E/DX2 analytically  !
 ! D58   D(2,14,15,28)         -53.8268         calculate D2E/DX2 analytically  !
 ! D59   D(25,14,15,16)        -57.7498         calculate D2E/DX2 analytically  !
 ! D60   D(25,14,15,27)       -176.1314         calculate D2E/DX2 analytically  !
 ! D61   D(25,14,15,28)         67.3022         calculate D2E/DX2 analytically  !
 ! D62   D(26,14,15,16)         58.3877         calculate D2E/DX2 analytically  !
 ! D63   D(26,14,15,27)        -59.9939         calculate D2E/DX2 analytically  !
 ! D64   D(26,14,15,28)       -176.5603         calculate D2E/DX2 analytically  !
 ! D65   D(14,15,16,29)         70.4382         calculate D2E/DX2 analytically  !
 ! D66   D(14,15,16,30)       -173.5175         calculate D2E/DX2 analytically  !
 ! D67   D(27,15,16,29)       -170.6726         calculate D2E/DX2 analytically  !
 ! D68   D(27,15,16,30)        -54.6283         calculate D2E/DX2 analytically  !
 ! D69   D(28,15,16,29)        -51.5041         calculate D2E/DX2 analytically  !
 ! D70   D(28,15,16,30)         64.5402         calculate D2E/DX2 analytically  !
 --------------------------------------------------------------------------------
 Trust Radius=3.00D-01 FncErr=1.00D-07 GrdErr=1.00D-06
 Number of steps in this run=    160 maximum allowed number of steps=    180.
 GradGradGradGradGradGradGradGradGradGradGradGradGradGradGradGradGradGrad

                          Input orientation:                          
 ---------------------------------------------------------------------
 Center     Atomic      Atomic             Coordinates (Angstroms)
 Number     Number       Type             X           Y           Z
 ---------------------------------------------------------------------
      1          8           0        1.452382    0.726529   -1.104099
      2          6           0        1.696936    0.027577   -0.129466
      3          7           0        0.730439   -0.278799    0.775067
      4          6           0       -0.611610    0.255908    0.657735
      5          6           0       -1.226575    0.193217    2.049478
      6          8           0       -2.208901    1.070011    2.318149
      7          8           0       -0.866180   -0.601341    2.875628
      8          6           0       -1.433292   -0.559713   -0.370938
      9          6           0       -2.781575    0.019587   -0.640150
     10          6           0       -3.239411    0.858884   -1.619887
     11          7           0       -4.567718    1.180882   -1.412963
     12          6           0       -4.903535    0.542259   -0.316184
     13          7           0       -3.868338   -0.181161    0.184191
     14          6           0        3.060940   -0.578503    0.152524
     15          6           0        4.156864   -0.019838   -0.742224
     16          7           0        5.422616   -0.681338   -0.414722
     17          1           0        0.925044   -0.806256    1.614021
     18          1           0       -0.554239    1.289122    0.300784
     19          1           0       -2.407996    1.630028    1.556665
     20          1           0       -1.513893   -1.591752   -0.026266
     21          1           0       -0.859855   -0.562423   -1.295661
     22          1           0       -2.688899    1.254352   -2.460354
     23          1           0       -5.864385    0.564021    0.166660
     24          1           0       -3.866466   -0.693494    1.054952
     25          1           0        3.000194   -1.664783    0.010861
     26          1           0        3.323332   -0.419967    1.202473
     27          1           0        4.266509    1.050482   -0.553047
     28          1           0        3.851201   -0.130731   -1.789602
     29          1           0        5.394392   -1.645877   -0.726281
     30          1           0        6.181787   -0.246984   -0.925632
 ---------------------------------------------------------------------
                    Distance matrix (angstroms):
                    1          2          3          4          5
     1  O    0.000000
     2  C    1.224030   0.000000
     3  N    2.250145   1.358736   0.000000
     4  C    2.754198   2.449735   1.449404   0.000000
     5  C    4.172084   3.649952   2.382609   1.522846   0.000000
     6  O    5.023421   4.725786   3.583310   2.443579   1.343844
     7  O    4.793453   3.999461   2.658116   2.391386   1.201553
     8  C    3.243310   3.193986   2.464543   1.548732   2.543236
     9  C    4.317570   4.507541   3.798173   2.539509   3.111635
    10  C    4.721915   5.223021   4.773870   3.529374   4.237790
    11  N    6.045117   6.497951   5.915117   4.560062   4.911947
    12  C    6.407219   6.623140   5.797122   4.410345   4.386140
    13  N    5.549203   5.578013   4.637609   3.319873   3.255513
    14  C    2.422740   1.518999   2.430765   3.799881   4.751501
    15  C    2.828823   2.535541   3.756278   4.977375   6.067982
    16  N    4.268499   3.803238   4.857382   6.200038   7.144849
    17  H    3.164758   2.081068   1.009914   2.098566   2.412060
    18  H    2.513312   2.616180   2.081758   1.094640   2.170478
    19  H    4.774777   4.718194   3.755568   2.433780   1.924331
    20  H    3.915985   3.597540   2.720846   2.166984   2.752704
    21  H    2.654154   2.871461   2.626288   2.132381   3.448975
    22  H    4.389560   5.116010   4.950795   3.877435   4.858290
    23  H    7.428077   7.586108   6.676242   5.284670   5.019141
    24  H    5.913385   5.733606   4.624051   3.413684   2.957087
    25  H    3.058959   2.140621   2.767084   4.141573   5.047147
    26  H    3.183579   2.149307   2.631672   4.029554   4.668518
    27  H    2.885812   2.797938   4.004331   5.088554   6.138567
    28  H    2.638018   2.724329   4.042104   5.104471   6.373953
    29  H    4.616329   4.102172   5.086788   6.450143   7.411094
    30  H    4.831858   4.563240   5.710569   6.993583   7.995554
                    6          7          8          9         10
     6  O    0.000000
     7  O    2.215198   0.000000
     8  C    3.238635   3.295988   0.000000
     9  C    3.191062   4.051541   1.491956   0.000000
    10  C    4.076107   5.289058   2.614260   1.368911   0.000000
    11  N    4.415598   5.938831   3.733646   2.266308   1.382354
    12  C    3.805166   5.272165   3.641419   2.209266   2.137570
    13  N    2.978748   4.053805   2.526048   1.378728   2.175302
    14  C    5.931168   4.778920   4.524653   5.926299   6.700891
    15  C    7.146791   6.217553   5.628425   6.939302   7.499822
    16  N    8.293121   7.098010   6.857126   8.237164   8.880057
    17  H    3.719918   2.200482   3.092345   4.416145   5.529334
    18  H    2.618335   3.209514   2.154562   2.730953   3.329299
    19  H    0.965979   3.015936   3.075820   2.749378   3.372891
    20  H    3.614457   3.133917   1.091054   2.140160   3.394504
    21  H    4.188602   4.171475   1.088094   2.112212   2.790613
    22  H    4.806087   5.936211   3.038591   2.201448   1.079742
    23  H    4.271708   5.803329   4.602866   3.232811   3.188916
    24  H    2.730044   3.510709   2.823366   2.135145   3.155604
    25  H    6.319601   4.928148   4.585057   6.057208   6.925381
    26  H    5.836983   4.514903   5.012047   6.392054   7.257462
    27  H    7.083437   6.389743   5.925674   7.123610   7.583777
    28  H    7.418911   6.651279   5.488396   6.733317   7.161349
    29  H    8.628712   7.297915   6.922665   8.344317   9.034097
    30  H    9.091768   8.015546   7.641657   8.971869   9.511252
                   11         12         13         14         15
    11  N    0.000000
    12  C    1.312836   0.000000
    13  N    2.212509   1.358435   0.000000
    14  C    7.983897   8.056591   6.940733   0.000000
    15  C    8.832325   9.087811   8.080108   1.521095   0.000000
    16  N   10.211323  10.398860   9.323663   2.431020   1.465253
    17  H    6.578890   6.286217   5.040999   2.598056   4.076151
    18  H    4.365394   4.455877   3.627476   4.071796   4.999574
    19  H    3.699300   3.304319   2.701239   6.062877   7.148730
    20  H    4.351583   4.015934   2.752720   4.689108   5.927984
    21  H    4.098917   4.304770   3.374358   4.179728   5.076235
    22  H    2.152299   3.163726   3.231933   6.576255   7.172169
    23  H    2.134730   1.075567   2.130682   8.998165  10.079305
    24  H    3.177364   2.117217   1.010303   6.986884   8.249696
    25  H    8.209652   8.212608   7.029076   1.097161   2.147293
    26  H    8.465925   8.421018   7.267327   1.093790   2.153305
    27  H    8.876938   9.187171   8.260520   2.145885   1.092427
    28  H    8.528797   8.903330   7.968041   2.144030   1.096690
    29  H   10.378138  10.535816   9.421917   2.712303   2.043460
    30  H   10.854868  11.130082  10.111432   3.318436   2.045861
                   16         17         18         19         20
    16  N    0.000000
    17  H    4.935540   0.000000
    18  H    6.333834   2.881576   0.000000
    19  H    8.399242   4.128914   2.264922   0.000000
    20  H    7.006776   3.042361   3.054068   3.699319   0.000000
    21  H    6.345048   3.422217   2.463789   3.916547   1.760297
    22  H    8.586511   5.822991   3.490253   4.044315   3.925013
    23  H   11.370370   7.075935   5.361102   3.874933   4.859152
    24  H    9.404634   4.825334   3.933241   2.788836   2.740529
    25  H    2.648852   2.759246   4.630724   6.518728   4.514830
    26  H    2.662823   2.463813   4.332388   6.097217   5.126560
    27  H    2.086844   4.394206   4.901590   7.023943   6.377455
    28  H    2.159353   4.539094   5.078740   7.312682   5.833366
    29  H    1.014003   5.114396   6.712324   8.764740   6.943871
    30  H    1.012933   5.864808   7.016963   9.136157   7.863889
                   21         22         23         24         25
    21  H    0.000000
    22  H    2.828883   0.000000
    23  H    5.334096   4.178693   0.000000
    24  H    3.818674   4.187857   2.522317   0.000000
    25  H    4.221632   6.855219   9.141805   7.013170   0.000000
    26  H    4.874424   7.236474   9.298133   7.196511   1.753261
    27  H    5.425176   7.215059  10.168069   8.471859   3.048641
    28  H    4.756509   6.718725   9.934900   8.244427   2.513801
    29  H    6.372886   8.761160  11.508303   9.478572   2.505179
    30  H    7.058410   9.126798  12.122751  10.251317   3.606898
                   26         27         28         29         30
    26  H    0.000000
    27  H    2.476621   0.000000
    28  H    3.052018   1.759777   0.000000
    29  H    3.084192   2.927880   2.409928   0.000000
    30  H    3.567846   2.343188   2.488291   1.617601   0.000000
 Symmetry turned off by external request.
 Stoichiometry    C9H14N4O3
 Framework group  C1[X(C9H14N4O3)]
 Deg. of freedom    84
 Full point group                 C1      NOp   1
 Rotational constants (GHZ):      1.0925978      0.2321516      0.2014001
 Standard basis: 6-31G(d) (6D, 7F)
   268 basis functions,   504 primitive gaussians,   268 cartesian basis functions
    60 alpha electrons       60 beta electrons
       nuclear repulsion energy      1103.5276556170 Hartrees.
 NAtoms=   30 NActive=   30 NUniq=   30 SFac= 1.00D+00 NAtFMM=   60 NAOKFM=F Big=F
 Integral buffers will be    131072 words long.
 Raffenetti 2 integral format.
 Two-electron integral symmetry is turned off.
 One-electron integrals computed using PRISM.
 NBasis=   268 RedAO= T EigKep=  1.19D-03  NBF=   268
 NBsUse=   268 1.00D-06 EigRej= -1.00D+00 NBFU=   268
 ExpMin= 1.61D-01 ExpMax= 5.48D+03 ExpMxC= 8.25D+02 IAcc=3 IRadAn=         5 AccDes= 0.00D+00
 Harris functional with IExCor=  402 and IRadAn=       5 diagonalized for initial guess.
 HarFok:  IExCor=  402 AccDes= 0.00D+00 IRadAn=         5 IDoV= 1 UseB2=F ITyADJ=14
 ICtDFT=  3500011 ScaDFX=  1.000000  1.000000  1.000000  1.000000
 FoFCou: FMM=F IPFlag=           0 FMFlag=      100000 FMFlg1=           0
         NFxFlg=           0 DoJE=T BraDBF=F KetDBF=T FulRan=T
         wScrn=  0.000000 ICntrl=     500 IOpCl=  0 I1Cent=   200000004 NGrid=           0
         NMat0=    1 NMatS0=      1 NMatT0=    0 NMatD0=    1 NMtDS0=    0 NMtDT0=    0
 Symmetry not used in FoFCou.
 Requested convergence on RMS density matrix=1.00D-08 within 128 cycles.
 Requested convergence on MAX density matrix=1.00D-06.
 Requested convergence on             energy=1.00D-06.
 No special actions if energy rises.
 Integral accuracy reduced to 1.0D-05 until final iterations.
 Initial convergence to 1.0D-05 achieved.  Increase integral accuracy.
 SCF Done:  E(RB3LYP) =  -796.071101354     A.U. after   14 cycles
            NFock= 14  Conv=0.68D-08     -V/T= 2.0088
 DoSCS=F DFT=T ScalE2(SS,OS)=  1.000000  1.000000
 Range of M.O.s used for correlation:     1   268
 NBasis=   268 NAE=    60 NBE=    60 NFC=     0 NFV=     0
 NROrb=    268 NOA=    60 NOB=    60 NVA=   208 NVB=   208
 Symmetrizing basis deriv contribution to polar:
 IMax=3 JMax=2 DiffMx= 0.00D+00
 G2DrvN: will do    31 centers at a time, making    1 passes.
 Calling FoFCou, ICntrl=  3107 FMM=F I1Cent=   0 AccDes= 0.00D+00.
 End of G2Drv F.D. properties file   721 does not exist.
 End of G2Drv F.D. properties file   722 does not exist.
 End of G2Drv F.D. properties file   788 does not exist.
          IDoAtm=111111111111111111111111111111
          Differentiating once with respect to nuclear coordinates.
          There are    93 degrees of freedom in the 1st order CPHF.  IDoFFX=6 NUNeed=     0.
     87 vectors produced by pass  0 Test12= 1.34D-14 1.08D-09 XBig12= 1.44D-01 1.10D-01.
 AX will form    87 AO Fock derivatives at one time.
     87 vectors produced by pass  1 Test12= 1.34D-14 1.08D-09 XBig12= 1.77D-02 4.69D-02.
     87 vectors produced by pass  2 Test12= 1.34D-14 1.08D-09 XBig12= 1.99D-04 2.18D-03.
     87 vectors produced by pass  3 Test12= 1.34D-14 1.08D-09 XBig12= 7.88D-07 1.49D-04.
     87 vectors produced by pass  4 Test12= 1.34D-14 1.08D-09 XBig12= 9.94D-10 4.00D-06.
     70 vectors produced by pass  5 Test12= 1.34D-14 1.08D-09 XBig12= 9.65D-13 1.05D-07.
     10 vectors produced by pass  6 Test12= 1.34D-14 1.08D-09 XBig12= 7.29D-16 2.44D-09.
 InvSVY:  IOpt=1 It=  1 EMax= 5.55D-16
 Solved reduced A of dimension   515 with    93 vectors.
 End of Minotr F.D. properties file   721 does not exist.
 End of Minotr F.D. properties file   722 does not exist.
 End of Minotr F.D. properties file   788 does not exist.

 **********************************************************************

            Population analysis using the SCF density.

 **********************************************************************

 Alpha  occ. eigenvalues --  -19.22117 -19.16164 -19.11842 -14.40136 -14.36631
 Alpha  occ. eigenvalues --  -14.31802 -14.31294 -10.34329 -10.29200 -10.25954
 Alpha  occ. eigenvalues --  -10.24605 -10.22839 -10.21836 -10.20791 -10.20329
 Alpha  occ. eigenvalues --  -10.19564  -1.13125  -1.05080  -1.04101  -1.02588
 Alpha  occ. eigenvalues --   -0.93628  -0.88353  -0.87910  -0.81604  -0.76759
 Alpha  occ. eigenvalues --   -0.73898  -0.68598  -0.65020  -0.62466  -0.62225
 Alpha  occ. eigenvalues --   -0.60379  -0.59318  -0.56183  -0.54165  -0.50514
 Alpha  occ. eigenvalues --   -0.49599  -0.49049  -0.48780  -0.46798  -0.45909
 Alpha  occ. eigenvalues --   -0.45449  -0.43952  -0.43151  -0.42739  -0.41979
 Alpha  occ. eigenvalues --   -0.41367  -0.40686  -0.39322  -0.38900  -0.37950
 Alpha  occ. eigenvalues --   -0.36624  -0.34672  -0.34328  -0.30152  -0.28807
 Alpha  occ. eigenvalues --   -0.27367  -0.26556  -0.25916  -0.23449  -0.23313
 Alpha virt. eigenvalues --   -0.01742   0.01581   0.02187   0.05247   0.05851
 Alpha virt. eigenvalues --    0.06812   0.07929   0.09210   0.12182   0.12523
 Alpha virt. eigenvalues --    0.13132   0.13480   0.13730   0.14783   0.16393
 Alpha virt. eigenvalues --    0.17068   0.17582   0.18853   0.19690   0.21253
 Alpha virt. eigenvalues --    0.22022   0.22545   0.23361   0.24954   0.25438
 Alpha virt. eigenvalues --    0.27565   0.28607   0.30715   0.33118   0.33873
 Alpha virt. eigenvalues --    0.37266   0.38480   0.41874   0.44517   0.48475
 Alpha virt. eigenvalues --    0.49110   0.50555   0.53396   0.53919   0.54317
 Alpha virt. eigenvalues --    0.55087   0.55483   0.56952   0.57774   0.59942
 Alpha virt. eigenvalues --    0.60717   0.61316   0.62126   0.62734   0.63640
 Alpha virt. eigenvalues --    0.64346   0.66024   0.66193   0.67401   0.68960
 Alpha virt. eigenvalues --    0.69855   0.71403   0.72886   0.73864   0.75202
 Alpha virt. eigenvalues --    0.77557   0.77607   0.78655   0.80061   0.80360
 Alpha virt. eigenvalues --    0.81086   0.82369   0.82527   0.83733   0.84348
 Alpha virt. eigenvalues --    0.84913   0.85113   0.86837   0.87366   0.88590
 Alpha virt. eigenvalues --    0.89486   0.90060   0.90791   0.91484   0.92142
 Alpha virt. eigenvalues --    0.93308   0.94644   0.95072   0.96535   0.97638
 Alpha virt. eigenvalues --    0.98667   0.99501   1.01317   1.03660   1.04558
 Alpha virt. eigenvalues --    1.05942   1.07603   1.09571   1.13078   1.13895
 Alpha virt. eigenvalues --    1.16135   1.21396   1.22905   1.26066   1.28233
 Alpha virt. eigenvalues --    1.31020   1.32122   1.33915   1.35132   1.35830
 Alpha virt. eigenvalues --    1.38160   1.39505   1.41474   1.42661   1.44629
 Alpha virt. eigenvalues --    1.45797   1.48056   1.49726   1.51370   1.52209
 Alpha virt. eigenvalues --    1.54500   1.55319   1.63023   1.64458   1.67918
 Alpha virt. eigenvalues --    1.70402   1.72241   1.73315   1.75025   1.75722
 Alpha virt. eigenvalues --    1.77057   1.77501   1.79325   1.81886   1.82454
 Alpha virt. eigenvalues --    1.83719   1.84824   1.85863   1.87311   1.88217
 Alpha virt. eigenvalues --    1.89282   1.90786   1.92651   1.95152   1.96134
 Alpha virt. eigenvalues --    1.97487   1.99118   2.01321   2.02804   2.06728
 Alpha virt. eigenvalues --    2.07832   2.08418   2.10508   2.11410   2.13395
 Alpha virt. eigenvalues --    2.17538   2.18221   2.19494   2.21755   2.24878
 Alpha virt. eigenvalues --    2.26291   2.28794   2.30025   2.32721   2.33776
 Alpha virt. eigenvalues --    2.34217   2.38631   2.39736   2.40546   2.44177
 Alpha virt. eigenvalues --    2.44746   2.47263   2.48658   2.49159   2.52461
 Alpha virt. eigenvalues --    2.54777   2.58774   2.59740   2.61168   2.63925
 Alpha virt. eigenvalues --    2.64896   2.67569   2.69642   2.72745   2.75013
 Alpha virt. eigenvalues --    2.76874   2.81374   2.83702   2.84477   2.93804
 Alpha virt. eigenvalues --    2.97198   2.99353   3.01016   3.02985   3.08687
 Alpha virt. eigenvalues --    3.13741   3.19418   3.78332   3.86623   3.92980
 Alpha virt. eigenvalues --    4.01807   4.05414   4.06410   4.12821   4.18512
 Alpha virt. eigenvalues --    4.21489   4.24506   4.31029   4.35582   4.44416
 Alpha virt. eigenvalues --    4.53614   4.56079   4.65538
          Condensed to atoms (all electrons):
               1          2          3          4          5          6
     1  O    8.104768   0.567691  -0.102026   0.008022   0.000622   0.000000
     2  C    0.567691   4.333017   0.260683  -0.018100   0.005183  -0.000042
     3  N   -0.102026   0.260683   7.210475   0.213980  -0.026128   0.002341
     4  C    0.008022  -0.018100   0.213980   5.213258   0.281359  -0.090519
     5  C    0.000622   0.005183  -0.026128   0.281359   4.387687   0.265314
     6  O    0.000000  -0.000042   0.002341  -0.090519   0.265314   8.235619
     7  O   -0.000006   0.000821  -0.011153  -0.094108   0.584143  -0.074751
     8  C   -0.006129  -0.004510  -0.048488   0.325088  -0.025016  -0.001050
     9  C   -0.000238  -0.000007   0.004924  -0.046619  -0.006351   0.003935
    10  C    0.000032  -0.000006   0.000003  -0.002135  -0.000710  -0.000244
    11  N    0.000000   0.000000   0.000000  -0.000032   0.000004  -0.000020
    12  C    0.000000   0.000000   0.000000   0.000142   0.000093   0.000620
    13  N   -0.000001   0.000000  -0.000022  -0.002240   0.004190  -0.005722
    14  C   -0.083874   0.314986  -0.120554   0.007451  -0.000098   0.000000
    15  C    0.004830  -0.024053   0.003822  -0.000157   0.000000   0.000000
    16  N    0.000263   0.003258  -0.000028   0.000000   0.000000   0.000000
    17  H    0.002956  -0.016084   0.291127  -0.045122  -0.003873   0.000801
    18  H    0.013275  -0.000478  -0.047262   0.358404  -0.035660   0.001643
    19  H   -0.000001  -0.000026   0.000060   0.005639  -0.016068   0.225600
    20  H    0.000058   0.000363   0.001886  -0.047507  -0.005438   0.000148
    21  H    0.010601   0.004829  -0.011409  -0.026706   0.003872  -0.000109
    22  H    0.000008  -0.000002  -0.000003   0.000058   0.000022  -0.000004
    23  H    0.000000   0.000000   0.000000  -0.000001   0.000003   0.000016
    24  H    0.000000   0.000000  -0.000021   0.000367   0.001750   0.003058
    25  H    0.000542  -0.025596   0.000121  -0.000130  -0.000007   0.000000
    26  H    0.001591  -0.023469   0.001837  -0.000053  -0.000012   0.000000
    27  H    0.002313  -0.002731   0.000122  -0.000002   0.000000   0.000000
    28  H    0.005947   0.003906   0.000312   0.000008   0.000000   0.000000
    29  H    0.000006  -0.000176  -0.000001   0.000000   0.000000   0.000000
    30  H    0.000007  -0.000156   0.000002   0.000000   0.000000   0.000000
               7          8          9         10         11         12
     1  O   -0.000006  -0.006129  -0.000238   0.000032   0.000000   0.000000
     2  C    0.000821  -0.004510  -0.000007  -0.000006   0.000000   0.000000
     3  N   -0.011153  -0.048488   0.004924   0.000003   0.000000   0.000000
     4  C   -0.094108   0.325088  -0.046619  -0.002135  -0.000032   0.000142
     5  C    0.584143  -0.025016  -0.006351  -0.000710   0.000004   0.000093
     6  O   -0.074751  -0.001050   0.003935  -0.000244  -0.000020   0.000620
     7  O    8.006828  -0.001006  -0.000356  -0.000006   0.000000   0.000000
     8  C   -0.001006   5.226466   0.330510  -0.055743   0.006589   0.006220
     9  C   -0.000356   0.330510   4.790274   0.575488  -0.046526  -0.091372
    10  C   -0.000006  -0.055743   0.575488   4.938388   0.421859  -0.119415
    11  N    0.000000   0.006589  -0.046526   0.421859   6.663154   0.535682
    12  C    0.000000   0.006220  -0.091372  -0.119415   0.535682   4.751358
    13  N   -0.000066  -0.068116   0.330959  -0.078274  -0.083139   0.348729
    14  C   -0.000077  -0.000562  -0.000003   0.000000   0.000000   0.000000
    15  C    0.000000   0.000005   0.000000   0.000000   0.000000   0.000000
    16  N    0.000000   0.000000   0.000000   0.000000   0.000000   0.000000
    17  H    0.030575   0.002434  -0.000053   0.000001   0.000000   0.000000
    18  H    0.002233  -0.047082   0.003878   0.002938  -0.000079  -0.000073
    19  H    0.004313  -0.002668   0.007432   0.001277  -0.000156  -0.000273
    20  H    0.002304   0.349461  -0.021798   0.003020  -0.000183   0.000040
    21  H   -0.000063   0.365482  -0.025910  -0.003493   0.000048  -0.000081
    22  H    0.000000  -0.001113  -0.056928   0.383356  -0.042570   0.007413
    23  H    0.000000  -0.000159   0.003266   0.007292  -0.038443   0.383261
    24  H   -0.000043  -0.002220  -0.027950   0.008369   0.004917  -0.022244
    25  H   -0.000001   0.000068  -0.000001   0.000000   0.000000   0.000000
    26  H   -0.000008   0.000005   0.000000   0.000000   0.000000   0.000000
    27  H    0.000000   0.000001   0.000000   0.000000   0.000000   0.000000
    28  H    0.000000   0.000000   0.000000   0.000000   0.000000   0.000000
    29  H    0.000000   0.000000   0.000000   0.000000   0.000000   0.000000
    30  H    0.000000   0.000000   0.000000   0.000000   0.000000   0.000000
              13         14         15         16         17         18
     1  O   -0.000001  -0.083874   0.004830   0.000263   0.002956   0.013275
     2  C    0.000000   0.314986  -0.024053   0.003258  -0.016084  -0.000478
     3  N   -0.000022  -0.120554   0.003822  -0.000028   0.291127  -0.047262
     4  C   -0.002240   0.007451  -0.000157   0.000000  -0.045122   0.358404
     5  C    0.004190  -0.000098   0.000000   0.000000  -0.003873  -0.035660
     6  O   -0.005722   0.000000   0.000000   0.000000   0.000801   0.001643
     7  O   -0.000066  -0.000077   0.000000   0.000000   0.030575   0.002233
     8  C   -0.068116  -0.000562   0.000005   0.000000   0.002434  -0.047082
     9  C    0.330959  -0.000003   0.000000   0.000000  -0.000053   0.003878
    10  C   -0.078274   0.000000   0.000000   0.000000   0.000001   0.002938
    11  N   -0.083139   0.000000   0.000000   0.000000   0.000000  -0.000079
    12  C    0.348729   0.000000   0.000000   0.000000   0.000000  -0.000073
    13  N    6.902517   0.000000   0.000000   0.000000  -0.000001  -0.000382
    14  C    0.000000   5.336210   0.351006  -0.056990   0.000518   0.000697
    15  C    0.000000   0.351006   4.863035   0.301590  -0.000078   0.000007
    16  N    0.000000  -0.056990   0.301590   6.937890  -0.000007   0.000000
    17  H   -0.000001   0.000518  -0.000078  -0.000007   0.380437   0.004254
    18  H   -0.000382   0.000697   0.000007   0.000000   0.004254   0.558740
    19  H    0.001941   0.000000   0.000000   0.000000  -0.000079   0.003684
    20  H   -0.004803   0.000025   0.000000   0.000000   0.001044   0.006181
    21  H    0.003466   0.000245  -0.000003   0.000000  -0.000270  -0.005321
    22  H    0.004827   0.000000   0.000000   0.000000   0.000000   0.000103
    23  H   -0.059005   0.000000   0.000000   0.000000   0.000000  -0.000001
    24  H    0.300500   0.000000   0.000000   0.000000   0.000000   0.000044
    25  H    0.000000   0.358273  -0.035184  -0.002890   0.000430  -0.000018
    26  H    0.000000   0.347365  -0.030470   0.005931   0.002252  -0.000042
    27  H    0.000000  -0.033128   0.384106  -0.039389  -0.000006  -0.000006
    28  H    0.000000  -0.059187   0.385239  -0.047163   0.000003  -0.000002
    29  H    0.000000  -0.004607  -0.036300   0.308343   0.000000   0.000000
    30  H    0.000000   0.006301  -0.034424   0.312467   0.000000   0.000000
              19         20         21         22         23         24
     1  O   -0.000001   0.000058   0.010601   0.000008   0.000000   0.000000
     2  C   -0.000026   0.000363   0.004829  -0.000002   0.000000   0.000000
     3  N    0.000060   0.001886  -0.011409  -0.000003   0.000000  -0.000021
     4  C    0.005639  -0.047507  -0.026706   0.000058  -0.000001   0.000367
     5  C   -0.016068  -0.005438   0.003872   0.000022   0.000003   0.001750
     6  O    0.225600   0.000148  -0.000109  -0.000004   0.000016   0.003058
     7  O    0.004313   0.002304  -0.000063   0.000000   0.000000  -0.000043
     8  C   -0.002668   0.349461   0.365482  -0.001113  -0.000159  -0.002220
     9  C    0.007432  -0.021798  -0.025910  -0.056928   0.003266  -0.027950
    10  C    0.001277   0.003020  -0.003493   0.383356   0.007292   0.008369
    11  N   -0.000156  -0.000183   0.000048  -0.042570  -0.038443   0.004917
    12  C   -0.000273   0.000040  -0.000081   0.007413   0.383261  -0.022244
    13  N    0.001941  -0.004803   0.003466   0.004827  -0.059005   0.300500
    14  C    0.000000   0.000025   0.000245   0.000000   0.000000   0.000000
    15  C    0.000000   0.000000  -0.000003   0.000000   0.000000   0.000000
    16  N    0.000000   0.000000   0.000000   0.000000   0.000000   0.000000
    17  H   -0.000079   0.001044  -0.000270   0.000000   0.000000   0.000000
    18  H    0.003684   0.006181  -0.005321   0.000103  -0.000001   0.000044
    19  H    0.337750   0.000183  -0.000003   0.000004   0.000015  -0.000552
    20  H    0.000183   0.578450  -0.027421  -0.000035  -0.000006   0.001866
    21  H   -0.000003  -0.027421   0.504436   0.002261   0.000003  -0.000034
    22  H    0.000004  -0.000035   0.002261   0.555779  -0.000150  -0.000095
    23  H    0.000015  -0.000006   0.000003  -0.000150   0.542873   0.000404
    24  H   -0.000552   0.001866  -0.000034  -0.000095   0.000404   0.388242
    25  H    0.000000  -0.000012  -0.000044   0.000000   0.000000   0.000000
    26  H    0.000000   0.000000  -0.000001   0.000000   0.000000   0.000000
    27  H    0.000000   0.000000  -0.000001   0.000000   0.000000   0.000000
    28  H    0.000000   0.000000  -0.000001   0.000000   0.000000   0.000000
    29  H    0.000000   0.000000   0.000000   0.000000   0.000000   0.000000
    30  H    0.000000   0.000000   0.000000   0.000000   0.000000   0.000000
              25         26         27         28         29         30
     1  O    0.000542   0.001591   0.002313   0.005947   0.000006   0.000007
     2  C   -0.025596  -0.023469  -0.002731   0.003906  -0.000176  -0.000156
     3  N    0.000121   0.001837   0.000122   0.000312  -0.000001   0.000002
     4  C   -0.000130  -0.000053  -0.000002   0.000008   0.000000   0.000000
     5  C   -0.000007  -0.000012   0.000000   0.000000   0.000000   0.000000
     6  O    0.000000   0.000000   0.000000   0.000000   0.000000   0.000000
     7  O   -0.000001  -0.000008   0.000000   0.000000   0.000000   0.000000
     8  C    0.000068   0.000005   0.000001   0.000000   0.000000   0.000000
     9  C   -0.000001   0.000000   0.000000   0.000000   0.000000   0.000000
    10  C    0.000000   0.000000   0.000000   0.000000   0.000000   0.000000
    11  N    0.000000   0.000000   0.000000   0.000000   0.000000   0.000000
    12  C    0.000000   0.000000   0.000000   0.000000   0.000000   0.000000
    13  N    0.000000   0.000000   0.000000   0.000000   0.000000   0.000000
    14  C    0.358273   0.347365  -0.033128  -0.059187  -0.004607   0.006301
    15  C   -0.035184  -0.030470   0.384106   0.385239  -0.036300  -0.034424
    16  N   -0.002890   0.005931  -0.039389  -0.047163   0.308343   0.312467
    17  H    0.000430   0.002252  -0.000006   0.000003   0.000000   0.000000
    18  H   -0.000018  -0.000042  -0.000006  -0.000002   0.000000   0.000000
    19  H    0.000000   0.000000   0.000000   0.000000   0.000000   0.000000
    20  H   -0.000012   0.000000   0.000000   0.000000   0.000000   0.000000
    21  H   -0.000044  -0.000001  -0.000001  -0.000001   0.000000   0.000000
    22  H    0.000000   0.000000   0.000000   0.000000   0.000000   0.000000
    23  H    0.000000   0.000000   0.000000   0.000000   0.000000   0.000000
    24  H    0.000000   0.000000   0.000000   0.000000   0.000000   0.000000
    25  H    0.573072  -0.033023   0.005468  -0.005547   0.005390  -0.000018
    26  H   -0.033023   0.557159  -0.006419   0.006301  -0.000658  -0.000099
    27  H    0.005468  -0.006419   0.575908  -0.042618   0.006486  -0.004287
    28  H   -0.005547   0.006301  -0.042618   0.618065  -0.005832  -0.001807
    29  H    0.005390  -0.000658   0.006486  -0.005832   0.468637  -0.033301
    30  H   -0.000018  -0.000099  -0.004287  -0.001807  -0.033301   0.454512
 Mulliken charges:
               1
     1  O   -0.531258
     2  C    0.620698
     3  N   -0.624602
     4  C   -0.040344
     5  C    0.585118
     6  O   -0.566632
     7  O   -0.449574
     8  C   -0.348466
     9  C    0.273443
    10  C   -0.081997
    11  N   -0.421106
    12  C    0.199897
    13  N   -0.595361
    14  C   -0.363996
    15  C   -0.132971
    16  N   -0.723277
    17  H    0.348739
    18  H    0.180325
    19  H    0.431927
    20  H    0.162172
    21  H    0.205626
    22  H    0.147070
    23  H    0.160632
    24  H    0.343642
    25  H    0.159108
    26  H    0.171813
    27  H    0.154180
    28  H    0.142375
    29  H    0.292013
    30  H    0.300804
 Sum of Mulliken charges =   0.00000
 Mulliken charges with hydrogens summed into heavy atoms:
               1
     1  O   -0.531258
     2  C    0.620698
     3  N   -0.275863
     4  C    0.139981
     5  C    0.585118
     6  O   -0.134705
     7  O   -0.449574
     8  C    0.019332
     9  C    0.273443
    10  C    0.065073
    11  N   -0.421106
    12  C    0.360530
    13  N   -0.251719
    14  C   -0.033076
    15  C    0.163584
    16  N   -0.130460
 APT charges:
               1
     1  O   -0.410563
     2  C    0.248492
     3  N   -0.728959
     4  C   -0.337929
     5  C   -0.339764
     6  O   -0.215140
     7  O    0.136101
     8  C   -0.779380
     9  C   -0.550909
    10  C   -0.244532
    11  N    0.166328
    12  C   -0.541616
    13  N   -0.729856
    14  C   -0.702860
    15  C   -0.461142
    16  N   -1.734824
    17  H    0.609598
    18  H    0.330226
    19  H    0.510818
    20  H    0.406216
    21  H    0.314446
    22  H    0.367186
    23  H    1.070776
    24  H    0.543892
    25  H    0.386469
    26  H    0.445658
    27  H    0.379898
    28  H    0.296704
    29  H    0.552435
    30  H    1.012232
 Sum of APT charges =   0.00000
 APT charges with hydrogens summed into heavy atoms:
               1
     1  O   -0.410563
     2  C    0.248492
     3  N   -0.119361
     4  C   -0.007703
     5  C   -0.339764
     6  O    0.295677
     7  O    0.136101
     8  C   -0.058718
     9  C   -0.550909
    10  C    0.122654
    11  N    0.166328
    12  C    0.529159
    13  N   -0.185963
    14  C    0.129268
    15  C    0.215459
    16  N   -0.170157
 Electronic spatial extent (au):  <R**2>=           5325.8146
 Charge=              0.0000 electrons
 Dipole moment (field-independent basis, Debye):
    X=              0.6731    Y=             -2.0494    Z=              0.6330  Tot=              2.2480
 Quadrupole moment (field-independent basis, Debye-Ang):
   XX=            -91.0655   YY=            -90.9900   ZZ=           -106.6621
   XY=              2.7472   XZ=            -15.3387   YZ=              6.4977
 Traceless Quadrupole moment (field-independent basis, Debye-Ang):
   XX=              5.1737   YY=              5.2492   ZZ=            -10.4229
   XY=              2.7472   XZ=            -15.3387   YZ=              6.4977
 Octapole moment (field-independent basis, Debye-Ang**2):
  XXX=            164.7288  YYY=            -32.8152  ZZZ=            -67.2595  XYY=             57.8789
  XXY=            -53.1701  XXZ=             10.2268  XZZ=             73.6884  YZZ=            -11.5458
  YYZ=             -4.0719  XYZ=             -2.7496
 Hexadecapole moment (field-independent basis, Debye-Ang**3):
 XXXX=          -5324.9720 YYYY=           -325.0604 ZZZZ=          -1130.6912 XXXY=            464.6230
 XXXZ=           -612.2152 YYYX=            290.8842 YYYZ=             64.0169 ZZZX=             90.4231
 ZZZY=             56.6852 XXYY=           -984.0256 XXZZ=          -1165.7795 YYZZ=           -232.1888
 XXYZ=            113.0669 YYXZ=            -23.1173 ZZXY=            115.6051
 N-N= 1.103527655617D+03 E-N=-4.063345489495D+03  KE= 7.891371074881D+02
  Exact polarizability:   0.000   0.000   0.000   0.000   0.000   0.000
 Approx polarizability: 192.370 -24.077 157.599  -4.656 -42.623 181.126
 Calling FoFJK, ICntrl=    100147 FMM=F ISym2X=0 I1Cent= 0 IOpClX= 0 NMat=1 NMatS=1 NMatT=0.
 -------------------------------------------------------------------
 Center     Atomic                   Forces (Hartrees/Bohr)
 Number     Number              X              Y              Z
 -------------------------------------------------------------------
      1        8           0.000284129    0.005219132   -0.007520295
      2        6           0.001792010   -0.002740750   -0.000576515
      3        7          -0.003501382    0.001125409    0.004253649
      4        6           0.008176832   -0.002898334    0.000008803
      5        6           0.001913001    0.008174787   -0.008211372
      6        8          -0.005459993   -0.001322502    0.008855660
      7        8           0.001566584   -0.008840204    0.011150915
      8        6          -0.007162455    0.002822991   -0.001771280
      9        6           0.007631681   -0.003895305   -0.000577009
     10        6          -0.007451468    0.004822142   -0.001954268
     11        7           0.001994813    0.001828279   -0.003051027
     12        6          -0.002897276    0.002028327   -0.002946366
     13        7          -0.000755299   -0.003345669    0.007520605
     14        6          -0.000868092    0.000524021    0.001169819
     15        6           0.001986378   -0.001592242   -0.000599298
     16        7          -0.000048708    0.002560250    0.004898121
     17        1           0.000894129   -0.001706232    0.001839987
     18        1           0.000766234    0.000783205   -0.000483034
     19        1           0.000316390    0.002984961   -0.006518041
     20        1           0.001176024   -0.003860101    0.001849910
     21        1           0.002396495    0.000350135   -0.002123605
     22        1           0.000709450    0.000166085   -0.001564230
     23        1          -0.005009262    0.000292805    0.000844268
     24        1          -0.000772357   -0.001495257   -0.000293073
     25        1          -0.001498958   -0.002166119    0.000518663
     26        1           0.001513651   -0.000658775    0.002074447
     27        1           0.000527176    0.001808293   -0.000302288
     28        1          -0.001298291    0.001312288   -0.002582756
     29        1          -0.000151443   -0.004510024   -0.001412092
     30        1           0.003230007    0.002228403   -0.002498297
 -------------------------------------------------------------------
 Cartesian Forces:  Max     0.011150915 RMS     0.003671483
 FormGI is forming the generalized inverse of G from B-inverse, IUseBI=4.
 GSVD:  received Info=                   1 from GESDD.

 GradGradGradGradGradGradGradGradGradGradGradGradGradGradGradGradGradGrad
 Berny optimization.
 Internal  Forces:  Max     0.013982515 RMS     0.002922684
 Search for a local minimum.
 Step number   1 out of a maximum of  160
 All quantities printed in internal units (Hartrees-Bohrs-Radians)
 Mixed Optimization -- RFO/linear search
 Second derivative matrix not updated -- analytic derivatives used.
 ITU=  0
     Eigenvalues ---   -0.00050  -0.00041   0.00090   0.00215   0.00273
     Eigenvalues ---    0.00294   0.00394   0.00496   0.00672   0.01049
     Eigenvalues ---    0.01578   0.01933   0.02032   0.02587   0.03395
     Eigenvalues ---    0.03481   0.04253   0.04296   0.04411   0.04469
     Eigenvalues ---    0.04516   0.04727   0.05192   0.05256   0.05290
     Eigenvalues ---    0.05562   0.06021   0.06166   0.07874   0.07895
     Eigenvalues ---    0.08500   0.10537   0.10876   0.10937   0.11189
     Eigenvalues ---    0.11908   0.12038   0.13766   0.15489   0.15699
     Eigenvalues ---    0.16739   0.17029   0.17333   0.18668   0.19354
     Eigenvalues ---    0.20068   0.21665   0.22656   0.23404   0.23526
     Eigenvalues ---    0.23859   0.24909   0.25010   0.25371   0.30606
     Eigenvalues ---    0.30950   0.32462   0.33285   0.33519   0.33850
     Eigenvalues ---    0.34484   0.34511   0.34698   0.34993   0.35611
     Eigenvalues ---    0.35748   0.37534   0.37940   0.38193   0.38778
     Eigenvalues ---    0.40313   0.42337   0.45308   0.45329   0.45793
     Eigenvalues ---    0.45918   0.46744   0.47394   0.47475   0.49013
     Eigenvalues ---    0.52382   0.59027   0.84826   0.94290
 RFO step:  Lambda=-4.60373354D-03 EMin=-5.02278331D-04
 Linear search not attempted -- first point.
 Iteration  1 RMS(Cart)=  0.20276600 RMS(Int)=  0.01945749
 Iteration  2 RMS(Cart)=  0.03978747 RMS(Int)=  0.00050228
 Iteration  3 RMS(Cart)=  0.00090263 RMS(Int)=  0.00009842
 Iteration  4 RMS(Cart)=  0.00000054 RMS(Int)=  0.00009842
 Variable       Old X    -DE/DX   Delta X   Delta X   Delta X     New X
                                 (Linear)    (Quad)   (Total)
    R1        2.31308   0.00891   0.00000   0.00874   0.00874   2.32182
    R2        2.56764   0.00889   0.00000   0.01531   0.01531   2.58295
    R3        2.87049   0.00348   0.00000   0.00997   0.00997   2.88046
    R4        2.73898   0.00207   0.00000  -0.00869  -0.00869   2.73029
    R5        1.90846   0.00259   0.00000   0.00595   0.00595   1.91441
    R6        2.87776   0.00545   0.00000   0.00874   0.00874   2.88651
    R7        2.92668   0.00823   0.00000   0.02833   0.02833   2.95501
    R8        2.06857   0.00094   0.00000   0.00381   0.00381   2.07238
    R9        2.53950   0.00531   0.00000   0.00572   0.00572   2.54522
   R10        2.27061   0.01398   0.00000   0.01582   0.01582   2.28643
   R11        1.82544   0.00680   0.00000   0.01570   0.01570   1.84114
   R12        2.81939   0.00644   0.00000   0.00852   0.00852   2.82791
   R13        2.06179   0.00415   0.00000   0.01004   0.01004   2.07184
   R14        2.05620   0.00307   0.00000   0.00994   0.00994   2.06614
   R15        2.58687   0.00854   0.00000   0.01935   0.01937   2.60624
   R16        2.60542   0.00903   0.00000   0.01620   0.01623   2.62165
   R17        2.61227  -0.00134   0.00000  -0.00923  -0.00925   2.60302
   R18        2.04042   0.00164   0.00000   0.00518   0.00518   2.04560
   R19        2.48090   0.00237   0.00000   0.00577   0.00574   2.48664
   R20        2.56707   0.00892   0.00000   0.01188   0.01187   2.57894
   R21        2.03253   0.00486   0.00000   0.01147   0.01147   2.04400
   R22        1.90920   0.00050   0.00000   0.00129   0.00129   1.91049
   R23        2.87445   0.00519   0.00000   0.01619   0.01619   2.89065
   R24        2.07333   0.00216   0.00000   0.00719   0.00719   2.08053
   R25        2.06696   0.00226   0.00000   0.00473   0.00473   2.07169
   R26        2.76893   0.00271   0.00000   0.00631   0.00631   2.77524
   R27        2.06439   0.00177   0.00000   0.00704   0.00704   2.07142
   R28        2.07244   0.00270   0.00000   0.00596   0.00596   2.07840
   R29        1.91619   0.00473   0.00000   0.01111   0.01111   1.92730
   R30        1.91417   0.00464   0.00000   0.01059   0.01059   1.92475
    A1        2.11381   0.00285   0.00000   0.00650   0.00650   2.12030
    A2        2.15924  -0.00195   0.00000  -0.00543  -0.00543   2.15381
    A3        2.00996  -0.00089   0.00000  -0.00117  -0.00117   2.00879
    A4        2.11947   0.00042   0.00000   0.00209   0.00208   2.12155
    A5        2.13379  -0.00068   0.00000  -0.00368  -0.00368   2.13011
    A6        2.02456   0.00028   0.00000   0.00217   0.00217   2.02672
    A7        1.85954   0.00137   0.00000   0.02641   0.02637   1.88591
    A8        1.92916   0.00133   0.00000   0.02160   0.02154   1.95070
    A9        1.90295  -0.00122   0.00000  -0.00437  -0.00412   1.89883
   A10        1.95098  -0.00076   0.00000  -0.00948  -0.01010   1.94088
   A11        1.93696  -0.00031   0.00000  -0.01730  -0.01753   1.91943
   A12        1.88420  -0.00042   0.00000  -0.01615  -0.01635   1.86785
   A13        2.03873  -0.00165   0.00000  -0.01424  -0.01434   2.02440
   A14        2.13468   0.00411   0.00000   0.01290   0.01280   2.14748
   A15        2.10975  -0.00247   0.00000   0.00119   0.00110   2.11085
   A16        1.95122  -0.00415   0.00000  -0.02788  -0.02788   1.92334
   A17        1.97668   0.00922   0.00000   0.01846   0.01847   1.99515
   A18        1.90447  -0.00283   0.00000  -0.00956  -0.00963   1.89484
   A19        1.86104  -0.00420   0.00000  -0.02212  -0.02235   1.83869
   A20        1.93641  -0.00197   0.00000  -0.00500  -0.00492   1.93149
   A21        1.90062  -0.00186   0.00000   0.02044   0.02056   1.92118
   A22        1.88079   0.00125   0.00000  -0.00364  -0.00386   1.87693
   A23        2.30426  -0.00072   0.00000   0.01315   0.01307   2.31734
   A24        2.15066   0.00428   0.00000  -0.00223  -0.00231   2.14834
   A25        1.82716  -0.00352   0.00000  -0.01023  -0.01018   1.81698
   A26        1.93591   0.00312   0.00000   0.00756   0.00751   1.94343
   A27        2.22830  -0.00159   0.00000  -0.00547  -0.00559   2.22271
   A28        2.11896  -0.00153   0.00000  -0.00197  -0.00209   2.11688
   A29        1.83127   0.00133   0.00000   0.00274   0.00273   1.83400
   A30        1.95180   0.00000   0.00000  -0.00081  -0.00082   1.95098
   A31        2.20646  -0.00132   0.00000  -0.00908  -0.00909   2.19737
   A32        2.12491   0.00132   0.00000   0.00994   0.00993   2.13484
   A33        1.87853  -0.00093   0.00000   0.00089   0.00085   1.87938
   A34        2.19900   0.00085   0.00000  -0.00394  -0.00407   2.19493
   A35        2.20054   0.00021   0.00000   0.00553   0.00540   2.20594
   A36        1.97276  -0.00085   0.00000  -0.00698  -0.00705   1.96571
   A37        1.89796  -0.00093   0.00000  -0.01985  -0.01984   1.87812
   A38        1.91323   0.00126   0.00000   0.02326   0.02330   1.93654
   A39        1.90453   0.00166   0.00000   0.00645   0.00631   1.91084
   A40        1.91620  -0.00055   0.00000  -0.00003  -0.00007   1.91613
   A41        1.85535  -0.00057   0.00000  -0.00291  -0.00281   1.85254
   A42        1.90191   0.00198   0.00000   0.01101   0.01094   1.91285
   A43        1.90741  -0.00015   0.00000  -0.00360  -0.00358   1.90383
   A44        1.90057  -0.00072   0.00000  -0.00229  -0.00245   1.89812
   A45        1.89327  -0.00128   0.00000  -0.01166  -0.01161   1.88166
   A46        1.99169   0.00043   0.00000   0.01370   0.01365   2.00534
   A47        1.86756  -0.00035   0.00000  -0.00817  -0.00815   1.85941
   A48        1.91422   0.00009   0.00000  -0.00284  -0.00286   1.91136
   A49        1.91889  -0.00063   0.00000  -0.00941  -0.00943   1.90946
   A50        1.84811   0.00019   0.00000  -0.00328  -0.00333   1.84478
    D1       -0.04896   0.00024   0.00000   0.01238   0.01236  -0.03660
    D2       -3.07494  -0.00002   0.00000   0.00599   0.00598  -3.06896
    D3        3.11220  -0.00009   0.00000   0.01767   0.01768   3.12988
    D4        0.08622  -0.00035   0.00000   0.01128   0.01130   0.09752
    D5        0.19294   0.00025   0.00000   0.24103   0.24108   0.43401
    D6       -1.92488  -0.00065   0.00000   0.25141   0.25129  -1.67359
    D7        2.33669  -0.00013   0.00000   0.25323   0.25329   2.58998
    D8       -2.96879   0.00066   0.00000   0.23574   0.23580  -2.73300
    D9        1.19657  -0.00024   0.00000   0.24611   0.24601   1.44258
   D10       -0.82504   0.00028   0.00000   0.24794   0.24801  -0.57703
   D11       -2.75142   0.00021   0.00000  -0.01336  -0.01314  -2.76456
   D12        1.40869  -0.00050   0.00000  -0.03082  -0.03105   1.37764
   D13       -0.65985  -0.00004   0.00000  -0.02127  -0.02127  -0.68112
   D14        0.28142   0.00039   0.00000  -0.00772  -0.00749   0.27393
   D15       -1.84165  -0.00032   0.00000  -0.02518  -0.02540  -1.86705
   D16        2.37300   0.00015   0.00000  -0.01563  -0.01562   2.35738
   D17        2.69847   0.00002   0.00000   0.10375   0.10376   2.80223
   D18       -0.45003  -0.00143   0.00000   0.07860   0.07856  -0.37147
   D19       -1.47557   0.00210   0.00000   0.14166   0.14158  -1.33399
   D20        1.65912   0.00065   0.00000   0.11651   0.11638   1.77550
   D21        0.62904   0.00083   0.00000   0.10267   0.10281   0.73186
   D22       -2.51945  -0.00061   0.00000   0.07752   0.07761  -2.44184
   D23       -3.04210   0.00130   0.00000  -0.12449  -0.12445   3.11664
   D24        1.07491  -0.00054   0.00000  -0.12389  -0.12380   0.95111
   D25       -0.95202   0.00165   0.00000  -0.10304  -0.10318  -1.05520
   D26        1.17292  -0.00081   0.00000  -0.16574  -0.16560   1.00733
   D27       -0.99325  -0.00266   0.00000  -0.16514  -0.16495  -1.15820
   D28       -3.02018  -0.00046   0.00000  -0.14428  -0.14433   3.11867
   D29       -0.96218   0.00034   0.00000  -0.12712  -0.12716  -1.08934
   D30       -3.12835  -0.00150   0.00000  -0.12652  -0.12652   3.02832
   D31        1.12790   0.00069   0.00000  -0.10566  -0.10589   1.02201
   D32        0.01874  -0.00084   0.00000   0.03236   0.03243   0.05117
   D33       -3.11606   0.00056   0.00000   0.05708   0.05701  -3.05904
   D34        1.66708  -0.00131   0.00000  -0.24980  -0.24967   1.41741
   D35       -1.41590  -0.00224   0.00000  -0.26771  -0.26764  -1.68354
   D36       -2.46745   0.00026   0.00000  -0.25257  -0.25252  -2.71998
   D37        0.73275  -0.00067   0.00000  -0.27048  -0.27049   0.46226
   D38       -0.40021  -0.00054   0.00000  -0.24733  -0.24742  -0.64763
   D39        2.79999  -0.00147   0.00000  -0.26524  -0.26539   2.53461
   D40       -3.08482  -0.00109   0.00000  -0.01900  -0.01904  -3.10386
   D41        0.05127  -0.00045   0.00000   0.00630   0.00625   0.05752
   D42        0.00610  -0.00010   0.00000  -0.00345  -0.00346   0.00263
   D43       -3.14100   0.00055   0.00000   0.02184   0.02182  -3.11918
   D44        3.08463   0.00114   0.00000   0.02253   0.02237   3.10700
   D45        0.04648  -0.00020   0.00000  -0.00292  -0.00297   0.04350
   D46       -0.01197   0.00042   0.00000   0.00813   0.00813  -0.00384
   D47       -3.05011  -0.00093   0.00000  -0.01732  -0.01722  -3.06733
   D48        0.00231  -0.00024   0.00000  -0.00266  -0.00266  -0.00035
   D49       -3.13417  -0.00083   0.00000  -0.02610  -0.02617   3.12284
   D50       -0.01026   0.00050   0.00000   0.00802   0.00804  -0.00222
   D51        3.12467   0.00085   0.00000   0.01683   0.01677   3.14144
   D52        0.01444  -0.00058   0.00000  -0.01046  -0.01050   0.00395
   D53        3.05247   0.00081   0.00000   0.01430   0.01434   3.06681
   D54       -3.12084  -0.00091   0.00000  -0.01872  -0.01878  -3.13963
   D55       -0.08281   0.00048   0.00000   0.00604   0.00605  -0.07676
   D56       -3.12202  -0.00033   0.00000   0.01452   0.01453  -3.10750
   D57        1.09501   0.00014   0.00000   0.02427   0.02428   1.11930
   D58       -0.93946   0.00104   0.00000   0.03734   0.03734  -0.90211
   D59       -1.00792  -0.00091   0.00000  -0.01080  -0.01082  -1.01874
   D60       -3.07407  -0.00044   0.00000  -0.00105  -0.00106  -3.07513
   D61        1.17464   0.00046   0.00000   0.01202   0.01200   1.18664
   D62        1.01906  -0.00096   0.00000  -0.01064  -0.01063   1.00842
   D63       -1.04709  -0.00049   0.00000  -0.00089  -0.00088  -1.04797
   D64       -3.08156   0.00041   0.00000   0.01218   0.01218  -3.06938
   D65        1.22938   0.00023   0.00000   0.01088   0.01094   1.24032
   D66       -3.02845   0.00015   0.00000  -0.00013  -0.00005  -3.02850
   D67       -2.97880   0.00045   0.00000   0.00612   0.00611  -2.97269
   D68       -0.95344   0.00037   0.00000  -0.00490  -0.00488  -0.95832
   D69       -0.89892  -0.00061   0.00000  -0.00370  -0.00380  -0.90271
   D70        1.12644  -0.00069   0.00000  -0.01472  -0.01478   1.11166
         Item               Value     Threshold  Converged?
 Maximum Force            0.013983     0.000450     NO 
 RMS     Force            0.002923     0.000300     NO 
 Maximum Displacement     0.818026     0.001800     NO 
 RMS     Displacement     0.229969     0.001200     NO 
 Predicted change in Energy=-3.515013D-03
 GradGradGradGradGradGradGradGradGradGradGradGradGradGradGradGradGradGrad

                          Input orientation:                          
 ---------------------------------------------------------------------
 Center     Atomic      Atomic             Coordinates (Angstroms)
 Number     Number       Type             X           Y           Z
 ---------------------------------------------------------------------
      1          8           0        1.512804    0.559094   -1.263681
      2          6           0        1.731294   -0.054428   -0.221835
      3          7           0        0.761416   -0.217533    0.727364
      4          6           0       -0.553354    0.361055    0.572170
      5          6           0       -1.187447    0.473798    1.957230
      6          8           0       -2.213357    1.339419    2.067987
      7          8           0       -0.828328   -0.189621    2.903182
      8          6           0       -1.448394   -0.483566   -0.392581
      9          6           0       -2.836506    0.047217   -0.568130
     10          6           0       -3.363152    1.050453   -1.354421
     11          7           0       -4.714088    1.203870   -1.133451
     12          6           0       -5.016104    0.304690   -0.221431
     13          7           0       -3.924058   -0.422763    0.153671
     14          6           0        3.067573   -0.713675    0.099350
     15          6           0        4.237232   -0.065279   -0.643183
     16          7           0        5.480305   -0.778635   -0.322775
     17          1           0        0.948702   -0.667577    1.615443
     18          1           0       -0.450513    1.357115    0.125015
     19          1           0       -2.416966    1.732592    1.200117
     20          1           0       -1.472645   -1.518044   -0.030236
     21          1           0       -0.922137   -0.482366   -1.350952
     22          1           0       -2.839718    1.658599   -2.081023
     23          1           0       -5.997412    0.133776    0.200188
     24          1           0       -3.892305   -1.126375    0.878942
     25          1           0        2.993227   -1.774078   -0.187260
     26          1           0        3.261009   -0.702424    1.178383
     27          1           0        4.347829    0.970711   -0.302540
     28          1           0        3.993393   -0.018174   -1.714621
     29          1           0        5.471147   -1.696018   -0.768290
     30          1           0        6.270320   -0.281934   -0.730917
 ---------------------------------------------------------------------
                    Distance matrix (angstroms):
                    1          2          3          4          5
     1  O    0.000000
     2  C    1.228654   0.000000
     3  N    2.265391   1.366838   0.000000
     4  C    2.771025   2.454116   1.444808   0.000000
     5  C    4.203915   3.680543   2.405946   1.527473   0.000000
     6  O    5.058972   4.769315   3.615335   2.439319   1.346871
     7  O    4.837791   4.041742   2.694856   2.410907   1.209925
     8  C    3.258014   3.213056   2.491649   1.563722   2.550735
     9  C    4.434220   4.582036   3.833203   2.571296   3.046114
    10  C    4.901491   5.334500   4.791000   3.475916   4.004155
    11  N    6.261540   6.630031   5.955180   4.575062   4.745789
    12  C    6.616469   6.756949   5.878152   4.533114   4.408376
    13  N    5.703719   5.679761   4.724925   3.485852   3.397895
    14  C    2.427982   1.524272   2.441089   3.806535   4.792390
    15  C    2.863105   2.541137   3.739369   4.960701   6.039859
    16  N    4.291373   3.819653   4.866779   6.205228   7.157229
    17  H    3.179983   2.089017   1.013064   2.098254   2.445952
    18  H    2.533758   2.621649   2.076322   1.096658   2.163407
    19  H    4.784401   4.735340   3.758802   2.397599   1.915593
    20  H    3.840416   3.527620   2.693755   2.176925   2.828214
    21  H    2.649754   2.915259   2.687730   2.132079   3.453796
    22  H    4.563048   5.223523   4.937112   3.735039   4.521199
    23  H    7.663365   7.742508   6.788453   5.461483   5.132112
    24  H    6.053664   5.829721   4.744059   3.668127   3.322577
    25  H    2.965472   2.133275   2.870600   4.208771   5.208628
    26  H    3.257503   2.172680   2.585827   4.005976   4.666783
    27  H    3.021686   2.811348   3.915991   5.015814   5.999396
    28  H    2.586485   2.710501   4.055700   5.103541   6.369114
    29  H    4.582512   4.120671   5.157951   6.505612   7.514880
    30  H    4.860567   4.573147   5.699013   6.976674   7.963387
                    6          7          8          9         10
     6  O    0.000000
     7  O    2.225718   0.000000
     8  C    3.156397   3.366443   0.000000
     9  C    3.001202   4.017323   1.496464   0.000000
    10  C    3.621934   5.107867   2.635270   1.379163   0.000000
    11  N    4.064632   5.773678   3.749812   2.276565   1.377459
    12  C    3.763973   5.248336   3.657758   2.221968   2.138242
    13  N    3.113903   4.147013   2.535942   1.387317   2.181587
    14  C    5.998245   4.828473   4.548505   5.990211   6.824940
    15  C    7.136787   6.184826   5.706497   7.075031   7.714697
    16  N    8.330326   7.110034   6.935330   8.361314   9.089366
    17  H    3.772459   2.246007   3.132425   4.427947   5.510336
    18  H    2.623561   3.202085   2.156799   2.808780   3.281195
    19  H    0.974289   3.019785   2.895889   2.478548   2.808247
    20  H    3.621642   3.284021   1.096370   2.144643   3.453210
    21  H    4.083540   4.265227   1.093354   2.134965   2.882377
    22  H    4.208146   5.683653   3.061942   2.210296   1.082486
    23  H    4.388772   5.842106   4.628828   3.254095   3.193185
    24  H    3.211360   3.789857   2.828900   2.141506   3.163304
    25  H    6.472134   5.163876   4.629856   6.119474   7.052927
    26  H    5.910094   4.467726   4.969336   6.386858   7.305284
    27  H    6.986022   6.198034   5.976557   7.248314   7.782804
    28  H    7.394250   6.678509   5.619379   6.925766   7.442476
    29  H    8.735557   7.445289   7.035001   8.490938   9.269923
    30  H    9.079395   7.975336   7.728756   9.114226   9.745141
                   11         12         13         14         15
    11  N    0.000000
    12  C    1.315872   0.000000
    13  N    2.219632   1.364718   0.000000
    14  C    8.108700   8.153883   6.997892   0.000000
    15  C    9.054128   9.270329   8.207889   1.529665   0.000000
    16  N   10.416966  10.552652   9.423147   2.450242   1.468594
    17  H    6.567033   6.316512   5.093182   2.605817   4.034674
    18  H    4.448067   4.698111   3.903115   4.082371   4.958658
    19  H    3.316905   3.288651   2.830536   6.105413   7.135016
    20  H    4.374112   3.989364   2.691262   4.612741   5.923591
    21  H    4.155669   4.319241   3.358418   4.251431   5.224366
    22  H    2.148938   3.166672   3.240636   6.728877   7.424444
    23  H    2.137900   1.081637   2.147253   9.105070  10.271263
    24  H    3.186706   2.126427   1.010987   7.015553   8.338595
    25  H    8.316619   8.274770   7.056282   1.100966   2.162269
    26  H    8.519431   8.454843   7.263156   1.096292   2.162653
    27  H    9.102918   9.387940   8.400835   2.153538   1.096151
    28  H    8.812002   9.138101   8.144952   2.152058   1.099843
    29  H   10.596306  10.690385   9.525811   2.737694   2.048781
    30  H   11.091747  11.313137  10.233654   3.336665   2.046480
                   16         17         18         19         20
    16  N    0.000000
    17  H    4.929955   0.000000
    18  H    6.319537   2.877247   0.000000
    19  H    8.425696   4.154638   2.272392   0.000000
    20  H    6.998272   3.048684   3.055388   3.601686   0.000000
    21  H    6.491240   3.511957   2.405120   3.694388   1.766346
    22  H    8.846147   5.781616   3.265853   3.309090   4.020657
    23  H   11.525796   7.133976   5.680696   4.046686   4.822357
    24  H    9.455732   4.918158   4.310692   3.233182   2.614339
    25  H    2.682318   2.941797   4.664893   6.594826   4.475960
    26  H    2.680402   2.353509   4.373406   6.178121   4.953128
    27  H    2.084016   4.232814   4.832825   6.971434   6.336085
    28  H    2.174038   4.558640   5.002397   7.256278   5.913064
    29  H    1.019881   5.214632   6.722028   8.823396   6.985173
    30  H    1.018536   5.828700   6.970558   9.124480   7.872256
                   21         22         23         24         25
    21  H    0.000000
    22  H    2.965442   0.000000
    23  H    5.342666   4.183305   0.000000
    24  H    3.769492   4.198263   2.545616   0.000000
    25  H    4.284014   7.028005   9.199000   6.997632   0.000000
    26  H    4.893330   7.308695   9.347431   7.172120   1.756453
    27  H    5.566251   7.436197  10.391208   8.584491   3.063022
    28  H    4.950774   7.045368  10.173778   8.374897   2.533054
    29  H    6.533493   9.057990  11.653924   9.524290   2.546327
    30  H    7.221915   9.411760  12.310037  10.323937   3.641620
                   26         27         28         29         30
    26  H    0.000000
    27  H    2.484691   0.000000
    28  H    3.061708   1.759970   0.000000
    29  H    3.108291   2.930906   2.427850   0.000000
    30  H    3.588619   2.334223   2.494321   1.624718   0.000000
 Symmetry turned off by external request.
 Stoichiometry    C9H14N4O3
 Framework group  C1[X(C9H14N4O3)]
 Deg. of freedom    84
 Full point group                 C1      NOp   1
 Rotational constants (GHZ):      1.1821258      0.2223016      0.1987743
 Standard basis: 6-31G(d) (6D, 7F)
   268 basis functions,   504 primitive gaussians,   268 cartesian basis functions
    60 alpha electrons       60 beta electrons
       nuclear repulsion energy      1098.9626897142 Hartrees.
 NAtoms=   30 NActive=   30 NUniq=   30 SFac= 1.00D+00 NAtFMM=   60 NAOKFM=F Big=F
 Integral buffers will be    131072 words long.
 Raffenetti 2 integral format.
 Two-electron integral symmetry is turned off.
 One-electron integrals computed using PRISM.
 NBasis=   268 RedAO= T EigKep=  1.23D-03  NBF=   268
 NBsUse=   268 1.00D-06 EigRej= -1.00D+00 NBFU=   268
 Initial guess from the checkpoint file:  "conf-801.chk"
 B after Tr=    -0.012536    0.023340    0.002153
         Rot=    0.999402    0.033727   -0.007397    0.002056 Ang=   3.96 deg.
 ExpMin= 1.61D-01 ExpMax= 5.48D+03 ExpMxC= 8.25D+02 IAcc=2 IRadAn=         4 AccDes= 0.00D+00
 Harris functional with IExCor=  402 and IRadAn=       4 diagonalized for initial guess.
 HarFok:  IExCor=  402 AccDes= 0.00D+00 IRadAn=         4 IDoV= 1 UseB2=F ITyADJ=14
 ICtDFT=  3500011 ScaDFX=  1.000000  1.000000  1.000000  1.000000
 FoFCou: FMM=F IPFlag=           0 FMFlag=      100000 FMFlg1=           0
         NFxFlg=           0 DoJE=T BraDBF=F KetDBF=T FulRan=T
         wScrn=  0.000000 ICntrl=     500 IOpCl=  0 I1Cent=   200000004 NGrid=           0
         NMat0=    1 NMatS0=      1 NMatT0=    0 NMatD0=    1 NMtDS0=    0 NMtDT0=    0
 Symmetry not used in FoFCou.
[...]
 01533,0.00001900,0.00003442,-0.00000405,0.00000568,-0.00003604,0.00005
 617,0.00005054,-0.00000954,-0.00006132,-0.00001712,-0.00031723,-0.0003
 6534,0.00027430,-0.00025170,0.00016569,0.00026484,0.00032535,0.0000741
 1,0.00004222,0.00024922,0.00061760,0.00090741,0.00028201,-0.00014750,-
 0.00065634,0.02770723,0.32806797,-0.00005093,-0.00001711,-0.00010044,0
 .00003262,-0.00001043,0.00009739,-0.00013918,-0.00000524,-0.00022969,-
 0.00000523,-0.00004198,0.00027578,-0.00097966,0.00009497,0.00066383,0.
 00076507,0.00021794,-0.00034960,0.00027183,0.00007508,-0.00030142,-0.0
 0029866,-0.00133853,-0.00126268,-0.00335373,0.00131377,-0.00775485,0.0
 0056048,0.00125358,0.00092381,-0.00022689,0.00341241,0.00470171,0.0029
 6235,-0.00141273,-0.00822800,0.02344175,0.20614523,-0.14178431,0.00000
 157,0.00002035,0.00001508,0.00001515,0.00000346,0.00000454,-0.00001328
 ,0.00000216,-0.00001631,-0.00009837,-0.00000486,0.00010029,-0.00003062
 ,-0.00007835,-0.00008371,-0.00011527,-0.00020105,0.00062594,0.00030891
 ,0.00005549,0.00044938,0.00022090,0.00016528,-0.00001467,0.00008664,0.
 00105420,0.00155715,-0.00024039,-0.00058100,-0.00074376,-0.02311215,-0
 .21011420,0.15146070,-0.00050876,-0.00365280,-0.00096227,-0.00148507,0
 .03187389,0.01433381,-0.00321995,-0.00080100,-0.00083596,-0.00068478,-
 0.00150779,-0.00001801,0.00008070,-0.00017927,-0.00032248,-0.00013785,
 0.00013724,0.00009923,-0.00007062,0.00001944,0.00017690,-0.00037157,0.
 00031036,0.00009811,-0.00005943,-0.00014778,-0.00007482,0.00002258,-0.
 00002172,0.00001157,-0.00005659,-0.00000806,0.00000658,-0.00004490,0.0
 0002958,-0.00000131,-0.00002054,0.00001496,-0.00004048,-0.04525853,0.0
 1295617,0.00266166,-0.00108765,-0.02559798,-0.01062063,0.00246266,-0.0
 0010289,-0.00050940,0.00011511,0.00080427,-0.00019136,0.00008597,-0.00
 000940,-0.00003714,0.00005067,-0.00001919,0.00001233,-0.00004753,-0.00
 002659,0.00006009,0.00003646,0.00012511,0.00001481,0.00000282,-0.00000
 905,0.00000860,-0.00000456,0.00000657,0.00000559,0.00000837,0.00001950
 ,0.00000059,0.05302255,0.00066365,0.00232268,0.00112263,0.00086788,-0.
 01244656,-0.00642039,0.00106769,-0.00007159,0.00097789,0.00017828,0.00
 024494,-0.00015614,-0.00002839,0.00004736,0.00012533,0.00009481,-0.000
 05605,-0.00004644,0.00004747,-0.00000235,-0.00005179,0.00008582,-0.000
 10560,-0.00003725,0.00001069,0.00004885,0.00001686,-0.00000789,0.00001
 414,0.00000303,0.00001953,0.00000699,0.00000162,0.00001737,-0.00001001
 ,-0.00000203,0.00001042,0.00000020,0.00001972,0.00991733,-0.25886883,-
 0.09461745,-0.00134928,-0.02066436,-0.00770249,0.00145213,0.00200351,0
 .00026127,-0.00014985,-0.00013100,0.00013828,-0.00003600,0.00000194,0.
 00001662,-0.00003591,0.00000062,-0.00002106,0.00001931,0.00001931,-0.0
 0002242,-0.00000914,-0.00005004,-0.00001847,-0.00000245,0.00000088,-0.
 00000878,0.00000194,-0.00000277,-0.00000309,-0.00000391,-0.00001210,-0
 .00000492,-0.00864710,0.28345026,-0.00098075,-0.00095218,-0.00059768,0
 .00088996,0.00698878,0.00148018,0.00063524,-0.00000160,0.00035299,0.00
 004122,0.00029070,0.00009217,-0.00012298,0.00002194,-0.00002988,0.0000
 8734,-0.00004203,0.00000036,0.00010642,0.00001612,0.00003631,0.0000732
 6,-0.00013830,-0.00000167,0.00001990,0.00004772,0.00003177,-0.00000670
 ,0.00001212,-0.00000178,0.00001045,0.00000845,-0.00000380,0.00001334,-
 0.00001343,0.00000163,0.00000016,0.00000238,0.00001312,0.00178878,-0.0
 9384570,-0.09030780,0.00092988,0.01431687,0.00573298,-0.00119075,-0.00
 003632,0.00005257,-0.00052867,-0.00059632,0.00019382,-0.00002208,-0.00
 002127,0.00000065,-0.00001909,-0.00000386,-0.00001966,0.00001422,0.000
 00588,-0.00001060,0.00003865,0.00002380,0.00001914,0.00000089,-0.00000
 094,-0.00000248,0.00000078,-0.00000261,-0.00000246,0.00000081,-0.00000
 917,0.00000008,-0.00493150,0.10274077,0.09421395,-0.00694067,0.0047743
 0,-0.00205156,0.00198196,-0.00075092,-0.03139734,0.00004420,-0.0002941
 6,0.00156024,0.00040034,-0.00014444,0.00007455,-0.00012239,0.00009604,
 -0.00023241,0.00012395,-0.00008624,0.00004417,0.00012506,-0.00006944,0
 .00019766,0.00005587,-0.00008702,-0.00002685,0.00004484,0.00002384,0.0
 0003248,0.00001808,0.00002313,-0.00000383,-0.00001717,-0.00000782,0.00
 001380,-0.00001262,0.00000646,-0.00001195,-0.00000350,-0.00000358,0.00
 001806,-0.05638437,0.00423971,-0.03605781,0.00317770,-0.00266884,0.026
 56730,0.00189865,0.00047388,-0.00078469,-0.00207595,0.00081177,0.00048
 593,0.00019405,-0.00010606,-0.00010608,-0.00001015,-0.00000478,-0.0000
 3712,-0.00002725,-0.00000420,0.00002151,0.00012712,0.00010968,0.000019
 12,0.00000723,-0.00001299,-0.00000024,-0.00000139,-0.00000271,-0.00000
 241,-0.00000081,0.00000126,-0.00000684,0.00006671,-0.00044846,0.002073
 25,0.06054739,0.00390273,0.00028181,0.00131691,-0.00082453,-0.00349519
 ,0.01381625,-0.00071625,-0.00013186,-0.00047992,-0.00008603,-0.0001622
 4,0.00000580,0.00012152,-0.00003804,0.00006537,-0.00008544,0.00004970,
 -0.00001022,-0.00011280,-0.00003683,-0.00005908,-0.00005715,0.00009068
 ,-0.00001413,-0.00002662,-0.00003003,-0.00002438,-0.00000035,-0.000016
 33,0.00000479,-0.00000660,-0.00000195,-0.00000355,-0.00000651,0.000006
 42,0.00000241,0.00000089,0.00000462,-0.00001157,0.00381959,-0.05142323
 ,0.02095714,0.00258601,-0.00259896,0.02075332,0.00093900,0.00056616,-0
 .00151367,0.00077377,0.00068638,-0.00019301,-0.00000521,0.00002593,0.0
 0002808,0.00001960,0.00000558,0.00002409,-0.00000249,-0.00000714,-0.00
 000904,-0.00005220,-0.00006180,0.00000414,-0.00000166,0.00000303,0.000
 00341,-0.00000051,0.00000210,0.00000173,0.00000161,0.00000530,-0.00000
 053,-0.00466180,0.00374762,-0.03021317,-0.00366131,0.05362375,-0.00187
 008,0.00028730,0.00174940,0.00318575,-0.00016674,-0.00704160,0.0009648
 9,-0.00064678,0.00088290,-0.00031739,0.00038800,0.00054262,-0.00023373
 ,0.00009305,-0.00023359,0.00007948,-0.00004534,0.00006284,0.00012564,-
 0.00005395,0.00015915,0.00008050,-0.00007373,-0.00003600,0.00002230,0.
 00003458,0.00003812,0.00001256,0.00002295,-0.00000768,-0.00000055,-0.0
 0000669,0.00001521,-0.00000322,0.00000079,-0.00000759,-0.00000812,-0.0
 0000680,0.00002415,-0.03837026,0.02257653,-0.30442190,-0.00211510,0.00
 192729,-0.01394734,-0.00048315,-0.00110374,0.00165878,-0.00031512,-0.0
 0011012,0.00115846,0.00007916,-0.00010195,0.00002362,-0.00000374,-0.00
 000480,-0.00002585,-0.00001898,-0.00001181,0.00000274,0.00005842,0.000
 04053,0.00002715,0.00000353,-0.00000916,-0.00000452,-0.00000119,-0.000
 00319,-0.00000355,-0.00000335,0.00000024,-0.00000923,-0.00182128,0.001
 06042,-0.01252764,0.03894716,-0.02623671,0.33043147,-0.00025729,0.0008
 9070,-0.00038387,0.00195786,-0.00181396,-0.00001995,-0.00014389,0.0004
 6588,0.00026897,-0.00002093,-0.00009830,0.00004273,-0.00002770,-0.0000
 1381,-0.00000975,0.00000233,0.00001470,0.00000920,0.00001433,0.0000274
 9,0.00000471,-0.00001134,-0.00000557,-0.00001050,0.00000198,0.00000100
 ,0.00000713,-0.00000499,-0.00000116,0.00000883,-0.00000476,0.00000790,
 -0.00000171,0.00000206,-0.00000223,-0.00000107,0.00000244,0.00001052,-
 0.00000213,-0.00171910,-0.02320879,-0.01146534,-0.04965597,-0.00782648
 ,-0.00412389,-0.00470637,0.03456149,0.01298957,-0.00001895,-0.00014853
 ,-0.00001802,-0.00003221,0.00000132,-0.00003120,-0.00001038,-0.0000117
 5,-0.00000782,0.00001471,0.00000913,-0.00000583,0.00000362,-0.00000818
 ,0.00000648,-0.00000151,-0.00000127,-0.00000413,0.,0.00000002,-0.00000
 100,0.00000290,-0.00000408,-0.00000191,-0.00387909,-0.00301181,0.00246
 020,0.00092878,0.00102178,-0.00008358,0.06141335,-0.00057738,0.0006280
 2,-0.00049948,0.00153922,-0.00089409,0.00044483,-0.00058768,0.00044964
 ,0.00029985,0.00002731,-0.00015407,0.00009162,-0.00004977,-0.00002023,
 -0.00012527,-0.00000622,0.00003049,0.00004769,0.00003574,0.00004664,0.
 00008007,-0.00004126,0.00001104,-0.00000844,0.00000479,-0.00001318,0.0
 0000884,-0.00000320,-0.00000057,0.00001468,-0.00001569,0.00001186,-0.0
 0000006,-0.00000309,-0.00000124,-0.00000232,0.00000047,0.00001852,-0.0
 0000488,-0.00273126,-0.01580862,-0.00740424,-0.00179910,-0.25428246,-0
 .10085626,0.00381068,-0.01538389,-0.00478905,-0.00006213,-0.00017357,-
 0.00007835,-0.00003304,0.00001642,-0.00004413,-0.00000611,-0.00002357,
 -0.00001671,0.00001381,0.00000729,-0.00000345,0.00001875,0.00000737,0.
 00001607,-0.00000054,-0.00000451,-0.00000488,-0.00000074,-0.00000003,-
 0.00000156,0.00000519,-0.00000530,-0.00000523,-0.00276530,-0.00079495,
 0.00172048,0.00057335,0.00057544,0.00019244,-0.00016992,0.28037788,-0.
 00039904,0.00055550,0.00018401,-0.00043068,-0.00031653,0.00048730,-0.0
 0039624,-0.00006318,-0.00004208,0.00004175,-0.00002639,0.00003518,0.00
 005588,-0.00003691,0.00000493,-0.00005169,0.00004158,0.00000705,-0.000
 04374,0.00001779,-0.00001346,-0.00000895,0.00002553,-0.00000260,0.0000
 0192,-0.00001633,-0.00000267,-0.00000315,-0.00000839,0.00000963,-0.000
 00912,0.00000749,-0.00000198,-0.00000310,0.00000072,0.00000007,0.00000
 275,0.00001211,-0.00000919,0.00071292,0.01385911,0.00593799,-0.0026490
 7,-0.10497935,-0.10627689,0.00074320,0.00740539,0.00432539,0.00008686,
 0.00002459,-0.00002398,-0.00002839,0.00000927,-0.00001367,0.00000508,-
 0.00001082,0.00000575,0.00000195,0.00000274,0.00000323,0.00000511,0.00
 000261,-0.00000076,-0.00000122,-0.00000354,-0.00000156,-0.00000021,0.0
 0000064,-0.00000018,0.00000334,0.00000015,-0.00000067,0.00259921,0.002
 27844,-0.00005361,-0.00082016,0.00006005,0.00102701,0.00178385,0.10998
 815,0.10711315,-0.00104880,0.00053966,-0.00179381,0.00149784,-0.000767
 22,0.00361095,-0.00008702,0.00029624,-0.00102219,-0.00006257,0.0001385
 9,-0.00008830,0.00005453,-0.00001748,0.00006776,-0.00003736,0.00001806
 ,-0.00001559,-0.00004084,0.00000949,-0.00007138,-0.00000602,0.00001386
 ,0.00001769,-0.00000935,-0.00000161,-0.00001116,-0.00000557,-0.0000067
 3,0.00000065,0.00000420,0.00000224,-0.00000469,0.00000557,-0.00000227,
 0.00000387,0.00000081,-0.00000054,-0.00000434,0.00270521,-0.00335031,0
 .02523543,-0.05620428,0.00447602,-0.03988238,-0.01661444,0.01066127,-0
 .03238892,0.00045410,-0.00021034,-0.00012749,-0.00009300,0.00004276,0.
 00004012,0.00000584,0.00000330,0.00001084,0.00001558,0.00000134,-0.000
 01240,-0.00004699,-0.00004109,-0.00000969,-0.00000210,0.00000416,0.000
 00079,0.00000033,0.00000064,0.00000082,0.00000129,-0.00000056,0.000001
 83,0.00112278,0.00034866,-0.00088447,-0.00441786,-0.00303879,0.0022137
 6,0.00126799,-0.00050779,-0.00062304,0.06912974,0.00061733,-0.00029126
 ,-0.00119304,0.00072700,-0.00036378,0.00119805,-0.00014087,0.00036202,
 -0.00003839,-0.00001485,0.00007409,-0.00002230,0.00000470,-0.00001065,
 -0.00000104,-0.00002241,0.00001411,0.00000475,-0.00000763,0.00002293,-
 0.00001141,-0.00000315,0.00000537,0.00000716,-0.00000225,-0.00000333,-
 0.00000659,0.00000002,-0.00000148,-0.00000174,-0.00000054,-0.00000069,
 -0.00000245,-0.00000053,-0.00000003,0.00000197,-0.00000054,-0.00000254
 ,-0.00000365,-0.00064661,-0.00253918,0.02051139,0.00366000,-0.05955942
 ,0.02447341,0.00990742,-0.00180299,0.01585082,0.00015360,-0.00012802,-
 0.00010298,-0.00005041,0.00001671,0.00000434,0.00000412,-0.00000142,0.
 00000384,0.00000544,0.00000070,-0.00000113,-0.00001616,-0.00000805,-0.
 00000142,0.00000063,0.00000200,0.00000135,-0.00000001,0.00000056,0.000
 00108,0.00000046,0.00000075,0.00000308,0.00120286,0.00084136,0.0000251
 1,-0.00267906,-0.00149776,0.00186216,-0.00434593,0.00420230,-0.0299831
 0,-0.00727785,0.05986926,-0.00192443,-0.00123130,0.00282213,-0.0016180
 8,0.00186090,-0.00410074,0.00018387,-0.00023376,0.00073137,-0.00001127
 ,-0.00004503,-0.00004403,-0.00006141,0.00001567,-0.00013197,0.00006026
 ,-0.00003414,0.00002784,0.00006039,-0.00001768,0.00012163,-0.00001375,
 -0.00001677,-0.00002001,0.00001309,0.00000794,0.00001084,0.00001666,0.
 00002000,-0.00000505,-0.00000946,-0.00000922,0.00001513,-0.00000707,0.
 00000516,-0.00000768,-0.00000798,-0.00001046,0.00001623,0.00077097,0.0
 0119498,-0.01483323,-0.03518782,0.02460877,-0.28715333,-0.00716606,0.0
 0390022,0.00144831,-0.00012039,0.00008968,0.00018812,0.00004774,-0.000
 03713,-0.00001070,-0.00000665,-0.00000254,-0.00002700,-0.00001456,-0.0
 0000345,0.00001048,0.00004653,0.00004138,0.00000984,0.00000398,-0.0000
 0726,-0.00000354,-0.00000150,-0.00000198,-0.00000135,-0.00000079,0.000
 00165,-0.00000774,-0.00014084,0.00009993,0.00112402,0.00173118,0.00194
 066,0.00035275,-0.00138569,0.00060343,-0.01395579,0.04583996,-0.033092
 59,0.31114488,0.00018836,-0.00029215,0.00019088,-0.00050319,-0.0000697
 1,-0.00067305,0.00041550,-0.00013418,-0.00002281,-0.00003979,0.0001255
 5,-0.00006857,-0.00004699,0.00005300,0.00007242,0.00006203,-0.00004838
 ,-0.00003063,0.00003042,-0.00003228,-0.00003926,0.00002859,-0.00001728
 ,-0.00000006,-0.00001025,0.00001819,0.00000443,-0.00000302,0.00000715,
 -0.00000961,0.00002691,-0.00000726,0.00000170,0.00000708,-0.00000334,0
 .00000125,0.00000115,-0.00001385,0.00000928,0.00142985,0.00133723,0.00
 061869,-0.00361476,0.03340086,0.02135658,-0.06545179,0.01703244,0.0180
 8666,-0.00002225,0.00003078,0.00006032,0.00001264,-0.00001024,0.000022
 50,-0.00001357,0.00001311,-0.00000110,-0.00000542,-0.00000204,0.000001
 82,-0.00001397,-0.00000628,-0.00000937,-0.00000139,0.00000497,-0.00000
 102,0.00000151,-0.00000042,-0.00000033,-0.00000942,-0.00000119,0.00000
 304,-0.00059036,-0.00130019,-0.00017926,-0.00000667,-0.00006656,-0.000
 12475,-0.00634536,0.00306393,-0.00120802,0.00136283,-0.00041679,-0.000
 37220,0.06972499,-0.00001599,-0.00007207,0.00026770,-0.00012289,0.0000
 7427,-0.00018464,-0.00005987,-0.00000903,0.00008030,0.00000775,-0.0000
 0601,0.00000689,-0.00002100,0.00001006,-0.00003047,0.00001278,-0.00000
 679,0.00000909,0.00001128,-0.00000798,0.00002457,-0.00000192,0.0000045
 4,-0.00000467,0.00000064,0.00000227,-0.00000103,0.00000340,0.00000469,
 -0.00000101,0.00000060,-0.00000425,0.00000531,-0.00000221,0.00000314,-
 0.00000272,-0.00000117,-0.00000522,0.00000490,-0.00008388,0.00154945,0
 .00036749,0.00227942,-0.01650884,-0.01116784,0.01654868,-0.28913810,-0
 .15390431,-0.00000701,0.00001681,-0.00000103,-0.00000306,-0.00000157,-
 0.00000094,-0.00000213,-0.00000046,-0.00000595,-0.00000234,-0.00000091
 ,0.00000358,0.00000235,0.00000363,-0.00000271,-0.00000003,-0.00000140,
 -0.00000181,-0.00000032,-0.00000027,-0.00000039,-0.00000144,0.00000137
 ,-0.00000207,0.00051476,0.00019967,-0.00058906,-0.00005807,-0.00002342
 ,0.00014430,0.00370449,0.00063393,0.00159018,-0.00160615,0.00091344,0.
 00047073,-0.02487026,0.32364801,0.00006702,0.00006919,-0.00049061,0.00
 024577,0.00023320,0.00068700,0.00005264,0.00009295,-0.00016855,-0.0000
 4439,-0.00005519,-0.00001313,-0.00000244,-0.00001274,0.00005184,0.0000
 0423,0.00000979,-0.00001503,0.00000500,0.00002497,-0.00004117,-0.00000
 985,-0.00000643,0.00000439,-0.00000605,-0.00000314,0.00000560,-0.00001
 029,-0.00000538,0.00000513,0.00000670,0.00001061,-0.00000875,0.0000070
 7,-0.00000828,0.00000462,0.00000392,0.00001161,-0.00000721,0.00054815,
 -0.00066323,-0.00022467,-0.00732100,0.01256038,-0.00004260,0.02316660,
 -0.21031751,-0.13909100,0.00000721,-0.00006866,-0.00000310,-0.00000441
 ,0.00000533,-0.00000172,-0.00000881,-0.00000513,0.00000247,0.00000953,
 0.00000572,-0.00000639,-0.00000625,-0.00000887,0.00000542,-0.00000150,
 0.00000296,-0.00000072,0.00000118,0.00000035,-0.00000021,-0.00000007,-
 0.00000605,0.00000347,0.00059383,0.00018719,0.00027494,0.00008729,-0.0
 0018186,-0.00024814,-0.00081245,0.00073747,0.00098430,0.00059092,0.001
 22961,0.00177628,-0.01818601,0.18060622,0.13414801,-0.00001233,0.00043
 725,-0.00055299,-0.00006081,-0.00199513,0.00180611,-0.00082163,0.00039
 130,-0.00016881,0.00010866,-0.00000611,0.00022636,0.00001231,-0.000032
 55,-0.00013688,-0.00008975,0.00006048,0.00005706,-0.00002925,0.0000295
 5,0.00006047,-0.00000693,0.00002503,0.00001050,0.00001088,-0.00002580,
 -0.00000878,0.00000077,-0.00001349,0.00000944,-0.00002435,0.00000551,-
 0.00000465,-0.00001171,0.00000606,-0.00000014,0.00000093,0.00001320,-0
 .00001480,-0.00592480,0.00512552,-0.00264845,-0.02564151,-0.02328815,0
 .01355760,-0.24216215,-0.15392586,0.07612727,0.00000191,-0.00003313,-0
 .00008829,-0.00003080,0.00001307,-0.00001634,0.00002512,-0.00001472,0.
 00001137,-0.00000079,-0.00000159,0.00000169,0.00001550,0.00000975,0.00
 000846,0.00000126,-0.00000322,0.00000395,-0.00000136,0.00000150,0.0000
 0104,0.00000754,0.00000414,0.00000037,0.00045039,0.00022741,-0.0003184
 8,0.00027886,0.00022633,0.00000044,0.00122748,0.00026700,0.00063201,0.
 00104755,-0.00065800,-0.00072466,0.00338633,0.00377360,0.00101648,0.26
 824267,-0.00000555,-0.00011382,-0.00003972,0.00049356,0.00103391,-0.00
 014477,0.00024227,-0.00020614,-0.00006891,-0.00003963,-0.00006813,-0.0
 0008121,0.00000987,0.00000552,0.00006427,0.00002432,-0.00002027,-0.000
 02706,0.00000007,-0.00001136,-0.00003405,-0.00000620,-0.00000400,-0.00
 000314,-0.00000504,0.00000703,0.00000014,0.00000034,0.00000239,-0.0000
 0471,0.00000596,-0.00000277,0.,0.00000366,-0.00000146,0.00000072,-0.00
 000112,-0.00000522,0.00000305,0.00289693,-0.00087344,0.00065958,0.0173
 2230,0.01128567,-0.00383130,-0.16288077,-0.19737842,0.05179847,0.00001
 642,0.00003638,0.00003535,0.00002206,-0.00000631,0.00000348,-0.0000053
 6,0.00000834,0.00000053,0.00000020,0.00000040,-0.00000079,-0.00000690,
 -0.00000275,-0.00000214,-0.00000014,0.00000192,0.00000040,0.00000033,-
 0.00000020,0.00000029,-0.00000137,-0.00000014,0.00000122,0.00014305,0.
 00026585,0.00024483,-0.00004334,-0.00014972,-0.00004908,-0.00004464,0.
 00054345,-0.00043749,0.00027243,-0.00011500,-0.00011780,-0.02779479,-0
 .02127895,0.01555491,0.16938107,0.20704723,0.00051147,-0.00035337,0.00
 029053,-0.00093791,0.00114719,0.00043313,0.00061093,-0.00026005,-0.000
 41294,-0.00021928,0.00001402,-0.00012193,-0.00008215,0.00008411,0.0002
 2959,0.00011868,-0.00007983,-0.00008541,0.00004817,-0.00005438,-0.0001
 4252,0.00002865,-0.00001740,-0.00000203,-0.00002836,0.00003051,0.00000
 980,-0.00001470,0.00000504,-0.00001236,0.00005275,-0.00000564,-0.00000
 415,0.00001904,-0.00001084,0.00000486,0.00000623,-0.00001514,0.0000099
 9,0.00197320,-0.00022017,0.00003469,-0.01321993,-0.00266530,-0.0031690
 6,0.11996458,0.08466902,-0.05635018,-0.00001384,0.00003440,0.00011690,
 0.00003492,-0.00001330,0.00002967,-0.00003453,0.00002348,0.00000435,0.
 00000020,0.00000303,-0.00000274,-0.00003269,-0.00002773,-0.00001617,-0
 .00000504,0.00001164,-0.00000283,0.00000365,-0.00000001,-0.00000048,-0
 .00001597,-0.00000543,0.00000795,-0.00017543,0.00006275,-0.00006162,-0
 .00033441,-0.00003329,0.00035826,0.00078815,-0.00040130,0.00027411,-0.
 00069552,-0.00071628,0.00050229,-0.01950349,-0.01768063,0.00240952,-0.
 08884737,-0.06352509,0.05566876\\0.00000157,0.00000064,-0.00000101,-0.
 00000178,-0.00000122,0.00000188,-0.00000062,-0.00000028,-0.00000028,0.
 00000179,-0.00000090,0.00000154,-0.00000260,0.00000063,-0.00000092,0.0
 0000065,0.00000033,0.00000449,0.00000154,-0.00000132,0.00000130,0.0000
 0031,0.00000204,-0.00000278,-0.00000244,-0.00000597,0.00000307,-0.0000
 0064,0.00000192,0.00000013,-0.00000122,-0.00000005,0.00000012,0.000000
 32,0.00000062,-0.00000097,0.00000060,-0.00000216,-0.00000274,0.0000018
 3,0.00000166,-0.00000194,0.00000107,-0.00000014,0.00000172,-0.00000002
 ,0.00000063,0.00000031,0.00000014,0.00000004,0.00000110,0.00000009,0.0
 0000008,0.00000013,-0.00000027,0.00000108,-0.00000363,0.00000002,-0.00
 000053,-0.00000039,0.00000053,-0.00000032,-0.00000036,-0.00000005,0.00
 000013,-0.00000047,-0.00000067,-0.00000034,-0.00000032,0.00000023,0.00
 000066,0.00000027,-0.00000014,0.00000024,-0.00000003,-0.00000127,0.000
 00068,0.00000042,-0.00000002,0.00000009,0.00000043,0.00000004,0.000000
 78,-0.00000095,0.00000030,-0.00000007,-0.00000024,0.00000067,0.0000010
 4,0.00000010\\\@


 MICHAEL FARADAY, ASKED BY A POLITICIAN WHAT GOOD
 HIS ELECTRICAL DISCOVERIES WERE, REPLIED 
 "AT PRESENT I DO NOT KNOW, BUT ONE DAY YOU WILL BE
 ABLE TO TAX THEM."
 Job cpu time:       0 days  0 hours 57 minutes  6.4 seconds.
 File lengths (MBytes):  RWF=    260 Int=      0 D2E=      0 Chk=      8 Scr=      1
 Normal termination of Gaussian 09 at Wed Jul 28 22:47:04 2021.
