 Entering Gaussian System, Link 0=g09
 Input=opt_freq-conf-580.com
 Output=opt_freq-conf-580.log
 Initial command:
 /aerosol/software/g09/l1.exe "/scratch/nicole/10649/Gau-82933.inp" -scrdir="/scratch/nicole/10649/"
 Entering Link 1 = /aerosol/software/g09/l1.exe PID=     82938.
  
 Copyright (c) 1988,1990,1992,1993,1995,1998,2003,2009,2013,
            Gaussian, Inc.  All Rights Reserved.
  
 This is part of the Gaussian(R) 09 program.  It is based on
 the Gaussian(R) 03 system (copyright 2003, Gaussian, Inc.),
 the Gaussian(R) 98 system (copyright 1998, Gaussian, Inc.),
 the Gaussian(R) 94 system (copyright 1995, Gaussian, Inc.),
 the Gaussian 92(TM) system (copyright 1992, Gaussian, Inc.),
 the Gaussian 90(TM) system (copyright 1990, Gaussian, Inc.),
 the Gaussian 88(TM) system (copyright 1988, Gaussian, Inc.),
 the Gaussian 86(TM) system (copyright 1986, Carnegie Mellon
 University), and the Gaussian 82(TM) system (copyright 1983,
 Carnegie Mellon University). Gaussian is a federally registered
 trademark of Gaussian, Inc.
  
 This software contains proprietary and confidential information,
 including trade secrets, belonging to Gaussian, Inc.
  
 This software is provided under written license and may be
 used, copied, transmitted, or stored only in accord with that
 written license.
  
 The following legend is applicable only to US Government
 contracts under FAR:
  
                    RESTRICTED RIGHTS LEGEND
  
 Use, reproduction and disclosure by the US Government is
 subject to restrictions as set forth in subparagraphs (a)
 and (c) of the Commercial Computer Software - Restricted
 Rights clause in FAR 52.227-19.
  
 Gaussian, Inc.
 340 Quinnipiac St., Bldg. 40, Wallingford CT 06492
  
  
 ---------------------------------------------------------------
 Warning -- This program may not be used in any manner that
 competes with the business of Gaussian, Inc. or will provide
 assistance to any competitor of Gaussian, Inc.  The licensee
 of this program is prohibited from giving any competitor of
 Gaussian, Inc. access to this program.  By using this program,
 the user acknowledges that Gaussian, Inc. is engaged in the
 business of creating and licensing software in the field of
 computational chemistry and represents and warrants to the
 licensee that it is not a competitor of Gaussian, Inc. and that
 it will not use this program in any manner prohibited above.
 ---------------------------------------------------------------
  

 Cite this work as:
 Gaussian 09, Revision D.01,
 M. J. Frisch, G. W. Trucks, H. B. Schlegel, G. E. Scuseria, 
 M. A. Robb, J. R. Cheeseman, G. Scalmani, V. Barone, B. Mennucci, 
 G. A. Petersson, H. Nakatsuji, M. Caricato, X. Li, H. P. Hratchian, 
 A. F. Izmaylov, J. Bloino, G. Zheng, J. L. Sonnenberg, M. Hada, 
 M. Ehara, K. Toyota, R. Fukuda, J. Hasegawa, M. Ishida, T. Nakajima, 
 Y. Honda, O. Kitao, H. Nakai, T. Vreven, J. A. Montgomery, Jr., 
 J. E. Peralta, F. Ogliaro, M. Bearpark, J. J. Heyd, E. Brothers, 
 K. N. Kudin, V. N. Staroverov, T. Keith, R. Kobayashi, J. Normand, 
 K. Raghavachari, A. Rendell, J. C. Burant, S. S. Iyengar, J. Tomasi, 
 M. Cossi, N. Rega, J. M. Millam, M. Klene, J. E. Knox, J. B. Cross, 
 V. Bakken, C. Adamo, J. Jaramillo, R. Gomperts, R. E. Stratmann, 
 O. Yazyev, A. J. Austin, R. Cammi, C. Pomelli, J. W. Ochterski, 
 R. L. Martin, K. Morokuma, V. G. Zakrzewski, G. A. Voth, 
 P. Salvador, J. J. Dannenberg, S. Dapprich, A. D. Daniels, 
 O. Farkas, J. B. Foresman, J. V. Ortiz, J. Cioslowski, 
 and D. J. Fox, Gaussian, Inc., Wallingford CT, 2013.
 
 ******************************************
 Gaussian 09:  ES64L-G09RevD.01 24-Apr-2013
                28-Jul-2021 
 ******************************************
 %mem=2gb
 %nproc=4
 Will use up to    4 processors via shared memory.
 %chk=conf-580.chk
 ----------------------------------------------------------------------
 # B3LYP/6-31+G(d,p) opt=calcfc freq=noraman nosymm integral(ultrafineg
 rid)
 ----------------------------------------------------------------------
 1/10=4,14=-1,18=20,19=15,26=4,38=1/1,3;
 2/9=110,12=2,15=1,17=6,18=5,40=1/2;
 3/5=1,6=6,7=111,11=2,16=1,25=1,30=1,71=2,74=-5,75=-5,140=1/1,2,3;
 4//1;
 5/5=2,38=5/2;
 8/6=4,10=90,11=11/1;
 11/6=1,8=1,9=11,15=111,16=1,31=1/1,2,10;
 10/6=1,13=1,31=1/2;
 6/7=2,8=2,9=2,10=2,28=1/1;
 7/10=1,18=20,25=1,30=1/1,2,3,16;
 1/10=4,14=-1,18=20,19=15,26=4/3(2);
 2/9=110,15=1/2;
 99//99;
 2/9=110,15=1/2;
 3/5=1,6=6,7=111,11=2,16=1,25=1,30=1,71=1,74=-5,75=-5/1,2,3;
 4/5=5,16=3,69=1/1;
 5/5=2,38=5/2;
 7/30=1/1,2,3,16;
 1/14=-1,18=20,19=15,26=4/3(-5);
 2/9=110,15=1/2;
 6/7=2,8=2,9=2,10=2,19=2,28=1/1;
 99/9=1/99;
 ------------------------------------------------------------
 Candidate Structure: Conf:580 OPT and FREQ calc in gas phase
 ------------------------------------------------------------
 Symbolic Z-matrix:
 Charge =  1 Multiplicity = 1
 O                     1.1626    0.47867  -1.24083 
 C                     1.43062   0.39643  -0.04924 
 N                     0.44893   0.32097   0.88846 
 C                    -0.95542   0.32737   0.51041 
 C                    -1.72354   0.76875   1.73533 
 O                    -2.59503   1.76808   1.49955 
 O                    -1.57563   0.26701   2.82237 
 C                    -1.39558  -1.08541   0.07214 
 C                    -2.827    -1.1616   -0.34837 
 C                    -3.94651  -1.63385   0.27999 
 N                    -5.07043  -1.45394  -0.50815 
 C                    -4.63104  -0.88057  -1.60483 
 N                    -3.28184  -0.68161  -1.55821 
 C                     2.85113   0.35726   0.49446 
 C                     3.88925   0.67519  -0.5716 
 N                     5.27509   0.60883  -0.03633 
 H                     0.66614   0.21415   1.86708 
 H                    -1.09215   1.03096  -0.31002 
 H                    -3.03128   1.94422   2.34426 
 H                    -1.24299  -1.76764   0.90622 
 H                    -0.73868  -1.39207  -0.73967 
 H                    -4.00148  -2.07935   1.265 
 H                    -5.22149  -0.59048  -2.45542 
 H                    -2.71356  -0.26592  -2.27903 
 H                     3.04083  -0.64193   0.90267 
 H                     2.93715   1.06208   1.32718 
 H                     3.77607  -0.02889  -1.39457 
 H                     3.69767   1.66864  -0.97572 
 H                     5.96943   0.81982  -0.75442 
 H                     5.41211   1.27593   0.72291 
 H                     5.48682  -0.32092   0.32558 
 

 GradGradGradGradGradGradGradGradGradGradGradGradGradGradGradGradGradGrad
 Berny optimization.
 Initialization pass.
                           ----------------------------
                           !    Initial Parameters    !
                           ! (Angstroms and Degrees)  !
 --------------------------                            --------------------------
 ! Name  Definition              Value          Derivative Info.                !
 --------------------------------------------------------------------------------
 ! R1    R(1,2)                  1.2241         calculate D2E/DX2 analytically  !
 ! R2    R(2,3)                  1.3597         calculate D2E/DX2 analytically  !
 ! R3    R(2,14)                 1.5215         calculate D2E/DX2 analytically  !
 ! R4    R(3,4)                  1.4544         calculate D2E/DX2 analytically  !
 ! R5    R(3,17)                 1.0081         calculate D2E/DX2 analytically  !
 ! R6    R(4,5)                  1.5117         calculate D2E/DX2 analytically  !
 ! R7    R(4,8)                  1.5433         calculate D2E/DX2 analytically  !
 ! R8    R(4,18)                 1.0894         calculate D2E/DX2 analytically  !
 ! R9    R(5,6)                  1.3468         calculate D2E/DX2 analytically  !
 ! R10   R(5,7)                  1.2064         calculate D2E/DX2 analytically  !
 ! R11   R(6,19)                 0.9669         calculate D2E/DX2 analytically  !
 ! R12   R(8,9)                  1.4938         calculate D2E/DX2 analytically  !
 ! R13   R(8,20)                 1.0883         calculate D2E/DX2 analytically  !
 ! R14   R(8,21)                 1.0884         calculate D2E/DX2 analytically  !
 ! R15   R(9,10)                 1.3679         calculate D2E/DX2 analytically  !
 ! R16   R(9,13)                 1.3788         calculate D2E/DX2 analytically  !
 ! R17   R(10,11)                1.3845         calculate D2E/DX2 analytically  !
 ! R18   R(10,22)                1.0825         calculate D2E/DX2 analytically  !
 ! R19   R(11,12)                1.3132         calculate D2E/DX2 analytically  !
 ! R20   R(12,13)                1.3646         calculate D2E/DX2 analytically  !
 ! R21   R(12,23)                1.0753         calculate D2E/DX2 analytically  !
 ! R22   R(13,24)                1.0076         calculate D2E/DX2 analytically  !
 ! R23   R(14,15)                1.5216         calculate D2E/DX2 analytically  !
 ! R24   R(14,25)                1.0959         calculate D2E/DX2 analytically  !
 ! R25   R(14,26)                1.0943         calculate D2E/DX2 analytically  !
 ! R26   R(15,16)                1.4871         calculate D2E/DX2 analytically  !
 ! R27   R(15,27)                1.089          calculate D2E/DX2 analytically  !
 ! R28   R(15,28)                1.0895         calculate D2E/DX2 analytically  !
 ! R29   R(16,29)                1.0209         calculate D2E/DX2 analytically  !
 ! R30   R(16,30)                1.0199         calculate D2E/DX2 analytically  !
 ! R31   R(16,31)                1.0199         calculate D2E/DX2 analytically  !
 ! A1    A(1,2,3)              121.1297         calculate D2E/DX2 analytically  !
 ! A2    A(1,2,14)             123.6408         calculate D2E/DX2 analytically  !
 ! A3    A(3,2,14)             115.227          calculate D2E/DX2 analytically  !
 ! A4    A(2,3,4)              121.176          calculate D2E/DX2 analytically  !
 ! A5    A(2,3,17)             121.3189         calculate D2E/DX2 analytically  !
 ! A6    A(4,3,17)             117.442          calculate D2E/DX2 analytically  !
 ! A7    A(3,4,5)              106.3383         calculate D2E/DX2 analytically  !
 ! A8    A(3,4,8)              110.1931         calculate D2E/DX2 analytically  !
 ! A9    A(3,4,18)             108.6502         calculate D2E/DX2 analytically  !
 ! A10   A(5,4,8)              110.6385         calculate D2E/DX2 analytically  !
 ! A11   A(5,4,18)             110.9702         calculate D2E/DX2 analytically  !
 ! A12   A(8,4,18)             109.9717         calculate D2E/DX2 analytically  !
 ! A13   A(4,5,6)              113.8036         calculate D2E/DX2 analytically  !
 ! A14   A(4,5,7)              123.1211         calculate D2E/DX2 analytically  !
 ! A15   A(6,5,7)              123.0739         calculate D2E/DX2 analytically  !
 ! A16   A(5,6,19)             105.914          calculate D2E/DX2 analytically  !
 ! A17   A(4,8,9)              113.5732         calculate D2E/DX2 analytically  !
 ! A18   A(4,8,20)             108.435          calculate D2E/DX2 analytically  !
 ! A19   A(4,8,21)             107.3141         calculate D2E/DX2 analytically  !
 ! A20   A(9,8,20)             108.5493         calculate D2E/DX2 analytically  !
 ! A21   A(9,8,21)             110.7317         calculate D2E/DX2 analytically  !
 ! A22   A(20,8,21)            108.0823         calculate D2E/DX2 analytically  !
 ! A23   A(8,9,10)             132.2612         calculate D2E/DX2 analytically  !
 ! A24   A(8,9,13)             123.049          calculate D2E/DX2 analytically  !
 ! A25   A(10,9,13)            104.6715         calculate D2E/DX2 analytically  !
 ! A26   A(9,10,11)            110.9795         calculate D2E/DX2 analytically  !
 ! A27   A(9,10,22)            126.988          calculate D2E/DX2 analytically  !
 ! A28   A(11,10,22)           122.0242         calculate D2E/DX2 analytically  !
 ! A29   A(10,11,12)           105.1009         calculate D2E/DX2 analytically  !
 ! A30   A(11,12,13)           111.4658         calculate D2E/DX2 analytically  !
 ! A31   A(11,12,23)           126.488          calculate D2E/DX2 analytically  !
 ! A32   A(13,12,23)           122.046          calculate D2E/DX2 analytically  !
 ! A33   A(9,13,12)            107.782          calculate D2E/DX2 analytically  !
 ! A34   A(9,13,24)            125.8228         calculate D2E/DX2 analytically  !
 ! A35   A(12,13,24)           126.3934         calculate D2E/DX2 analytically  !
 ! A36   A(2,14,15)            112.4095         calculate D2E/DX2 analytically  !
 ! A37   A(2,14,25)            108.5535         calculate D2E/DX2 analytically  !
 ! A38   A(2,14,26)            109.1908         calculate D2E/DX2 analytically  !
 ! A39   A(15,14,25)           109.474          calculate D2E/DX2 analytically  !
 ! A40   A(15,14,26)           110.1769         calculate D2E/DX2 analytically  !
 ! A41   A(25,14,26)           106.8689         calculate D2E/DX2 analytically  !
 ! A42   A(14,15,16)           111.9807         calculate D2E/DX2 analytically  !
 ! A43   A(14,15,27)           108.8738         calculate D2E/DX2 analytically  !
 ! A44   A(14,15,28)           109.2953         calculate D2E/DX2 analytically  !
 ! A45   A(16,15,27)           109.8784         calculate D2E/DX2 analytically  !
 ! A46   A(16,15,28)           109.7596         calculate D2E/DX2 analytically  !
 ! A47   A(27,15,28)           106.9165         calculate D2E/DX2 analytically  !
 ! A48   A(15,16,29)           111.8023         calculate D2E/DX2 analytically  !
 ! A49   A(15,16,30)           111.3432         calculate D2E/DX2 analytically  !
 ! A50   A(15,16,31)           111.2144         calculate D2E/DX2 analytically  !
 ! A51   A(29,16,30)           107.2805         calculate D2E/DX2 analytically  !
 ! A52   A(29,16,31)           107.266          calculate D2E/DX2 analytically  !
 ! A53   A(30,16,31)           107.7099         calculate D2E/DX2 analytically  !
 ! D1    D(1,2,3,4)              0.3576         calculate D2E/DX2 analytically  !
 ! D2    D(1,2,3,17)           177.3943         calculate D2E/DX2 analytically  !
 ! D3    D(14,2,3,4)          -179.0877         calculate D2E/DX2 analytically  !
 ! D4    D(14,2,3,17)           -2.0511         calculate D2E/DX2 analytically  !
 ! D5    D(1,2,14,15)           10.0468         calculate D2E/DX2 analytically  !
 ! D6    D(1,2,14,25)         -111.2039         calculate D2E/DX2 analytically  !
 ! D7    D(1,2,14,26)          132.6334         calculate D2E/DX2 analytically  !
 ! D8    D(3,2,14,15)         -170.5235         calculate D2E/DX2 analytically  !
 ! D9    D(3,2,14,25)           68.2258         calculate D2E/DX2 analytically  !
 ! D10   D(3,2,14,26)          -47.9369         calculate D2E/DX2 analytically  !
 ! D11   D(2,3,4,5)           -158.491          calculate D2E/DX2 analytically  !
 ! D12   D(2,3,4,8)             81.5636         calculate D2E/DX2 analytically  !
 ! D13   D(2,3,4,18)           -38.9825         calculate D2E/DX2 analytically  !
 ! D14   D(17,3,4,5)            24.3615         calculate D2E/DX2 analytically  !
 ! D15   D(17,3,4,8)           -95.584          calculate D2E/DX2 analytically  !
 ! D16   D(17,3,4,18)          143.87           calculate D2E/DX2 analytically  !
 ! D17   D(3,4,5,6)            129.6372         calculate D2E/DX2 analytically  !
 ! D18   D(3,4,5,7)            -50.781          calculate D2E/DX2 analytically  !
 ! D19   D(8,4,5,6)           -110.7067         calculate D2E/DX2 analytically  !
 ! D20   D(8,4,5,7)             68.875          calculate D2E/DX2 analytically  !
 ! D21   D(18,4,5,6)            11.6523         calculate D2E/DX2 analytically  !
 ! D22   D(18,4,5,7)          -168.7659         calculate D2E/DX2 analytically  !
 ! D23   D(3,4,8,9)           -179.3492         calculate D2E/DX2 analytically  !
 ! D24   D(3,4,8,20)            59.9            calculate D2E/DX2 analytically  !
 ! D25   D(3,4,8,21)           -56.6265         calculate D2E/DX2 analytically  !
 ! D26   D(5,4,8,9)             63.3402         calculate D2E/DX2 analytically  !
 ! D27   D(5,4,8,20)           -57.4105         calculate D2E/DX2 analytically  !
 ! D28   D(5,4,8,21)          -173.9371         calculate D2E/DX2 analytically  !
 ! D29   D(18,4,8,9)           -59.6006         calculate D2E/DX2 analytically  !
 ! D30   D(18,4,8,20)          179.6487         calculate D2E/DX2 analytically  !
 ! D31   D(18,4,8,21)           63.1221         calculate D2E/DX2 analytically  !
 ! D32   D(4,5,6,19)           178.8089         calculate D2E/DX2 analytically  !
 ! D33   D(7,5,6,19)            -0.7731         calculate D2E/DX2 analytically  !
 ! D34   D(4,8,9,10)          -102.7806         calculate D2E/DX2 analytically  !
 ! D35   D(4,8,9,13)            75.411          calculate D2E/DX2 analytically  !
 ! D36   D(20,8,9,10)           17.9057         calculate D2E/DX2 analytically  !
 ! D37   D(20,8,9,13)         -163.9026         calculate D2E/DX2 analytically  !
 ! D38   D(21,8,9,10)          136.3996         calculate D2E/DX2 analytically  !
 ! D39   D(21,8,9,13)          -45.4088         calculate D2E/DX2 analytically  !
 ! D40   D(8,9,10,11)          178.3004         calculate D2E/DX2 analytically  !
 ! D41   D(8,9,10,22)           -0.6592         calculate D2E/DX2 analytically  !
 ! D42   D(13,9,10,11)          -0.1328         calculate D2E/DX2 analytically  !
 ! D43   D(13,9,10,22)        -179.0924         calculate D2E/DX2 analytically  !
 ! D44   D(8,9,13,12)         -178.5556         calculate D2E/DX2 analytically  !
 ! D45   D(8,9,13,24)            1.9074         calculate D2E/DX2 analytically  !
 ! D46   D(10,9,13,12)           0.0611         calculate D2E/DX2 analytically  !
 ! D47   D(10,9,13,24)        -179.4759         calculate D2E/DX2 analytically  !
 ! D48   D(9,10,11,12)           0.1538         calculate D2E/DX2 analytically  !
 ! D49   D(22,10,11,12)        179.1736         calculate D2E/DX2 analytically  !
 ! D50   D(10,11,12,13)         -0.1125         calculate D2E/DX2 analytically  !
 ! D51   D(10,11,12,23)        179.7345         calculate D2E/DX2 analytically  !
 ! D52   D(11,12,13,9)           0.034          calculate D2E/DX2 analytically  !
 ! D53   D(11,12,13,24)        179.5676         calculate D2E/DX2 analytically  !
 ! D54   D(23,12,13,9)        -179.821          calculate D2E/DX2 analytically  !
 ! D55   D(23,12,13,24)         -0.2873         calculate D2E/DX2 analytically  !
 ! D56   D(2,14,15,16)        -178.9104         calculate D2E/DX2 analytically  !
 ! D57   D(2,14,15,27)         -57.2083         calculate D2E/DX2 analytically  !
 ! D58   D(2,14,15,28)          59.2471         calculate D2E/DX2 analytically  !
 ! D59   D(25,14,15,16)        -58.188          calculate D2E/DX2 analytically  !
 ! D60   D(25,14,15,27)         63.5141         calculate D2E/DX2 analytically  !
 ! D61   D(25,14,15,28)        179.9695         calculate D2E/DX2 analytically  !
 ! D62   D(26,14,15,16)         59.0607         calculate D2E/DX2 analytically  !
 ! D63   D(26,14,15,27)       -179.2371         calculate D2E/DX2 analytically  !
 ! D64   D(26,14,15,28)        -62.7818         calculate D2E/DX2 analytically  !
 ! D65   D(14,15,16,29)        179.8294         calculate D2E/DX2 analytically  !
 ! D66   D(14,15,16,30)        -60.1839         calculate D2E/DX2 analytically  !
 ! D67   D(14,15,16,31)         59.9494         calculate D2E/DX2 analytically  !
 ! D68   D(27,15,16,29)         58.7058         calculate D2E/DX2 analytically  !
 ! D69   D(27,15,16,30)        178.6925         calculate D2E/DX2 analytically  !
 ! D70   D(27,15,16,31)        -61.1741         calculate D2E/DX2 analytically  !
 ! D71   D(28,15,16,29)        -58.5946         calculate D2E/DX2 analytically  !
 ! D72   D(28,15,16,30)         61.3921         calculate D2E/DX2 analytically  !
 ! D73   D(28,15,16,31)       -178.4746         calculate D2E/DX2 analytically  !
 --------------------------------------------------------------------------------
 Trust Radius=3.00D-01 FncErr=1.00D-07 GrdErr=1.00D-06
 Number of steps in this run=    167 maximum allowed number of steps=    186.
 GradGradGradGradGradGradGradGradGradGradGradGradGradGradGradGradGradGrad

                          Input orientation:                          
 ---------------------------------------------------------------------
 Center     Atomic      Atomic             Coordinates (Angstroms)
 Number     Number       Type             X           Y           Z
 ---------------------------------------------------------------------
      1          8           0        1.162603    0.478671   -1.240831
      2          6           0        1.430616    0.396434   -0.049241
      3          7           0        0.448932    0.320965    0.888456
      4          6           0       -0.955423    0.327373    0.510414
      5          6           0       -1.723545    0.768751    1.735326
      6          8           0       -2.595029    1.768084    1.499553
      7          8           0       -1.575633    0.267005    2.822369
      8          6           0       -1.395584   -1.085407    0.072144
      9          6           0       -2.826998   -1.161603   -0.348369
     10          6           0       -3.946509   -1.633854    0.279987
     11          7           0       -5.070431   -1.453941   -0.508152
     12          6           0       -4.631038   -0.880572   -1.604833
     13          7           0       -3.281841   -0.681612   -1.558207
     14          6           0        2.851131    0.357259    0.494464
     15          6           0        3.889249    0.675187   -0.571600
     16          7           0        5.275090    0.608825   -0.036333
     17          1           0        0.666139    0.214146    1.867082
     18          1           0       -1.092150    1.030957   -0.310017
     19          1           0       -3.031278    1.944219    2.344257
     20          1           0       -1.242985   -1.767641    0.906216
     21          1           0       -0.738682   -1.392072   -0.739669
     22          1           0       -4.001481   -2.079351    1.264996
     23          1           0       -5.221486   -0.590477   -2.455421
     24          1           0       -2.713556   -0.265923   -2.279028
     25          1           0        3.040831   -0.641932    0.902672
     26          1           0        2.937152    1.062081    1.327175
     27          1           0        3.776071   -0.028894   -1.394566
     28          1           0        3.697671    1.668637   -0.975717
     29          1           0        5.969430    0.819825   -0.754425
     30          1           0        5.412113    1.275928    0.722911
     31          1           0        5.486815   -0.320917    0.325582
 ---------------------------------------------------------------------
                    Distance matrix (angstroms):
                    1          2          3          4          5
     1  O    0.000000
     2  C    1.224125   0.000000
     3  N    2.251236   1.359660   0.000000
     4  C    2.752414   2.451768   1.454363   0.000000
     5  C    4.155900   3.643080   2.374312   1.511700   0.000000
     6  O    4.826188   4.526147   3.425389   2.396321   1.346752
     7  O    4.904318   4.159378   2.800320   2.394461   1.206354
     8  C    3.273311   3.193430   2.458961   1.543298   2.512297
     9  C    4.404986   4.543592   3.802560   2.541131   3.047238
    10  C    5.733993   5.757076   4.848861   3.584145   3.582191
    11  N    6.566774   6.774813   5.963571   4.598244   4.601652
    12  C    5.962073   6.387038   5.785004   4.409483   4.725510
    13  N    4.604353   5.064228   4.572744   3.272531   3.921632
    14  C    2.424277   1.521517   2.434566   3.806705   4.757807
    15  C    2.814443   2.528921   3.754067   4.976201   6.069112
    16  N    4.287226   3.850358   4.922388   6.260786   7.221166
    17  H    3.158413   2.071219   1.008116   2.117270   2.456732
    18  H    2.501068   2.614377   2.077344   1.089418   2.156580
    19  H    5.708706   5.294617   4.106844   3.207233   1.860830
    20  H    3.929705   3.569910   2.687969   2.151380   2.711392
    21  H    2.713987   2.895047   2.644942   2.136860   3.429972
    22  H    6.284140   6.112643   5.070452   3.954767   3.677213
    23  H    6.585962   7.142419   6.645742   5.276165   5.625429
    24  H    4.081284   4.752350   4.514280   3.350226   4.262125
    25  H    3.062369   2.139424   2.765016   4.130795   5.038116
    26  H    3.175539   2.146453   2.633052   4.044631   4.687720
    27  H    2.666734   2.737145   4.050240   5.113014   6.377949
    28  H    2.812983   2.759782   3.980662   5.065458   6.127734
    29  H    4.843404   4.612741   5.781334   7.056622   8.085996
    30  H    4.748710   4.149946   5.056929   6.441307   7.224945
    31  H    4.668169   4.136163   5.109708   6.477413   7.427251
                    6          7          8          9         10
     6  O    0.000000
     7  O    2.245495   0.000000
     8  C    3.408604   3.070045   0.000000
     9  C    3.471554   3.695999   1.493848   0.000000
    10  C    3.858370   3.962073   2.617481   1.367902   0.000000
    11  N    4.532101   5.125196   3.738591   2.268035   1.384461
    12  C    4.560474   5.500231   3.649982   2.216357   2.142092
    13  N    3.977766   4.795880   2.525680   1.378761   2.174283
    14  C    5.715006   5.002353   4.504912   5.937883   7.086497
    15  C    6.894198   6.445974   5.607456   6.966463   8.213158
    16  N    8.101951   7.431112   6.883320   8.299133   9.495660
    17  H    3.631118   2.437398   3.026771   4.359233   5.216368
    18  H    2.465065   3.260248   2.171892   2.796156   3.949264
    19  H    0.966882   2.271682   4.125121   4.115591   4.231012
    20  H    3.831635   2.814620   1.088304   2.109588   2.778327
    21  H    4.294965   4.017603   1.088395   2.137123   3.374657
    22  H    4.103156   3.716926   3.033400   2.196501   1.082466
    23  H    5.301218   6.471676   4.612057   3.240282   3.193221
    24  H    4.292891   5.253869   2.817200   2.131328   3.152771
    25  H    6.158520   5.081648   4.535221   6.022174   7.084812
    26  H    5.579712   4.820060   4.995939   6.401378   7.466555
    27  H    7.224678   6.819885   5.478456   6.780713   8.063390
    28  H    6.762760   6.648140   5.884218   7.139687   8.421207
    29  H    8.906715   8.368216   7.652226   9.025967  10.267248
    30  H    8.059760   7.365749   7.234926   8.658646   9.810546
    31  H    8.429611   7.513839   6.929365   8.383344   9.524363
                   11         12         13         14         15
    11  N    0.000000
    12  C    1.313212   0.000000
    13  N    2.213179   1.364585   0.000000
    14  C    8.187603   7.869061   6.550272   0.000000
    15  C    9.209402   8.722571   7.364701   1.521597   0.000000
    16  N   10.559708  10.139520   8.786489   2.494115   1.487101
    17  H    6.429035   6.427494   5.302974   2.584329   4.067944
    18  H    4.694752   4.225425   3.047231   4.080505   5.000933
    19  H    4.882814   5.112141   4.710307   6.367332   7.616190
    20  H    4.092455   4.309426   3.377835   4.631040   5.872919
    21  H    4.338373   4.020021   2.764492   4.179713   5.071445
    22  H    2.162833   3.173221   3.231413   7.313623   8.557113
    23  H    2.135473   1.075307   2.139047   8.646802   9.389152
    24  H    3.178403   2.123457   1.007635   6.248709   6.884623
    25  H    8.272990   8.074782   6.784813   1.095903   2.151300
    26  H    8.591867   8.345542   7.074021   1.094341   2.159056
    27  H    9.004281   8.452753   7.089918   2.138472   1.088950
    28  H    9.319266   8.732791   7.387594   2.144242   1.089475
    29  H   11.274271  10.769608   9.406721   3.390793   2.093203
    30  H   10.901901  10.532510   9.198930   2.730342   2.087047
    31  H   10.650555  10.315555   8.975973   2.726770   2.085516
                   16         17         18         19         20
    16  N    0.000000
    17  H    5.002119   0.000000
    18  H    6.387084   2.915222   0.000000
    19  H    8.743354   4.109956   3.411662   0.000000
    20  H    7.001521   2.914704   3.055180   4.363927   0.000000
    21  H    6.376812   3.368770   2.486083   5.088952   1.761905
    22  H    9.745487   5.235391   4.540803   4.277291   2.799140
    23  H   10.838285   7.348168   4.927801   5.853085   5.339924
    24  H    8.343460   5.370571   2.861444   5.134242   3.816217
    25  H    2.727277   2.702243   4.620682   6.755505   4.429257
    26  H    2.744185   2.483544   4.349326   6.118396   5.065380
    27  H    2.120976   4.513213   5.098931   8.013237   5.788589
    28  H    2.119881   4.403094   4.877722   7.508457   6.305534
    29  H    1.020923   5.946768   7.078699   9.585345   7.840385
    30  H    1.019928   4.996077   6.590325   8.623586   7.320331
    31  H    1.019917   5.089346   6.746431   9.042334   6.907993
                   21         22         23         24         25
    21  H    0.000000
    22  H    3.890616   0.000000
    23  H    4.866404   4.188873   0.000000
    24  H    2.745535   4.184182   2.534988   0.000000
    25  H    4.188641   7.196639   8.918819   6.586165   0.000000
    26  H    4.879187   7.616895   9.143432   6.833652   1.759151
    27  H    4.761317   8.471597   9.077269   6.553908   2.488714
    28  H    5.394895   8.851280   9.319039   6.822388   3.049347
    29  H    7.063390  10.578391  11.406969   8.882427   3.668705
    30  H    6.862190  10.008372  11.254275   8.798605   3.055074
    31  H    6.406165   9.695482  11.066814   8.604250   2.533559
                   26         27         28         29         30
    26  H    0.000000
    27  H    3.049900   0.000000
    28  H    2.499923   1.750198   0.000000
    29  H    3.685981   2.437402   2.435230   0.000000
    30  H    2.556619   2.977063   2.445173   1.643519   0.000000
    31  H    3.068657   2.443529   2.975356   1.643357   1.647229
                   31
    31  H    0.000000
 Symmetry turned off by external request.
 Stoichiometry    C9H15N4O3(1+)
 Framework group  C1[X(C9H15N4O3)]
 Deg. of freedom    87
 Full point group                 C1      NOp   1
 Rotational constants (GHZ):      1.0449480      0.2251058      0.2000292
 Standard basis: 6-31+G(d,p) (6D, 7F)
   379 basis functions,   617 primitive gaussians,   379 cartesian basis functions
    60 alpha electrons       60 beta electrons
       nuclear repulsion energy      1111.5256414978 Hartrees.
 NAtoms=   31 NActive=   31 NUniq=   31 SFac= 1.00D+00 NAtFMM=   60 NAOKFM=F Big=F
 Integral buffers will be    131072 words long.
 Raffenetti 2 integral format.
 Two-electron integral symmetry is turned off.
 One-electron integrals computed using PRISM.
 NBasis=   379 RedAO= T EigKep=  4.17D-06  NBF=   379
 NBsUse=   379 1.00D-06 EigRej= -1.00D+00 NBFU=   379
 ExpMin= 4.38D-02 ExpMax= 5.48D+03 ExpMxC= 8.25D+02 IAcc=3 IRadAn=         5 AccDes= 0.00D+00
 Harris functional with IExCor=  402 and IRadAn=       5 diagonalized for initial guess.
 HarFok:  IExCor=  402 AccDes= 0.00D+00 IRadAn=         5 IDoV= 1 UseB2=F ITyADJ=14
 ICtDFT=  3500011 ScaDFX=  1.000000  1.000000  1.000000  1.000000
 FoFCou: FMM=F IPFlag=           0 FMFlag=      100000 FMFlg1=           0
         NFxFlg=           0 DoJE=T BraDBF=F KetDBF=T FulRan=T
         wScrn=  0.000000 ICntrl=     500 IOpCl=  0 I1Cent=   200000004 NGrid=           0
         NMat0=    1 NMatS0=      1 NMatT0=    0 NMatD0=    1 NMtDS0=    0 NMtDT0=    0
 Symmetry not used in FoFCou.
 Requested convergence on RMS density matrix=1.00D-08 within 128 cycles.
 Requested convergence on MAX density matrix=1.00D-06.
 Requested convergence on             energy=1.00D-06.
 No special actions if energy rises.
 EnCoef did     2 forward-backward iterations
 SCF Done:  E(RB3LYP) =  -796.502290292     A.U. after   17 cycles
            NFock= 17  Conv=0.51D-08     -V/T= 2.0090
 DoSCS=F DFT=T ScalE2(SS,OS)=  1.000000  1.000000
 Range of M.O.s used for correlation:     1   379
 NBasis=   379 NAE=    60 NBE=    60 NFC=     0 NFV=     0
 NROrb=    379 NOA=    60 NOB=    60 NVA=   319 NVB=   319

 **** Warning!!: The largest alpha MO coefficient is  0.16736586D+03


 **** Warning!!: The smallest alpha delta epsilon is  0.97407115D-01

 Symmetrizing basis deriv contribution to polar:
 IMax=3 JMax=2 DiffMx= 0.00D+00
 G2DrvN: will do    32 centers at a time, making    1 passes.
 Calling FoFCou, ICntrl=  3107 FMM=F I1Cent=   0 AccDes= 0.00D+00.
 End of G2Drv F.D. properties file   721 does not exist.
 End of G2Drv F.D. properties file   722 does not exist.
 End of G2Drv F.D. properties file   788 does not exist.
          IDoAtm=1111111111111111111111111111111
          Differentiating once with respect to nuclear coordinates.
          There are    96 degrees of freedom in the 1st order CPHF.  IDoFFX=6 NUNeed=     0.
     90 vectors produced by pass  0 Test12= 1.99D-14 1.04D-09 XBig12= 1.60D-01 1.01D-01.
 AX will form    90 AO Fock derivatives at one time.
     90 vectors produced by pass  1 Test12= 1.99D-14 1.04D-09 XBig12= 1.56D-02 2.97D-02.
     90 vectors produced by pass  2 Test12= 1.99D-14 1.04D-09 XBig12= 2.41D-04 1.67D-03.
     90 vectors produced by pass  3 Test12= 1.99D-14 1.04D-09 XBig12= 9.66D-07 1.04D-04.
     90 vectors produced by pass  4 Test12= 1.99D-14 1.04D-09 XBig12= 1.97D-09 3.51D-06.
     78 vectors produced by pass  5 Test12= 1.99D-14 1.04D-09 XBig12= 2.27D-12 1.37D-07.
     22 vectors produced by pass  6 Test12= 1.99D-14 1.04D-09 XBig12= 2.52D-15 3.85D-09.
      7 vectors produced by pass  7 Test12= 1.99D-14 1.04D-09 XBig12= 2.76D-16 2.60D-09.
      6 vectors produced by pass  8 Test12= 1.99D-14 1.04D-09 XBig12= 6.13D-16 3.07D-09.
      6 vectors produced by pass  9 Test12= 1.99D-14 1.04D-09 XBig12= 8.58D-16 2.71D-09.
      4 vectors produced by pass 10 Test12= 1.99D-14 1.04D-09 XBig12= 3.15D-16 1.76D-09.
      4 vectors produced by pass 11 Test12= 1.99D-14 1.04D-09 XBig12= 1.61D-15 4.13D-09.
      4 vectors produced by pass 12 Test12= 1.99D-14 1.04D-09 XBig12= 6.95D-16 2.90D-09.
      4 vectors produced by pass 13 Test12= 1.99D-14 1.04D-09 XBig12= 1.29D-15 3.95D-09.
      4 vectors produced by pass 14 Test12= 1.99D-14 1.04D-09 XBig12= 9.96D-16 3.31D-09.
      4 vectors produced by pass 15 Test12= 1.99D-14 1.04D-09 XBig12= 2.37D-15 5.33D-09.
      4 vectors produced by pass 16 Test12= 1.99D-14 1.04D-09 XBig12= 2.17D-15 4.42D-09.
      4 vectors produced by pass 17 Test12= 1.99D-14 1.04D-09 XBig12= 1.57D-15 3.91D-09.
      4 vectors produced by pass 18 Test12= 1.99D-14 1.04D-09 XBig12= 1.78D-15 3.98D-09.
      4 vectors produced by pass 19 Test12= 1.99D-14 1.04D-09 XBig12= 5.52D-16 2.04D-09.
      4 vectors produced by pass 20 Test12= 1.99D-14 1.04D-09 XBig12= 6.67D-16 2.17D-09.
      4 vectors produced by pass 21 Test12= 1.99D-14 1.04D-09 XBig12= 2.16D-15 4.41D-09.
      4 vectors produced by pass 22 Test12= 1.99D-14 1.04D-09 XBig12= 2.28D-15 3.97D-09.
      4 vectors produced by pass 23 Test12= 1.99D-14 1.04D-09 XBig12= 1.11D-15 3.08D-09.
      4 vectors produced by pass 24 Test12= 1.99D-14 1.04D-09 XBig12= 7.90D-16 2.52D-09.
      4 vectors produced by pass 25 Test12= 1.99D-14 1.04D-09 XBig12= 1.58D-15 3.84D-09.
      3 vectors produced by pass 26 Test12= 1.99D-14 1.04D-09 XBig12= 5.53D-16 2.10D-09.
      3 vectors produced by pass 27 Test12= 1.99D-14 1.04D-09 XBig12= 1.31D-15 3.90D-09.
      3 vectors produced by pass 28 Test12= 1.99D-14 1.04D-09 XBig12= 2.11D-16 1.25D-09.
      3 vectors produced by pass 29 Test12= 1.99D-14 1.04D-09 XBig12= 1.82D-15 3.65D-09.
      3 vectors produced by pass 30 Test12= 1.99D-14 1.04D-09 XBig12= 7.12D-16 2.43D-09.
      3 vectors produced by pass 31 Test12= 1.99D-14 1.04D-09 XBig12= 1.50D-15 3.77D-09.
      3 vectors produced by pass 32 Test12= 1.99D-14 1.04D-09 XBig12= 6.50D-16 1.91D-09.
      3 vectors produced by pass 33 Test12= 1.99D-14 1.04D-09 XBig12= 6.26D-16 2.13D-09.
      3 vectors produced by pass 34 Test12= 1.99D-14 1.04D-09 XBig12= 9.43D-16 2.48D-09.
      3 vectors produced by pass 35 Test12= 1.99D-14 1.04D-09 XBig12= 1.81D-15 3.32D-09.
      3 vectors produced by pass 36 Test12= 1.99D-14 1.04D-09 XBig12= 1.06D-15 2.43D-09.
      3 vectors produced by pass 37 Test12= 1.99D-14 1.04D-09 XBig12= 1.88D-15 3.85D-09.
      3 vectors produced by pass 38 Test12= 1.99D-14 1.04D-09 XBig12= 1.85D-15 3.04D-09.
      3 vectors produced by pass 39 Test12= 1.99D-14 1.04D-09 XBig12= 6.78D-16 2.20D-09.
      3 vectors produced by pass 40 Test12= 1.99D-14 1.04D-09 XBig12= 1.66D-15 2.75D-09.
      2 vectors produced by pass 41 Test12= 1.99D-14 1.04D-09 XBig12= 5.15D-16 1.72D-09.
 InvSVY:  IOpt=1 It=  1 EMax= 5.00D-16
 Solved reduced A of dimension   680 with    96 vectors.
 End of Minotr F.D. properties file   721 does not exist.
 End of Minotr F.D. properties file   722 does not exist.
 End of Minotr F.D. properties file   788 does not exist.

 **********************************************************************

            Population analysis using the SCF density.

 **********************************************************************

 Alpha  occ. eigenvalues --  -19.31086 -19.26742 -19.26040 -14.68040 -14.50248
 Alpha  occ. eigenvalues --  -14.46979 -14.38852 -10.44333 -10.44140 -10.43660
 Alpha  occ. eigenvalues --  -10.38532 -10.35851 -10.31329 -10.30457 -10.30038
 Alpha  occ. eigenvalues --  -10.27315  -1.22757  -1.22490  -1.18877  -1.13655
 Alpha  occ. eigenvalues --   -1.09305  -1.06710  -0.98067  -0.94760  -0.91245
 Alpha  occ. eigenvalues --   -0.86463  -0.83341  -0.80818  -0.80064  -0.77776
 Alpha  occ. eigenvalues --   -0.73756  -0.71603  -0.70926  -0.68975  -0.66889
 Alpha  occ. eigenvalues --   -0.65684  -0.65608  -0.62214  -0.61008  -0.60508
 Alpha  occ. eigenvalues --   -0.58848  -0.57911  -0.57694  -0.56000  -0.54817
 Alpha  occ. eigenvalues --   -0.53768  -0.52835  -0.51332  -0.50887  -0.49720
 Alpha  occ. eigenvalues --   -0.48683  -0.48072  -0.47330  -0.43359  -0.41069
 Alpha  occ. eigenvalues --   -0.40079  -0.39122  -0.35597  -0.34037  -0.30549
 Alpha virt. eigenvalues --   -0.20808  -0.14776  -0.14589  -0.13302  -0.12563
 Alpha virt. eigenvalues --   -0.11185  -0.10756  -0.09177  -0.08000  -0.07817
 Alpha virt. eigenvalues --   -0.07390  -0.06713  -0.05826  -0.05707  -0.05379
 Alpha virt. eigenvalues --   -0.04334  -0.03711  -0.03242  -0.02848  -0.02410
 Alpha virt. eigenvalues --   -0.01791  -0.01577  -0.01275  -0.00776  -0.00332
 Alpha virt. eigenvalues --    0.00264   0.00835   0.01381   0.01767   0.01991
 Alpha virt. eigenvalues --    0.02569   0.02705   0.03201   0.03861   0.04680
 Alpha virt. eigenvalues --    0.04782   0.05515   0.06409   0.07073   0.07362
 Alpha virt. eigenvalues --    0.08313   0.08591   0.08864   0.08987   0.10025
 Alpha virt. eigenvalues --    0.10067   0.10501   0.10761   0.11012   0.11785
 Alpha virt. eigenvalues --    0.12087   0.12545   0.12803   0.13123   0.13560
 Alpha virt. eigenvalues --    0.14233   0.14617   0.14733   0.15727   0.15999
 Alpha virt. eigenvalues --    0.16045   0.16789   0.17255   0.17540   0.17674
 Alpha virt. eigenvalues --    0.18720   0.19044   0.20117   0.20693   0.20761
 Alpha virt. eigenvalues --    0.20848   0.21377   0.21946   0.22204   0.22813
 Alpha virt. eigenvalues --    0.23673   0.24039   0.24584   0.25678   0.26133
 Alpha virt. eigenvalues --    0.26322   0.26803   0.27293   0.27822   0.28328
 Alpha virt. eigenvalues --    0.29453   0.29672   0.30391   0.30792   0.33058
 Alpha virt. eigenvalues --    0.34033   0.34882   0.35956   0.38129   0.39048
 Alpha virt. eigenvalues --    0.39717   0.42609   0.42894   0.44427   0.45199
 Alpha virt. eigenvalues --    0.46152   0.50244   0.51294   0.54679   0.56217
 Alpha virt. eigenvalues --    0.58109   0.58618   0.60523   0.60765   0.61863
 Alpha virt. eigenvalues --    0.63928   0.64307   0.66089   0.66628   0.68102
 Alpha virt. eigenvalues --    0.69776   0.70078   0.70724   0.71443   0.72602
 Alpha virt. eigenvalues --    0.73494   0.73820   0.75459   0.76665   0.78104
 Alpha virt. eigenvalues --    0.78691   0.79757   0.80737   0.83093   0.83436
 Alpha virt. eigenvalues --    0.84628   0.85052   0.86205   0.86504   0.88427
 Alpha virt. eigenvalues --    0.89240   0.89382   0.89674   0.90550   0.91700
 Alpha virt. eigenvalues --    0.92660   0.94991   0.96209   0.96955   0.98071
 Alpha virt. eigenvalues --    1.00586   1.01103   1.01740   1.03785   1.04358
 Alpha virt. eigenvalues --    1.06436   1.07046   1.09274   1.09920   1.12383
 Alpha virt. eigenvalues --    1.14014   1.16005   1.16640   1.17268   1.17603
 Alpha virt. eigenvalues --    1.19929   1.21196   1.22186   1.22757   1.23680
 Alpha virt. eigenvalues --    1.24357   1.25324   1.26444   1.27761   1.28946
 Alpha virt. eigenvalues --    1.29483   1.30460   1.31502   1.33005   1.35072
 Alpha virt. eigenvalues --    1.35781   1.37477   1.38078   1.39781   1.41211
 Alpha virt. eigenvalues --    1.41823   1.43149   1.43938   1.46601   1.48747
 Alpha virt. eigenvalues --    1.51429   1.53194   1.54316   1.56584   1.59165
 Alpha virt. eigenvalues --    1.60324   1.63144   1.64229   1.66051   1.68359
 Alpha virt. eigenvalues --    1.69350   1.70257   1.71102   1.72823   1.73151
 Alpha virt. eigenvalues --    1.74161   1.75298   1.77648   1.77837   1.78434
 Alpha virt. eigenvalues --    1.78810   1.81013   1.82599   1.84336   1.85722
 Alpha virt. eigenvalues --    1.87841   1.89673   1.89856   1.91159   1.94338
 Alpha virt. eigenvalues --    1.94551   1.96279   1.97595   2.00211   2.01424
 Alpha virt. eigenvalues --    2.02056   2.02531   2.03624   2.05282   2.06346
 Alpha virt. eigenvalues --    2.07202   2.08126   2.08830   2.10718   2.13957
 Alpha virt. eigenvalues --    2.15503   2.16651   2.17087   2.19891   2.20784
 Alpha virt. eigenvalues --    2.21894   2.23028   2.26324   2.26891   2.28036
 Alpha virt. eigenvalues --    2.31334   2.31993   2.35262   2.37263   2.38060
 Alpha virt. eigenvalues --    2.38589   2.40167   2.41970   2.43997   2.44173
 Alpha virt. eigenvalues --    2.46368   2.47568   2.49043   2.49580   2.50538
 Alpha virt. eigenvalues --    2.50899   2.52267   2.52539   2.55488   2.56569
 Alpha virt. eigenvalues --    2.57455   2.58211   2.60319   2.61098   2.64050
 Alpha virt. eigenvalues --    2.65994   2.66282   2.67183   2.68387   2.68963
 Alpha virt. eigenvalues --    2.71535   2.73815   2.74710   2.75174   2.76681
 Alpha virt. eigenvalues --    2.80737   2.81691   2.85082   2.88315   2.90698
 Alpha virt. eigenvalues --    2.93058   2.95454   2.96679   2.98240   3.02328
 Alpha virt. eigenvalues --    3.04635   3.10519   3.11713   3.13849   3.15296
 Alpha virt. eigenvalues --    3.17436   3.18894   3.24265   3.26641   3.27138
 Alpha virt. eigenvalues --    3.27946   3.34511   3.37756   3.41362   3.44983
 Alpha virt. eigenvalues --    3.49592   3.52129   3.65680   3.96672   4.13805
 Alpha virt. eigenvalues --    4.17357   4.24194   4.24845   4.25843   4.27104
 Alpha virt. eigenvalues --    4.28274   4.33938   4.45087   4.48236   4.52484
 Alpha virt. eigenvalues --    4.56262   4.56724   4.67124   4.79973
          Condensed to atoms (all electrons):
               1          2          3          4          5          6
     1  O    8.242463   0.285305  -0.143273   0.133937   0.055827   0.000957
     2  C    0.285305   7.689767  -0.193233  -0.255029   0.024734  -0.016866
     3  N   -0.143273  -0.193233   7.459330  -0.160085  -0.058569   0.025965
     4  C    0.133937  -0.255029  -0.160085   9.355233  -1.299824  -0.147485
     5  C    0.055827   0.024734  -0.058569  -1.299824   6.404800   0.142653
     6  O    0.000957  -0.016866   0.025965  -0.147485   0.142653   8.231102
     7  O    0.000819   0.016633   0.042601  -0.276140   0.577680  -0.156932
     8  C   -0.080267   0.253423  -0.110155   0.660450  -0.769994  -0.096403
     9  C   -0.010708  -0.805272   0.254393  -1.325832   0.649847   0.049411
    10  C   -0.000704  -0.001532   0.060293  -0.255698  -0.127060   0.053536
    11  N   -0.000049  -0.001424   0.001028  -0.026120   0.010363   0.001571
    12  C    0.000319  -0.036991   0.011483  -0.152659   0.006230   0.027946
    13  N    0.000290  -0.019145   0.013414  -0.147631   0.063929   0.028265
    14  C   -0.023194  -1.246106  -0.193756  -0.000617  -0.030668  -0.000078
    15  C    0.003565  -0.080811  -0.004568  -0.037503   0.004225  -0.000278
    16  N    0.000339   0.074276  -0.002502  -0.002082  -0.000030   0.000002
    17  H    0.006460  -0.042834   0.289845   0.031011  -0.008500   0.001174
    18  H   -0.003676  -0.016859  -0.038704   0.383493  -0.016679   0.001267
    19  H   -0.000009  -0.000205  -0.002970   0.016171   0.033288   0.208474
    20  H   -0.001033   0.020412   0.019911  -0.121101   0.013839   0.001504
    21  H   -0.002874   0.029518  -0.025072  -0.011310   0.033606  -0.000822
    22  H   -0.000005   0.001486   0.000175   0.002378   0.013688   0.000071
    23  H    0.000001  -0.000046  -0.000016   0.003316  -0.001534   0.000024
    24  H   -0.000044  -0.004020  -0.000935   0.004286   0.003748  -0.000021
    25  H    0.005600  -0.129062   0.011341  -0.005841  -0.000896   0.000003
    26  H    0.002087  -0.022228  -0.011607  -0.006458  -0.001946  -0.000019
    27  H   -0.003477   0.052452  -0.000641  -0.001554  -0.000022   0.000000
    28  H   -0.001132   0.009064   0.002101   0.000510   0.000061   0.000001
    29  H    0.000287  -0.013168   0.000201   0.000068  -0.000008   0.000000
    30  H   -0.000144   0.014427  -0.000391  -0.000003   0.000018   0.000000
    31  H    0.000096   0.006183   0.000077   0.000059   0.000015   0.000000
               7          8          9         10         11         12
     1  O    0.000819  -0.080267  -0.010708  -0.000704  -0.000049   0.000319
     2  C    0.016633   0.253423  -0.805272  -0.001532  -0.001424  -0.036991
     3  N    0.042601  -0.110155   0.254393   0.060293   0.001028   0.011483
     4  C   -0.276140   0.660450  -1.325832  -0.255698  -0.026120  -0.152659
     5  C    0.577680  -0.769994   0.649847  -0.127060   0.010363   0.006230
     6  O   -0.156932  -0.096403   0.049411   0.053536   0.001571   0.027946
     7  O    8.150597   0.021587   0.030668  -0.020170   0.000098   0.002933
     8  C    0.021587  10.910557  -4.264639  -0.305165  -0.068624  -0.251105
     9  C    0.030668  -4.264639  12.015460  -1.240050  -0.038722   0.256205
    10  C   -0.020170  -0.305165  -1.240050   7.845676   0.406830  -0.507191
    11  N    0.000098  -0.068624  -0.038722   0.406830   6.736866   0.371540
    12  C    0.002933  -0.251105   0.256205  -0.507191   0.371540   5.384979
    13  N    0.001533  -0.038099   0.153009  -0.112438  -0.030848   0.181433
    14  C   -0.011943  -0.086318   0.006382  -0.011396   0.000049   0.000788
    15  C   -0.000439  -0.012755  -0.012373   0.000828  -0.000007  -0.000309
    16  N    0.000012   0.000661   0.000388   0.000019   0.000000   0.000005
    17  H    0.008658  -0.020806  -0.007450  -0.001066  -0.000002   0.000050
    18  H    0.006667  -0.017041  -0.033287   0.006739  -0.000050   0.002282
    19  H    0.004949  -0.004722  -0.000716  -0.002333   0.000157  -0.000716
    20  H    0.003287   0.578884  -0.214509   0.010214  -0.000948  -0.004853
    21  H   -0.000503   0.316388   0.007060  -0.012877  -0.000400  -0.002285
    22  H   -0.000785   0.074808  -0.124803   0.357058  -0.055072   0.025600
    23  H    0.000000   0.016872   0.035523  -0.036255  -0.056608   0.445044
    24  H    0.000006  -0.060781   0.107095  -0.013219   0.008996  -0.023347
    25  H    0.000014   0.011420   0.002365  -0.000184   0.000000   0.000013
    26  H   -0.000043  -0.002813  -0.000823   0.000044   0.000000  -0.000003
    27  H    0.000000  -0.000199  -0.000408   0.000006   0.000000  -0.000002
    28  H    0.000001   0.000583  -0.000027  -0.000008   0.000000   0.000000
    29  H    0.000000   0.000035   0.000006   0.000000   0.000000   0.000000
    30  H    0.000000  -0.000068  -0.000002   0.000000   0.000000   0.000000
    31  H    0.000000   0.000080  -0.000006   0.000000   0.000000   0.000000
              13         14         15         16         17         18
     1  O    0.000290  -0.023194   0.003565   0.000339   0.006460  -0.003676
     2  C   -0.019145  -1.246106  -0.080811   0.074276  -0.042834  -0.016859
     3  N    0.013414  -0.193756  -0.004568  -0.002502   0.289845  -0.038704
     4  C   -0.147631  -0.000617  -0.037503  -0.002082   0.031011   0.383493
     5  C    0.063929  -0.030668   0.004225  -0.000030  -0.008500  -0.016679
     6  O    0.028265  -0.000078  -0.000278   0.000002   0.001174   0.001267
     7  O    0.001533  -0.011943  -0.000439   0.000012   0.008658   0.006667
     8  C   -0.038099  -0.086318  -0.012755   0.000661  -0.020806  -0.017041
     9  C    0.153009   0.006382  -0.012373   0.000388  -0.007450  -0.033287
    10  C   -0.112438  -0.011396   0.000828   0.000019  -0.001066   0.006739
    11  N   -0.030848   0.000049  -0.000007   0.000000  -0.000002  -0.000050
    12  C    0.181433   0.000788  -0.000309   0.000005   0.000050   0.002282
    13  N    7.047493   0.000469  -0.000021   0.000004   0.000266   0.012088
    14  C    0.000469   7.009842   0.313859  -0.138492   0.039810   0.001009
    15  C   -0.000021   0.313859   5.285917   0.093862   0.001666   0.000594
    16  N    0.000004  -0.138492   0.093862   6.678809   0.000036   0.000015
    17  H    0.000266   0.039810   0.001666   0.000036   0.368669   0.003484
    18  H    0.012088   0.001009   0.000594   0.000015   0.003484   0.520557
    19  H   -0.000532  -0.000161   0.000009   0.000000  -0.000031  -0.000094
    20  H    0.011466   0.000379   0.000130  -0.000001   0.000618   0.004566
    21  H   -0.007769  -0.003614   0.000823  -0.000021  -0.000231  -0.005313
    22  H    0.008111  -0.000024   0.000004   0.000000   0.000000  -0.000005
    23  H   -0.099326   0.000000   0.000000   0.000000   0.000000   0.000002
    24  H    0.261268  -0.000479  -0.000026   0.000000   0.000000  -0.000403
    25  H    0.000007   0.479659  -0.051379   0.000324  -0.000105  -0.000020
    26  H    0.000004   0.405196  -0.040511   0.003561   0.000315   0.000012
    27  H    0.000001  -0.090377   0.407536  -0.027313  -0.000003   0.000002
    28  H    0.000000  -0.041682   0.397494  -0.033026  -0.000005  -0.000005
    29  H    0.000000   0.033264  -0.032757   0.310994   0.000000   0.000000
    30  H    0.000000  -0.024053  -0.012886   0.324171   0.000000   0.000000
    31  H    0.000000  -0.008368  -0.018816   0.320443  -0.000001   0.000000
              19         20         21         22         23         24
     1  O   -0.000009  -0.001033  -0.002874  -0.000005   0.000001  -0.000044
     2  C   -0.000205   0.020412   0.029518   0.001486  -0.000046  -0.004020
     3  N   -0.002970   0.019911  -0.025072   0.000175  -0.000016  -0.000935
     4  C    0.016171  -0.121101  -0.011310   0.002378   0.003316   0.004286
     5  C    0.033288   0.013839   0.033606   0.013688  -0.001534   0.003748
     6  O    0.208474   0.001504  -0.000822   0.000071   0.000024  -0.000021
     7  O    0.004949   0.003287  -0.000503  -0.000785   0.000000   0.000006
     8  C   -0.004722   0.578884   0.316388   0.074808   0.016872  -0.060781
     9  C   -0.000716  -0.214509   0.007060  -0.124803   0.035523   0.107095
    10  C   -0.002333   0.010214  -0.012877   0.357058  -0.036255  -0.013219
    11  N    0.000157  -0.000948  -0.000400  -0.055072  -0.056608   0.008996
    12  C   -0.000716  -0.004853  -0.002285   0.025600   0.445044  -0.023347
    13  N   -0.000532   0.011466  -0.007769   0.008111  -0.099326   0.261268
    14  C   -0.000161   0.000379  -0.003614  -0.000024   0.000000  -0.000479
    15  C    0.000009   0.000130   0.000823   0.000004   0.000000  -0.000026
    16  N    0.000000  -0.000001  -0.000021   0.000000   0.000000   0.000000
    17  H   -0.000031   0.000618  -0.000231   0.000000   0.000000   0.000000
    18  H   -0.000094   0.004566  -0.005313  -0.000005   0.000002  -0.000403
    19  H    0.371738  -0.000014   0.000009  -0.000005   0.000000   0.000000
    20  H   -0.000014   0.522628  -0.027387   0.001706   0.000004  -0.000067
    21  H    0.000009  -0.027387   0.539220  -0.000048  -0.000006   0.001247
    22  H   -0.000005   0.001706  -0.000048   0.559673  -0.000041  -0.000092
    23  H    0.000000   0.000004  -0.000006  -0.000041   0.546717   0.000220
    24  H    0.000000  -0.000067   0.001247  -0.000092   0.000220   0.417055
    25  H    0.000000  -0.000021  -0.000001   0.000000   0.000000   0.000000
    26  H    0.000000   0.000002   0.000000   0.000000   0.000000   0.000000
    27  H    0.000000   0.000000  -0.000001   0.000000   0.000000   0.000000
    28  H    0.000000   0.000000   0.000000   0.000000   0.000000   0.000000
    29  H    0.000000   0.000000   0.000000   0.000000   0.000000   0.000000
    30  H    0.000000   0.000000   0.000000   0.000000   0.000000   0.000000
    31  H    0.000000   0.000000   0.000000   0.000000   0.000000   0.000000
              25         26         27         28         29         30
     1  O    0.005600   0.002087  -0.003477  -0.001132   0.000287  -0.000144
     2  C   -0.129062  -0.022228   0.052452   0.009064  -0.013168   0.014427
     3  N    0.011341  -0.011607  -0.000641   0.002101   0.000201  -0.000391
     4  C   -0.005841  -0.006458  -0.001554   0.000510   0.000068  -0.000003
     5  C   -0.000896  -0.001946  -0.000022   0.000061  -0.000008   0.000018
     6  O    0.000003  -0.000019   0.000000   0.000001   0.000000   0.000000
     7  O    0.000014  -0.000043   0.000000   0.000001   0.000000   0.000000
     8  C    0.011420  -0.002813  -0.000199   0.000583   0.000035  -0.000068
     9  C    0.002365  -0.000823  -0.000408  -0.000027   0.000006  -0.000002
    10  C   -0.000184   0.000044   0.000006  -0.000008   0.000000   0.000000
    11  N    0.000000   0.000000   0.000000   0.000000   0.000000   0.000000
    12  C    0.000013  -0.000003  -0.000002   0.000000   0.000000   0.000000
    13  N    0.000007   0.000004   0.000001   0.000000   0.000000   0.000000
    14  C    0.479659   0.405196  -0.090377  -0.041682   0.033264  -0.024053
    15  C   -0.051379  -0.040511   0.407536   0.397494  -0.032757  -0.012886
    16  N    0.000324   0.003561  -0.027313  -0.033026   0.310994   0.324171
    17  H   -0.000105   0.000315  -0.000003  -0.000005   0.000000   0.000000
    18  H   -0.000020   0.000012   0.000002  -0.000005   0.000000   0.000000
    19  H    0.000000   0.000000   0.000000   0.000000   0.000000   0.000000
    20  H   -0.000021   0.000002   0.000000   0.000000   0.000000   0.000000
    21  H   -0.000001   0.000000  -0.000001   0.000000   0.000000   0.000000
    22  H    0.000000   0.000000   0.000000   0.000000   0.000000   0.000000
    23  H    0.000000   0.000000   0.000000   0.000000   0.000000   0.000000
    24  H    0.000000   0.000000   0.000000   0.000000   0.000000   0.000000
    25  H    0.515283  -0.032742  -0.005324   0.003995  -0.000053  -0.000899
    26  H   -0.032742   0.524326   0.004067  -0.005226  -0.000064   0.003834
    27  H   -0.005324   0.004067   0.450681  -0.020306  -0.002523   0.003703
    28  H    0.003995  -0.005226  -0.020306   0.461049  -0.002457  -0.004517
    29  H   -0.000053  -0.000064  -0.002523  -0.002457   0.323702  -0.014968
    30  H   -0.000899   0.003834   0.003703  -0.004517  -0.014968   0.328734
    31  H    0.004195  -0.000893  -0.004581   0.003854  -0.014386  -0.021623
              31
     1  O    0.000096
     2  C    0.006183
     3  N    0.000077
     4  C    0.000059
     5  C    0.000015
     6  O    0.000000
     7  O    0.000000
     8  C    0.000080
     9  C   -0.000006
    10  C    0.000000
    11  N    0.000000
    12  C    0.000000
    13  N    0.000000
    14  C   -0.008368
    15  C   -0.018816
    16  N    0.320443
    17  H   -0.000001
    18  H    0.000000
    19  H    0.000000
    20  H    0.000000
    21  H    0.000000
    22  H    0.000000
    23  H    0.000000
    24  H    0.000000
    25  H    0.004195
    26  H   -0.000893
    27  H   -0.004581
    28  H    0.003854
    29  H   -0.014386
    30  H   -0.021623
    31  H    0.329284
 Mulliken charges:
               1
     1  O   -0.467764
     2  C    0.407151
     3  N   -0.245682
     4  C   -0.357939
     5  C    0.277181
     6  O   -0.355020
     7  O   -0.401787
     8  C   -0.655796
     9  C    0.511817
    10  C   -0.093894
    11  N   -0.258622
    12  C    0.262609
    13  N   -0.327244
    14  C   -0.379380
    15  C   -0.205075
    16  N   -0.604455
    17  H    0.328971
    18  H    0.189358
    19  H    0.377710
    20  H    0.180381
    21  H    0.172663
    22  H    0.136123
    23  H    0.146109
    24  H    0.299512
    25  H    0.192307
    26  H    0.181928
    27  H    0.238283
    28  H    0.229677
    29  H    0.411826
    30  H    0.404666
    31  H    0.404387
 Sum of Mulliken charges =   1.00000
 Mulliken charges with hydrogens summed into heavy atoms:
               1
     1  O   -0.467764
     2  C    0.407151
     3  N    0.083290
     4  C   -0.168582
     5  C    0.277181
     6  O    0.022690
     7  O   -0.401787
     8  C   -0.302752
     9  C    0.511817
    10  C    0.042229
    11  N   -0.258622
    12  C    0.408718
    13  N   -0.027732
    14  C   -0.005146
    15  C    0.262885
    16  N    0.616424
 APT charges:
               1
     1  O   -0.539333
     2  C    0.400806
     3  N   -0.548414
     4  C   -0.176085
     5  C   -0.443662
     6  O   -0.698342
     7  O   -0.038716
     8  C   -1.193169
     9  C   -0.251768
    10  C   -0.065084
    11  N   -0.115467
    12  C   -0.366306
    13  N   -0.459819
    14  C   -0.938523
    15  C   -0.098951
    16  N   -2.090111
    17  H    0.641881
    18  H    0.363216
    19  H    1.076944
    20  H    0.435092
    21  H    0.264675
    22  H    0.567511
    23  H    1.019781
    24  H    0.246655
    25  H    0.386187
    26  H    0.444832
    27  H    0.254715
    28  H    0.341104
    29  H    1.230986
    30  H    0.725278
    31  H    0.624088
 Sum of APT charges =   1.00000
 APT charges with hydrogens summed into heavy atoms:
               1
     1  O   -0.539333
     2  C    0.400806
     3  N    0.093467
     4  C    0.187131
     5  C   -0.443662
     6  O    0.378602
     7  O   -0.038716
     8  C   -0.493402
     9  C   -0.251768
    10  C    0.502427
    11  N   -0.115467
    12  C    0.653475
    13  N   -0.213165
    14  C   -0.107505
    15  C    0.496867
    16  N    0.490242
 Electronic spatial extent (au):  <R**2>=           5474.6933
 Charge=              1.0000 electrons
 Dipole moment (field-independent basis, Debye):
    X=             23.8671    Y=              4.2993    Z=              0.3829  Tot=             24.2542
 Quadrupole moment (field-independent basis, Debye-Ang):
   XX=             17.6411   YY=            -89.6024   ZZ=            -86.3776
   XY=              2.7572   XZ=              6.4479   YZ=              3.5731
 Traceless Quadrupole moment (field-independent basis, Debye-Ang):
   XX=             70.4208   YY=            -36.8228   ZZ=            -33.5980
   XY=              2.7572   XZ=              6.4479   YZ=              3.5731
 Octapole moment (field-independent basis, Debye-Ang**2):
  XXX=            994.0920  YYY=             33.0645  ZZZ=            -67.8109  XYY=            103.9687
  XXY=            141.7451  XXZ=            -25.7828  XZZ=             44.0630  YZZ=             17.5138
  YYZ=              4.0227  XYZ=             -6.1988
 Hexadecapole moment (field-independent basis, Debye-Ang**3):
 XXXX=          -2595.6309 YYYY=           -627.5088 ZZZZ=           -925.5129 XXXY=           -393.4579
 XXXZ=            -32.7894 YYYX=           -491.4822 YYYZ=           -120.3795 ZZZX=             49.6873
 ZZZY=            -84.1160 XXYY=           -981.6696 XXZZ=           -814.0973 YYZZ=           -220.7482
 XXYZ=            -28.0764 YYXZ=            -67.0623 ZZXY=           -176.8834
 N-N= 1.111525641498D+03 E-N=-4.064515679032D+03  KE= 7.893918677866D+02
  Exact polarizability:   0.000   0.000   0.000   0.000   0.000   0.000
 Approx polarizability: 217.290   2.677 158.546   0.626 -22.112 218.175
 Calling FoFJK, ICntrl=    100147 FMM=F ISym2X=0 I1Cent= 0 IOpClX= 0 NMat=1 NMatS=1 NMatT=0.
 -------------------------------------------------------------------
 Center     Atomic                   Forces (Hartrees/Bohr)
 Number     Number              X              Y              Z
 -------------------------------------------------------------------
      1        8           0.011927511    0.001906882   -0.011304291
      2        6          -0.020703910   -0.001293697    0.006290338
      3        7           0.015243300    0.004079115   -0.002743018
      4        6           0.000490482   -0.000976311   -0.002774555
      5        6          -0.011929459    0.010320046   -0.005841965
      6        8           0.008273982   -0.005447982   -0.005871375
      7        8           0.006276995   -0.005532236    0.012015837
      8        6          -0.009089435   -0.001948637   -0.001444452
      9        6           0.006613627    0.000279983   -0.000115833
     10        6          -0.009662648   -0.001549392    0.003439925
     11        7           0.002563493   -0.002086380    0.004782536
     12        6           0.000262600   -0.000875051    0.002031157
     13        7           0.002912105    0.003493266   -0.005068967
     14        6           0.011735802   -0.002149037    0.010146062
     15        6          -0.029365394    0.001660808   -0.011912241
     16        7           0.005305580    0.000200664    0.000468688
     17        1          -0.000173547   -0.001705559    0.005017555
     18        1          -0.000111697    0.001928552    0.000168283
     19        1          -0.006734800    0.003190049    0.005033489
     20        1           0.001176926   -0.002250686    0.003032615
     21        1           0.003378895   -0.001452256   -0.003058047
     22        1          -0.001422666   -0.000737526   -0.001067825
     23        1          -0.003170059    0.000671333   -0.002927621
     24        1           0.000279827    0.000576967   -0.002685912
     25        1          -0.001425482   -0.002271266    0.001531276
     26        1          -0.000666352    0.001361613    0.002412294
     27        1           0.005698567   -0.001441401   -0.002298602
     28        1           0.006036965    0.002779980   -0.000872729
     29        1           0.003016958    0.001116135   -0.003999774
     30        1           0.001432935    0.003128635    0.004782064
     31        1           0.001828899   -0.004976612    0.002835089
 -------------------------------------------------------------------
 Cartesian Forces:  Max     0.029365394 RMS     0.006244133
 FormGI is forming the generalized inverse of G from B-inverse, IUseBI=4.

 GradGradGradGradGradGradGradGradGradGradGradGradGradGradGradGradGradGrad
 Berny optimization.
 Internal  Forces:  Max     0.016839452 RMS     0.003843169
 Search for a local minimum.
 Step number   1 out of a maximum of  167
 All quantities printed in internal units (Hartrees-Bohrs-Radians)
 Mixed Optimization -- RFO/linear search
 Second derivative matrix not updated -- analytic derivatives used.
 ITU=  0
     Eigenvalues ---   -0.00060   0.00098   0.00169   0.00209   0.00251
     Eigenvalues ---    0.00359   0.00476   0.00511   0.00518   0.00938
     Eigenvalues ---    0.01966   0.02075   0.02207   0.02581   0.03396
     Eigenvalues ---    0.03855   0.03941   0.04062   0.04156   0.04329
     Eigenvalues ---    0.04369   0.04589   0.04764   0.04970   0.05054
     Eigenvalues ---    0.05135   0.05357   0.05695   0.06078   0.07511
     Eigenvalues ---    0.07939   0.08358   0.10300   0.10616   0.10980
     Eigenvalues ---    0.11085   0.11766   0.12052   0.13130   0.13298
     Eigenvalues ---    0.13782   0.14932   0.15714   0.15885   0.15934
     Eigenvalues ---    0.16243   0.16547   0.18860   0.19680   0.20078
     Eigenvalues ---    0.21350   0.22996   0.23164   0.24278   0.24731
     Eigenvalues ---    0.25121   0.27116   0.29913   0.31647   0.32603
     Eigenvalues ---    0.33299   0.33628   0.34038   0.34135   0.34797
     Eigenvalues ---    0.34891   0.35038   0.35118   0.35543   0.35778
     Eigenvalues ---    0.37249   0.37388   0.38616   0.41427   0.42198
     Eigenvalues ---    0.44142   0.44340   0.44726   0.44861   0.47087
     Eigenvalues ---    0.47795   0.47983   0.48465   0.53282   0.58617
     Eigenvalues ---    0.83494   0.91285
 RFO step:  Lambda=-1.03732591D-02 EMin=-5.97858964D-04
 Linear search not attempted -- first point.
 Iteration  1 RMS(Cart)=  0.14893826 RMS(Int)=  0.02120319
 Iteration  2 RMS(Cart)=  0.04498260 RMS(Int)=  0.00107140
 Iteration  3 RMS(Cart)=  0.00177946 RMS(Int)=  0.00036748
 Iteration  4 RMS(Cart)=  0.00000343 RMS(Int)=  0.00036748
 Iteration  5 RMS(Cart)=  0.00000000 RMS(Int)=  0.00036748
 Variable       Old X    -DE/DX   Delta X   Delta X   Delta X     New X
                                 (Linear)    (Quad)   (Total)
    R1        2.31326   0.00852   0.00000   0.01170   0.01170   2.32496
    R2        2.56938  -0.00241   0.00000  -0.02455  -0.02455   2.54484
    R3        2.87525   0.00448   0.00000   0.03296   0.03296   2.90821
    R4        2.74835   0.00963   0.00000   0.02065   0.02065   2.76900
    R5        1.90506   0.00501   0.00000   0.01163   0.01163   1.91669
    R6        2.85670   0.00715   0.00000   0.02345   0.02345   2.88015
    R7        2.91641   0.00801   0.00000   0.02801   0.02801   2.94442
    R8        2.05870   0.00113   0.00000   0.00309   0.00309   2.06179
    R9        2.54499  -0.00252   0.00000  -0.01880  -0.01880   2.52620
   R10        2.27968   0.01390   0.00000   0.01531   0.01531   2.29499
   R11        1.82714   0.00802   0.00000   0.01413   0.01413   1.84127
   R12        2.82296   0.00202   0.00000  -0.00029  -0.00029   2.82267
   R13        2.05660   0.00390   0.00000   0.01116   0.01116   2.06775
   R14        2.05677   0.00473   0.00000   0.01447   0.01447   2.07124
   R15        2.58496   0.00917   0.00000   0.01802   0.01802   2.60298
   R16        2.60548   0.00692   0.00000   0.01475   0.01476   2.62024
   R17        2.61625  -0.00479   0.00000  -0.01625  -0.01626   2.59999
   R18        2.04556  -0.00060   0.00000  -0.00120  -0.00120   2.04437
   R19        2.48161   0.00287   0.00000   0.00366   0.00366   2.48527
   R20        2.57869   0.00443   0.00000   0.00834   0.00835   2.58704
   R21        2.03204   0.00424   0.00000   0.01049   0.01049   2.04253
   R22        1.90415   0.00232   0.00000   0.00439   0.00439   1.90854
   R23        2.87540   0.00410   0.00000   0.00495   0.00495   2.88035
   R24        2.07096   0.00239   0.00000   0.00660   0.00660   2.07756
   R25        2.06800   0.00266   0.00000   0.00255   0.00255   2.07056
   R26        2.81021   0.01229   0.00000   0.06142   0.06142   2.87163
   R27        2.05782   0.00208   0.00000   0.00346   0.00346   2.06128
   R28        2.05881   0.00180   0.00000   0.00297   0.00297   2.06178
   R29        1.92927   0.00510   0.00000   0.00972   0.00972   1.93898
   R30        1.92739   0.00580   0.00000   0.01101   0.01101   1.93839
   R31        1.92736   0.00592   0.00000   0.01163   0.01163   1.93899
    A1        2.11411   0.01684   0.00000   0.05717   0.05716   2.17127
    A2        2.15794  -0.01587   0.00000  -0.07128  -0.07128   2.08666
    A3        2.01109  -0.00096   0.00000   0.01404   0.01403   2.02512
    A4        2.11492   0.00419   0.00000   0.02294   0.02275   2.13767
    A5        2.11741  -0.00083   0.00000   0.00091   0.00070   2.11812
    A6        2.04975  -0.00337   0.00000  -0.02548  -0.02566   2.02409
    A7        1.85595  -0.00039   0.00000  -0.00231  -0.00232   1.85364
    A8        1.92323   0.00269   0.00000   0.01197   0.01195   1.93518
    A9        1.89630  -0.00065   0.00000   0.00164   0.00159   1.89789
   A10        1.93101  -0.00099   0.00000  -0.00113  -0.00114   1.92987
   A11        1.93680  -0.00053   0.00000  -0.01133  -0.01134   1.92546
   A12        1.91937  -0.00009   0.00000   0.00131   0.00126   1.92063
   A13        1.98625  -0.00425   0.00000  -0.01674  -0.01674   1.96951
   A14        2.14887  -0.00150   0.00000  -0.01106  -0.01106   2.13780
   A15        2.14804   0.00576   0.00000   0.02782   0.02782   2.17586
   A16        1.84855   0.00693   0.00000   0.04468   0.04468   1.89323
   A17        1.98223   0.00170   0.00000   0.01148   0.01147   1.99370
   A18        1.89255  -0.00095   0.00000  -0.00686  -0.00690   1.88565
   A19        1.87298  -0.00060   0.00000  -0.00801  -0.00809   1.86490
   A20        1.89454  -0.00008   0.00000   0.00093   0.00096   1.89550
   A21        1.93263  -0.00016   0.00000   0.00789   0.00790   1.94054
   A22        1.88639   0.00000   0.00000  -0.00661  -0.00668   1.87972
   A23        2.30839  -0.00128   0.00000  -0.01039  -0.01041   2.29798
   A24        2.14761   0.00196   0.00000   0.01323   0.01321   2.16082
   A25        1.82686  -0.00067   0.00000  -0.00276  -0.00273   1.82413
   A26        1.93696   0.00016   0.00000   0.00192   0.00187   1.93883
   A27        2.21636   0.00157   0.00000   0.00809   0.00803   2.22439
   A28        2.12972  -0.00172   0.00000  -0.00970  -0.00976   2.11996
   A29        1.83436   0.00206   0.00000   0.00497   0.00497   1.83933
   A30        1.94545   0.00146   0.00000   0.00303   0.00304   1.94849
   A31        2.20763  -0.00179   0.00000  -0.00865  -0.00866   2.19897
   A32        2.13010   0.00034   0.00000   0.00561   0.00560   2.13571
   A33        1.88115  -0.00300   0.00000  -0.00715  -0.00715   1.87400
   A34        2.19602   0.00281   0.00000   0.01459   0.01453   2.21055
   A35        2.20598   0.00020   0.00000  -0.00756  -0.00761   2.19837
   A36        1.96192  -0.01473   0.00000  -0.08863  -0.08888   1.87303
   A37        1.89462   0.00304   0.00000  -0.01312  -0.01405   1.88057
   A38        1.90574   0.00439   0.00000   0.04507   0.04583   1.95157
   A39        1.91068   0.00541   0.00000   0.01927   0.01716   1.92784
   A40        1.92295   0.00475   0.00000   0.02926   0.02985   1.95280
   A41        1.86521  -0.00227   0.00000   0.01258   0.01199   1.87720
   A42        1.95443  -0.00281   0.00000  -0.00991  -0.00947   1.94496
   A43        1.90021   0.00420   0.00000   0.02788   0.02709   1.92730
   A44        1.90756   0.00444   0.00000   0.05000   0.04931   1.95687
   A45        1.91774  -0.00279   0.00000  -0.03646  -0.03647   1.88127
   A46        1.91567  -0.00300   0.00000  -0.05022  -0.05009   1.86558
   A47        1.86604   0.00020   0.00000   0.02117   0.01858   1.88463
   A48        1.95132  -0.00113   0.00000  -0.01029  -0.01028   1.94103
   A49        1.94330   0.00107   0.00000   0.00845   0.00846   1.95176
   A50        1.94106   0.00106   0.00000   0.00153   0.00152   1.94258
   A51        1.87240   0.00005   0.00000   0.00332   0.00334   1.87574
   A52        1.87215   0.00005   0.00000   0.00262   0.00262   1.87476
   A53        1.87989  -0.00117   0.00000  -0.00566  -0.00567   1.87422
    D1        0.00624   0.00089   0.00000   0.04862   0.04859   0.05483
    D2        3.09611   0.00041   0.00000   0.00969   0.00937   3.10548
    D3       -3.12567   0.00064   0.00000   0.05640   0.05671  -3.06896
    D4       -0.03580   0.00017   0.00000   0.01746   0.01750  -0.01830
    D5        0.17535  -0.00019   0.00000   0.24168   0.24257   0.41792
    D6       -1.94087   0.00038   0.00000   0.28341   0.28255  -1.65832
    D7        2.31489  -0.00098   0.00000   0.25111   0.25071   2.56560
    D8       -2.97620   0.00027   0.00000   0.23449   0.23563  -2.74057
    D9        1.19077   0.00085   0.00000   0.27622   0.27561   1.46638
   D10       -0.83666  -0.00052   0.00000   0.24393   0.24377  -0.59288
   D11       -2.76619   0.00084   0.00000   0.01429   0.01440  -2.75179
   D12        1.42355   0.00077   0.00000   0.01043   0.01054   1.43409
   D13       -0.68037  -0.00035   0.00000   0.00050   0.00059  -0.67978
   D14        0.42519   0.00123   0.00000   0.05108   0.05098   0.47616
   D15       -1.66826   0.00117   0.00000   0.04722   0.04712  -1.62114
   D16        2.51100   0.00005   0.00000   0.03729   0.03717   2.54818
   D17        2.26260  -0.00040   0.00000   0.09858   0.09860   2.36120
   D18       -0.88630   0.00031   0.00000   0.10152   0.10153  -0.78477
   D19       -1.93220   0.00206   0.00000   0.11096   0.11095  -1.82124
   D20        1.20210   0.00277   0.00000   0.11391   0.11388   1.31598
   D21        0.20337   0.00089   0.00000   0.10404   0.10405   0.30742
   D22       -2.94552   0.00160   0.00000   0.10699   0.10698  -2.83854
   D23       -3.13023  -0.00010   0.00000  -0.00876  -0.00876  -3.13899
   D24        1.04545  -0.00043   0.00000  -0.01253  -0.01250   1.03295
   D25       -0.98832   0.00038   0.00000   0.00299   0.00294  -0.98537
   D26        1.10549  -0.00067   0.00000  -0.01258  -0.01258   1.09292
   D27       -1.00200  -0.00100   0.00000  -0.01635  -0.01632  -1.01833
   D28       -3.03578  -0.00020   0.00000  -0.00083  -0.00088  -3.03665
   D29       -1.04023   0.00073   0.00000   0.00163   0.00164  -1.03858
   D30        3.13546   0.00040   0.00000  -0.00214  -0.00210   3.13336
   D31        1.10169   0.00120   0.00000   0.01337   0.01335   1.11503
   D32        3.12080  -0.00097   0.00000  -0.04267  -0.04264   3.07816
   D33       -0.01349  -0.00165   0.00000  -0.04543  -0.04545  -0.05895
   D34       -1.79386   0.00014   0.00000  -0.00072  -0.00072  -1.79458
   D35        1.31617   0.00029   0.00000   0.00275   0.00279   1.31896
   D36        0.31251  -0.00001   0.00000  -0.00132  -0.00133   0.31119
   D37       -2.86064   0.00013   0.00000   0.00215   0.00218  -2.85846
   D38        2.38062  -0.00015   0.00000  -0.00418  -0.00423   2.37639
   D39       -0.79253  -0.00001   0.00000  -0.00071  -0.00073  -0.79326
   D40        3.11193   0.00029   0.00000   0.00611   0.00613   3.11806
   D41       -0.01151  -0.00038   0.00000  -0.01336  -0.01343  -0.02493
   D42       -0.00232   0.00013   0.00000   0.00285   0.00286   0.00055
   D43       -3.12575  -0.00055   0.00000  -0.01662  -0.01669   3.14074
   D44       -3.11638  -0.00016   0.00000  -0.00504  -0.00510  -3.12148
   D45        0.03329   0.00019   0.00000   0.01031   0.01039   0.04368
   D46        0.00107  -0.00008   0.00000  -0.00259  -0.00260  -0.00154
   D47       -3.13245   0.00028   0.00000   0.01275   0.01288  -3.11956
   D48        0.00268  -0.00013   0.00000  -0.00198  -0.00199   0.00070
   D49        3.12717   0.00055   0.00000   0.01656   0.01642  -3.13960
   D50       -0.00196   0.00008   0.00000   0.00026   0.00025  -0.00172
   D51        3.13696  -0.00014   0.00000  -0.00348  -0.00341   3.13355
   D52        0.00059  -0.00001   0.00000   0.00149   0.00152   0.00211
   D53        3.13405  -0.00035   0.00000  -0.01383  -0.01370   3.12035
   D54       -3.13847   0.00020   0.00000   0.00507   0.00505  -3.13342
   D55       -0.00501  -0.00014   0.00000  -0.01026  -0.01017  -0.01519
   D56       -3.12258   0.00041   0.00000   0.15989   0.15970  -2.96288
   D57       -0.99847  -0.00206   0.00000   0.12662   0.12592  -0.87256
   D58        1.03406   0.00300   0.00000   0.19540   0.19585   1.22990
   D59       -1.01557  -0.00169   0.00000   0.09840   0.09824  -0.91733
   D60        1.10853  -0.00416   0.00000   0.06513   0.06446   1.17299
   D61        3.14106   0.00091   0.00000   0.13391   0.13439  -3.00774
   D62        1.03080   0.00156   0.00000   0.14235   0.14258   1.17338
   D63       -3.12828  -0.00091   0.00000   0.10909   0.10880  -3.01948
   D64       -1.09575   0.00415   0.00000   0.17787   0.17873  -0.91702
   D65        3.13861  -0.00005   0.00000  -0.00471  -0.00470   3.13391
   D66       -1.05041  -0.00002   0.00000  -0.00168  -0.00170  -1.05210
   D67        1.04631  -0.00007   0.00000  -0.00212  -0.00212   1.04419
   D68        1.02461  -0.00158   0.00000  -0.00829  -0.00805   1.01656
   D69        3.11877  -0.00155   0.00000  -0.00527  -0.00505   3.11373
   D70       -1.06769  -0.00160   0.00000  -0.00571  -0.00547  -1.07316
   D71       -1.02267   0.00161   0.00000   0.01724   0.01702  -1.00565
   D72        1.07149   0.00164   0.00000   0.02026   0.02002   1.09152
   D73       -3.11497   0.00159   0.00000   0.01983   0.01960  -3.09537
         Item               Value     Threshold  Converged?
 Maximum Force            0.016839     0.000450     NO 
 RMS     Force            0.003843     0.000300     NO 
 Maximum Displacement     0.872706     0.001800     NO 
 RMS     Displacement     0.178302     0.001200     NO 
 Predicted change in Energy=-6.242597D-03
 GradGradGradGradGradGradGradGradGradGradGradGradGradGradGradGradGradGrad

                          Input orientation:                          
 ---------------------------------------------------------------------
 Center     Atomic      Atomic             Coordinates (Angstroms)
 Number     Number       Type             X           Y           Z
 ---------------------------------------------------------------------
      1          8           0        1.320140    0.441109   -1.235248
      2          6           0        1.473970    0.358639   -0.017375
      3          7           0        0.467391    0.336513    0.876958
      4          6           0       -0.941895    0.342409    0.475771
      5          6           0       -1.722874    0.870302    1.673396
      6          8           0       -2.646830    1.774390    1.332840
      7          8           0       -1.512976    0.490660    2.807730
      8          6           0       -1.418506   -1.092859    0.100820
      9          6           0       -2.848241   -1.172558   -0.324182
     10          6           0       -3.977193   -1.604287    0.336438
     11          7           0       -5.095899   -1.465164   -0.452310
     12          6           0       -4.663197   -0.955297   -1.584748
     13          7           0       -3.309054   -0.755258   -1.563573
     14          6           0        2.895213    0.248405    0.562540
     15          6           0        3.850508    0.853030   -0.459749
     16          7           0        5.299824    0.571418   -0.100077
     17          1           0        0.646017    0.236075    1.870310
     18          1           0       -1.060432    1.010858   -0.378350
     19          1           0       -3.143896    2.024245    2.132761
     20          1           0       -1.277809   -1.735795    0.974963
     21          1           0       -0.749768   -1.453468   -0.689170
     22          1           0       -4.039133   -2.008448    1.338025
     23          1           0       -5.269878   -0.717107   -2.446990
     24          1           0       -2.751439   -0.391100   -2.322827
     25          1           0        3.115207   -0.818623    0.709938
     26          1           0        2.976196    0.740403    1.538203
     27          1           0        3.665014    0.432922   -1.449146
     28          1           0        3.745933    1.936840   -0.529018
     29          1           0        5.939513    0.973632   -0.794219
     30          1           0        5.549528    0.965319    0.813519
     31          1           0        5.484761   -0.437053   -0.060036
 ---------------------------------------------------------------------
                    Distance matrix (angstroms):
                    1          2          3          4          5
     1  O    0.000000
     2  C    1.230317   0.000000
     3  N    2.280249   1.346671   0.000000
     4  C    2.837981   2.465737   1.465289   0.000000
     5  C    4.231354   3.652440   2.390921   1.524107   0.000000
     6  O    4.910150   4.561625   3.460302   2.385779   1.336805
     7  O    4.937072   4.113453   2.770108   2.405441   1.214455
     8  C    3.411498   3.238399   2.490402   1.558121   2.533700
[...]
 9,0.00002920,-0.00000134,-0.00001654,-0.00000944,0.00001505,0.00002445
 ,-0.00000371,0.00001502,0.00001672,0.00000201,0.00000075,-0.00000191,0
 .00000778,-0.00002472,-0.00260744,0.02311461,-0.05090713,-0.00523925,0
 .02295913,-0.00244286,-0.00101879,-0.00061916,0.00111758,-0.00004051,-
 0.00047674,0.00014899,0.00007223,-0.00001356,-0.00002814,-0.00000493,-
 0.00000164,0.00000584,0.00000003,0.00000260,0.00000560,-0.00000900,0.0
 0002741,-0.00001934,-0.00000072,-0.00000115,0.00000033,0.00000034,0.00
 000026,-0.00000032,-0.00000105,0.00000516,-0.00000556,0.00283054,-0.02
 709648,0.05148247,-0.00707161,0.00242141,-0.00406619,0.00663476,-0.014
 73821,-0.02708678,0.00014998,0.00098653,0.00166553,0.00003825,0.000009
 05,0.00008317,-0.00015466,0.00003036,-0.00034101,0.00010280,-0.0000555
 5,0.00008861,0.00015971,0.00006116,0.00023072,0.00012013,0.00000799,0.
 00003331,-0.00001323,0.00004190,-0.00000984,0.00000191,0.00000976,-0.0
 0000188,-0.00002028,-0.00000860,0.00000571,0.00002246,-0.00000128,0.00
 000242,-0.00001179,-0.00000296,0.00000975,-0.05096586,-0.00844707,-0.0
 1132917,0.00029620,0.00993775,0.02251194,0.00131834,0.00036203,0.00021
 973,-0.00193169,-0.00040381,0.00008445,0.00017862,-0.00002437,0.000018
 41,-0.00003446,-0.00000420,0.00000306,-0.00001586,-0.00000769,0.000011
 28,0.00001781,0.00006813,0.00001035,-0.00000128,-0.00000463,0.00000106
 ,0.00000035,0.00000007,0.00000051,0.00003233,0.00000154,0.00000008,0.0
 0030009,0.00308831,0.00718243,0.05405248,0.00062488,0.00096645,0.00093
 895,0.00212821,0.00002781,0.00278746,-0.00053043,-0.00015963,0.0003266
 1,-0.00004010,-0.00000546,0.00021808,-0.00002081,0.00000007,-0.0001673
 5,0.00000553,-0.00000290,0.00005064,0.00001152,-0.00005421,0.00011962,
 0.00002066,0.00000875,-0.00003407,-0.00001438,-0.00000235,0.00000219,0
 .00000778,0.00001065,-0.00000990,-0.00002105,-0.00000549,-0.00000232,0
 .00000467,0.00000278,-0.00000065,-0.00000668,-0.00001258,0.00001665,-0
 .00857066,-0.10013321,-0.10504558,0.00112554,0.00690508,0.01652370,0.0
 0072642,0.00015309,-0.00016833,-0.00055137,0.00053483,-0.00001556,0.00
 007236,0.00000354,0.00002239,0.00000327,0.00001040,-0.00000678,-0.0000
 0916,-0.00001444,-0.00000279,0.00000369,0.00001457,0.00002596,-0.00000
 020,0.00000006,0.00000009,0.00000008,0.00000079,0.00000073,0.00001086,
 0.00000164,0.00000513,-0.00220674,-0.01199680,-0.02824677,0.00893934,0
 .10330232,-0.00315099,0.00016410,0.00013125,0.00187014,-0.00390028,-0.
 01130222,0.00150672,0.00055199,0.00115354,-0.00049757,0.00056983,0.000
 02932,-0.00008883,-0.00003059,-0.00005642,0.00002459,-0.00000283,0.000
 01109,0.00004105,0.00002754,0.00003609,0.00019987,-0.00006912,0.000036
 94,0.00000602,0.00007207,-0.00001322,-0.00001670,0.00000465,0.00001363
 ,0.00000723,-0.00001530,0.00002221,0.00003840,0.00000809,-0.00000325,-
 0.00001946,0.00000223,-0.00000710,-0.01118877,-0.10305675,-0.26104451,
 -0.00226696,-0.00797230,-0.01788654,0.00022280,-0.00000975,0.00085051,
 -0.00011880,-0.00047117,0.00091291,0.00002773,-0.00004987,0.00005208,-
 0.00000958,-0.00000687,0.00000157,-0.00001128,-0.00000667,0.00000564,0
 .00000179,0.00002722,0.00000155,-0.00000100,-0.00000167,0.00000047,0.0
 0000138,-0.00000066,-0.00000017,0.00001893,0.00000084,-0.00000561,0.00
 009901,0.00159235,0.00437847,0.01020286,0.11088192,0.28341097,-0.00118
 581,-0.00035369,-0.00363945,0.00018676,0.00006585,0.00643252,0.0008150
 4,-0.00010297,-0.00256435,-0.00026948,0.00003370,-0.00009121,-0.000118
 26,0.00013081,0.00022692,0.00007083,-0.00005363,-0.00006099,0.00005656
 ,-0.00008313,-0.00020058,-0.00003028,-0.00002141,0.00002309,0.00000359
 ,0.00000080,0.00002030,-0.00001729,-0.00001100,0.00001472,0.00005833,0
 .00000980,0.00000760,-0.00001757,-0.00000645,0.00000478,0.00002451,0.0
 0002651,-0.00003155,0.00447109,0.00827419,0.01852187,-0.05086634,-0.01
 177397,-0.03516393,-0.01674708,-0.01008092,-0.03438939,0.00058606,0.00
 000930,0.00004191,-0.00007673,0.00002517,0.00002867,-0.00000348,0.0000
 1538,0.00000935,0.00001388,-0.00000343,-0.00001387,-0.00000643,-0.0000
 6323,-0.00000705,-0.00000236,-0.00000069,-0.00000032,0.00000026,-0.000
 00071,-0.00000088,-0.00003852,-0.00000417,-0.00001342,0.00060460,-0.00
 025648,-0.00034868,-0.00338517,-0.00258097,0.00230219,0.06735700,-0.00
 018997,-0.00163178,-0.00028147,-0.00017088,0.00077964,0.00014161,0.000
 28494,0.00020328,-0.00020439,-0.00007941,0.00000891,-0.00013195,-0.000
 04423,0.00005314,0.00006362,0.00004044,-0.00003167,-0.00001740,0.00001
 845,-0.00002361,-0.00004231,-0.00000910,-0.00000304,0.00001872,-0.0000
 0155,-0.00000088,-0.00000741,-0.00000966,-0.00000717,0.00000663,0.0000
 1997,-0.00000167,0.00001161,0.00000598,-0.00000004,0.00000070,0.000005
 29,-0.00000180,-0.00000987,0.00250571,0.00600377,0.01464722,-0.0173939
 0,-0.08698147,-0.09162260,0.00549877,0.00276276,0.01240268,0.00017304,
 0.00007314,0.00003343,-0.00002605,-0.00000127,0.00001531,-0.00000275,0
 .00000517,0.00000244,-0.00000172,-0.00000167,0.00000284,-0.00000801,-0
 .00000858,-0.00001040,-0.00000202,0.00000062,0.00000142,0.00000080,0.0
 0000176,0.00000044,-0.00000803,0.00001600,-0.00000782,0.00078781,0.000
 59876,0.00003700,-0.00232545,-0.00062487,0.00178316,0.01545774,0.08619
 460,-0.00293583,-0.00028379,0.00121920,-0.00097070,-0.00030594,-0.0022
 5659,-0.00000899,0.00003756,-0.00016664,-0.00004021,-0.00000473,0.0000
 5133,-0.00000674,-0.00002338,-0.00003595,0.00000045,0.00000296,0.00000
 607,0.00001621,0.00000748,0.00002693,0.00000485,0.00000759,0.00000054,
 0.00000200,-0.00000053,0.00001678,0.00000568,0.00000272,-0.00000399,-0
 .00000116,0.00000412,-0.00001235,-0.00001692,-0.00000386,0.00000158,0.
 00000686,-0.00000041,-0.00000444,0.00121132,-0.00655660,-0.01974277,-0
 .04518779,-0.08760102,-0.29096590,-0.00100675,-0.00001932,-0.00074226,
 -0.00001943,-0.00001749,0.00010150,0.00002986,-0.00000413,0.00001326,-
 0.00000181,0.00000141,0.00000099,-0.00000119,-0.00000223,-0.00000187,0
 .00000956,0.00001251,0.00000922,0.00000054,0.00000019,-0.00000074,-0.0
 0000171,0.00000026,0.00000020,-0.00000505,-0.00000178,0.00001169,-0.00
 041213,0.00005875,0.00065616,0.00173232,0.00248702,-0.00116698,0.04672
 684,0.09114365,0.30930176,-0.00046003,0.00062015,-0.00072361,0.0020718
 7,-0.00077919,0.00109916,-0.00060337,0.00039396,0.00008773,0.00007900,
 -0.00005577,0.00009526,0.00004978,-0.00008225,-0.00002503,-0.00005751,
 0.00005419,0.00000512,-0.00003508,0.00004821,0.00000686,-0.00001879,-0
 .00000611,-0.00000614,0.00000014,-0.00000032,0.00000365,0.00001167,0.0
 0000609,-0.00000230,-0.00001295,0.00000596,-0.00001597,-0.00001743,-0.
 00000299,-0.00000201,-0.00000126,0.00000478,0.00000670,0.00302304,-0.0
 2134512,-0.00072849,-0.04937309,0.00558512,-0.00119040,-0.01361253,0.0
 3982511,-0.00021126,0.00006877,-0.00013181,-0.00004705,-0.00003783,-0.
 00001497,-0.00002529,-0.00000553,-0.00001288,0.00000136,0.00001461,0.0
 0000692,-0.00001127,-0.00000006,-0.00000132,0.00001733,0.00000272,-0.0
 0000106,-0.00000189,-0.00000109,-0.00000180,-0.00000090,0.00000220,-0.
 00001327,0.00000382,-0.00279229,-0.00147752,0.00289268,0.00061258,0.00
 073578,-0.00030904,0.00229744,-0.00598447,0.00107377,0.06298529,-0.000
 22620,0.00053931,-0.00062709,0.00030099,-0.00008764,0.00111338,-0.0002
 1948,-0.00002145,-0.00018375,0.00001030,-0.00001512,0.00004139,0.00000
 268,-0.00000891,-0.00001137,-0.00001200,0.00000552,0.00000448,-0.00000
 306,0.00000782,0.00000254,-0.00001381,0.00001415,0.00000086,-0.0000014
 3,-0.00000493,0.00000386,0.00000450,0.00000088,-0.00000216,-0.00000398
 ,0.00000264,-0.00000598,-0.00000668,-0.00000128,-0.00000024,0.00000008
 ,-0.00000036,0.00000089,-0.00067108,-0.01043959,-0.00009768,0.01826214
 ,-0.32801145,-0.00860551,0.00145329,-0.00326246,-0.00031064,0.00001975
 ,-0.00007181,-0.00002098,-0.00000846,0.00000388,-0.00001148,0.00000048
 ,0.00000095,-0.00000050,0.00000486,0.00000073,-0.00000361,0.00000282,-
 0.00000305,0.00000383,0.00000083,0.00000009,-0.00000058,-0.00000046,-0
 .00000008,0.,-0.00000178,-0.00000208,0.00000293,-0.00147876,0.00066104
 ,0.00127877,0.00021868,0.00102985,-0.00004380,0.00034846,-0.00798699,0
 .00072207,-0.01881197,0.34625072,-0.00030956,0.00070659,0.00002832,-0.
 00054241,-0.00001791,0.00026114,0.00000661,-0.00035327,-0.00013458,0.0
 0003570,-0.00002056,0.00001024,0.00005544,-0.00000029,0.00007559,-0.00
 003543,0.00001468,-0.00001801,-0.00004029,-0.00002608,-0.00005042,-0.0
 0000241,0.00002184,-0.00001363,0.00000123,-0.00001677,0.00000827,0.000
 00533,-0.00000121,-0.00000415,-0.00000312,0.00000352,-0.00000809,-0.00
 000880,-0.00000084,0.00000299,0.00000319,0.00000123,-0.00000074,-0.000
 90198,0.02250261,0.00048813,0.00119351,-0.01244183,-0.05221438,-0.0035
 0862,0.00921458,-0.00071362,0.00003808,0.00012497,0.00000123,0.0000033
 2,-0.00000128,0.00000173,0.00001155,0.00000238,0.00000073,-0.00000430,
 0.00000318,0.00000464,0.00000245,-0.00000014,-0.00000709,0.00000026,0.
 00000203,-0.00000027,-0.00000091,-0.00000034,-0.00000002,-0.00000049,-
 0.00000574,0.00000631,0.00335229,0.00195010,-0.00204775,-0.00115032,-0
 .00003238,0.00083767,0.00351109,-0.02904181,0.00242910,-0.00086457,0.0
 0649359,0.05065268,0.00060834,0.00028808,-0.00096049,0.00004870,-0.000
 70273,0.00338821,-0.00064269,0.00001256,-0.00064808,0.00000348,0.00005
 431,0.00018812,-0.00009521,0.00000568,-0.00007552,0.00002339,-0.000003
 41,0.00002354,0.00004255,-0.00000239,0.00001427,-0.00001879,0.00000635
 ,-0.00000360,0.00000173,-0.00001083,0.00000954,-0.00000415,-0.00000240
 ,0.00000120,0.00002026,0.00000642,-0.00000077,-0.00001465,-0.00000517,
 0.00000488,0.00001311,0.00000783,-0.00001144,-0.00600932,0.00239819,-0
 .00379602,-0.01714477,-0.01363176,0.02019749,-0.18532422,-0.09579390,0
 .14473596,0.00000752,-0.00002430,-0.00003408,-0.00001638,-0.00000044,-
 0.00000109,-0.00001609,0.00000596,0.00000225,-0.00000110,-0.00000190,0
 .00000105,0.00000227,-0.00001062,-0.00000479,-0.00000210,-0.00000117,0
 .00000041,-0.00000100,-0.00000063,-0.00000019,-0.00001195,-0.00000292,
 -0.00000208,0.00050188,0.00012880,-0.00039796,0.00013551,0.00021947,0.
 00005135,0.00084459,-0.00096888,-0.00053866,0.00113833,0.00058442,0.00
 056898,0.19305593,0.00018126,-0.00013223,0.00003135,-0.00011618,0.0006
 9984,-0.00040603,0.00039335,-0.00004684,0.00001798,-0.00006200,-0.0000
 5709,-0.00008583,-0.00007341,0.00007606,0.00006516,0.00007769,-0.00005
 665,-0.00001988,0.00004869,-0.00003786,-0.00003118,-0.00001202,-0.0000
 1116,0.00000055,-0.00000418,0.00000402,-0.00000193,-0.00000955,-0.0000
 0540,0.00000441,0.00002251,-0.00000345,0.00001048,0.00000445,-0.000000
 63,0.00000220,0.00000782,0.00000133,-0.00001127,0.00181543,-0.00086540
 ,0.00127966,0.00390148,0.00531883,-0.00832666,-0.08959447,-0.12782564,
 0.09770388,-0.00003387,0.00004655,0.00005868,0.00001959,0.00000648,0.0
 0000502,-0.00000417,0.00001261,0.00000305,-0.00000396,-0.00000067,0.00
 000419,-0.00000092,-0.00000581,-0.00000901,-0.00000275,0.00000035,0.00
 000187,0.00000055,0.00000212,0.00000074,-0.00000886,0.00000906,-0.0000
 0722,-0.00007047,0.00031468,0.00001777,-0.00024141,0.00002533,0.000105
 61,-0.00057795,0.00003187,-0.00006642,0.00088833,-0.00011728,-0.000535
 33,0.09792211,0.12862951,-0.00020341,-0.00001215,-0.00014725,-0.000105
 01,-0.00015016,0.00076451,-0.00044033,-0.00000154,-0.00016401,0.000089
 43,0.00000741,0.00007958,0.00010257,-0.00007035,0.00000252,-0.00010229
 ,0.00005452,0.00000510,-0.00007580,0.00001879,-0.00001570,0.00000022,0
 .00003689,0.00001617,0.00000422,-0.00001808,0.00000882,0.00001901,0.00
 000293,-0.00000841,-0.00002552,0.00000501,-0.00002674,-0.00002271,-0.0
 0000393,-0.00000084,-0.00000028,-0.00000856,0.00000727,-0.00160897,0.0
 0079486,-0.00076113,-0.00327374,-0.00661081,0.00891028,0.13639905,0.09
 866938,-0.21415307,0.00007294,-0.00001016,-0.00007744,-0.00001936,0.00
 000044,-0.00000108,0.00001551,-0.00000286,-0.00000222,0.00000478,0.000
 00100,-0.00000539,0.00000217,0.00000455,0.00000911,0.00000343,0.000003
 89,-0.00000158,-0.00000265,0.00000108,0.00000055,0.00000272,0.00000281
 ,0.00002128,0.00009890,0.00009602,-0.00019749,-0.00020408,0.00008015,0
 .00010731,-0.00084425,-0.00039798,0.00039950,0.00013106,-0.00006007,0.
 00024005,-0.14892420,-0.10756835,0.22209068,-0.00020050,-0.00030766,0.
 00155207,-0.00179422,0.00041741,-0.00193234,0.00062602,0.00002586,0.00
 027392,-0.00017504,0.00000412,-0.00012622,-0.00016275,0.00010924,0.000
 04520,0.00015652,-0.00008377,-0.00002099,0.00012161,-0.00003009,-0.000
 01181,0.00000857,-0.00005601,-0.00001109,-0.00000201,0.00002673,0.0000
 0236,-0.00002761,-0.00000439,0.00001571,0.00005044,-0.00000169,0.00002
 411,0.00001046,-0.00000251,0.00000703,0.00001436,0.00002195,-0.0000257
 9,0.00274648,-0.00063215,-0.00062104,-0.00637712,-0.01155910,-0.031038
 17,-0.07976370,-0.03170566,-0.08424488,-0.00013241,-0.00000915,0.00012
 359,0.00002627,0.00000026,0.00001184,-0.00002625,0.00000742,0.00001063
 ,-0.00000780,-0.00000090,0.00000575,0.00000232,-0.00000814,-0.00001183
 ,-0.00000523,-0.00000494,0.00000136,0.00000109,-0.00000099,-0.00000041
 ,-0.00001346,-0.00000522,-0.00002051,-0.00021442,-0.00021133,0.0001237
 1,-0.00064242,0.00020136,0.00102623,-0.00588515,0.00270690,0.00073304,
 0.00143797,0.00027964,0.00021105,0.00797310,0.01022257,0.02244663,0.08
 112994,0.00050446,0.00007932,0.00002843,-0.00063454,-0.00017980,0.0001
 6628,0.00031777,-0.00008453,-0.00015249,-0.00009270,0.00002995,-0.0000
 5921,-0.00008502,0.00009522,0.00008271,0.00007269,-0.00005720,-0.00002
 085,0.00004541,-0.00005993,-0.00005313,0.00001248,-0.00001300,-0.00000
 104,-0.00000185,0.00000783,-0.00000255,-0.00001297,-0.00000568,0.00000
 486,0.00002706,-0.00000433,0.00001264,0.00000593,-0.00000049,0.0000030
 5,0.00000868,0.00000459,-0.00001165,-0.00012516,-0.00008901,0.00020451
 ,0.00022614,0.00445221,0.00931592,-0.02764355,-0.09784556,-0.09766584,
 -0.00002679,0.00006887,0.00005338,0.00000773,0.00000906,0.00001092,-0.
 00000219,0.00001770,0.00000429,-0.00000546,-0.00000158,0.00000465,-0.0
 0000140,-0.00001518,-0.00001269,-0.00000329,0.00000105,0.00000196,0.00
 000058,0.00000154,0.00000069,-0.00001059,0.00000609,-0.00000806,-0.000
 21002,-0.00042389,-0.00021626,0.00001656,0.00031370,-0.00022300,0.0021
 6253,-0.00019332,0.00009725,0.00040346,-0.00005994,0.00094136,0.006546
 50,0.00690879,0.01728305,0.02917508,0.09562888,0.00027710,0.00007156,-
 0.00028522,-0.00025005,0.00010192,-0.00024359,0.00048250,-0.00000746,-
 0.00015876,-0.00007395,-0.00002621,-0.00008919,-0.00000197,0.00004872,
 0.00019864,0.00001449,-0.00001519,-0.00005601,-0.00000233,-0.00003071,
 -0.00013815,0.00000155,-0.00001387,0.00000816,0.00000089,0.00000020,0.
 00000975,-0.00000520,-0.00000550,0.00000872,0.00002319,0.00000451,-0.0
 0000345,-0.00001086,-0.00000326,0.00000405,0.00001158,0.00001063,-0.00
 001960,0.00050129,0.00019519,0.00267895,-0.00509023,0.00070312,-0.0022
 9162,-0.07423587,-0.10070272,-0.35031854,0.00006288,0.00002296,0.00009
 932,0.00000009,0.00000349,0.00000158,0.00000421,0.00000212,0.00000932,
 0.00000173,0.00000364,-0.00000150,-0.00000222,-0.00001639,-0.00000750,
 -0.00000068,0.00000141,-0.00000009,-0.00000081,0.00000036,-0.00000008,
 -0.00001281,-0.00000107,0.00000007,-0.00008795,0.00002196,0.00008628,-
 0.00009768,-0.00064162,-0.00036850,-0.00009978,0.00069152,0.00118195,0
 .00049535,0.00029802,0.00015775,-0.00768578,-0.00924431,-0.02012060,0.
 08496354,0.10742268,0.36772126,0.00046727,-0.00021886,0.00047114,-0.00
 110479,-0.00031124,-0.00092616,0.00074935,-0.00000435,-0.00001134,-0.0
 0019921,0.00009761,-0.00014776,-0.00018961,0.00015274,0.00011549,0.000
 16791,-0.00010076,-0.00003549,0.00012308,-0.00006011,-0.00006978,0.000
 01951,-0.00006169,0.00000188,0.00000016,0.00002335,-0.00000156,-0.0000
 3555,-0.00000874,0.00002094,0.00006596,-0.00000181,0.00003063,0.000013
 41,-0.00000099,0.00000812,0.00001898,0.00002347,-0.00003461,0.00203257
 ,0.00131896,0.00017766,-0.00297988,0.03439042,0.00197586,-0.06446037,0
 .05402730,0.00410272,-0.00007278,0.00003177,0.00013673,0.00002097,0.00
 000747,0.00001708,-0.00002309,0.00001387,0.00001162,-0.00000970,-0.000
 00283,0.00000684,-0.00000410,-0.00002162,-0.00002229,-0.00000651,-0.00
 000373,0.00000217,0.00000146,-0.00000058,-0.00000027,-0.00002126,0.000
 00030,-0.00002284,-0.00052826,-0.00151201,0.00076403,0.00007403,-0.000
 28888,0.00003068,0.00125941,-0.00027975,-0.00039821,-0.00676657,-0.000
 03474,-0.00162687,0.00488174,-0.02468966,-0.00354005,0.00112493,-0.010
 67753,0.00081780,0.06538093,-0.00030414,-0.00021485,0.00008420,0.00020
 311,-0.00019224,0.00029868,-0.00045729,-0.00003879,-0.00002050,0.00011
 473,0.00005008,0.00008554,0.00004192,-0.00004233,-0.00003702,-0.000061
 98,0.00002363,0.00001825,-0.00005191,-0.00000469,0.00001682,-0.0000008
 2,0.00004354,0.00001031,0.00000146,-0.00002347,-0.00001090,0.00000773,
 -0.00000258,-0.00001012,-0.00001791,-0.00000665,-0.00000539,-0.0000004
 4,0.00000272,-0.00000215,-0.00000279,-0.00002016,0.00001090,-0.0008986
 4,0.00246534,-0.00141023,0.00554023,-0.00388215,0.00144778,0.04324718,
 -0.39765251,-0.01652723,0.00004070,0.00005099,-0.00005485,-0.00000691,
 -0.00000421,0.00000055,0.00001246,0.00000919,-0.00000537,-0.00000792,0
 .00000118,0.00001043,0.00000074,0.00001753,-0.00000870,-0.00000049,0.0
 0000611,0.00000257,-0.00000082,0.00000365,0.00000155,0.00000590,0.0000
 1837,0.00001015,0.00037738,-0.00036694,-0.00017238,0.00006466,-0.00029
 976,0.00006906,-0.00058543,0.00076644,0.00030609,0.00014477,0.00157683
 ,0.00051311,0.00297676,-0.01292130,-0.00214778,0.00142516,-0.00859135,
 0.00110430,-0.05180738,0.41922837,-0.00016585,-0.00015827,-0.00072350,
 0.00078678,0.00029148,0.00070492,-0.00016770,0.00001779,-0.00013716,0.
 00006767,-0.00003706,0.00002523,0.00007895,-0.00004450,0.00004589,-0.0
 0007189,0.00003616,-0.00000935,-0.00005627,0.00001720,-0.00004112,-0.0
 0001299,0.00002855,0.00002138,0.00000348,-0.00001622,0.00001065,0.0000
 1450,-0.00000125,-0.00000439,-0.00001436,0.00000571,-0.00002195,-0.000
 02178,-0.00000413,-0.00000057,0.00000303,-0.00000791,-0.00000206,-0.00
 010442,-0.00129193,-0.00014921,-0.00076279,0.00825159,0.00071683,0.003
 64417,-0.01442763,-0.06412612,0.00005997,-0.00002432,-0.00002388,-0.00
 001104,0.00000102,-0.00000358,0.00001210,-0.00000351,-0.00000044,0.000
 00553,0.00000148,-0.00000497,-0.00000004,0.00000457,0.00000600,0.00000
 266,0.00000336,-0.00000111,-0.00000231,0.00000180,0.00000051,-0.000001
 98,0.00000801,0.00001735,0.00015146,0.00045968,0.00037872,0.00018926,-
 0.00011318,-0.00013865,-0.00040216,0.00077140,-0.00032727,-0.00175465,
 0.00001884,0.00000620,-0.00610248,0.02700082,0.00302024,0.00648732,-0.
 03721187,0.00193661,-0.00185416,0.01642231,0.05882480\\-0.00000004,-0.
 00000024,0.00000075,0.00000063,-0.00000087,-0.00000031,-0.00000126,0.0
 0000242,0.00000117,-0.00000133,-0.00000018,-0.00000133,0.00000125,-0.0
 0000143,0.00000130,-0.00000084,-0.00000004,-0.00000008,-0.00000016,0.0
 0000007,-0.00000041,0.00000040,-0.00000034,0.00000072,0.00000037,-0.00
 000071,0.00000092,-0.00000020,-0.00000107,-0.00000048,0.00000047,-0.00
 000077,0.00000045,-0.00000006,-0.00000018,-0.00000024,-0.00000003,0.00
 000026,-0.00000050,-0.00000081,-0.00000010,-0.00000027,-0.00000209,0.0
 0000030,-0.00000098,0.00000065,-0.00000016,-0.00000016,0.00000008,-0.0
 0000007,-0.00000070,-0.00000006,-0.00000006,-0.00000012,0.00000065,0.0
 0000078,0.00000029,-0.00000046,-0.00000023,0.,0.00000019,-0.00000035,0
 .00000044,0.00000023,0.00000043,0.00000016,0.00000002,-0.00000052,0.00
 000013,-0.00000002,-0.00000036,-0.00000005,0.00000061,0.00000080,-0.00
 000017,0.00000027,0.00000015,0.00000030,0.00000128,0.00000113,-0.00000
 002,0.00000020,0.00000008,-0.00000063,0.00000008,0.00000040,-0.0000000
 6,-0.00000008,0.00000050,-0.00000003,0.00000007,0.00000034,-0.00000007
 \\\@


 SCIENCE IS LONG AND LIFE IS SHORT.

                     DON MOSER IN THE FEBRUARY 1979 SMITHSONIAN
 Job cpu time:       0 days  2 hours 39 minutes 10.2 seconds.
 File lengths (MBytes):  RWF=    460 Int=      0 D2E=      0 Chk=     13 Scr=      1
 Normal termination of Gaussian 09 at Thu Jul 29 00:09:33 2021.
