 Entering Gaussian System, Link 0=g09
 Input=opt_freq-conf-628.com
 Output=opt_freq-conf-628.log
 Initial command:
 /aerosol/software/g09/l1.exe "/scratch/nicole/10651/Gau-86579.inp" -scrdir="/scratch/nicole/10651/"
 Entering Link 1 = /aerosol/software/g09/l1.exe PID=     86584.
  
 Copyright (c) 1988,1990,1992,1993,1995,1998,2003,2009,2013,
            Gaussian, Inc.  All Rights Reserved.
  
 This is part of the Gaussian(R) 09 program.  It is based on
 the Gaussian(R) 03 system (copyright 2003, Gaussian, Inc.),
 the Gaussian(R) 98 system (copyright 1998, Gaussian, Inc.),
 the Gaussian(R) 94 system (copyright 1995, Gaussian, Inc.),
 the Gaussian 92(TM) system (copyright 1992, Gaussian, Inc.),
 the Gaussian 90(TM) system (copyright 1990, Gaussian, Inc.),
 the Gaussian 88(TM) system (copyright 1988, Gaussian, Inc.),
 the Gaussian 86(TM) system (copyright 1986, Carnegie Mellon
 University), and the Gaussian 82(TM) system (copyright 1983,
 Carnegie Mellon University). Gaussian is a federally registered
 trademark of Gaussian, Inc.
  
 This software contains proprietary and confidential information,
 including trade secrets, belonging to Gaussian, Inc.
  
 This software is provided under written license and may be
 used, copied, transmitted, or stored only in accord with that
 written license.
  
 The following legend is applicable only to US Government
 contracts under FAR:
  
                    RESTRICTED RIGHTS LEGEND
  
 Use, reproduction and disclosure by the US Government is
 subject to restrictions as set forth in subparagraphs (a)
 and (c) of the Commercial Computer Software - Restricted
 Rights clause in FAR 52.227-19.
  
 Gaussian, Inc.
 340 Quinnipiac St., Bldg. 40, Wallingford CT 06492
  
  
 ---------------------------------------------------------------
 Warning -- This program may not be used in any manner that
 competes with the business of Gaussian, Inc. or will provide
 assistance to any competitor of Gaussian, Inc.  The licensee
 of this program is prohibited from giving any competitor of
 Gaussian, Inc. access to this program.  By using this program,
 the user acknowledges that Gaussian, Inc. is engaged in the
 business of creating and licensing software in the field of
 computational chemistry and represents and warrants to the
 licensee that it is not a competitor of Gaussian, Inc. and that
 it will not use this program in any manner prohibited above.
 ---------------------------------------------------------------
  

 Cite this work as:
 Gaussian 09, Revision D.01,
 M. J. Frisch, G. W. Trucks, H. B. Schlegel, G. E. Scuseria, 
 M. A. Robb, J. R. Cheeseman, G. Scalmani, V. Barone, B. Mennucci, 
 G. A. Petersson, H. Nakatsuji, M. Caricato, X. Li, H. P. Hratchian, 
 A. F. Izmaylov, J. Bloino, G. Zheng, J. L. Sonnenberg, M. Hada, 
 M. Ehara, K. Toyota, R. Fukuda, J. Hasegawa, M. Ishida, T. Nakajima, 
 Y. Honda, O. Kitao, H. Nakai, T. Vreven, J. A. Montgomery, Jr., 
 J. E. Peralta, F. Ogliaro, M. Bearpark, J. J. Heyd, E. Brothers, 
 K. N. Kudin, V. N. Staroverov, T. Keith, R. Kobayashi, J. Normand, 
 K. Raghavachari, A. Rendell, J. C. Burant, S. S. Iyengar, J. Tomasi, 
 M. Cossi, N. Rega, J. M. Millam, M. Klene, J. E. Knox, J. B. Cross, 
 V. Bakken, C. Adamo, J. Jaramillo, R. Gomperts, R. E. Stratmann, 
 O. Yazyev, A. J. Austin, R. Cammi, C. Pomelli, J. W. Ochterski, 
 R. L. Martin, K. Morokuma, V. G. Zakrzewski, G. A. Voth, 
 P. Salvador, J. J. Dannenberg, S. Dapprich, A. D. Daniels, 
 O. Farkas, J. B. Foresman, J. V. Ortiz, J. Cioslowski, 
 and D. J. Fox, Gaussian, Inc., Wallingford CT, 2013.
 
 ******************************************
 Gaussian 09:  ES64L-G09RevD.01 24-Apr-2013
                28-Jul-2021 
 ******************************************
 %mem=2gb
 %nproc=4
 Will use up to    4 processors via shared memory.
 %chk=conf-628.chk
 ----------------------------------------------------------------------
 # B3LYP/6-31+G(d,p) opt=calcfc freq=noraman nosymm integral(ultrafineg
 rid)
 ----------------------------------------------------------------------
 1/10=4,14=-1,18=20,19=15,26=4,38=1/1,3;
 2/9=110,12=2,15=1,17=6,18=5,40=1/2;
 3/5=1,6=6,7=111,11=2,16=1,25=1,30=1,71=2,74=-5,75=-5,140=1/1,2,3;
 4//1;
 5/5=2,38=5/2;
 8/6=4,10=90,11=11/1;
 11/6=1,8=1,9=11,15=111,16=1,31=1/1,2,10;
 10/6=1,13=1,31=1/2;
 6/7=2,8=2,9=2,10=2,28=1/1;
 7/10=1,18=20,25=1,30=1/1,2,3,16;
 1/10=4,14=-1,18=20,19=15,26=4/3(2);
 2/9=110,15=1/2;
 99//99;
 2/9=110,15=1/2;
 3/5=1,6=6,7=111,11=2,16=1,25=1,30=1,71=1,74=-5,75=-5/1,2,3;
 4/5=5,16=3,69=1/1;
 5/5=2,38=5/2;
 7/30=1/1,2,3,16;
 1/14=-1,18=20,19=15,26=4/3(-5);
 2/9=110,15=1/2;
 6/7=2,8=2,9=2,10=2,19=2,28=1/1;
 99/9=1/99;
 ------------------------------------------------------------
 Candidate Structure: Conf:628 OPT and FREQ calc in gas phase
 ------------------------------------------------------------
 Symbolic Z-matrix:
 Charge =  1 Multiplicity = 1
 O                    -1.23346   0.12207  -0.84287 
 C                    -1.46356  -0.06705   0.34931 
 N                    -0.46101  -0.24379   1.22995 
 C                     0.90694  -0.33709   0.75078 
 C                     1.71594  -0.95986   1.86883 
 O                     3.00756  -1.162     1.5238 
 O                     1.28005  -1.2415    2.95329 
 C                     1.44827   1.05177   0.32468 
 C                     2.3268    0.99156  -0.87917 
 C                     2.2344    1.60899  -2.09359 
 N                     3.28424   1.23058  -2.91301 
 C                     3.98976   0.38949  -2.19678 
 N                     3.44646   0.20531  -0.96361 
 C                    -2.87106  -0.07869   0.92827 
 C                    -3.8502   -0.83512   0.0418 
 N                    -3.94724  -0.19776  -1.29196 
 H                    -0.63042  -0.51316   2.1862 
 H                     0.91497  -1.01819  -0.10778 
 H                     3.43321  -1.56793   2.29421 
 H                     0.60119   1.68663   0.07355 
 H                     1.95518   1.52679   1.16546 
 H                     1.47839   2.30342  -2.43091 
 H                     4.89002  -0.11398  -2.50001 
 H                     3.77118  -0.40044  -0.22689 
 H                    -2.85146  -0.51082   1.9302 
 H                    -3.19337   0.96164   1.02586 
 H                    -3.51778  -1.86885  -0.07297 
 H                    -4.83409  -0.86052   0.51303 
 H                    -4.44019   0.69304  -1.23969 
 H                    -2.9845    0.00017  -1.59919 
 H                    -4.40624  -0.79443  -1.97939 
 

 GradGradGradGradGradGradGradGradGradGradGradGradGradGradGradGradGradGrad
 Berny optimization.
 Initialization pass.
                           ----------------------------
                           !    Initial Parameters    !
                           ! (Angstroms and Degrees)  !
 --------------------------                            --------------------------
 ! Name  Definition              Value          Derivative Info.                !
 --------------------------------------------------------------------------------
 ! R1    R(1,2)                  1.2288         calculate D2E/DX2 analytically  !
 ! R2    R(2,3)                  1.3461         calculate D2E/DX2 analytically  !
 ! R3    R(2,14)                 1.522          calculate D2E/DX2 analytically  !
 ! R4    R(3,4)                  1.4524         calculate D2E/DX2 analytically  !
 ! R5    R(3,17)                 1.0078         calculate D2E/DX2 analytically  !
 ! R6    R(4,5)                  1.514          calculate D2E/DX2 analytically  !
 ! R7    R(4,8)                  1.5503         calculate D2E/DX2 analytically  !
 ! R8    R(4,18)                 1.0959         calculate D2E/DX2 analytically  !
 ! R9    R(5,6)                  1.3521         calculate D2E/DX2 analytically  !
 ! R10   R(5,7)                  1.2022         calculate D2E/DX2 analytically  !
 ! R11   R(6,19)                 0.9693         calculate D2E/DX2 analytically  !
 ! R12   R(8,9)                  1.4915         calculate D2E/DX2 analytically  !
 ! R13   R(8,20)                 1.088          calculate D2E/DX2 analytically  !
 ! R14   R(8,21)                 1.0906         calculate D2E/DX2 analytically  !
 ! R15   R(9,10)                 1.3655         calculate D2E/DX2 analytically  !
 ! R16   R(9,13)                 1.3708         calculate D2E/DX2 analytically  !
 ! R17   R(10,11)                1.3845         calculate D2E/DX2 analytically  !
 ! R18   R(10,22)                1.0805         calculate D2E/DX2 analytically  !
 ! R19   R(11,12)                1.3108         calculate D2E/DX2 analytically  !
 ! R20   R(12,13)                1.3601         calculate D2E/DX2 analytically  !
 ! R21   R(12,23)                1.0751         calculate D2E/DX2 analytically  !
 ! R22   R(13,24)                1.0075         calculate D2E/DX2 analytically  !
 ! R23   R(14,15)                1.5221         calculate D2E/DX2 analytically  !
 ! R24   R(14,25)                1.0913         calculate D2E/DX2 analytically  !
 ! R25   R(14,26)                1.0935         calculate D2E/DX2 analytically  !
 ! R26   R(15,16)                1.4814         calculate D2E/DX2 analytically  !
 ! R27   R(15,27)                1.0919         calculate D2E/DX2 analytically  !
 ! R28   R(15,28)                1.0912         calculate D2E/DX2 analytically  !
 ! R29   R(16,29)                1.0194         calculate D2E/DX2 analytically  !
 ! R30   R(16,30)                1.0298         calculate D2E/DX2 analytically  !
 ! R31   R(16,31)                1.0194         calculate D2E/DX2 analytically  !
 ! A1    A(1,2,3)              121.0287         calculate D2E/DX2 analytically  !
 ! A2    A(1,2,14)             122.9159         calculate D2E/DX2 analytically  !
 ! A3    A(3,2,14)             116.0343         calculate D2E/DX2 analytically  !
 ! A4    A(2,3,4)              119.6091         calculate D2E/DX2 analytically  !
 ! A5    A(2,3,17)             122.0502         calculate D2E/DX2 analytically  !
 ! A6    A(4,3,17)             117.0118         calculate D2E/DX2 analytically  !
 ! A7    A(3,4,5)              106.6215         calculate D2E/DX2 analytically  !
 ! A8    A(3,4,8)              111.2221         calculate D2E/DX2 analytically  !
 ! A9    A(3,4,18)             107.7743         calculate D2E/DX2 analytically  !
 ! A10   A(5,4,8)              112.6361         calculate D2E/DX2 analytically  !
 ! A11   A(5,4,18)             108.6            calculate D2E/DX2 analytically  !
 ! A12   A(8,4,18)             109.8079         calculate D2E/DX2 analytically  !
 ! A13   A(4,5,6)              112.5496         calculate D2E/DX2 analytically  !
 ! A14   A(4,5,7)              124.6622         calculate D2E/DX2 analytically  !
 ! A15   A(6,5,7)              122.786          calculate D2E/DX2 analytically  !
 ! A16   A(5,6,19)             106.2178         calculate D2E/DX2 analytically  !
 ! A17   A(4,8,9)              113.0376         calculate D2E/DX2 analytically  !
 ! A18   A(4,8,20)             108.3203         calculate D2E/DX2 analytically  !
 ! A19   A(4,8,21)             109.9119         calculate D2E/DX2 analytically  !
 ! A20   A(9,8,20)             107.2092         calculate D2E/DX2 analytically  !
 ! A21   A(9,8,21)             111.4708         calculate D2E/DX2 analytically  !
 ! A22   A(20,8,21)            106.5992         calculate D2E/DX2 analytically  !
 ! A23   A(8,9,10)             131.2776         calculate D2E/DX2 analytically  !
 ! A24   A(8,9,13)             123.6415         calculate D2E/DX2 analytically  !
 ! A25   A(10,9,13)            105.0607         calculate D2E/DX2 analytically  !
 ! A26   A(9,10,11)            110.5777         calculate D2E/DX2 analytically  !
 ! A27   A(9,10,22)            127.9938         calculate D2E/DX2 analytically  !
 ! A28   A(11,10,22)           121.4286         calculate D2E/DX2 analytically  !
 ! A29   A(10,11,12)           105.0775         calculate D2E/DX2 analytically  !
 ! A30   A(11,12,13)           111.5502         calculate D2E/DX2 analytically  !
 ! A31   A(11,12,23)           126.6602         calculate D2E/DX2 analytically  !
 ! A32   A(13,12,23)           121.7894         calculate D2E/DX2 analytically  !
 ! A33   A(9,13,12)            107.7261         calculate D2E/DX2 analytically  !
 ! A34   A(9,13,24)            124.2674         calculate D2E/DX2 analytically  !
 ! A35   A(12,13,24)           128.0001         calculate D2E/DX2 analytically  !
 ! A36   A(2,14,15)            112.158          calculate D2E/DX2 analytically  !
 ! A37   A(2,14,25)            109.6131         calculate D2E/DX2 analytically  !
 ! A38   A(2,14,26)            107.4131         calculate D2E/DX2 analytically  !
 ! A39   A(15,14,25)           110.4549         calculate D2E/DX2 analytically  !
 ! A40   A(15,14,26)           109.5831         calculate D2E/DX2 analytically  !
 ! A41   A(25,14,26)           107.4625         calculate D2E/DX2 analytically  !
 ! A42   A(14,15,16)           110.6517         calculate D2E/DX2 analytically  !
 ! A43   A(14,15,27)           109.625          calculate D2E/DX2 analytically  !
 ! A44   A(14,15,28)           109.8824         calculate D2E/DX2 analytically  !
 ! A45   A(16,15,27)           109.4274         calculate D2E/DX2 analytically  !
 ! A46   A(16,15,28)           109.862          calculate D2E/DX2 analytically  !
 ! A47   A(27,15,28)           107.3284         calculate D2E/DX2 analytically  !
 ! A48   A(15,16,29)           111.1897         calculate D2E/DX2 analytically  !
 ! A49   A(15,16,30)           106.8621         calculate D2E/DX2 analytically  !
 ! A50   A(15,16,31)           112.6314         calculate D2E/DX2 analytically  !
 ! A51   A(29,16,30)           107.4223         calculate D2E/DX2 analytically  !
 ! A52   A(29,16,31)           109.1651         calculate D2E/DX2 analytically  !
 ! A53   A(30,16,31)           109.4057         calculate D2E/DX2 analytically  !
 ! D1    D(1,2,3,4)             -5.7833         calculate D2E/DX2 analytically  !
 ! D2    D(1,2,3,17)          -172.2233         calculate D2E/DX2 analytically  !
 ! D3    D(14,2,3,4)           175.8395         calculate D2E/DX2 analytically  !
 ! D4    D(14,2,3,17)            9.3995         calculate D2E/DX2 analytically  !
 ! D5    D(1,2,14,15)           42.5179         calculate D2E/DX2 analytically  !
 ! D6    D(1,2,14,25)          165.59           calculate D2E/DX2 analytically  !
 ! D7    D(1,2,14,26)          -77.9467         calculate D2E/DX2 analytically  !
 ! D8    D(3,2,14,15)         -139.1387         calculate D2E/DX2 analytically  !
 ! D9    D(3,2,14,25)          -16.0665         calculate D2E/DX2 analytically  !
 ! D10   D(3,2,14,26)          100.3967         calculate D2E/DX2 analytically  !
 ! D11   D(2,3,4,5)           -162.3258         calculate D2E/DX2 analytically  !
 ! D12   D(2,3,4,8)             74.5263         calculate D2E/DX2 analytically  !
 ! D13   D(2,3,4,18)           -45.8863         calculate D2E/DX2 analytically  !
 ! D14   D(17,3,4,5)             4.7854         calculate D2E/DX2 analytically  !
 ! D15   D(17,3,4,8)          -118.3625         calculate D2E/DX2 analytically  !
 ! D16   D(17,3,4,18)          121.2248         calculate D2E/DX2 analytically  !
 ! D17   D(3,4,5,6)            177.0537         calculate D2E/DX2 analytically  !
 ! D18   D(3,4,5,7)             -3.4817         calculate D2E/DX2 analytically  !
 ! D19   D(8,4,5,6)            -60.685          calculate D2E/DX2 analytically  !
 ! D20   D(8,4,5,7)            118.7796         calculate D2E/DX2 analytically  !
 ! D21   D(18,4,5,6)            61.1665         calculate D2E/DX2 analytically  !
 ! D22   D(18,4,5,7)          -119.3689         calculate D2E/DX2 analytically  !
 ! D23   D(3,4,8,9)           -142.6518         calculate D2E/DX2 analytically  !
 ! D24   D(3,4,8,20)           -24.0009         calculate D2E/DX2 analytically  !
 ! D25   D(3,4,8,21)            92.103          calculate D2E/DX2 analytically  !
 ! D26   D(5,4,8,9)             97.7181         calculate D2E/DX2 analytically  !
 ! D27   D(5,4,8,20)          -143.631          calculate D2E/DX2 analytically  !
 ! D28   D(5,4,8,21)           -27.5271         calculate D2E/DX2 analytically  !
 ! D29   D(18,4,8,9)           -23.4471         calculate D2E/DX2 analytically  !
 ! D30   D(18,4,8,20)           95.2039         calculate D2E/DX2 analytically  !
 ! D31   D(18,4,8,21)         -148.6922         calculate D2E/DX2 analytically  !
 ! D32   D(4,5,6,19)          -179.4098         calculate D2E/DX2 analytically  !
 ! D33   D(7,5,6,19)             1.114          calculate D2E/DX2 analytically  !
 ! D34   D(4,8,9,10)           122.1202         calculate D2E/DX2 analytically  !
 ! D35   D(4,8,9,13)           -55.9913         calculate D2E/DX2 analytically  !
 ! D36   D(20,8,9,10)            2.8264         calculate D2E/DX2 analytically  !
 ! D37   D(20,8,9,13)         -175.2851         calculate D2E/DX2 analytically  !
 ! D38   D(21,8,9,10)         -113.4811         calculate D2E/DX2 analytically  !
 ! D39   D(21,8,9,13)           68.4074         calculate D2E/DX2 analytically  !
 ! D40   D(8,9,10,11)         -179.1727         calculate D2E/DX2 analytically  !
 ! D41   D(8,9,10,22)            0.8717         calculate D2E/DX2 analytically  !
 ! D42   D(13,9,10,11)          -0.8008         calculate D2E/DX2 analytically  !
 ! D43   D(13,9,10,22)         179.2437         calculate D2E/DX2 analytically  !
 ! D44   D(8,9,13,12)          179.4127         calculate D2E/DX2 analytically  !
 ! D45   D(8,9,13,24)            0.2674         calculate D2E/DX2 analytically  !
 ! D46   D(10,9,13,12)           0.8823         calculate D2E/DX2 analytically  !
 ! D47   D(10,9,13,24)        -178.263          calculate D2E/DX2 analytically  !
 ! D48   D(9,10,11,12)           0.4004         calculate D2E/DX2 analytically  !
 ! D49   D(22,10,11,12)       -179.6406         calculate D2E/DX2 analytically  !
 ! D50   D(10,11,12,13)          0.1804         calculate D2E/DX2 analytically  !
 ! D51   D(10,11,12,23)       -179.6957         calculate D2E/DX2 analytically  !
 ! D52   D(11,12,13,9)          -0.6868         calculate D2E/DX2 analytically  !
 ! D53   D(11,12,13,24)        178.4169         calculate D2E/DX2 analytically  !
 ! D54   D(23,12,13,9)         179.1963         calculate D2E/DX2 analytically  !
 ! D55   D(23,12,13,24)         -1.7            calculate D2E/DX2 analytically  !
 ! D56   D(2,14,15,16)         -61.1453         calculate D2E/DX2 analytically  !
 ! D57   D(2,14,15,27)          59.6366         calculate D2E/DX2 analytically  !
 ! D58   D(2,14,15,28)         177.3607         calculate D2E/DX2 analytically  !
 ! D59   D(25,14,15,16)        176.2583         calculate D2E/DX2 analytically  !
 ! D60   D(25,14,15,27)        -62.9598         calculate D2E/DX2 analytically  !
 ! D61   D(25,14,15,28)         54.7643         calculate D2E/DX2 analytically  !
 ! D62   D(26,14,15,16)         58.0532         calculate D2E/DX2 analytically  !
 ! D63   D(26,14,15,27)        178.835          calculate D2E/DX2 analytically  !
 ! D64   D(26,14,15,28)        -63.4408         calculate D2E/DX2 analytically  !
 ! D65   D(14,15,16,29)        -71.244          calculate D2E/DX2 analytically  !
 ! D66   D(14,15,16,30)         45.6958         calculate D2E/DX2 analytically  !
 ! D67   D(14,15,16,31)        165.8619         calculate D2E/DX2 analytically  !
 ! D68   D(27,15,16,29)        167.8569         calculate D2E/DX2 analytically  !
 ! D69   D(27,15,16,30)        -75.2034         calculate D2E/DX2 analytically  !
 ! D70   D(27,15,16,31)         44.9627         calculate D2E/DX2 analytically  !
 ! D71   D(28,15,16,29)         50.2621         calculate D2E/DX2 analytically  !
 ! D72   D(28,15,16,30)        167.2018         calculate D2E/DX2 analytically  !
 ! D73   D(28,15,16,31)        -72.632          calculate D2E/DX2 analytically  !
 --------------------------------------------------------------------------------
 Trust Radius=3.00D-01 FncErr=1.00D-07 GrdErr=1.00D-06
 Number of steps in this run=    167 maximum allowed number of steps=    186.
 GradGradGradGradGradGradGradGradGradGradGradGradGradGradGradGradGradGrad

                          Input orientation:                          
 ---------------------------------------------------------------------
 Center     Atomic      Atomic             Coordinates (Angstroms)
 Number     Number       Type             X           Y           Z
 ---------------------------------------------------------------------
      1          8           0       -1.233463    0.122074   -0.842866
      2          6           0       -1.463560   -0.067049    0.349309
      3          7           0       -0.461006   -0.243787    1.229948
      4          6           0        0.906943   -0.337087    0.750784
      5          6           0        1.715938   -0.959856    1.868830
      6          8           0        3.007560   -1.161999    1.523802
      7          8           0        1.280047   -1.241497    2.953289
      8          6           0        1.448272    1.051775    0.324677
      9          6           0        2.326805    0.991563   -0.879167
     10          6           0        2.234402    1.608991   -2.093590
     11          7           0        3.284242    1.230580   -2.913009
     12          6           0        3.989758    0.389487   -2.196781
     13          7           0        3.446464    0.205306   -0.963613
     14          6           0       -2.871056   -0.078694    0.928273
     15          6           0       -3.850202   -0.835119    0.041802
     16          7           0       -3.947238   -0.197765   -1.291964
     17          1           0       -0.630415   -0.513162    2.186204
     18          1           0        0.914972   -1.018186   -0.107783
     19          1           0        3.433214   -1.567928    2.294215
     20          1           0        0.601188    1.686628    0.073553
     21          1           0        1.955185    1.526786    1.165459
     22          1           0        1.478392    2.303420   -2.430909
     23          1           0        4.890020   -0.113984   -2.500014
     24          1           0        3.771180   -0.400440   -0.226888
     25          1           0       -2.851456   -0.510823    1.930199
     26          1           0       -3.193370    0.961642    1.025863
     27          1           0       -3.517783   -1.868848   -0.072974
     28          1           0       -4.834088   -0.860524    0.513026
     29          1           0       -4.440189    0.693039   -1.239695
     30          1           0       -2.984500    0.000168   -1.599192
     31          1           0       -4.406235   -0.794427   -1.979392
 ---------------------------------------------------------------------
                    Distance matrix (angstroms):
                    1          2          3          4          5
     1  O    0.000000
     2  C    1.228818   0.000000
     3  N    2.242121   1.346060   0.000000
     4  C    2.707746   2.419378   1.452442   0.000000
     5  C    4.150040   3.635280   2.379077   1.514048   0.000000
     6  O    5.023568   4.750712   3.600057   2.385504   1.352107
     7  O    4.752668   3.960736   2.645108   2.410020   1.202238
     8  C    3.069071   3.119477   2.478576   1.550336   2.550041
     9  C    3.665083   4.122703   3.707606   2.537333   3.425300
    10  C    3.975087   4.738332   4.663038   3.693214   4.750637
    11  N    5.091555   5.904929   5.776221   4.640313   5.488494
    12  C    5.402465   6.035700   5.652681   4.326638   4.849760
    13  N    4.682224   5.089821   4.503523   3.111674   3.517819
    14  C    2.420527   1.521965   2.434462   3.790982   4.764620
    15  C    2.923385   2.525975   3.639782   4.835403   5.859651
    16  N    2.769217   2.979852   4.303019   5.268330   6.530158
    17  H    3.153167   2.065752   1.007813   2.110665   2.409489
    18  H    2.540927   2.602117   2.069428   1.095946   2.133529
    19  H    5.871563   5.478476   4.248642   3.206118   1.870759
    20  H    2.579457   2.722978   2.488375   2.155818   3.386674
    21  H    4.021699   3.859304   2.996175   2.178253   2.595256
    22  H    3.825481   4.690822   4.863271   4.173967   5.403068
    23  H    6.348141   6.963392   6.524028   5.146102   5.465994
    24  H    5.069408   5.276898   4.478650   3.027161   2.988143
    25  H    3.272362   2.149978   2.505177   3.942939   4.589824
    26  H    2.835183   2.123245   2.993413   4.309864   5.338918
    27  H    3.126439   2.764893   3.698961   4.754268   5.655855
    28  H    3.970950   3.466535   4.474169   5.769745   6.689612
    29  H    3.281245   3.458754   4.776053   5.797843   7.091748
    30  H    1.911288   2.472737   3.798891   4.558449   5.919708
    31  H    3.492585   3.822468   5.115457   5.991067   7.233062
                    6          7          8          9         10
     6  O    0.000000
     7  O    2.243669   0.000000
     8  C    2.961431   3.492421   0.000000
     9  C    3.297805   4.557410   1.491538   0.000000
    10  C    4.621871   5.874272   2.603172   1.365496   0.000000
    11  N    5.048394   6.673936   3.726307   2.260603   1.384487
    12  C    4.149044   6.043663   3.640814   2.205451   2.139886
    13  N    2.872176   4.704118   2.523682   1.370754   2.171699
    14  C    6.007190   4.762821   4.505428   5.606250   6.168115
    15  C    7.023680   5.912813   5.631537   6.506947   6.896085
    16  N    7.564886   6.814401   5.769437   6.399102   6.489965
    17  H    3.754281   2.183749   3.199258   4.517283   5.570220
    18  H    2.657382   3.090843   2.180863   2.574372   3.547730
    19  H    0.969276   2.275316   3.831699   4.224392   5.548225
    20  H    4.001065   4.162649   1.087958   2.090106   2.714761
    21  H    2.909548   3.363858   1.090647   2.145941   3.272021
    22  H    5.476059   6.449447   3.026677   2.201971   1.080540
    23  H    4.564328   6.636392   4.602554   3.227917   3.191572
    24  H    2.056211   4.126336   2.794468   2.109350   3.143895
    25  H    5.909082   4.318555   4.848409   6.079809   6.822789
    26  H    6.573380   5.346051   4.695170   5.839723   6.293708
    27  H    6.754955   5.707102   5.774934   6.556760   7.018966
    28  H    7.912269   6.594140   6.569658   7.526407   7.928209
    29  H    8.157637   7.351507   6.103271   6.783163   6.791044
    30  H    6.856275   6.360282   4.945362   5.450803   5.483582
    31  H    8.208035   7.540890   6.556862   7.052239   7.063110
                   11         12         13         14         15
    11  N    0.000000
    12  C    1.310791   0.000000
    13  N    2.208539   1.360071   0.000000
    14  C    7.372743   7.553537   6.600829   0.000000
    15  C    7.993642   8.244749   7.438728   1.522083   0.000000
    16  N    7.547334   8.009960   7.411957   2.470182   1.481407
    17  H    6.660867   6.432055   5.201778   2.606074   3.881899
    18  H    4.305773   3.974891   2.939018   4.036095   4.771035
    19  H    5.913461   4.930543   3.709175   6.620229   7.658885
    20  H    4.040583   4.280117   3.371294   3.987905   5.116160
    21  H    4.299771   4.091160   2.916020   5.091800   6.367395
    22  H    2.155110   3.166214   3.229295   5.989680   6.660228
    23  H    2.134699   1.075130   2.132212   8.484615   9.130846
    24  H    3.180028   2.133598   1.007538   6.749608   7.638495
    25  H    8.008491   8.040194   6.967839   1.091319   2.160719
    26  H    7.585940   7.893676   6.972622   1.093485   2.151315
    27  H    7.996236   8.122425   7.320934   2.150675   1.091912
    28  H    9.056363   9.314818   8.478443   2.153412   1.091205
    29  H    7.921853   8.489532   7.906541   2.785289   2.079804
    30  H    6.522051   7.010631   6.465550   2.531239   2.034701
    31  H    8.007230   8.481840   7.980987   3.365050   2.096677
                   16         17         18         19         20
    16  N    0.000000
    17  H    4.816476   0.000000
    18  H    5.071140   2.811699   0.000000
    19  H    8.319200   4.199676   3.523259   0.000000
    20  H    5.109184   3.289258   2.728985   4.852200   0.000000
    21  H    6.622054   3.447990   3.029863   3.610528   1.746744
    22  H    6.081988   5.804992   4.092361   6.413693   2.724381
    23  H    8.919839   7.252254   4.726664   5.217362   5.315969
    24  H    7.794192   5.020932   2.924674   2.798787   3.807225
    25  H    3.417760   2.235747   4.312397   6.383341   4.494071
    26  H    2.699049   3.176503   4.699292   7.205488   3.978840
    27  H    2.112555   3.908793   4.513774   7.349183   5.443235
    28  H    2.117485   4.537736   5.784631   8.486539   6.018584
    29  H    1.019443   5.263656   5.734742   8.921377   5.303520
    30  H    1.029773   4.487142   4.297351   7.668415   4.301091
    31  H    1.019432   5.629220   5.645196   8.962086   5.953529
                   21         22         23         24         25
    21  H    0.000000
    22  H    3.710034   0.000000
    23  H    4.974040   4.181844   0.000000
    24  H    2.991767   4.174379   2.549698   0.000000
    25  H    5.276407   6.759202   8.928309   6.965953   0.000000
    26  H    5.181360   5.964478   8.884254   7.206220   1.761501
    27  H    6.558767   6.923109   8.925313   7.436994   2.510164
    28  H    7.226282   7.650144  10.207546   8.649265   2.462012
    29  H    6.883364   6.248353   9.449470   8.345540   3.744541
    30  H    5.862964   5.090592   7.926700   6.905281   3.568672
    31  H    7.466310   6.665535   9.335652   8.372372   4.216951
                   26         27         28         29         30
    26  H    0.000000
    27  H    3.053582   0.000000
    28  H    2.505045   1.758628   0.000000
    29  H    2.599896   2.962319   2.375024   0.000000
    30  H    2.803386   2.471225   2.936534   1.651768   0.000000
    31  H    3.685971   2.361813   2.529738   1.661583   1.672503
                   31
    31  H    0.000000
 Symmetry turned off by external request.
 Stoichiometry    C9H15N4O3(1+)
 Framework group  C1[X(C9H15N4O3)]
 Deg. of freedom    87
 Full point group                 C1      NOp   1
 Rotational constants (GHZ):      0.7088180      0.3127596      0.2291588
 Standard basis: 6-31+G(d,p) (6D, 7F)
   379 basis functions,   617 primitive gaussians,   379 cartesian basis functions
    60 alpha electrons       60 beta electrons
       nuclear repulsion energy      1138.6918025008 Hartrees.
 NAtoms=   31 NActive=   31 NUniq=   31 SFac= 1.00D+00 NAtFMM=   60 NAOKFM=F Big=F
 Integral buffers will be    131072 words long.
 Raffenetti 2 integral format.
 Two-electron integral symmetry is turned off.
 One-electron integrals computed using PRISM.
 NBasis=   379 RedAO= T EigKep=  7.42D-06  NBF=   379
 NBsUse=   379 1.00D-06 EigRej= -1.00D+00 NBFU=   379
 ExpMin= 4.38D-02 ExpMax= 5.48D+03 ExpMxC= 8.25D+02 IAcc=3 IRadAn=         5 AccDes= 0.00D+00
 Harris functional with IExCor=  402 and IRadAn=       5 diagonalized for initial guess.
 HarFok:  IExCor=  402 AccDes= 0.00D+00 IRadAn=         5 IDoV= 1 UseB2=F ITyADJ=14
 ICtDFT=  3500011 ScaDFX=  1.000000  1.000000  1.000000  1.000000
 FoFCou: FMM=F IPFlag=           0 FMFlag=      100000 FMFlg1=           0
         NFxFlg=           0 DoJE=T BraDBF=F KetDBF=T FulRan=T
         wScrn=  0.000000 ICntrl=     500 IOpCl=  0 I1Cent=   200000004 NGrid=           0
         NMat0=    1 NMatS0=      1 NMatT0=    0 NMatD0=    1 NMtDS0=    0 NMtDT0=    0
 Symmetry not used in FoFCou.
 Requested convergence on RMS density matrix=1.00D-08 within 128 cycles.
 Requested convergence on MAX density matrix=1.00D-06.
 Requested convergence on             energy=1.00D-06.
 No special actions if energy rises.
 SCF Done:  E(RB3LYP) =  -796.522658174     A.U. after   14 cycles
            NFock= 14  Conv=0.76D-08     -V/T= 2.0088
 DoSCS=F DFT=T ScalE2(SS,OS)=  1.000000  1.000000
 Range of M.O.s used for correlation:     1   379
 NBasis=   379 NAE=    60 NBE=    60 NFC=     0 NFV=     0
 NROrb=    379 NOA=    60 NOB=    60 NVA=   319 NVB=   319

 **** Warning!!: The largest alpha MO coefficient is  0.10551530D+03

 Symmetrizing basis deriv contribution to polar:
 IMax=3 JMax=2 DiffMx= 0.00D+00
 G2DrvN: will do    32 centers at a time, making    1 passes.
 Calling FoFCou, ICntrl=  3107 FMM=F I1Cent=   0 AccDes= 0.00D+00.
 End of G2Drv F.D. properties file   721 does not exist.
 End of G2Drv F.D. properties file   722 does not exist.
 End of G2Drv F.D. properties file   788 does not exist.
          IDoAtm=1111111111111111111111111111111
          Differentiating once with respect to nuclear coordinates.
          There are    96 degrees of freedom in the 1st order CPHF.  IDoFFX=6 NUNeed=     0.
     90 vectors produced by pass  0 Test12= 1.99D-14 1.04D-09 XBig12= 1.60D-01 8.76D-02.
 AX will form    90 AO Fock derivatives at one time.
     90 vectors produced by pass  1 Test12= 1.99D-14 1.04D-09 XBig12= 1.67D-02 4.87D-02.
     90 vectors produced by pass  2 Test12= 1.99D-14 1.04D-09 XBig12= 1.86D-04 2.29D-03.
     90 vectors produced by pass  3 Test12= 1.99D-14 1.04D-09 XBig12= 8.80D-07 1.16D-04.
     90 vectors produced by pass  4 Test12= 1.99D-14 1.04D-09 XBig12= 2.01D-09 4.13D-06.
     79 vectors produced by pass  5 Test12= 1.99D-14 1.04D-09 XBig12= 2.79D-12 1.68D-07.
     20 vectors produced by pass  6 Test12= 1.99D-14 1.04D-09 XBig12= 3.11D-15 3.94D-09.
      7 vectors produced by pass  7 Test12= 1.99D-14 1.04D-09 XBig12= 7.01D-16 2.35D-09.
      7 vectors produced by pass  8 Test12= 1.99D-14 1.04D-09 XBig12= 2.34D-15 5.10D-09.
      5 vectors produced by pass  9 Test12= 1.99D-14 1.04D-09 XBig12= 2.80D-15 4.44D-09.
      4 vectors produced by pass 10 Test12= 1.99D-14 1.04D-09 XBig12= 1.88D-15 3.58D-09.
      3 vectors produced by pass 11 Test12= 1.99D-14 1.04D-09 XBig12= 1.69D-15 4.18D-09.
      3 vectors produced by pass 12 Test12= 1.99D-14 1.04D-09 XBig12= 1.80D-15 3.74D-09.
      3 vectors produced by pass 13 Test12= 1.99D-14 1.04D-09 XBig12= 3.50D-15 6.30D-09.
      2 vectors produced by pass 14 Test12= 1.99D-14 1.04D-09 XBig12= 2.01D-15 3.70D-09.
 InvSVY:  IOpt=1 It=  1 EMax= 6.11D-16
 Solved reduced A of dimension   583 with    96 vectors.
 End of Minotr F.D. properties file   721 does not exist.
 End of Minotr F.D. properties file   722 does not exist.
 End of Minotr F.D. properties file   788 does not exist.

 **********************************************************************

            Population analysis using the SCF density.

 **********************************************************************

 Alpha  occ. eigenvalues --  -19.34325 -19.29301 -19.29058 -14.64371 -14.51968
 Alpha  occ. eigenvalues --  -14.46977 -14.39274 -10.46559 -10.45733 -10.43711
 Alpha  occ. eigenvalues --  -10.38303 -10.37983 -10.31899 -10.31627 -10.30522
 Alpha  occ. eigenvalues --  -10.27821  -1.25618  -1.21796  -1.19489  -1.16883
 Alpha  occ. eigenvalues --   -1.09996  -1.08757  -0.97684  -0.95362  -0.92392
 Alpha  occ. eigenvalues --   -0.86324  -0.84268  -0.78811  -0.78371  -0.77769
 Alpha  occ. eigenvalues --   -0.75820  -0.73425  -0.70050  -0.69707  -0.67792
 Alpha  occ. eigenvalues --   -0.67151  -0.64934  -0.62980  -0.62451  -0.62248
 Alpha  occ. eigenvalues --   -0.60799  -0.59593  -0.58878  -0.57436  -0.56439
 Alpha  occ. eigenvalues --   -0.55682  -0.55011  -0.52866  -0.51788  -0.50647
 Alpha  occ. eigenvalues --   -0.49687  -0.49489  -0.48565  -0.46681  -0.43424
 Alpha  occ. eigenvalues --   -0.42306  -0.42009  -0.36082  -0.34549  -0.31059
 Alpha virt. eigenvalues --   -0.17999  -0.15117  -0.13601  -0.13075  -0.12525
 Alpha virt. eigenvalues --   -0.11238  -0.09940  -0.09529  -0.08299  -0.07411
 Alpha virt. eigenvalues --   -0.06965  -0.06824  -0.06332  -0.05775  -0.05109
 Alpha virt. eigenvalues --   -0.04819  -0.03610  -0.03517  -0.03266  -0.02609
 Alpha virt. eigenvalues --   -0.02185  -0.01701  -0.01536  -0.00999  -0.00821
 Alpha virt. eigenvalues --   -0.00413   0.00197   0.00638   0.01039   0.01641
 Alpha virt. eigenvalues --    0.02278   0.02559   0.02723   0.03981   0.04035
 Alpha virt. eigenvalues --    0.04414   0.05141   0.05352   0.06548   0.06896
 Alpha virt. eigenvalues --    0.07089   0.07413   0.07854   0.08053   0.08469
 Alpha virt. eigenvalues --    0.09623   0.09893   0.09998   0.10616   0.10809
 Alpha virt. eigenvalues --    0.11009   0.11279   0.11850   0.12520   0.13177
 Alpha virt. eigenvalues --    0.13435   0.13737   0.14152   0.14520   0.15246
 Alpha virt. eigenvalues --    0.15523   0.16587   0.16864   0.17176   0.17401
 Alpha virt. eigenvalues --    0.18060   0.18511   0.19015   0.19551   0.19854
 Alpha virt. eigenvalues --    0.19960   0.20214   0.20898   0.21543   0.21874
 Alpha virt. eigenvalues --    0.22526   0.22819   0.23271   0.23869   0.23995
 Alpha virt. eigenvalues --    0.25132   0.25608   0.26345   0.26950   0.27815
 Alpha virt. eigenvalues --    0.28629   0.29261   0.29286   0.30340   0.31302
 Alpha virt. eigenvalues --    0.32393   0.33086   0.34810   0.37251   0.38353
 Alpha virt. eigenvalues --    0.39412   0.40935   0.42363   0.44250   0.45080
 Alpha virt. eigenvalues --    0.46538   0.49769   0.53179   0.54446   0.55805
 Alpha virt. eigenvalues --    0.57445   0.59061   0.60286   0.61119   0.62736
 Alpha virt. eigenvalues --    0.63894   0.64317   0.64752   0.65746   0.67737
 Alpha virt. eigenvalues --    0.68372   0.70421   0.70732   0.71297   0.72462
 Alpha virt. eigenvalues --    0.73334   0.73862   0.75766   0.76858   0.77338
 Alpha virt. eigenvalues --    0.78726   0.79638   0.81180   0.81598   0.83031
 Alpha virt. eigenvalues --    0.83351   0.85519   0.85773   0.86807   0.87572
 Alpha virt. eigenvalues --    0.89208   0.90251   0.92158   0.93190   0.93467
 Alpha virt. eigenvalues --    0.95263   0.95415   0.95612   0.97554   0.98456
 Alpha virt. eigenvalues --    0.99405   1.00542   1.01981   1.02102   1.03840
 Alpha virt. eigenvalues --    1.05390   1.06363   1.08560   1.09455   1.10404
 Alpha virt. eigenvalues --    1.12863   1.13762   1.15595   1.16163   1.17291
 Alpha virt. eigenvalues --    1.17726   1.18020   1.19173   1.19808   1.21125
 Alpha virt. eigenvalues --    1.22252   1.22792   1.23863   1.24958   1.26975
 Alpha virt. eigenvalues --    1.27933   1.29301   1.29539   1.31285   1.32815
 Alpha virt. eigenvalues --    1.33815   1.37449   1.38960   1.39853   1.41041
 Alpha virt. eigenvalues --    1.42675   1.44129   1.45932   1.48095   1.48334
 Alpha virt. eigenvalues --    1.50676   1.51144   1.54208   1.57577   1.57755
 Alpha virt. eigenvalues --    1.60279   1.62923   1.65114   1.66188   1.67385
 Alpha virt. eigenvalues --    1.68037   1.68521   1.69823   1.70710   1.71064
 Alpha virt. eigenvalues --    1.72081   1.74623   1.76270   1.77386   1.79001
 Alpha virt. eigenvalues --    1.80032   1.81070   1.82233   1.82886   1.84234
 Alpha virt. eigenvalues --    1.85073   1.88791   1.89304   1.91980   1.92711
 Alpha virt. eigenvalues --    1.94842   1.96144   1.98572   1.99201   2.01466
 Alpha virt. eigenvalues --    2.02732   2.03570   2.04304   2.04674   2.07625
 Alpha virt. eigenvalues --    2.08913   2.09562   2.11403   2.12085   2.13026
 Alpha virt. eigenvalues --    2.13681   2.16288   2.18371   2.19156   2.19945
 Alpha virt. eigenvalues --    2.21450   2.23689   2.25505   2.27870   2.29150
 Alpha virt. eigenvalues --    2.30277   2.32412   2.33570   2.35965   2.37919
 Alpha virt. eigenvalues --    2.38482   2.38671   2.41391   2.42949   2.44085
 Alpha virt. eigenvalues --    2.44593   2.45514   2.47998   2.49768   2.50413
 Alpha virt. eigenvalues --    2.50735   2.51692   2.52920   2.55089   2.56152
 Alpha virt. eigenvalues --    2.56783   2.58668   2.59212   2.60545   2.61652
 Alpha virt. eigenvalues --    2.64360   2.65245   2.66257   2.68905   2.70665
 Alpha virt. eigenvalues --    2.71688   2.72642   2.74642   2.76391   2.78095
 Alpha virt. eigenvalues --    2.79454   2.80990   2.81592   2.86612   2.88337
 Alpha virt. eigenvalues --    2.93683   2.94415   2.96761   2.98083   3.03097
 Alpha virt. eigenvalues --    3.06071   3.08896   3.12594   3.13874   3.16924
 Alpha virt. eigenvalues --    3.18845   3.21022   3.22560   3.25918   3.28833
 Alpha virt. eigenvalues --    3.32159   3.33331   3.38045   3.39839   3.44452
 Alpha virt. eigenvalues --    3.48653   3.52275   3.68236   3.99738   4.11961
 Alpha virt. eigenvalues --    4.15197   4.18985   4.24315   4.25646   4.28981
 Alpha virt. eigenvalues --    4.31362   4.36028   4.44101   4.46034   4.51976
 Alpha virt. eigenvalues --    4.54773   4.62369   4.66497   4.74139
          Condensed to atoms (all electrons):
               1          2          3          4          5          6
     1  O    8.307164   0.367725  -0.151628   0.033213  -0.009043   0.000031
     2  C    0.367725   7.000525  -0.053981  -0.001278  -0.194808   0.007956
     3  N   -0.151628  -0.053981   7.331522  -0.228946   0.105134   0.022969
     4  C    0.033213  -0.001278  -0.228946  10.339201  -2.361221  -0.068203
     5  C   -0.009043  -0.194808   0.105134  -2.361221   7.257377   0.005096
     6  O    0.000031   0.007956   0.022969  -0.068203   0.005096   8.408595
     7  O   -0.000027   0.043496   0.018788  -0.146831   0.452587  -0.139341
     8  C   -0.125198  -0.195831   0.021508   0.175010   0.074085  -0.004731
     9  C    0.075108  -0.051742   0.136421  -1.191680   0.029187   0.063696
    10  C   -0.022127  -0.103451   0.020418   0.101802   0.043709   0.002507
    11  N    0.000003   0.003583   0.001175  -0.013349  -0.004689  -0.000677
    12  C    0.000386   0.002577   0.006725  -0.069425   0.007046  -0.007985
    13  N   -0.000351  -0.022475  -0.000608  -0.058924   0.077813   0.009193
    14  C   -0.011367  -0.741031  -0.265028  -0.280093  -0.208079  -0.000332
    15  C    0.044414  -0.275496   0.051842   0.021278  -0.009955  -0.000040
    16  N   -0.066661   0.044472  -0.018397  -0.008405  -0.001199  -0.000022
    17  H    0.007770  -0.010111   0.279334   0.029751  -0.041403   0.001717
    18  H    0.007692   0.031666  -0.060638   0.417888  -0.130626   0.003775
    19  H   -0.000006  -0.002460  -0.002072   0.029423   0.014474   0.199363
    20  H    0.000012  -0.005703  -0.008843   0.001412  -0.018365   0.000327
    21  H    0.000284  -0.000241   0.009564  -0.114409   0.033241   0.002866
    22  H    0.000028   0.000661  -0.000287   0.013467  -0.000877  -0.000036
    23  H    0.000003  -0.000102  -0.000023   0.003221  -0.001433  -0.000456
    24  H   -0.000018   0.001801  -0.000353   0.014185  -0.007792   0.001390
    25  H    0.004248   0.000442  -0.003711   0.008822  -0.002063   0.000001
    26  H    0.004495  -0.097952  -0.001650  -0.005235  -0.000458  -0.000002
    27  H    0.001902   0.012966   0.002328   0.006100   0.000716   0.000000
    28  H   -0.001891   0.014320  -0.000434  -0.000451  -0.000120   0.000000
    29  H    0.002306  -0.002933   0.000024   0.000380  -0.000015   0.000000
    30  H    0.064109   0.035404   0.007797   0.000419  -0.001065   0.000000
    31  H    0.003120  -0.003934   0.000335   0.000629   0.000071   0.000000
               7          8          9         10         11         12
     1  O   -0.000027  -0.125198   0.075108  -0.022127   0.000003   0.000386
     2  C    0.043496  -0.195831  -0.051742  -0.103451   0.003583   0.002577
     3  N    0.018788   0.021508   0.136421   0.020418   0.001175   0.006725
     4  C   -0.146831   0.175010  -1.191680   0.101802  -0.013349  -0.069425
     5  C    0.452587   0.074085   0.029187   0.043709  -0.004689   0.007046
     6  O   -0.139341  -0.004731   0.063696   0.002507  -0.000677  -0.007985
     7  O    8.196141  -0.038369   0.008950   0.001940  -0.000024   0.000212
     8  C   -0.038369   8.316863  -2.188856  -0.231854  -0.051839  -0.014846
     9  C    0.008950  -2.188856   9.573122  -0.877311  -0.132539   0.083930
    10  C    0.001940  -0.231854  -0.877311   7.032832   0.437431  -0.527656
    11  N   -0.000024  -0.051839  -0.132539   0.437431   6.758626   0.418609
    12  C    0.000212  -0.014846   0.083930  -0.527656   0.418609   5.302625
    13  N   -0.000908  -0.134752   0.300555  -0.110488  -0.022840   0.091334
    14  C    0.007701  -0.130017   0.162312  -0.030626   0.001158   0.004355
    15  C    0.001252   0.026631  -0.000667   0.005088   0.000004   0.000123
    16  N   -0.000019  -0.002892  -0.002883  -0.002527   0.000008  -0.000047
    17  H    0.018885   0.000867  -0.009793  -0.000320  -0.000008  -0.000118
    18  H    0.004415  -0.019350   0.029623  -0.009847  -0.001338  -0.006632
    19  H    0.004938   0.000388  -0.008900  -0.001172   0.000016  -0.000364
    20  H   -0.000027   0.456324  -0.116173   0.016721  -0.000679  -0.005855
    21  H    0.001570   0.485605  -0.093685  -0.009619  -0.002037  -0.006954
    22  H   -0.000003   0.050672  -0.100917   0.372733  -0.062756   0.025364
    23  H   -0.000001   0.019548   0.039175  -0.034923  -0.051132   0.442946
    24  H    0.000352  -0.065615   0.095596  -0.004660   0.008978  -0.026578
    25  H   -0.000244  -0.001771  -0.001624   0.000063   0.000000  -0.000010
    26  H   -0.000020   0.003865  -0.001159   0.000055  -0.000001  -0.000004
    27  H   -0.000005   0.000128  -0.000284   0.000023   0.000000   0.000002
    28  H    0.000001   0.000040   0.000029  -0.000009   0.000000   0.000000
    29  H    0.000000   0.000289  -0.000102   0.000021   0.000000   0.000000
    30  H    0.000000   0.001152  -0.000036   0.001032  -0.000005  -0.000044
    31  H    0.000000  -0.000105   0.000106   0.000064   0.000000   0.000002
              13         14         15         16         17         18
     1  O   -0.000351  -0.011367   0.044414  -0.066661   0.007770   0.007692
     2  C   -0.022475  -0.741031  -0.275496   0.044472  -0.010111   0.031666
     3  N   -0.000608  -0.265028   0.051842  -0.018397   0.279334  -0.060638
     4  C   -0.058924  -0.280093   0.021278  -0.008405   0.029751   0.417888
     5  C    0.077813  -0.208079  -0.009955  -0.001199  -0.041403  -0.130626
     6  O    0.009193  -0.000332  -0.000040  -0.000022   0.001717   0.003775
     7  O   -0.000908   0.007701   0.001252  -0.000019   0.018885   0.004415
     8  C   -0.134752  -0.130017   0.026631  -0.002892   0.000867  -0.019350
     9  C    0.300555   0.162312  -0.000667  -0.002883  -0.009793   0.029623
    10  C   -0.110488  -0.030626   0.005088  -0.002527  -0.000320  -0.009847
    11  N   -0.022840   0.001158   0.000004   0.000008  -0.000008  -0.001338
    12  C    0.091334   0.004355   0.000123  -0.000047  -0.000118  -0.006632
    13  N    7.019531  -0.002416   0.000138  -0.000015  -0.000076  -0.006414
    14  C   -0.002416   6.968916   0.163574  -0.055478   0.027214   0.019718
    15  C    0.000138   0.163574   5.425706   0.044141  -0.002822  -0.001624
    16  N   -0.000015  -0.055478   0.044141   6.879844   0.000409   0.000091
    17  H   -0.000076   0.027214  -0.002822   0.000409   0.357693   0.003282
    18  H   -0.006414   0.019718  -0.001624   0.000091   0.003282   0.510881
    19  H    0.002075  -0.000234   0.000018   0.000000  -0.000046  -0.000196
    20  H    0.005349   0.002312   0.001658  -0.000152   0.000140  -0.000862
    21  H   -0.003239  -0.003829  -0.000380   0.000007  -0.000169   0.004209
    22  H    0.002450  -0.000059   0.000053  -0.000011   0.000000  -0.000021
    23  H   -0.112007  -0.000010   0.000001   0.000000   0.000000  -0.000003
    24  H    0.260385   0.000140  -0.000017   0.000000   0.000001   0.000200
    25  H   -0.000002   0.348245  -0.022250   0.008370   0.002051   0.000002
    26  H    0.000002   0.461213  -0.055626   0.008423   0.000033  -0.000025
    27  H    0.000002  -0.053588   0.400594  -0.037417  -0.000003  -0.000015
    28  H    0.000000  -0.049367   0.406610  -0.029092  -0.000003   0.000000
    29  H    0.000000  -0.009655  -0.006060   0.311561  -0.000001   0.000000
    30  H   -0.000020  -0.051850  -0.013503   0.250543  -0.000041   0.000007
    31  H    0.000000   0.017435  -0.015949   0.294833   0.000000   0.000000
              19         20         21         22         23         24
     1  O   -0.000006   0.000012   0.000284   0.000028   0.000003  -0.000018
     2  C   -0.002460  -0.005703  -0.000241   0.000661  -0.000102   0.001801
     3  N   -0.002072  -0.008843   0.009564  -0.000287  -0.000023  -0.000353
     4  C    0.029423   0.001412  -0.114409   0.013467   0.003221   0.014185
     5  C    0.014474  -0.018365   0.033241  -0.000877  -0.001433  -0.007792
     6  O    0.199363   0.000327   0.002866  -0.000036  -0.000456   0.001390
     7  O    0.004938  -0.000027   0.001570  -0.000003  -0.000001   0.000352
     8  C    0.000388   0.456324   0.485605   0.050672   0.019548  -0.065615
     9  C   -0.008900  -0.116173  -0.093685  -0.100917   0.039175   0.095596
    10  C   -0.001172   0.016721  -0.009619   0.372733  -0.034923  -0.004660
    11  N    0.000016  -0.000679  -0.002037  -0.062756  -0.051132   0.008978
    12  C   -0.000364  -0.005855  -0.006954   0.025364   0.442946  -0.026578
    13  N    0.002075   0.005349  -0.003239   0.002450  -0.112007   0.260385
    14  C   -0.000234   0.002312  -0.003829  -0.000059  -0.000010   0.000140
    15  C    0.000018   0.001658  -0.000380   0.000053   0.000001  -0.000017
    16  N    0.000000  -0.000152   0.000007  -0.000011   0.000000   0.000000
    17  H   -0.000046   0.000140  -0.000169   0.000000   0.000000   0.000001
    18  H   -0.000196  -0.000862   0.004209  -0.000021  -0.000003   0.000200
    19  H    0.341155   0.000009  -0.000104   0.000000  -0.000001   0.000300
    20  H    0.000009   0.527267  -0.027790   0.002197   0.000004  -0.000074
    21  H   -0.000104  -0.027790   0.545236  -0.000077  -0.000003   0.000595
    22  H    0.000000   0.002197  -0.000077   0.572613  -0.000037  -0.000088
    23  H   -0.000001   0.000004  -0.000003  -0.000037   0.550340   0.000408
    24  H    0.000300  -0.000074   0.000595  -0.000088   0.000408   0.392858
    25  H    0.000000  -0.000004   0.000000   0.000000   0.000000   0.000000
    26  H    0.000000   0.000047  -0.000005   0.000000   0.000000   0.000000
    27  H    0.000000   0.000000   0.000000   0.000000   0.000000   0.000000
    28  H    0.000000   0.000000   0.000000   0.000000   0.000000   0.000000
    29  H    0.000000   0.000000   0.000000   0.000000   0.000000   0.000000
    30  H    0.000000  -0.000013   0.000000   0.000000   0.000000   0.000000
    31  H    0.000000   0.000000   0.000000   0.000000   0.000000   0.000000
              25         26         27         28         29         30
     1  O    0.004248   0.004495   0.001902  -0.001891   0.002306   0.064109
     2  C    0.000442  -0.097952   0.012966   0.014320  -0.002933   0.035404
     3  N   -0.003711  -0.001650   0.002328  -0.000434   0.000024   0.007797
     4  C    0.008822  -0.005235   0.006100  -0.000451   0.000380   0.000419
     5  C   -0.002063  -0.000458   0.000716  -0.000120  -0.000015  -0.001065
     6  O    0.000001  -0.000002   0.000000   0.000000   0.000000   0.000000
     7  O   -0.000244  -0.000020  -0.000005   0.000001   0.000000   0.000000
     8  C   -0.001771   0.003865   0.000128   0.000040   0.000289   0.001152
     9  C   -0.001624  -0.001159  -0.000284   0.000029  -0.000102  -0.000036
    10  C    0.000063   0.000055   0.000023  -0.000009   0.000021   0.001032
    11  N    0.000000  -0.000001   0.000000   0.000000   0.000000  -0.000005
    12  C   -0.000010  -0.000004   0.000002   0.000000   0.000000  -0.000044
    13  N   -0.000002   0.000002   0.000002   0.000000   0.000000  -0.000020
    14  C    0.348245   0.461213  -0.053588  -0.049367  -0.009655  -0.051850
    15  C   -0.022250  -0.055626   0.400594   0.406610  -0.006060  -0.013503
    16  N    0.008370   0.008423  -0.037417  -0.029092   0.311561   0.250543
    17  H    0.002051   0.000033  -0.000003  -0.000003  -0.000001  -0.000041
    18  H    0.000002  -0.000025  -0.000015   0.000000   0.000000   0.000007
    19  H    0.000000   0.000000   0.000000   0.000000   0.000000   0.000000
    20  H   -0.000004   0.000047   0.000000   0.000000   0.000000  -0.000013
    21  H    0.000000  -0.000005   0.000000   0.000000   0.000000   0.000000
    22  H    0.000000   0.000000   0.000000   0.000000   0.000000   0.000000
    23  H    0.000000   0.000000   0.000000   0.000000   0.000000   0.000000
    24  H    0.000000   0.000000   0.000000   0.000000   0.000000   0.000000
    25  H    0.491060  -0.017386  -0.001957  -0.003374  -0.000061   0.000233
    26  H   -0.017386   0.494153   0.003787  -0.003767   0.002299  -0.001167
    27  H   -0.001957   0.003787   0.474827  -0.024456   0.003638  -0.003082
    28  H   -0.003374  -0.003767  -0.024456   0.481894  -0.005401   0.003397
    29  H   -0.000061   0.002299   0.003638  -0.005401   0.333266  -0.015475
    30  H    0.000233  -0.001167  -0.003082   0.003397  -0.015475   0.298271
    31  H   -0.000101  -0.000017  -0.003002  -0.001754  -0.013283  -0.009998
              31
     1  O    0.003120
     2  C   -0.003934
     3  N    0.000335
     4  C    0.000629
     5  C    0.000071
     6  O    0.000000
     7  O    0.000000
     8  C   -0.000105
     9  C    0.000106
    10  C    0.000064
    11  N    0.000000
    12  C    0.000002
    13  N    0.000000
    14  C    0.017435
    15  C   -0.015949
    16  N    0.294833
    17  H    0.000000
    18  H    0.000000
    19  H    0.000000
    20  H    0.000000
    21  H    0.000000
    22  H    0.000000
    23  H    0.000000
    24  H    0.000000
    25  H   -0.000101
    26  H   -0.000017
    27  H   -0.003002
    28  H   -0.001754
    29  H   -0.013283
    30  H   -0.009998
    31  H    0.333699
 Mulliken charges:
               1
     1  O   -0.535696
     2  C    0.195933
     3  N   -0.219285
     4  C   -0.647750
     5  C    0.892678
     6  O   -0.507660
     7  O   -0.435412
     8  C   -0.426949
     9  C    0.180542
    10  C   -0.069848
    11  N   -0.285678
    12  C    0.280282
    13  N   -0.293293
    14  C   -0.291236
    15  C   -0.188733
    16  N   -0.617485
    17  H    0.335765
    18  H    0.204142
    19  H    0.423396
    20  H    0.170760
    21  H    0.179364
    22  H    0.124931
    23  H    0.144484
    24  H    0.328007
    25  H    0.191021
    26  H    0.206103
    27  H    0.216797
    28  H    0.213829
    29  H    0.399202
    30  H    0.433936
    31  H    0.397851
 Sum of Mulliken charges =   1.00000
 Mulliken charges with hydrogens summed into heavy atoms:
               1
     1  O   -0.535696
     2  C    0.195933
     3  N    0.116480
     4  C   -0.443609
     5  C    0.892678
     6  O   -0.084264
     7  O   -0.435412
     8  C   -0.076825
     9  C    0.180542
    10  C    0.055084
    11  N   -0.285678
    12  C    0.424766
    13  N    0.034714
    14  C    0.105888
    15  C    0.241893
    16  N    0.613505
 APT charges:
               1
     1  O   -0.691528
     2  C    0.415802
     3  N   -0.612735
     4  C   -0.730207
     5  C    0.318197
     6  O   -0.844956
     7  O   -0.065217
     8  C   -1.054783
     9  C   -0.301213
    10  C   -0.024357
    11  N   -0.384127
    12  C   -0.351599
    13  N   -0.491900
    14  C   -0.877973
    15  C   -1.044631
    16  N   -1.244118
    17  H    0.717747
    18  H    0.310853
    19  H    1.120622
    20  H    0.259405
    21  H    0.551406
    22  H    0.377330
    23  H    1.034232
    24  H    0.503921
    25  H    0.473573
    26  H    0.474654
    27  H    0.310570
    28  H    0.924131
    29  H    0.820607
    30  H    0.064443
    31  H    1.041852
 Sum of APT charges =   1.00000
 APT charges with hydrogens summed into heavy atoms:
               1
     1  O   -0.691528
     2  C    0.415802
     3  N    0.105012
     4  C   -0.419353
     5  C    0.318197
     6  O    0.275665
     7  O   -0.065217
     8  C   -0.243972
     9  C   -0.301213
    10  C    0.352973
    11  N   -0.384127
    12  C    0.682634
    13  N    0.012020
    14  C    0.070254
    15  C    0.190070
    16  N    0.682784
 Electronic spatial extent (au):  <R**2>=           4698.2420
 Charge=              1.0000 electrons
 Dipole moment (field-independent basis, Debye):
    X=            -14.4229    Y=             -3.5958    Z=              1.9916  Tot=             14.9972
 Quadrupole moment (field-independent basis, Debye-Ang):
   XX=             -6.3616   YY=            -88.5092   ZZ=            -96.7009
   XY=             -7.0474   XZ=             28.1272   YZ=              5.3105
 Traceless Quadrupole moment (field-independent basis, Debye-Ang):
   XX=             57.4957   YY=            -24.6520   ZZ=            -32.8437
   XY=             -7.0474   XZ=             28.1272   YZ=              5.3105
 Octapole moment (field-independent basis, Debye-Ang**2):
  XXX=           -377.4969  YYY=            -17.4086  ZZZ=             48.0965  XYY=            -68.9936
  XXY=            -73.4659  XXZ=            -13.0506  XZZ=           -118.0354  YZZ=            -23.1836
  YYZ=             13.6902  XYZ=              9.6172
 Hexadecapole moment (field-independent basis, Debye-Ang**3):
 XXXX=          -2351.2871 YYYY=           -520.9831 ZZZZ=          -1728.1797 XXXY=           -334.2393
 XXXZ=            676.0251 YYYX=           -218.8111 YYYZ=            282.0348 ZZZX=            460.7968
 ZZZY=            373.3513 XXYY=           -710.5755 XXZZ=           -778.3625 YYZZ=           -357.1936
 XXYZ=            144.8121 YYXZ=            147.2856 ZZXY=           -143.7479
 N-N= 1.138691802501D+03 E-N=-4.117743606425D+03  KE= 7.895437828737D+02
  Exact polarizability:   0.000   0.000   0.000   0.000   0.000   0.000
 Approx polarizability: 201.298 -17.891 161.043  -9.456 -22.326 225.725
 Calling FoFJK, ICntrl=    100147 FMM=F ISym2X=0 I1Cent= 0 IOpClX= 0 NMat=1 NMatS=1 NMatT=0.
 -------------------------------------------------------------------
 Center     Atomic                   Forces (Hartrees/Bohr)
 Number     Number              X              Y              Z
 -------------------------------------------------------------------
      1        8          -0.013118077    0.001156695   -0.026091991
      2        6           0.007895205   -0.003182121    0.025725960
      3        7          -0.006540056   -0.002561661   -0.005621964
      4        6          -0.002205382    0.000211960    0.001840218
      5        6           0.008617818    0.001408639   -0.011232345
      6        8          -0.005695408   -0.000026372    0.000518333
      7        8          -0.007661196   -0.003691471    0.014066913
      8        6           0.005899967    0.001503884   -0.006662199
      9        6          -0.007023538    0.001339004    0.005848881
     10        6           0.003566293    0.003465568   -0.012252955
     11        7          -0.005787778    0.005506948   -0.001745714
     12        6           0.001266596   -0.001087271   -0.001733820
     13        7           0.006169113   -0.004465685    0.006460973
     14        6           0.004394281    0.005619777   -0.001201634
     15        6          -0.000749947   -0.012448362    0.022442439
     16        7          -0.003816983    0.001426627   -0.006100373
     17        1          -0.000513369   -0.000916729    0.006790213
     18        1           0.002309948    0.001527333   -0.001514652
     19        1           0.005603991   -0.001878802    0.003059007
     20        1          -0.001861773    0.000549235   -0.000311952
     21        1           0.001741123    0.001303290    0.004565603
     22        1          -0.000031118    0.000625687   -0.000219950
     23        1           0.003471683   -0.001657982   -0.002834605
     24        1           0.003786688   -0.000971680    0.000133818
     25        1          -0.005124284   -0.001134102    0.000354474
     26        1          -0.001042078    0.003227480    0.003071259
     27        1          -0.000443737   -0.000176071   -0.005995263
     28        1          -0.002347395    0.000787867   -0.003325228
     29        1          -0.003614311    0.003366584   -0.001916772
     30        1           0.016213443    0.002179000   -0.003186564
     31        1          -0.003359720   -0.001007269   -0.002930109
 -------------------------------------------------------------------
 Cartesian Forces:  Max     0.026091991 RMS     0.006607788
 FormGI is forming the generalized inverse of G from B-inverse, IUseBI=4.

 GradGradGradGradGradGradGradGradGradGradGradGradGradGradGradGradGradGrad
 Berny optimization.
 Internal  Forces:  Max     0.025175415 RMS     0.005799231
 Search for a local minimum.
 Step number   1 out of a maximum of  167
 All quantities printed in internal units (Hartrees-Bohrs-Radians)
 Mixed Optimization -- RFO/linear search
 Second derivative matrix not updated -- analytic derivatives used.
 ITU=  0
     Eigenvalues ---    0.00166   0.00231   0.00310   0.00370   0.00390
     Eigenvalues ---    0.00707   0.00825   0.00868   0.01023   0.01173
     Eigenvalues ---    0.02055   0.02063   0.02179   0.02617   0.03580
     Eigenvalues ---    0.03932   0.04031   0.04208   0.04279   0.04462
     Eigenvalues ---    0.04642   0.04760   0.04992   0.05158   0.05283
     Eigenvalues ---    0.05769   0.06043   0.06115   0.06376   0.07754
     Eigenvalues ---    0.07993   0.08267   0.10587   0.10970   0.11062
     Eigenvalues ---    0.11744   0.11862   0.12368   0.13034   0.13326
     Eigenvalues ---    0.15101   0.15707   0.15988   0.16641   0.18791
     Eigenvalues ---    0.18956   0.21136   0.21790   0.22300   0.23314
     Eigenvalues ---    0.23441   0.24070   0.24986   0.25220   0.26292
     Eigenvalues ---    0.27145   0.31101   0.32026   0.32642   0.33257
     Eigenvalues ---    0.34220   0.34289   0.34430   0.34838   0.34880
     Eigenvalues ---    0.35327   0.35528   0.36040   0.37604   0.37866
     Eigenvalues ---    0.38666   0.39922   0.41289   0.42327   0.44610
     Eigenvalues ---    0.44799   0.45196   0.46403   0.47465   0.47822
     Eigenvalues ---    0.48879   0.52218   0.53559   0.57827   0.60190
     Eigenvalues ---    0.83144   0.93432
 RFO step:  Lambda=-1.67321110D-02 EMin= 1.66025650D-03
 Linear search not attempted -- first point.
 Iteration  1 RMS(Cart)=  0.08850364 RMS(Int)=  0.00310746
 Iteration  2 RMS(Cart)=  0.00654043 RMS(Int)=  0.00029724
 Iteration  3 RMS(Cart)=  0.00003746 RMS(Int)=  0.00029638
 Iteration  4 RMS(Cart)=  0.00000003 RMS(Int)=  0.00029638
 Variable       Old X    -DE/DX   Delta X   Delta X   Delta X     New X
                                 (Linear)    (Quad)   (Total)
    R1        2.32213   0.02304   0.00000   0.04454   0.04454   2.36667
    R2        2.54369   0.00324   0.00000  -0.02653  -0.02653   2.51716
    R3        2.87610   0.00034   0.00000   0.00948   0.00948   2.88557
    R4        2.74472   0.01189   0.00000   0.02521   0.02521   2.76992
    R5        1.90449   0.00677   0.00000   0.01681   0.01681   1.92130
    R6        2.86114   0.00692   0.00000   0.01957   0.01957   2.88070
    R7        2.92971   0.01178   0.00000   0.02902   0.02902   2.95873
    R8        2.07104   0.00025   0.00000  -0.00005  -0.00005   2.07099
    R9        2.55511  -0.00072   0.00000  -0.01429  -0.01429   2.54082
   R10        2.27190   0.01633   0.00000   0.01869   0.01869   2.29059
   R11        1.83167   0.00568   0.00000   0.00982   0.00982   1.84148
   R12        2.81860   0.00820   0.00000   0.00682   0.00682   2.82542
   R13        2.05594   0.00184   0.00000   0.00694   0.00694   2.06288
   R14        2.06102   0.00490   0.00000   0.01285   0.01285   2.07388
   R15        2.58041   0.01221   0.00000   0.02191   0.02192   2.60234
   R16        2.59035   0.01277   0.00000   0.02558   0.02561   2.61596
   R17        2.61630  -0.00415   0.00000  -0.01751  -0.01754   2.59876
   R18        2.04192   0.00049   0.00000   0.00196   0.00196   2.04388
   R19        2.47704   0.00553   0.00000   0.00903   0.00900   2.48604
   R20        2.57016   0.00840   0.00000   0.01516   0.01517   2.58533
   R21        2.03170   0.00448   0.00000   0.01064   0.01064   2.04234
   R22        1.90397   0.00190   0.00000   0.00444   0.00444   1.90841
   R23        2.87632   0.00230   0.00000   0.02117   0.02117   2.89749
   R24        2.06229   0.00068   0.00000   0.00322   0.00322   2.06551
   R25        2.06639   0.00365   0.00000   0.00836   0.00836   2.07475
   R26        2.79945   0.01494   0.00000   0.05168   0.05168   2.85114
   R27        2.06342   0.00066   0.00000   0.00094   0.00094   2.06436
   R28        2.06208   0.00066   0.00000  -0.00015  -0.00015   2.06193
   R29        1.92647   0.00459   0.00000   0.00718   0.00718   1.93365
   R30        1.94599   0.01653   0.00000   0.06911   0.06911   2.01510
   R31        1.92645   0.00408   0.00000   0.00591   0.00591   1.93236
    A1        2.11235   0.01562   0.00000   0.03075   0.03074   2.14309
    A2        2.14529  -0.02518   0.00000  -0.07616  -0.07618   2.06911
    A3        2.02518   0.00957   0.00000   0.04566   0.04564   2.07082
    A4        2.08757   0.01130   0.00000   0.05404   0.05372   2.14129
    A5        2.13018  -0.00523   0.00000  -0.01903  -0.01934   2.11084
    A6        2.04224  -0.00571   0.00000  -0.02601  -0.02633   2.01591
    A7        1.86090  -0.00791   0.00000  -0.02397  -0.02397   1.83692
    A8        1.94119   0.00488   0.00000   0.02252   0.02255   1.96374
    A9        1.88102   0.00149   0.00000   0.01346   0.01353   1.89455
   A10        1.96587   0.00366   0.00000   0.00525   0.00535   1.97122
   A11        1.89543   0.00140   0.00000   0.00298   0.00302   1.89845
   A12        1.91651  -0.00366   0.00000  -0.01992  -0.02003   1.89648
   A13        1.96436   0.00395   0.00000   0.00068   0.00068   1.96504
   A14        2.17577  -0.00401   0.00000  -0.01427  -0.01427   2.16150
   A15        2.14302   0.00007   0.00000   0.01357   0.01357   2.15659
   A16        1.85385   0.00623   0.00000   0.03255   0.03255   1.88641
   A17        1.97288   0.01395   0.00000   0.02935   0.02936   2.00224
   A18        1.89055  -0.00507   0.00000  -0.02180  -0.02181   1.86874
   A19        1.91832  -0.00422   0.00000  -0.01061  -0.01087   1.90745
   A20        1.87115  -0.00468   0.00000  -0.00611  -0.00588   1.86528
   A21        1.94553  -0.00284   0.00000   0.00429   0.00425   1.94979
   A22        1.86051   0.00209   0.00000   0.00260   0.00241   1.86292
   A23        2.29123  -0.00580   0.00000  -0.01374  -0.01384   2.27738
   A24        2.15795   0.00894   0.00000   0.02180   0.02170   2.17965
   A25        1.83366  -0.00312   0.00000  -0.00748  -0.00751   1.82614
   A26        1.92994   0.00284   0.00000   0.00797   0.00796   1.93791
   A27        2.23391  -0.00119   0.00000  -0.00743  -0.00743   2.22649
   A28        2.11933  -0.00165   0.00000  -0.00055  -0.00055   2.11878
   A29        1.83395   0.00180   0.00000   0.00429   0.00423   1.83818
   A30        1.94692   0.00136   0.00000   0.00255   0.00254   1.94946
   A31        2.21064  -0.00232   0.00000  -0.01181  -0.01180   2.19884
   A32        2.12563   0.00096   0.00000   0.00925   0.00926   2.13489
   A33        1.88018  -0.00286   0.00000  -0.00713  -0.00709   1.87308
   A34        2.16888   0.00438   0.00000   0.02292   0.02290   2.19178
   A35        2.23402  -0.00152   0.00000  -0.01576  -0.01577   2.21825
   A36        1.95753  -0.02047   0.00000  -0.05348  -0.05335   1.90417
   A37        1.91311   0.01227   0.00000   0.05570   0.05549   1.96860
   A38        1.87471   0.00394   0.00000   0.00541   0.00495   1.87966
   A39        1.92780   0.00254   0.00000  -0.00673  -0.00601   1.92179
   A40        1.91259   0.00585   0.00000   0.00885   0.00867   1.92125
   A41        1.87557  -0.00343   0.00000  -0.00765  -0.00805   1.86753
   A42        1.93124  -0.01212   0.00000  -0.04135  -0.04148   1.88976
   A43        1.91332   0.00666   0.00000   0.02312   0.02091   1.93423
   A44        1.91781   0.00563   0.00000   0.04237   0.04196   1.95977
   A45        1.90987  -0.00239   0.00000  -0.04615  -0.04615   1.86372
   A46        1.91745   0.00368   0.00000   0.00357   0.00433   1.92178
   A47        1.87323  -0.00108   0.00000   0.02010   0.01905   1.89229
   A48        1.94063   0.00261   0.00000   0.01682   0.01685   1.95748
   A49        1.86510  -0.00316   0.00000  -0.06424  -0.06420   1.80090
   A50        1.96579   0.00101   0.00000   0.00610   0.00605   1.97184
   A51        1.87487   0.00079   0.00000   0.02001   0.02015   1.89503
   A52        1.90529  -0.00240   0.00000  -0.01434  -0.01438   1.89091
   A53        1.90949   0.00117   0.00000   0.03659   0.03654   1.94603
    D1       -0.10094   0.00178   0.00000   0.03521   0.03545  -0.06548
    D2       -3.00586   0.00066   0.00000  -0.00680  -0.00663  -3.01249
    D3        3.06898   0.00142   0.00000   0.02694   0.02677   3.09575
    D4        0.16405   0.00031   0.00000  -0.01507  -0.01532   0.14874
    D5        0.74208  -0.00185   0.00000  -0.05031  -0.04974   0.69234
    D6        2.89009  -0.00392   0.00000  -0.05587  -0.05628   2.83381
    D7       -1.36043   0.00068   0.00000  -0.03254  -0.03227  -1.39269
    D8       -2.42843  -0.00075   0.00000  -0.03991  -0.03962  -2.46805
    D9       -0.28041  -0.00281   0.00000  -0.04546  -0.04617  -0.32658
   D10        1.75225   0.00178   0.00000  -0.02213  -0.02215   1.73010
   D11       -2.83312   0.00162   0.00000  -0.00019  -0.00021  -2.83333
   D12        1.30073  -0.00066   0.00000  -0.00462  -0.00445   1.29627
   D13       -0.80087  -0.00003   0.00000  -0.00224  -0.00237  -0.80324
   D14        0.08352   0.00259   0.00000   0.03998   0.03995   0.12347
   D15       -2.06582   0.00031   0.00000   0.03555   0.03570  -2.03011
   D16        2.11577   0.00094   0.00000   0.03793   0.03779   2.15356
   D17        3.09017  -0.00176   0.00000  -0.00086  -0.00082   3.08935
   D18       -0.06077  -0.00146   0.00000  -0.00254  -0.00250  -0.06327
   D19       -1.05915   0.00119   0.00000   0.01412   0.01412  -1.04503
   D20        2.07309   0.00149   0.00000   0.01243   0.01245   2.08554
   D21        1.06756  -0.00008   0.00000  -0.00558  -0.00563   1.06193
   D22       -2.08338   0.00022   0.00000  -0.00726  -0.00730  -2.09068
   D23       -2.48974  -0.00018   0.00000  -0.01518  -0.01505  -2.50479
   D24       -0.41889  -0.00088   0.00000  -0.01940  -0.01943  -0.43833
   D25        1.60750  -0.00355   0.00000  -0.03442  -0.03425   1.57325
   D26        1.70550   0.00404   0.00000  -0.00384  -0.00382   1.70169
   D27       -2.50683   0.00334   0.00000  -0.00806  -0.00820  -2.51503
   D28       -0.48044   0.00067   0.00000  -0.02308  -0.02302  -0.50345
   D29       -0.40923   0.00237   0.00000   0.00287   0.00284  -0.40639
   D30        1.66162   0.00168   0.00000  -0.00135  -0.00155   1.66007
   D31       -2.59517  -0.00099   0.00000  -0.01637  -0.01636  -2.61153
   D32       -3.13129  -0.00046   0.00000  -0.01394  -0.01395   3.13794
   D33        0.01944  -0.00073   0.00000  -0.01212  -0.01211   0.00733
   D34        2.13140  -0.00175   0.00000  -0.03202  -0.03206   2.09934
   D35       -0.97723  -0.00285   0.00000  -0.05883  -0.05893  -1.03616
   D36        0.04933  -0.00066   0.00000  -0.01841  -0.01841   0.03092
   D37       -3.05930  -0.00177   0.00000  -0.04522  -0.04527  -3.10457
   D38       -1.98062   0.00112   0.00000  -0.02023  -0.02011  -2.00073
   D39        1.19393   0.00002   0.00000  -0.04704  -0.04697   1.14696
   D40       -3.12715  -0.00033   0.00000  -0.01418  -0.01383  -3.14099
   D41        0.01521  -0.00038   0.00000  -0.00997  -0.00976   0.00546
   D42       -0.01398   0.00082   0.00000   0.00940   0.00941  -0.00456
   D43        3.12839   0.00076   0.00000   0.01360   0.01348  -3.14131
   D44        3.13134  -0.00028   0.00000   0.00892   0.00923   3.14057
   D45        0.00467  -0.00016   0.00000   0.00670   0.00689   0.01156
   D46        0.01540  -0.00103   0.00000  -0.01168  -0.01162   0.00378
   D47       -3.11128  -0.00091   0.00000  -0.01390  -0.01397  -3.12524
   D48        0.00699  -0.00031   0.00000  -0.00346  -0.00346   0.00353
   D49       -3.13532  -0.00026   0.00000  -0.00734  -0.00724   3.14063
   D50        0.00315  -0.00031   0.00000  -0.00408  -0.00416  -0.00101
   D51       -3.13628   0.00013   0.00000  -0.00269  -0.00271  -3.13899
   D52       -0.01199   0.00084   0.00000   0.01014   0.01018  -0.00180
   D53        3.11396   0.00077   0.00000   0.01291   0.01301   3.12697
   D54        3.12757   0.00043   0.00000   0.00880   0.00877   3.13633
   D55       -0.02967   0.00036   0.00000   0.01157   0.01159  -0.01808
   D56       -1.06719   0.00635   0.00000   0.07692   0.07703  -0.99015
   D57        1.04085  -0.00005   0.00000   0.00805   0.00760   1.04846
   D58        3.09553   0.00594   0.00000   0.07141   0.07202  -3.11563
   D59        3.07629   0.00310   0.00000   0.04761   0.04748   3.12377
   D60       -1.09886  -0.00330   0.00000  -0.02126  -0.02195  -1.12081
   D61        0.95582   0.00268   0.00000   0.04210   0.04247   0.99829
   D62        1.01322   0.00218   0.00000   0.05561   0.05569   1.06891
   D63        3.12126  -0.00422   0.00000  -0.01326  -0.01374   3.10752
   D64       -1.10725   0.00177   0.00000   0.05011   0.05068  -1.05657
   D65       -1.24344  -0.00113   0.00000  -0.03092  -0.03036  -1.27381
   D66        0.79754  -0.00064   0.00000  -0.03572  -0.03527   0.76227
   D67        2.89484  -0.00068   0.00000  -0.02921  -0.02870   2.86613
   D68        2.92966  -0.00014   0.00000  -0.00334  -0.00387   2.92578
   D69       -1.31255   0.00035   0.00000  -0.00814  -0.00878  -1.32133
   D70        0.78475   0.00031   0.00000  -0.00163  -0.00221   0.78253
   D71        0.87724   0.00043   0.00000  -0.00252  -0.00239   0.87485
   D72        2.91822   0.00092   0.00000  -0.00732  -0.00729   2.91093
   D73       -1.26767   0.00088   0.00000  -0.00081  -0.00072  -1.26839
         Item               Value     Threshold  Converged?
 Maximum Force            0.025175     0.000450     NO 
 RMS     Force            0.005799     0.000300     NO 
 Maximum Displacement     0.362774     0.001800     NO 
 RMS     Displacement     0.092183     0.001200     NO 
 Predicted change in Energy=-9.293008D-03
 GradGradGradGradGradGradGradGradGradGradGradGradGradGradGradGradGradGrad

                          Input orientation:                          
 ---------------------------------------------------------------------
 Center     Atomic      Atomic             Coordinates (Angstroms)
 Number     Number       Type             X           Y           Z
 ---------------------------------------------------------------------
      1          8           0       -1.417265    0.050614   -0.823859
      2          6           0       -1.537360   -0.108609    0.412544
      3          7           0       -0.493482   -0.272853    1.223486
      4          6           0        0.884515   -0.361976    0.731861
      5          6           0        1.679390   -0.979809    1.876526
      6          8           0        2.968262   -1.189477    1.556134
      7          8           0        1.207179   -1.242992    2.961425
      8          6           0        1.449205    1.025264    0.275706
      9          6           0        2.347429    0.972661   -0.918399
     10          6           0        2.233377    1.577481   -2.150300
     11          7           0        3.296702    1.253056   -2.959795
     12          6           0        4.053039    0.455360   -2.237078
     13          7           0        3.525549    0.249492   -0.991660
     14          6           0       -2.938929   -0.088487    1.018240
     15          6           0       -3.901501   -0.826513    0.080300
     16          7           0       -3.837805   -0.168774   -1.276046
     17          1           0       -0.624947   -0.510517    2.203247
     18          1           0        0.906088   -1.047564   -0.122857
     19          1           0        3.412722   -1.580088    2.330389
     20          1           0        0.593486    1.645080    0.001429
     21          1           0        1.935248    1.516843    1.128059
     22          1           0        1.443372    2.231871   -2.493045
     23          1           0        4.982642    0.003471   -2.552789
     24          1           0        3.906654   -0.328875   -0.256727
     25          1           0       -2.974857   -0.530491    2.017260
     26          1           0       -3.243229    0.961431    1.120590
     27          1           0       -3.589971   -1.864453   -0.057523
     28          1           0       -4.927292   -0.820906    0.452159
     29          1           0       -4.301748    0.743206   -1.284826
     30          1           0       -2.792528   -0.019618   -1.425165
     31          1           0       -4.243927   -0.743545   -2.017888
 ---------------------------------------------------------------------
                    Distance matrix (angstroms):
                    1          2          3          4          5
     1  O    0.000000
     2  C    1.252385   0.000000
     3  N    2.269279   1.332023   0.000000
     4  C    2.808680   2.455939   1.465780   0.000000
     5  C    4.235932   3.640016   2.376472   1.524403   0.000000
     6  O    5.141502   4.772495   3.596460   2.388763   1.344545
     7  O    4.784297   3.913580   2.617986   2.418938   1.212128
     8  C    3.221124   3.197494   2.521394   1.565691   2.576030
     9  C    3.877116   4.246427   3.769582   2.577738   3.474194
    10  C    4.173483   4.861022   4.716135   3.726630   4.802287
    11  N    5.313151   6.049377   5.847540   4.696306   5.566990
    12  C    5.664383   6.212176   5.759918   4.418391   4.961417
    13  N    4.949659   5.266221   4.618693   3.212395   3.625738
    14  C    2.393354   1.526980   2.460961   3.843895   4.781211
    15  C    2.785369   2.492977   3.637033   4.852450   5.864834
    16  N    2.472168   2.854295   4.176480   5.135106   6.405929
    17  H    3.178995   2.049547   1.016710   2.113177   2.374226
    18  H    2.663713   2.671840   2.090840   1.095920   2.144789
    19  H    5.994768   5.508783   4.265269   3.229694   1.889647
    20  H    2.695653   2.790152   2.520593   2.155574   3.403706
    21  H    4.147186   3.900393   3.018418   2.188829   2.618957
    22  H    3.965767   4.775465   4.882381   4.176168   5.428051
    23  H    6.629498   7.163533   6.657668   5.264706   5.612232
    24  H    5.367473   5.489420   4.642775   3.179894   3.152013
    25  H    3.291767   2.195334   2.617953   4.071290   4.678003
    26  H    2.818619   2.134549   3.015817   4.352101   5.345281
    27  H    2.995898   2.741744   3.709773   4.785560   5.682368
    28  H    3.835108   3.464184   4.533649   5.836604   6.760349
    29  H    3.002068   3.353877   4.671926   5.673250   6.981184
    30  H    1.502614   2.227227   3.516403   4.276752   5.641027
    31  H    3.169607   3.692648   4.979347   5.831606   7.092811
                    6          7          8          9         10
     6  O    0.000000
     7  O    2.253690   0.000000
     8  C    2.975249   3.523727   0.000000
     9  C    3.344188   4.611109   1.495145   0.000000
    10  C    4.683350   5.927722   2.608711   1.377096   0.000000
    11  N    5.144653   6.757011   3.732773   2.268708   1.375207
    12  C    4.274423   6.165043   3.663171   2.217120   2.139593
    13  N    2.978667   4.819671   2.553281   1.384308   2.185340
    14  C    6.032944   4.722188   4.587758   5.729065   6.290298
    15  C    7.035870   5.879877   5.665450   6.579024   6.956400
    16  N    7.442152   6.675475   5.637920   6.299834   6.377537
    17  H    3.713608   2.113773   3.221202   4.558455   5.610983
    18  H    2.663027   3.105100   2.179552   2.606082   3.572546
    19  H    0.974470   2.318676   3.855512   4.266849   5.606931
    20  H    4.011406   4.180808   1.091629   2.091541   2.706243
    21  H    2.928230   3.392345   1.097448   2.157318   3.292446
    22  H    5.516046   6.471607   3.020251   2.209624   1.081577
[...]
 01024,-0.00002954,-0.00002286,0.00001532,0.00002378,-0.00000222,-0.000
 00563,0.00002181,0.00003049,-0.00001705,0.00000988,0.00244019,0.112994
 87,-0.25808258,0.00051121,0.00875733,-0.01563393,-0.00259452,-0.002329
 16,-0.00121211,0.00028979,0.00037884,0.00106941,0.00000108,0.00004967,
 0.00002695,0.00000647,0.00000420,0.00000636,-0.00000007,-0.00001104,-0
 .00001108,-0.00000400,-0.00001814,0.00000799,-0.00000037,-0.00001219,0
 .00000224,0.00000074,0.00000002,0.00000155,0.00000813,0.00000408,-0.00
 000435,-0.00107224,-0.12135742,0.27831753,-0.00028697,-0.00348695,0.00
 058596,-0.00694356,0.03192179,0.00344660,-0.00191707,-0.00188665,0.000
 57808,-0.00025365,-0.00176938,-0.00023419,0.00023626,-0.00022208,0.000
 22558,-0.00017301,0.00008532,-0.00004975,-0.00012394,0.00003695,-0.000
 15619,-0.00038501,0.00041512,-0.00009450,-0.00003402,-0.00015417,0.000
 02834,-0.00002117,-0.00000105,-0.00006567,-0.00006216,0.00002482,0.000
 04304,-0.00000672,-0.00000705,0.00005315,0.00004794,-0.00004013,0.0000
 0134,-0.05942515,0.05773885,0.01046314,0.00477884,-0.02693463,-0.00437
 970,0.00112858,0.00081865,0.00131484,-0.00009564,0.00096708,0.00042767
 ,0.00013077,0.00000994,-0.00002262,0.00001486,0.00000552,0.00001754,-0
 .00001731,0.00008768,0.00006437,-0.00008406,-0.00008395,-0.00000159,0.
 00000369,0.00000924,-0.00000159,0.00000146,0.00000407,0.00000167,0.000
 02107,0.00000930,-0.00000383,0.00004375,-0.00035306,-0.00008162,0.0659
 9456,-0.00013987,0.00020150,0.00067912,0.00256330,0.00009964,0.0000431
 4,-0.00025248,0.00044082,-0.00070810,0.00019232,0.00006704,0.00005027,
 0.00005822,-0.00004025,0.00000912,-0.00002872,0.00001015,-0.00000052,-
 0.00002551,0.00003937,-0.00001096,-0.00000022,-0.00000072,-0.00005239,
 0.00001739,-0.00001012,0.00001563,0.00000120,-0.00000340,-0.00000262,-
 0.00000566,-0.00000206,0.00000456,-0.00000285,0.00000104,-0.00000030,0
 .00000493,0.00000938,-0.00000256,0.05189694,-0.28735220,-0.04172987,0.
 00115195,-0.01271982,-0.00150054,0.00021884,0.00139588,0.00016757,-0.0
 0005638,-0.00031099,-0.00009916,-0.00006142,-0.00001594,0.00000485,0.0
 0000490,-0.00000659,0.00000134,0.00002742,-0.00001348,0.00001258,0.000
 01271,-0.00000356,0.00000480,0.00000186,0.00000738,-0.00000179,-0.0000
 0088,-0.00000120,-0.00000091,0.00000322,0.00000066,-0.00000043,0.00310
 361,-0.01376257,-0.00281224,-0.05633070,0.31088612,0.00070255,0.002682
 23,-0.00083968,0.00399460,-0.01462323,-0.00309284,-0.00072798,0.000242
 73,-0.00028657,0.00022043,0.00012631,0.00000816,0.00006166,0.00003393,
 0.00007729,-0.00004341,0.00001136,-0.00002209,-0.00004302,-0.00003155,
 -0.00004924,0.00003858,0.00002894,0.00004487,-0.00001119,-0.00001688,-
 0.00000296,0.00001180,-0.00000486,-0.00000329,-0.00001585,0.00000864,0
 .00000426,-0.00000685,-0.00000065,0.00000667,-0.00000548,0.00000289,-0
 .00000058,0.00982101,-0.04297620,-0.05400501,0.00266421,-0.02065442,-0
 .00505540,0.00070231,-0.00032709,0.00146463,0.00001063,0.00035449,0.00
 021157,-0.00007347,0.00002357,-0.00001276,0.00000395,-0.00000283,0.000
 00718,0.00002609,-0.00001162,-0.00000548,-0.00000594,-0.00000113,-0.00
 000607,0.00000125,-0.00000274,-0.00000281,-0.00000069,0.00000025,0.000
 00024,0.00000564,0.00000167,0.00000323,-0.00631701,0.02776007,0.006240
 67,-0.00900392,0.04803298,0.05681921,-0.00020072,0.00052444,0.00064538
 ,0.00149917,-0.00129298,-0.00068931,0.00007222,0.00037051,-0.00001226,
 -0.00005360,-0.00002737,0.00001279,-0.00009812,0.00003559,-0.00005940,
 0.00007272,-0.00001690,0.00001770,0.00005189,0.00000220,0.00004063,-0.
 00000341,-0.00004504,0.00002089,0.00000814,0.00002801,0.00000169,0.000
 00171,0.00000468,0.00001903,0.00001853,0.00000067,-0.00001357,0.000002
 38,-0.00000359,-0.00000425,-0.00000749,0.00001202,-0.00000681,0.003436
 01,-0.02440660,-0.00365586,-0.06163578,0.04815973,0.00820535,0.0000080
 0,-0.00166693,-0.00049419,0.00001255,-0.00010781,-0.00008561,-0.000026
 48,-0.00001605,0.00001574,-0.00001476,-0.00000116,-0.00001004,-0.00000
 287,-0.00002093,-0.00001039,0.00001775,0.00000868,0.00000007,-0.000001
 52,-0.00000943,0.00000219,-0.00000085,-0.00000224,-0.00000021,-0.00001
 221,-0.00000781,0.00000053,0.00093585,0.00060401,0.00054503,-0.0032880
 2,-0.00194167,-0.00282956,0.06066806,-0.00031301,0.00046999,0.00067684
 ,0.00042815,0.00016705,-0.00094848,-0.00011755,0.00001972,0.00012633,-
 0.00001736,-0.00004089,0.00000262,-0.00002981,0.00001527,-0.00002386,0
 .00001871,-0.00000651,0.00000564,0.00001561,-0.00000330,0.00001705,-0.
 00001413,-0.00000797,0.00001125,0.00000045,0.00000805,-0.00000158,0.00
 000122,0.00000163,0.00000593,0.00000394,0.00000208,-0.00000207,0.00000
 071,-0.00000115,-0.00000130,-0.00000194,0.00000212,-0.00000083,0.00058
 866,-0.00990989,-0.00323658,0.04626455,-0.31041859,-0.03406960,0.00273
 384,-0.01315862,0.00194839,0.00001783,-0.00004419,-0.00002056,-0.00000
 667,0.00000057,0.00000876,-0.00000290,0.00000142,-0.00000223,-0.000002
 55,-0.00000753,-0.00000537,0.00000497,0.00000080,0.00000062,-0.0000003
 1,-0.00000466,0.00000013,-0.00000022,-0.00000049,-0.00000009,-0.000002
 91,-0.00000184,-0.00000007,-0.00003162,0.00047189,-0.00011694,-0.00145
 523,0.00078821,-0.00119214,-0.04856158,0.33243093,0.00045381,-0.000215
 26,0.00098169,0.00153111,0.00033626,-0.00070091,-0.00038799,0.00023494
 ,0.00006401,0.00006349,-0.00004830,-0.00004724,0.00003312,-0.00006142,
 0.00009081,-0.00003860,0.00002270,-0.00002668,-0.00001822,0.00006147,-
 0.00004722,-0.00001447,0.00001587,-0.00000735,0.00000167,-0.00000827,-
 0.00000674,-0.00000851,0.00000453,-0.00001723,-0.00001461,0.00000161,0
 .00001353,-0.00000568,0.00000085,0.00000905,0.00000955,-0.00000448,0.0
 0001059,0.00250174,-0.01968337,-0.00278152,0.01052638,-0.04595113,-0.0
 5520872,-0.00723194,0.03967573,-0.00486450,0.00004894,-0.00014612,0.00
 006164,-0.00002000,-0.00000124,0.00001523,-0.00000051,-0.00001047,0.00
 000313,0.00000076,0.00001151,-0.00001998,0.00000180,-0.00000833,0.0000
 0636,-0.00000143,0.00000211,-0.00000327,-0.00000006,-0.00000040,0.0000
 0083,0.00000591,-0.00000257,0.00000018,0.00033032,0.00001283,0.0004522
 4,-0.00371771,-0.00119403,-0.00159240,-0.00435082,0.03579446,0.0676467
 7,0.00087117,0.00007690,0.00067783,-0.00021268,-0.00168219,-0.00454950
 ,-0.00137986,0.00000908,0.00079933,0.00011881,0.00018801,-0.00029420,0
 .00004893,-0.00008285,0.00020969,-0.00013001,0.00005427,-0.00006843,-0
 .00005873,0.00004722,-0.00007853,0.00002471,0.00005830,-0.00001962,-0.
 00000376,-0.00002428,-0.00000792,-0.00000462,0.00000120,-0.00002450,-0
 .00002503,0.00000492,0.00002449,-0.00000771,0.00000203,0.00000900,0.00
 001579,-0.00001282,0.00001459,-0.01824743,0.00293827,0.00727629,-0.285
 57384,0.03585076,0.09827231,0.00582700,-0.00021621,-0.00206250,0.00006
 290,-0.00008736,0.00015661,-0.00005912,0.00000544,-0.00000403,0.000000
 42,-0.00000824,0.00001004,0.00000885,0.00001178,-0.00000487,-0.0000098
 4,-0.00001060,0.00000449,0.00000055,0.00000367,-0.00000374,-0.00000012
 ,0.00000006,0.00000093,0.00001413,0.00000498,-0.00000408,0.00021997,0.
 00025673,-0.00015270,0.00106493,-0.00010135,0.00054395,-0.00273979,0.0
 0035181,0.00091846,0.30005245,0.00020437,0.00024257,0.00000523,-0.0016
 2722,-0.00053455,-0.00328463,-0.00108085,0.00016320,0.00041051,0.00001
 232,0.00008525,-0.00021004,-0.00002581,-0.00003158,0.00008588,-0.00004
 240,0.00002267,-0.00003137,-0.00001293,0.00001773,-0.00002492,0.000005
 62,0.00001850,0.00001132,-0.00000233,-0.00001067,-0.00000313,-0.000001
 17,-0.00000155,-0.00000349,-0.00000468,0.00000123,0.00000440,-0.000001
 78,0.00000028,0.00000304,0.00000371,-0.00000237,0.00000162,-0.01419277
 ,0.00152838,0.00527331,0.04103869,-0.05880702,-0.01825729,-0.01709429,
 -0.00019241,0.01213448,0.00002155,-0.00004380,0.00003782,-0.00002885,-
 0.00000804,0.00000993,-0.00000710,-0.00000038,0.00000102,-0.00000097,0
 .00000079,0.00000038,-0.00000333,0.00000023,-0.00000150,0.00000138,0.0
 0000210,0.00000057,-0.00000023,-0.00000013,0.00000032,0.00000244,0.000
 00166,-0.00000168,0.00057060,0.00041822,0.00011454,0.00012380,0.000564
 79,0.00092072,0.02875451,-0.00150608,-0.01227727,-0.03734844,0.0580512
 5,0.00106307,-0.00015727,0.00236163,-0.00100834,-0.00225920,-0.0052307
 7,-0.00151954,0.00014861,0.00116241,0.00003062,0.00024413,-0.00034782,
 0.00004367,-0.00008401,0.00022501,-0.00015255,0.00006120,-0.00007584,-
 0.00006528,0.00004401,-0.00007344,0.00003466,0.00007667,-0.00002807,-0
 .00001138,-0.00002379,-0.00001508,-0.00001387,0.00000993,-0.00003068,-
 0.00002357,0.00000576,0.00003318,-0.00000875,0.00000126,0.00000882,0.0
 0002673,-0.00001936,0.00002456,-0.01934127,0.00255470,0.01033363,0.089
 72168,-0.01360612,-0.08767400,0.03120056,-0.00008647,-0.02006171,0.000
 08015,-0.00011278,0.00017233,-0.00006649,0.00000794,-0.00000677,-0.000
 00159,-0.00000693,0.00000955,0.00000722,0.00000871,-0.00001203,-0.0000
 0896,-0.00001434,0.00000840,-0.00000100,-0.00000214,-0.00000434,0.0000
 0020,-0.00000052,0.00000156,0.00001599,0.00000657,-0.00000733,0.000423
 61,0.00042607,0.00045312,0.00066228,0.00017767,0.00069315,0.00318145,-
 0.00097704,-0.00007703,-0.10139179,0.01260125,0.10199034,-0.00273735,-
 0.00275013,-0.00127714,-0.00094457,0.00014249,-0.00000206,0.00026662,0
 .00018244,-0.00001234,-0.00009245,0.00002573,0.00007714,-0.00012895,0.
 00006555,-0.00009907,0.00010146,-0.00003878,0.00002937,0.00006021,-0.0
 0003876,0.00005771,-0.00001461,-0.00000388,-0.00001952,-0.00001485,0.0
 0001247,-0.00000349,-0.00005792,0.00003231,0.00000041,0.00005372,-0.00
 001388,-0.00001082,0.00001867,-0.00000623,-0.00000641,0.00002932,-0.00
 000923,0.00000472,-0.00055579,0.00064430,-0.00006946,0.00185674,-0.006
 51091,-0.00044628,-0.11598145,0.13888819,-0.00399460,-0.00004901,0.000
 12105,-0.00007427,0.00000056,-0.00000296,-0.00002012,-0.00001877,0.000
 01203,-0.00001148,-0.00001241,-0.00001563,-0.00000390,0.00000817,0.000
 00369,0.00000241,-0.00000996,-0.00001592,0.00001783,0.00000244,-0.0000
 0186,0.00000190,-0.00001541,0.00000129,-0.00000605,0.00006271,-0.00022
 249,-0.00005294,0.00022208,-0.00015214,-0.00044210,0.00038290,-0.00083
 843,0.00177214,0.00043379,-0.00092632,0.00038502,0.11134779,-0.0021646
 3,-0.00052363,-0.00163406,0.00040818,-0.00016585,0.00116453,-0.0005537
 0,0.00007172,-0.00055150,0.00020892,0.00002675,-0.00006450,0.00014540,
 -0.00006484,0.00003993,-0.00013524,0.00002931,-0.00001782,-0.00010628,
 0.00002611,-0.00002350,0.00000164,0.00008751,-0.00003388,-0.00001354,-
 0.00004397,-0.00000390,-0.00003995,0.00000314,-0.00004465,-0.00001745,
 -0.00001549,0.00002934,-0.00000345,0.00000436,0.00000784,0.00003297,-0
 .00002754,0.00002499,0.00019255,0.00151409,0.00006132,0.00359592,-0.01
 072814,0.00177852,0.12749171,-0.35564801,-0.00410947,-0.00001478,0.000
 04587,0.00010303,-0.00001152,-0.00000140,0.00000289,0.00001562,0.00000
 100,0.00000978,0.00000970,0.00003938,0.00000172,-0.00001693,-0.0000100
 7,0.00000187,0.00000269,0.00002436,0.00000337,0.00000260,0.00000305,0.
 00000227,0.00001769,0.00001588,-0.00000710,-0.00012008,-0.00018879,-0.
 00023698,0.00027080,-0.00015462,0.00009266,-0.00038770,0.00090173,0.00
 237703,-0.00054309,0.00104461,-0.00092506,-0.14138550,0.37442989,0.000
 67408,0.00046928,0.00020371,-0.00063340,0.00015693,0.00004265,0.000376
 72,-0.00007951,0.00010680,-0.00012063,0.00006370,0.00006914,-0.0001398
 4,0.00005577,-0.00000829,0.00012239,-0.00003361,0.00000613,0.00008865,
 -0.00003421,-0.00000330,-0.00001545,-0.00004383,0.00002419,0.00000791,
 0.00001359,0.00002242,0.00003236,-0.00002153,0.00004457,0.00001651,0.0
 0000207,-0.00004806,0.00001507,-0.00000608,-0.00000114,-0.00004041,0.0
 0002782,-0.00004924,0.00023646,0.00065661,0.00086988,-0.01355047,0.031
 22563,0.00322886,-0.00578233,-0.00057002,-0.05979473,-0.00003301,0.000
 00689,-0.00007820,0.00000883,-0.00000114,-0.00000420,-0.00001313,0.000
 00844,-0.00000439,-0.00000553,-0.00002216,0.00002419,0.00000594,0.0000
 0981,-0.00001374,0.00000468,0.00000028,0.00001299,-0.00000091,0.000001
 38,-0.00000193,-0.00001505,-0.00000468,0.00001174,0.00027068,-0.000440
 64,-0.00002784,-0.00036580,-0.00086824,-0.00057840,0.00016608,0.001919
 01,-0.00624231,0.00047884,-0.00014532,0.00144976,0.00354375,-0.0003487
 3,0.05953134,0.00863357,-0.00286963,0.04170898,0.01019930,0.00236155,-
 0.04697330,0.00609955,-0.00118715,0.01796306,-0.00357688,0.00043630,0.
 00074939,-0.00243971,0.00146803,-0.00127572,0.00181545,-0.00062996,0.0
 0039082,0.00153005,-0.00093429,0.00115609,-0.00025940,-0.00070203,0.00
 017211,-0.00009675,0.00048523,0.00006709,-0.00001199,0.00008746,0.0004
 5775,0.00050824,-0.00003804,-0.00041627,0.00023717,-0.00010317,-0.0001
 4228,-0.00015899,0.00017150,-0.00025920,-0.00057588,0.00223328,0.00207
 424,0.00271753,-0.00751887,0.01918292,-0.20097722,-0.00845219,0.034627
 96,0.00182787,-0.00006773,-0.00103952,-0.00017961,0.00022706,-0.000220
 52,-0.00023382,0.00015585,-0.00014516,-0.00016251,-0.00071737,-0.00001
 700,0.00028504,0.00006309,-0.00000923,-0.00003366,-0.00024201,0.000157
 65,0.00000677,-0.00001140,-0.00000707,-0.00024135,-0.00004968,0.000029
 49,-0.00312321,-0.00073883,0.00008536,-0.00061838,-0.00017677,0.000865
 35,0.00025977,0.00068525,-0.00182843,-0.00036546,0.00134905,-0.0042962
 1,-0.00306940,0.00272843,0.00059111,0.18441470,-0.00079097,-0.01530480
 ,-0.00071169,0.00068203,-0.00072097,0.00113186,0.00020111,0.00142753,0
 .00016212,-0.00006920,-0.00005655,0.00016392,0.00000721,0.00005484,-0.
 00003803,-0.00002642,-0.00001522,0.00000771,-0.00006391,-0.00007311,0.
 00001803,0.00003061,0.00004223,-0.00006931,-0.00002284,-0.00002665,0.0
 0000456,-0.00010857,0.00004637,-0.00005764,0.00003750,-0.00003725,0.00
 001384,0.00001904,-0.00000318,0.00000273,0.00005521,-0.00004017,0.0000
 2890,0.00031590,0.00023372,-0.00079523,-0.01331796,0.00012713,0.006211
 64,-0.01387393,-0.06848766,-0.00237631,0.00005982,0.00096485,0.0001687
 1,-0.00010362,0.00001618,-0.00011265,0.00000573,0.00001156,0.00000702,
 -0.00000813,0.00002380,-0.00003387,-0.00000238,0.00000136,0.00000613,-
 0.00001628,0.00000347,0.00002504,0.00000617,0.00000176,0.00000456,0.00
 000804,0.00001898,-0.00000896,-0.00022243,-0.00034630,-0.00009600,0.00
 024713,-0.00023036,-0.00048423,-0.00061265,-0.00050102,0.00015547,0.00
 042659,-0.00089121,0.00182033,0.03209131,0.00569974,-0.00775048,0.0135
 6197,0.07895900,0.01611722,-0.00100763,-0.00337729,-0.01013430,0.00124
 281,-0.01783995,0.00260006,-0.00004848,0.00223400,-0.00074236,0.000070
 14,0.00030996,-0.00075573,0.00046596,-0.00029155,0.00060365,-0.0001991
 9,0.00009454,0.00042198,-0.00023781,0.00024925,-0.00012748,-0.00023970
 ,0.00010810,-0.00000723,0.00010577,0.00009791,0.00008254,-0.00007564,0
 .00018348,0.00011599,-0.00002343,-0.00020247,0.00008303,-0.00002831,-0
 .00003646,-0.00015387,0.00011157,-0.00017083,0.00002691,-0.00032625,-0
 .00072065,0.03088768,0.00371064,-0.01202389,0.04811585,-0.00260942,-0.
 06609295,-0.00002894,0.00004008,-0.00028659,-0.00008753,0.00010967,-0.
 00001061,-0.00006442,0.00003783,-0.00003466,-0.00003967,-0.00022581,0.
 00002808,0.00009161,0.00003017,-0.00003431,0.00001519,0.00000897,0.000
 05914,0.00000020,0.00000613,-0.00000792,-0.00007460,-0.00001597,0.0000
 4066,-0.00018383,0.00001531,0.00055466,-0.00009815,-0.00027148,-0.0001
 9324,-0.00017447,0.00000410,0.00038434,-0.00104209,0.00314521,-0.00519
 016,-0.00053913,0.00044181,-0.00084167,-0.06123650,-0.00449193,0.09593
 105,-0.00480209,0.00180279,-0.00064883,-0.00028087,0.00000833,0.001437
 34,0.00006400,-0.00006106,-0.00006551,-0.00003523,-0.00000074,0.000003
 22,-0.00003605,0.00001522,-0.00006327,0.00003354,-0.00000938,0.0000186
 5,0.00001888,-0.00000201,0.00003385,0.00000765,-0.00000413,-0.00000177
 ,-0.00000618,0.00002037,-0.00002323,-0.00001830,0.00002865,0.00000212,
 0.00002364,0.00000752,0.00001408,-0.00000422,-0.00000103,-0.00000475,0
 .00002701,-0.00000942,0.00002161,0.00046059,-0.00034311,0.00073986,0.0
 0137317,0.00419211,0.00279512,-0.13424432,-0.09710989,-0.11992314,0.00
 003103,-0.00004157,-0.00012254,0.00000247,-0.00002063,-0.00001157,-0.0
 0001260,0.00000238,-0.00000909,-0.00000256,-0.00000146,-0.00000778,0.0
 0000052,0.00000330,0.00000563,-0.00000592,-0.00002779,-0.00000351,-0.0
 0000056,-0.00000436,0.00000119,-0.00000941,-0.00000464,-0.00000928,0.0
 0013186,-0.00004855,0.00023653,0.00004705,0.00001780,-0.00014754,0.000
 63797,0.00028051,-0.00056022,0.00005358,0.00031345,0.00103369,0.008855
 73,0.01038902,0.01407591,-0.00241079,-0.01851607,-0.02367164,0.1301004
 1,0.00110017,-0.00001473,0.00005870,-0.00085844,0.00012263,0.00014092,
 0.00031024,-0.00009450,0.00004799,-0.00010575,0.00000526,0.00005847,-0
 .00010802,0.00006087,-0.00003282,0.00009915,-0.00004418,0.00000882,0.0
 0007356,-0.00004096,0.00001268,-0.00000402,-0.00001413,-0.00000088,-0.
 00000550,0.00001104,0.00000222,-0.00002693,0.00000955,0.00000569,0.000
 02897,-0.00001790,-0.00001503,0.00001172,-0.00000187,-0.00000747,0.000
 00464,-0.00000723,-0.00000143,-0.00046480,-0.00206413,0.00355448,0.010
 05684,0.01204611,0.01008968,-0.08947484,-0.17548932,-0.13779030,-0.000
 08490,0.00004120,-0.00006326,0.00003733,0.00001508,-0.00000189,-0.0000
 0804,0.00001655,-0.00000131,-0.00000118,-0.00001756,0.00000363,0.00000
 369,0.00000157,-0.00000265,-0.00000228,-0.00000238,0.00000544,0.000002
 99,0.00000251,0.00000117,-0.00000724,0.00000620,0.00000311,0.00076527,
 0.00060940,0.00076981,-0.00005103,0.00011591,0.00000613,0.00062338,0.0
 0033127,0.00090529,-0.00017459,-0.00013368,0.00008021,-0.01928984,-0.0
 1639613,-0.02424703,-0.00157493,-0.00089807,0.00025484,0.09912438,0.18
 184163,0.00322607,-0.00091046,0.00194287,-0.00002403,0.00026349,-0.001
 95557,0.00049467,-0.00001446,0.00068054,-0.00019509,0.00001557,0.00008
 703,-0.00019145,0.00008316,-0.00004070,0.00015589,-0.00004704,0.000014
 15,0.00011473,-0.00004312,0.00002952,-0.00004002,-0.00004558,0.0000305
 6,0.00000118,0.00001647,0.00002129,0.00000045,-0.00001137,0.00004085,0
 .00003279,-0.00001136,-0.00005877,0.00002753,-0.00001236,0.00000282,-0
 .00003220,0.00002580,-0.00005097,0.00174261,0.00399153,-0.00472163,-0.
 01445913,-0.01681248,-0.01745063,-0.11341039,-0.14044706,-0.22320615,0
 .00009038,0.00002032,-0.00006403,-0.00001099,0.00000296,-0.00000255,-0
 .00001874,0.00001017,-0.00000658,-0.00000885,-0.00003658,0.00001062,0.
 00001546,0.00000796,-0.00001141,0.00000008,0.00000305,0.00002258,0.000
 00104,0.00000223,-0.00000023,-0.00001842,-0.00000334,0.00001208,-0.001
 33127,-0.00076351,-0.00047656,0.00036321,0.00005252,0.00016768,-0.0004
 7781,0.00007761,0.00190269,0.00031165,-0.00052091,-0.00009240,0.001198
 78,0.00185825,0.00204907,-0.00241300,0.00709377,0.00708005,0.12485487,
 0.14615478,0.23404376\\0.00000104,0.00000433,-0.00000139,0.00000525,-0
 .00001684,0.00001092,-0.00000718,0.00000791,-0.00000347,-0.00000108,0.
 00000011,-0.00000133,-0.00000178,0.00000185,0.00000251,-0.00000242,-0.
 00000614,0.00000350,0.00000214,0.00000004,-0.00000153,0.00000266,0.000
 00114,0.00000038,0.00000169,0.00000055,-0.00000034,-0.00000013,0.00000
 010,0.00000078,0.00000072,-0.00000086,0.00000020,-0.00000283,0.0000003
 7,0.00000209,0.00000114,-0.00000253,-0.00000252,0.00000041,0.00000998,
 0.00000138,0.00000306,-0.00000196,-0.00000563,-0.00003766,-0.00000328,
 0.00001019,0.00000061,-0.00000110,-0.00000146,-0.00000090,-0.00000102,
 0.00000066,-0.00000006,0.00000120,-0.00000033,0.00000261,-0.00000046,-
 0.00000031,-0.00000029,-0.00000012,-0.00000059,0.00000032,-0.00000033,
 -0.00000008,-0.00000073,-0.00000072,0.00000052,-0.00000034,0.00000234,
 -0.00000048,0.00000007,-0.00000025,-0.00000115,0.00000052,0.00000047,-
 0.00000224,-0.00000001,0.00000019,0.00000026,-0.00000017,0.00000038,-0
 .00000018,0.00000076,-0.00000112,0.00000016,0.00003353,0.00000434,-0.0
 0001248,-0.00000094,0.00000144,0.00000197\\\@


 NO HUMAN INVESTIGATION CAN BECOME REAL SCIENCE
 WITHOUT GOING THROUGH MATHEMATICAL PEOPLE.
 -- LEONARDO DA VINCI, IN "PENSIERI" CA. 1492
 Job cpu time:       0 days  2 hours 29 minutes 21.9 seconds.
 File lengths (MBytes):  RWF=    460 Int=      0 D2E=      0 Chk=     13 Scr=      1
 Normal termination of Gaussian 09 at Wed Jul 28 23:45:53 2021.
