 Entering Gaussian System, Link 0=g09
 Input=opt_freq-conf-214.com
 Output=opt_freq-conf-214.log
 Initial command:
 /aerosol/software/g09/l1.exe "/scratch/nicole/10647/Gau-82932.inp" -scrdir="/scratch/nicole/10647/"
 Entering Link 1 = /aerosol/software/g09/l1.exe PID=     82936.
  
 Copyright (c) 1988,1990,1992,1993,1995,1998,2003,2009,2013,
            Gaussian, Inc.  All Rights Reserved.
  
 This is part of the Gaussian(R) 09 program.  It is based on
 the Gaussian(R) 03 system (copyright 2003, Gaussian, Inc.),
 the Gaussian(R) 98 system (copyright 1998, Gaussian, Inc.),
 the Gaussian(R) 94 system (copyright 1995, Gaussian, Inc.),
 the Gaussian 92(TM) system (copyright 1992, Gaussian, Inc.),
 the Gaussian 90(TM) system (copyright 1990, Gaussian, Inc.),
 the Gaussian 88(TM) system (copyright 1988, Gaussian, Inc.),
 the Gaussian 86(TM) system (copyright 1986, Carnegie Mellon
 University), and the Gaussian 82(TM) system (copyright 1983,
 Carnegie Mellon University). Gaussian is a federally registered
 trademark of Gaussian, Inc.
  
 This software contains proprietary and confidential information,
 including trade secrets, belonging to Gaussian, Inc.
  
 This software is provided under written license and may be
 used, copied, transmitted, or stored only in accord with that
 written license.
  
 The following legend is applicable only to US Government
 contracts under FAR:
  
                    RESTRICTED RIGHTS LEGEND
  
 Use, reproduction and disclosure by the US Government is
 subject to restrictions as set forth in subparagraphs (a)
 and (c) of the Commercial Computer Software - Restricted
 Rights clause in FAR 52.227-19.
  
 Gaussian, Inc.
 340 Quinnipiac St., Bldg. 40, Wallingford CT 06492
  
  
 ---------------------------------------------------------------
 Warning -- This program may not be used in any manner that
 competes with the business of Gaussian, Inc. or will provide
 assistance to any competitor of Gaussian, Inc.  The licensee
 of this program is prohibited from giving any competitor of
 Gaussian, Inc. access to this program.  By using this program,
 the user acknowledges that Gaussian, Inc. is engaged in the
 business of creating and licensing software in the field of
 computational chemistry and represents and warrants to the
 licensee that it is not a competitor of Gaussian, Inc. and that
 it will not use this program in any manner prohibited above.
 ---------------------------------------------------------------
  

 Cite this work as:
 Gaussian 09, Revision D.01,
 M. J. Frisch, G. W. Trucks, H. B. Schlegel, G. E. Scuseria, 
 M. A. Robb, J. R. Cheeseman, G. Scalmani, V. Barone, B. Mennucci, 
 G. A. Petersson, H. Nakatsuji, M. Caricato, X. Li, H. P. Hratchian, 
 A. F. Izmaylov, J. Bloino, G. Zheng, J. L. Sonnenberg, M. Hada, 
 M. Ehara, K. Toyota, R. Fukuda, J. Hasegawa, M. Ishida, T. Nakajima, 
 Y. Honda, O. Kitao, H. Nakai, T. Vreven, J. A. Montgomery, Jr., 
 J. E. Peralta, F. Ogliaro, M. Bearpark, J. J. Heyd, E. Brothers, 
 K. N. Kudin, V. N. Staroverov, T. Keith, R. Kobayashi, J. Normand, 
 K. Raghavachari, A. Rendell, J. C. Burant, S. S. Iyengar, J. Tomasi, 
 M. Cossi, N. Rega, J. M. Millam, M. Klene, J. E. Knox, J. B. Cross, 
 V. Bakken, C. Adamo, J. Jaramillo, R. Gomperts, R. E. Stratmann, 
 O. Yazyev, A. J. Austin, R. Cammi, C. Pomelli, J. W. Ochterski, 
 R. L. Martin, K. Morokuma, V. G. Zakrzewski, G. A. Voth, 
 P. Salvador, J. J. Dannenberg, S. Dapprich, A. D. Daniels, 
 O. Farkas, J. B. Foresman, J. V. Ortiz, J. Cioslowski, 
 and D. J. Fox, Gaussian, Inc., Wallingford CT, 2013.
 
 ******************************************
 Gaussian 09:  ES64L-G09RevD.01 24-Apr-2013
                28-Jul-2021 
 ******************************************
 %mem=2gb
 %nproc=4
 Will use up to    4 processors via shared memory.
 %chk=conf-214.chk
 ----------------------------------------------------------------------
 # B3LYP/6-31+G(d,p) opt=calcfc freq=noraman nosymm integral(ultrafineg
 rid)
 ----------------------------------------------------------------------
 1/10=4,14=-1,18=20,19=15,26=4,38=1/1,3;
 2/9=110,12=2,15=1,17=6,18=5,40=1/2;
 3/5=1,6=6,7=111,11=2,16=1,25=1,30=1,71=2,74=-5,75=-5,140=1/1,2,3;
 4//1;
 5/5=2,38=5/2;
 8/6=4,10=90,11=11/1;
 11/6=1,8=1,9=11,15=111,16=1,31=1/1,2,10;
 10/6=1,13=1,31=1/2;
 6/7=2,8=2,9=2,10=2,28=1/1;
 7/10=1,18=20,25=1,30=1/1,2,3,16;
 1/10=4,14=-1,18=20,19=15,26=4/3(2);
 2/9=110,15=1/2;
 99//99;
 2/9=110,15=1/2;
 3/5=1,6=6,7=111,11=2,16=1,25=1,30=1,71=1,74=-5,75=-5/1,2,3;
 4/5=5,16=3,69=1/1;
 5/5=2,38=5/2;
 7/30=1/1,2,3,16;
 1/14=-1,18=20,19=15,26=4/3(-5);
 2/9=110,15=1/2;
 6/7=2,8=2,9=2,10=2,19=2,28=1/1;
 99/9=1/99;
 ------------------------------------------------------------
 Candidate Structure: Conf:214 OPT and FREQ calc in gas phase
 ------------------------------------------------------------
 Symbolic Z-matrix:
 Charge =  1 Multiplicity = 1
 O                    -1.0496   -0.53171  -1.26429 
 C                    -1.10935  -0.17362  -0.09274 
 N                    -0.07815  -0.35767   0.78573 
 C                     1.02197  -1.24123   0.46697 
 C                     0.99565  -2.41586   1.43875 
 O                     1.65977  -3.52102   1.03213 
 O                     0.4677   -2.37978   2.51493 
 C                     2.39123  -0.554     0.56355 
 C                     2.65125   0.44626  -0.52716 
 C                     1.96614   0.8207   -1.6442 
 N                     2.65836   1.78482  -2.35484 
 C                     3.75716   1.98695  -1.66937 
 N                     3.80598   1.20777  -0.55842 
 C                    -2.2992    0.57826   0.4719 
 C                    -3.58898   0.26692  -0.27238 
 N                    -4.74081   1.0379    0.26778 
 H                    -0.28411  -0.2903    1.77378 
 H                     0.86987  -1.58714  -0.55552 
 H                     1.993    -3.39268   0.13839 
 H                     2.48575  -0.07101   1.5373 
 H                     3.17116  -1.32253   0.52594 
 H                     0.99862   0.45657  -1.9497 
 H                     4.54429   2.67546  -1.92422 
 H                     4.54554   1.18272   0.12319 
 H                    -2.08898   1.64809   0.38756 
 H                    -2.4075    0.3501    1.53438 
 H                    -3.79994  -0.79962  -0.20382 
 H                    -3.44895   0.49931  -1.32737 
 H                    -4.57879   2.04215   0.19387 
 H                    -5.60488   0.83192  -0.23548 
 H                    -4.90422   0.82239   1.25117 
 

 GradGradGradGradGradGradGradGradGradGradGradGradGradGradGradGradGradGrad
 Berny optimization.
 Initialization pass.
                           ----------------------------
                           !    Initial Parameters    !
                           ! (Angstroms and Degrees)  !
 --------------------------                            --------------------------
 ! Name  Definition              Value          Derivative Info.                !
 --------------------------------------------------------------------------------
 ! R1    R(1,2)                  1.2265         calculate D2E/DX2 analytically  !
 ! R2    R(2,3)                  1.3671         calculate D2E/DX2 analytically  !
 ! R3    R(2,14)                 1.5165         calculate D2E/DX2 analytically  !
 ! R4    R(3,4)                  1.4466         calculate D2E/DX2 analytically  !
 ! R5    R(3,17)                 1.0115         calculate D2E/DX2 analytically  !
 ! R6    R(4,5)                  1.5247         calculate D2E/DX2 analytically  !
 ! R7    R(4,8)                  1.5351         calculate D2E/DX2 analytically  !
 ! R8    R(4,18)                 1.0901         calculate D2E/DX2 analytically  !
 ! R9    R(5,6)                  1.3519         calculate D2E/DX2 analytically  !
 ! R10   R(5,7)                  1.1993         calculate D2E/DX2 analytically  !
 ! R11   R(6,19)                 0.9624         calculate D2E/DX2 analytically  !
 ! R12   R(8,9)                  1.5026         calculate D2E/DX2 analytically  !
 ! R13   R(8,20)                 1.0911         calculate D2E/DX2 analytically  !
 ! R14   R(8,21)                 1.0956         calculate D2E/DX2 analytically  !
 ! R15   R(9,10)                 1.3628         calculate D2E/DX2 analytically  !
 ! R16   R(9,13)                 1.3836         calculate D2E/DX2 analytically  !
 ! R17   R(10,11)                1.3834         calculate D2E/DX2 analytically  !
 ! R18   R(10,22)                1.078          calculate D2E/DX2 analytically  !
 ! R19   R(11,12)                1.3108         calculate D2E/DX2 analytically  !
 ! R20   R(12,13)                1.3578         calculate D2E/DX2 analytically  !
 ! R21   R(12,23)                1.0764         calculate D2E/DX2 analytically  !
 ! R22   R(13,24)                1.0061         calculate D2E/DX2 analytically  !
 ! R23   R(14,15)                1.5213         calculate D2E/DX2 analytically  !
 ! R24   R(14,25)                1.0935         calculate D2E/DX2 analytically  !
 ! R25   R(14,26)                1.0921         calculate D2E/DX2 analytically  !
 ! R26   R(15,16)                1.4876         calculate D2E/DX2 analytically  !
 ! R27   R(15,27)                1.0894         calculate D2E/DX2 analytically  !
 ! R28   R(15,28)                1.0893         calculate D2E/DX2 analytically  !
 ! R29   R(16,29)                1.0199         calculate D2E/DX2 analytically  !
 ! R30   R(16,30)                1.0209         calculate D2E/DX2 analytically  !
 ! R31   R(16,31)                1.0199         calculate D2E/DX2 analytically  !
 ! A1    A(1,2,3)              122.5296         calculate D2E/DX2 analytically  !
 ! A2    A(1,2,14)             122.5885         calculate D2E/DX2 analytically  !
 ! A3    A(3,2,14)             114.7914         calculate D2E/DX2 analytically  !
 ! A4    A(2,3,4)              120.9497         calculate D2E/DX2 analytically  !
 ! A5    A(2,3,17)             117.7175         calculate D2E/DX2 analytically  !
 ! A6    A(4,3,17)             114.253          calculate D2E/DX2 analytically  !
 ! A7    A(3,4,5)              108.4804         calculate D2E/DX2 analytically  !
 ! A8    A(3,4,8)              113.0197         calculate D2E/DX2 analytically  !
 ! A9    A(3,4,18)             107.1214         calculate D2E/DX2 analytically  !
 ! A10   A(5,4,8)              108.6745         calculate D2E/DX2 analytically  !
 ! A11   A(5,4,18)             110.5452         calculate D2E/DX2 analytically  !
 ! A12   A(8,4,18)             108.9981         calculate D2E/DX2 analytically  !
 ! A13   A(4,5,6)              115.4415         calculate D2E/DX2 analytically  !
 ! A14   A(4,5,7)              123.8043         calculate D2E/DX2 analytically  !
 ! A15   A(6,5,7)              120.7138         calculate D2E/DX2 analytically  !
 ! A16   A(5,6,19)             109.8994         calculate D2E/DX2 analytically  !
 ! A17   A(4,8,9)              113.9978         calculate D2E/DX2 analytically  !
 ! A18   A(4,8,20)             109.366          calculate D2E/DX2 analytically  !
 ! A19   A(4,8,21)             108.5884         calculate D2E/DX2 analytically  !
 ! A20   A(9,8,20)             109.7652         calculate D2E/DX2 analytically  !
 ! A21   A(9,8,21)             108.5944         calculate D2E/DX2 analytically  !
 ! A22   A(20,8,21)            106.2301         calculate D2E/DX2 analytically  !
 ! A23   A(8,9,10)             133.699          calculate D2E/DX2 analytically  !
 ! A24   A(8,9,13)             121.8173         calculate D2E/DX2 analytically  !
 ! A25   A(10,9,13)            104.467          calculate D2E/DX2 analytically  !
 ! A26   A(9,10,11)            111.1605         calculate D2E/DX2 analytically  !
 ! A27   A(9,10,22)            126.2051         calculate D2E/DX2 analytically  !
 ! A28   A(11,10,22)           122.6126         calculate D2E/DX2 analytically  !
 ! A29   A(10,11,12)           104.9693         calculate D2E/DX2 analytically  !
 ! A30   A(11,12,13)           111.6857         calculate D2E/DX2 analytically  !
 ! A31   A(11,12,23)           126.0041         calculate D2E/DX2 analytically  !
 ! A32   A(13,12,23)           122.3101         calculate D2E/DX2 analytically  !
 ! A33   A(9,13,12)            107.7173         calculate D2E/DX2 analytically  !
 ! A34   A(9,13,24)            125.7679         calculate D2E/DX2 analytically  !
 ! A35   A(12,13,24)           126.5148         calculate D2E/DX2 analytically  !
 ! A36   A(2,14,15)            112.4305         calculate D2E/DX2 analytically  !
 ! A37   A(2,14,25)            107.7876         calculate D2E/DX2 analytically  !
 ! A38   A(2,14,26)            109.6605         calculate D2E/DX2 analytically  !
 ! A39   A(15,14,25)           108.9935         calculate D2E/DX2 analytically  !
 ! A40   A(15,14,26)           110.4352         calculate D2E/DX2 analytically  !
 ! A41   A(25,14,26)           107.3665         calculate D2E/DX2 analytically  !
 ! A42   A(14,15,16)           111.8848         calculate D2E/DX2 analytically  !
 ! A43   A(14,15,27)           109.4968         calculate D2E/DX2 analytically  !
 ! A44   A(14,15,28)           108.734          calculate D2E/DX2 analytically  !
 ! A45   A(16,15,27)           109.5496         calculate D2E/DX2 analytically  !
 ! A46   A(16,15,28)           109.9155         calculate D2E/DX2 analytically  !
 ! A47   A(27,15,28)           107.1398         calculate D2E/DX2 analytically  !
 ! A48   A(15,16,29)           111.1616         calculate D2E/DX2 analytically  !
 ! A49   A(15,16,30)           111.825          calculate D2E/DX2 analytically  !
 ! A50   A(15,16,31)           111.386          calculate D2E/DX2 analytically  !
 ! A51   A(29,16,30)           107.301          calculate D2E/DX2 analytically  !
 ! A52   A(29,16,31)           107.6609         calculate D2E/DX2 analytically  !
 ! A53   A(30,16,31)           107.2807         calculate D2E/DX2 analytically  !
 ! D1    D(1,2,3,4)            -13.7324         calculate D2E/DX2 analytically  !
 ! D2    D(1,2,3,17)          -162.6151         calculate D2E/DX2 analytically  !
 ! D3    D(14,2,3,4)           169.6455         calculate D2E/DX2 analytically  !
 ! D4    D(14,2,3,17)           20.7628         calculate D2E/DX2 analytically  !
 ! D5    D(1,2,14,15)           27.4281         calculate D2E/DX2 analytically  !
 ! D6    D(1,2,14,25)          -92.7184         calculate D2E/DX2 analytically  !
 ! D7    D(1,2,14,26)          150.6984         calculate D2E/DX2 analytically  !
 ! D8    D(3,2,14,15)         -155.952          calculate D2E/DX2 analytically  !
 ! D9    D(3,2,14,25)           83.9015         calculate D2E/DX2 analytically  !
 ! D10   D(3,2,14,26)          -32.6817         calculate D2E/DX2 analytically  !
 ! D11   D(2,3,4,5)           -114.4931         calculate D2E/DX2 analytically  !
 ! D12   D(2,3,4,8)            124.9223         calculate D2E/DX2 analytically  !
 ! D13   D(2,3,4,18)             4.8568         calculate D2E/DX2 analytically  !
 ! D14   D(17,3,4,5)            35.3894         calculate D2E/DX2 analytically  !
 ! D15   D(17,3,4,8)           -85.1953         calculate D2E/DX2 analytically  !
 ! D16   D(17,3,4,18)          154.7393         calculate D2E/DX2 analytically  !
 ! D17   D(3,4,5,6)            159.6472         calculate D2E/DX2 analytically  !
 ! D18   D(3,4,5,7)            -22.6568         calculate D2E/DX2 analytically  !
 ! D19   D(8,4,5,6)            -77.1104         calculate D2E/DX2 analytically  !
 ! D20   D(8,4,5,7)            100.5856         calculate D2E/DX2 analytically  !
 ! D21   D(18,4,5,6)            42.4697         calculate D2E/DX2 analytically  !
 ! D22   D(18,4,5,7)          -139.8342         calculate D2E/DX2 analytically  !
 ! D23   D(3,4,8,9)            -70.9751         calculate D2E/DX2 analytically  !
 ! D24   D(3,4,8,20)            52.3124         calculate D2E/DX2 analytically  !
 ! D25   D(3,4,8,21)           167.8289         calculate D2E/DX2 analytically  !
 ! D26   D(5,4,8,9)            168.5509         calculate D2E/DX2 analytically  !
 ! D27   D(5,4,8,20)           -68.1617         calculate D2E/DX2 analytically  !
 ! D28   D(5,4,8,21)            47.3549         calculate D2E/DX2 analytically  !
 ! D29   D(18,4,8,9)            48.0098         calculate D2E/DX2 analytically  !
 ! D30   D(18,4,8,20)          171.2972         calculate D2E/DX2 analytically  !
 ! D31   D(18,4,8,21)          -73.1862         calculate D2E/DX2 analytically  !
 ! D32   D(4,5,6,19)            -4.2457         calculate D2E/DX2 analytically  !
 ! D33   D(7,5,6,19)           177.9811         calculate D2E/DX2 analytically  !
 ! D34   D(4,8,9,10)            -5.0285         calculate D2E/DX2 analytically  !
 ! D35   D(4,8,9,13)           176.7125         calculate D2E/DX2 analytically  !
 ! D36   D(20,8,9,10)         -128.0989         calculate D2E/DX2 analytically  !
 ! D37   D(20,8,9,13)           53.642          calculate D2E/DX2 analytically  !
 ! D38   D(21,8,9,10)          116.1642         calculate D2E/DX2 analytically  !
 ! D39   D(21,8,9,13)          -62.0949         calculate D2E/DX2 analytically  !
 ! D40   D(8,9,10,11)         -178.6068         calculate D2E/DX2 analytically  !
 ! D41   D(8,9,10,22)            3.0695         calculate D2E/DX2 analytically  !
 ! D42   D(13,9,10,11)          -0.1345         calculate D2E/DX2 analytically  !
 ! D43   D(13,9,10,22)        -178.4582         calculate D2E/DX2 analytically  !
 ! D44   D(8,9,13,12)          178.7672         calculate D2E/DX2 analytically  !
 ! D45   D(8,9,13,24)           -1.1857         calculate D2E/DX2 analytically  !
 ! D46   D(10,9,13,12)           0.067          calculate D2E/DX2 analytically  !
 ! D47   D(10,9,13,24)        -179.8859         calculate D2E/DX2 analytically  !
 ! D48   D(9,10,11,12)           0.1507         calculate D2E/DX2 analytically  !
 ! D49   D(22,10,11,12)        178.5449         calculate D2E/DX2 analytically  !
 ! D50   D(10,11,12,13)         -0.1052         calculate D2E/DX2 analytically  !
 ! D51   D(10,11,12,23)        179.8774         calculate D2E/DX2 analytically  !
 ! D52   D(11,12,13,9)           0.0256         calculate D2E/DX2 analytically  !
 ! D53   D(11,12,13,24)        179.978          calculate D2E/DX2 analytically  !
 ! D54   D(23,12,13,9)        -179.9578         calculate D2E/DX2 analytically  !
 ! D55   D(23,12,13,24)         -0.0055         calculate D2E/DX2 analytically  !
 ! D56   D(2,14,15,16)        -178.4771         calculate D2E/DX2 analytically  !
 ! D57   D(2,14,15,27)          59.8705         calculate D2E/DX2 analytically  !
 ! D58   D(2,14,15,28)         -56.8858         calculate D2E/DX2 analytically  !
 ! D59   D(25,14,15,16)        -59.0308         calculate D2E/DX2 analytically  !
 ! D60   D(25,14,15,27)        179.3167         calculate D2E/DX2 analytically  !
 ! D61   D(25,14,15,28)         62.5605         calculate D2E/DX2 analytically  !
 ! D62   D(26,14,15,16)         58.687          calculate D2E/DX2 analytically  !
 ! D63   D(26,14,15,27)        -62.9654         calculate D2E/DX2 analytically  !
 ! D64   D(26,14,15,28)       -179.7217         calculate D2E/DX2 analytically  !
 ! D65   D(14,15,16,29)         59.7998         calculate D2E/DX2 analytically  !
 ! D66   D(14,15,16,30)        179.7036         calculate D2E/DX2 analytically  !
 ! D67   D(14,15,16,31)        -60.2646         calculate D2E/DX2 analytically  !
 ! D68   D(27,15,16,29)       -178.5782         calculate D2E/DX2 analytically  !
 ! D69   D(27,15,16,30)        -58.6744         calculate D2E/DX2 analytically  !
 ! D70   D(27,15,16,31)         61.3575         calculate D2E/DX2 analytically  !
 ! D71   D(28,15,16,29)        -61.1086         calculate D2E/DX2 analytically  !
 ! D72   D(28,15,16,30)         58.7951         calculate D2E/DX2 analytically  !
 ! D73   D(28,15,16,31)        178.827          calculate D2E/DX2 analytically  !
 --------------------------------------------------------------------------------
 Trust Radius=3.00D-01 FncErr=1.00D-07 GrdErr=1.00D-06
 Number of steps in this run=    167 maximum allowed number of steps=    186.
 GradGradGradGradGradGradGradGradGradGradGradGradGradGradGradGradGradGrad

                          Input orientation:                          
 ---------------------------------------------------------------------
 Center     Atomic      Atomic             Coordinates (Angstroms)
 Number     Number       Type             X           Y           Z
 ---------------------------------------------------------------------
      1          8           0       -1.049596   -0.531706   -1.264292
      2          6           0       -1.109346   -0.173623   -0.092736
      3          7           0       -0.078151   -0.357673    0.785728
      4          6           0        1.021972   -1.241229    0.466970
      5          6           0        0.995651   -2.415864    1.438746
      6          8           0        1.659768   -3.521016    1.032134
      7          8           0        0.467700   -2.379782    2.514929
      8          6           0        2.391234   -0.553995    0.563546
      9          6           0        2.651246    0.446263   -0.527163
     10          6           0        1.966139    0.820698   -1.644203
     11          7           0        2.658360    1.784824   -2.354840
     12          6           0        3.757165    1.986952   -1.669368
     13          7           0        3.805978    1.207767   -0.558422
     14          6           0       -2.299205    0.578256    0.471900
     15          6           0       -3.588979    0.266920   -0.272377
     16          7           0       -4.740810    1.037903    0.267777
     17          1           0       -0.284107   -0.290299    1.773778
     18          1           0        0.869867   -1.587145   -0.555517
     19          1           0        1.992998   -3.392677    0.138393
     20          1           0        2.485753   -0.071009    1.537297
     21          1           0        3.171155   -1.322535    0.525938
     22          1           0        0.998621    0.456573   -1.949698
     23          1           0        4.544285    2.675463   -1.924222
     24          1           0        4.545540    1.182715    0.123195
     25          1           0       -2.088981    1.648089    0.387562
     26          1           0       -2.407496    0.350098    1.534384
     27          1           0       -3.799939   -0.799621   -0.203819
     28          1           0       -3.448949    0.499307   -1.327374
     29          1           0       -4.578785    2.042150    0.193870
     30          1           0       -5.604884    0.831919   -0.235479
     31          1           0       -4.904217    0.822388    1.251171
 ---------------------------------------------------------------------
                    Distance matrix (angstroms):
                    1          2          3          4          5
     1  O    0.000000
     2  C    1.226515   0.000000
     3  N    2.275209   1.367090   0.000000
     4  C    2.791431   2.448585   1.446564   0.000000
     5  C    3.878080   3.435709   2.411563   1.524733   0.000000
     6  O    4.642219   4.487579   3.617709   2.433849   1.351941
     7  O    4.472145   3.762197   2.716066   2.407832   1.199251
     8  C    3.896254   3.581822   2.487120   1.535088   2.485998
     9  C    3.898207   3.836019   3.133624   2.547639   3.846761
    10  C    3.326858   3.585294   3.387070   3.098394   4.574031
    11  N    4.506056   4.811262   4.684223   4.449424   5.899295
    12  C    5.441752   5.553087   5.121953   4.739870   6.055669
    13  N    5.205825   5.126940   4.398158   3.847037   5.001732
    14  C    2.409959   1.516542   2.430541   3.786920   4.555834
    15  C    2.840804   2.524862   3.719626   4.907343   5.580690
    16  N    4.293713   3.845165   4.894517   6.200304   6.797548
    17  H    3.142311   2.044140   1.011534   2.077945   2.503608
    18  H    2.302314   2.475782   2.051652   1.090080   2.163258
    19  H    4.405684   4.476635   3.730945   2.383187   1.907821
    20  H    4.534295   3.948705   2.687124   2.158163   2.780011
    21  H    4.652427   4.474980   3.399476   2.151529   2.600271
    22  H    2.375220   2.879060   3.050408   2.953534   4.442124
    23  H    6.481739   6.590537   6.157163   5.784892   7.058610
    24  H    6.014142   5.819280   4.918360   4.290597   5.223233
    25  H    2.925825   2.123442   2.867936   4.246469   5.209190
    26  H    3.233275   2.146392   2.547013   3.928479   4.386468
    27  H    2.959860   2.764689   3.876368   4.888334   5.320522
    28  H    2.612253   2.729635   4.069631   5.122331   5.992004
    29  H    4.605014   4.126597   5.134701   6.497972   7.245546
    30  H    4.865036   4.608834   5.744804   6.979011   7.544414
    31  H    4.797836   4.147188   4.989999   6.324018   6.732748
                    6          7          8          9         10
     6  O    0.000000
     7  O    2.218586   0.000000
     8  C    3.091574   3.292624   0.000000
     9  C    4.376498   4.691346   1.502588   0.000000
    10  C    5.109513   5.457726   2.635269   1.362847   0.000000
    11  N    6.373438   6.771823   3.749454   2.265436   1.383370
    12  C    6.483432   6.884568   3.648025   2.213913   2.137418
    13  N    5.431157   5.784470   2.522720   1.383571   2.171117
    14  C    5.726373   4.536487   4.826034   5.051981   4.767581
    15  C    6.602995   5.588448   6.093899   6.247999   5.748731
    16  N    7.895276   6.622600   7.313526   7.458181   6.977536
    17  H    3.842683   2.341037   2.948159   3.801730   4.240344
    18  H    2.623821   3.196506   2.152732   2.703491   2.860901
    19  H    0.962438   3.000069   2.897837   3.951420   4.575030
    20  H    3.583293   3.218499   1.091055   2.134702   3.344710
    21  H    2.715482   3.518882   1.095603   2.123199   3.279485
    22  H    5.014943   5.315984   3.045819   2.180569   1.077963
    23  H    7.446935   7.866392   4.610209   3.241096   3.188323
    24  H    5.592758   5.919507   2.801983   2.133934   3.147708
    25  H    6.417807   5.223606   4.995245   4.975024   4.610493
    26  H    5.637412   4.084172   4.978727   5.463524   5.427114
    27  H    6.224305   5.301061   6.243381   6.578341   6.160178
    28  H    6.915870   6.196175   6.228384   6.152685   5.433862
    29  H    8.400657   7.099845   7.446999   7.439093   6.906989
    30  H    8.563296   7.399732   8.154575   8.270278   7.700975
    31  H    7.873946   6.380318   7.455927   7.771033   7.455533
                   11         12         13         14         15
    11  N    0.000000
    12  C    1.310762   0.000000
    13  N    2.208424   1.357834   0.000000
    14  C    5.832985   6.576402   6.223432   0.000000
    15  C    6.757953   7.673064   7.460053   1.521313   0.000000
    16  N    7.885666   8.767485   8.588308   2.492865   1.487580
    17  H    5.478114   5.776937   4.940865   2.551449   3.926757
    18  H    4.219768   4.727718   4.053675   3.973356   4.837255
    19  H    5.784931   5.943121   4.993649   5.856836   6.687290
    20  H    4.315395   4.016764   2.787526   4.944940   6.347557
    21  H    4.268198   4.014408   2.825113   5.791439   6.990213
    22  H    2.164053   3.167050   3.221986   4.093239   4.888297
    23  H    2.129644   1.076363   2.136502   7.548048   8.641739
    24  H    3.172481   2.116982   1.006073   6.880225   8.195459
    25  H    5.484224   6.206706   5.986594   1.093550   2.143161
    26  H    6.545793   7.137672   6.612314   1.092088   2.160372
    27  H    7.281200   8.186736   7.874346   2.146472   1.089364
    28  H    6.325146   7.366012   7.329882   2.136710   1.089325
    29  H    7.677136   8.541825   8.459692   2.723375   2.085316
    30  H    8.583759   9.541388   9.423899   3.390021   2.093910
    31  H    8.433396   9.214406   8.904528   2.730009   2.087964
                   16         17         18         19         20
    16  N    0.000000
    17  H    4.888186   0.000000
    18  H    6.248871   2.905009   0.000000
    19  H    8.061696   4.181439   2.236712   0.000000
    20  H    7.420551   2.788572   3.047888   3.637749   0.000000
    21  H    8.260599   3.815947   2.556460   2.413241   1.748983
    22  H    6.180308   4.008427   2.477317   4.490616   3.827406
    23  H    9.679848   6.766411   5.791764   6.898244   4.874708
    24  H    9.288604   5.312220   4.652241   5.239267   2.795395
    25  H    2.723761   2.989401   4.484520   6.491068   5.020496
    26  H    2.742576   2.230740   4.343007   5.943190   4.911337
    27  H    2.117577   4.065880   4.748787   6.356034   6.562948
    28  H    2.122144   4.500761   4.858109   6.849146   6.614551
    29  H    1.019914   5.136213   6.589474   8.528115   7.495194
    30  H    1.020940   5.797168   6.919299   8.701425   8.331651
    31  H    1.019908   4.780858   6.512297   8.159449   7.449273
                   21         22         23         24         25
    21  H    0.000000
    22  H    3.743515   0.000000
    23  H    4.885976   4.182805   0.000000
    24  H    2.885726   4.171906   2.533814   0.000000
    25  H    6.042581   4.051640   7.099300   6.656075   0.000000
    26  H    5.910670   4.873583   8.105341   7.143488   1.761089
    27  H    7.028666   5.258545   9.201200   8.583916   3.044404
    28  H    7.111937   4.491102   8.305642   8.153714   2.471886
    29  H    8.455350   6.181942   9.387109   9.164984   2.528226
    30  H    9.068643   6.832694  10.452566  10.162815   3.662770
    31  H    8.386792   6.724796  10.138599   9.523658   3.058293
                   26         27         28         29         30
    26  H    0.000000
    27  H    2.506413   0.000000
    28  H    3.049024   1.752935   0.000000
    29  H    3.061783   2.973284   2.443579   0.000000
    30  H    3.686171   2.433259   2.439450   1.643739   0.000000
    31  H    2.556732   2.442814   2.978435   1.646696   1.643518
                   31
    31  H    0.000000
 Symmetry turned off by external request.
 Stoichiometry    C9H15N4O3(1+)
 Framework group  C1[X(C9H15N4O3)]
 Deg. of freedom    87
 Full point group                 C1      NOp   1
 Rotational constants (GHZ):      0.5724950      0.3213214      0.2246511
 Standard basis: 6-31+G(d,p) (6D, 7F)
   379 basis functions,   617 primitive gaussians,   379 cartesian basis functions
    60 alpha electrons       60 beta electrons
       nuclear repulsion energy      1121.2879976823 Hartrees.
 NAtoms=   31 NActive=   31 NUniq=   31 SFac= 1.00D+00 NAtFMM=   60 NAOKFM=F Big=F
 Integral buffers will be    131072 words long.
 Raffenetti 2 integral format.
 Two-electron integral symmetry is turned off.
 One-electron integrals computed using PRISM.
 NBasis=   379 RedAO= T EigKep=  2.44D-06  NBF=   379
 NBsUse=   379 1.00D-06 EigRej= -1.00D+00 NBFU=   379
 ExpMin= 4.38D-02 ExpMax= 5.48D+03 ExpMxC= 8.25D+02 IAcc=3 IRadAn=         5 AccDes= 0.00D+00
 Harris functional with IExCor=  402 and IRadAn=       5 diagonalized for initial guess.
 HarFok:  IExCor=  402 AccDes= 0.00D+00 IRadAn=         5 IDoV= 1 UseB2=F ITyADJ=14
 ICtDFT=  3500011 ScaDFX=  1.000000  1.000000  1.000000  1.000000
 FoFCou: FMM=F IPFlag=           0 FMFlag=      100000 FMFlg1=           0
         NFxFlg=           0 DoJE=T BraDBF=F KetDBF=T FulRan=T
         wScrn=  0.000000 ICntrl=     500 IOpCl=  0 I1Cent=   200000004 NGrid=           0
         NMat0=    1 NMatS0=      1 NMatT0=    0 NMatD0=    1 NMtDS0=    0 NMtDT0=    0
 Symmetry not used in FoFCou.
 Requested convergence on RMS density matrix=1.00D-08 within 128 cycles.
 Requested convergence on MAX density matrix=1.00D-06.
 Requested convergence on             energy=1.00D-06.
 No special actions if energy rises.
 EnCoef did     1 forward-backward iterations
 SCF Done:  E(RB3LYP) =  -796.493833446     A.U. after   17 cycles
            NFock= 17  Conv=0.60D-08     -V/T= 2.0090
 DoSCS=F DFT=T ScalE2(SS,OS)=  1.000000  1.000000
 Range of M.O.s used for correlation:     1   379
 NBasis=   379 NAE=    60 NBE=    60 NFC=     0 NFV=     0
 NROrb=    379 NOA=    60 NOB=    60 NVA=   319 NVB=   319

 **** Warning!!: The largest alpha MO coefficient is  0.15715534D+03

 Symmetrizing basis deriv contribution to polar:
 IMax=3 JMax=2 DiffMx= 0.00D+00
 G2DrvN: will do    32 centers at a time, making    1 passes.
 Calling FoFCou, ICntrl=  3107 FMM=F I1Cent=   0 AccDes= 0.00D+00.
 End of G2Drv F.D. properties file   721 does not exist.
 End of G2Drv F.D. properties file   722 does not exist.
 End of G2Drv F.D. properties file   788 does not exist.
          IDoAtm=1111111111111111111111111111111
          Differentiating once with respect to nuclear coordinates.
          There are    96 degrees of freedom in the 1st order CPHF.  IDoFFX=6 NUNeed=     0.
     90 vectors produced by pass  0 Test12= 1.99D-14 1.04D-09 XBig12= 2.34D-01 8.85D-02.
 AX will form    90 AO Fock derivatives at one time.
     90 vectors produced by pass  1 Test12= 1.99D-14 1.04D-09 XBig12= 1.73D-02 3.79D-02.
     90 vectors produced by pass  2 Test12= 1.99D-14 1.04D-09 XBig12= 2.03D-04 1.70D-03.
     90 vectors produced by pass  3 Test12= 1.99D-14 1.04D-09 XBig12= 6.70D-07 1.02D-04.
     90 vectors produced by pass  4 Test12= 1.99D-14 1.04D-09 XBig12= 1.35D-09 5.59D-06.
     80 vectors produced by pass  5 Test12= 1.99D-14 1.04D-09 XBig12= 1.56D-12 1.48D-07.
     26 vectors produced by pass  6 Test12= 1.99D-14 1.04D-09 XBig12= 2.06D-15 4.93D-09.
      5 vectors produced by pass  7 Test12= 1.99D-14 1.04D-09 XBig12= 2.17D-16 1.60D-09.
      1 vectors produced by pass  8 Test12= 1.99D-14 1.04D-09 XBig12= 1.15D-16 1.50D-09.
 InvSVY:  IOpt=1 It=  1 EMax= 6.66D-16
 Solved reduced A of dimension   562 with    96 vectors.
 End of Minotr F.D. properties file   721 does not exist.
 End of Minotr F.D. properties file   722 does not exist.
 End of Minotr F.D. properties file   788 does not exist.

 **********************************************************************

            Population analysis using the SCF density.

 **********************************************************************

 Alpha  occ. eigenvalues --  -19.31683 -19.26903 -19.26355 -14.67677 -14.50304
 Alpha  occ. eigenvalues --  -14.47932 -14.39815 -10.44400 -10.44070 -10.43829
 Alpha  occ. eigenvalues --  -10.38122 -10.36953 -10.32289 -10.32270 -10.31321
 Alpha  occ. eigenvalues --  -10.28114  -1.22615  -1.22393  -1.18803  -1.14776
 Alpha  occ. eigenvalues --   -1.10454  -1.07088  -0.97849  -0.95761  -0.92171
 Alpha  occ. eigenvalues --   -0.86538  -0.83702  -0.80444  -0.79915  -0.77631
 Alpha  occ. eigenvalues --   -0.74056  -0.72427  -0.70654  -0.70104  -0.68811
 Alpha  occ. eigenvalues --   -0.67688  -0.65411  -0.63035  -0.62474  -0.60847
 Alpha  occ. eigenvalues --   -0.58909  -0.57455  -0.56746  -0.56005  -0.55293
 Alpha  occ. eigenvalues --   -0.54372  -0.52651  -0.52439  -0.51723  -0.50184
 Alpha  occ. eigenvalues --   -0.49971  -0.49345  -0.48268  -0.43888  -0.41078
 Alpha  occ. eigenvalues --   -0.40820  -0.39234  -0.36594  -0.35161  -0.31625
 Alpha virt. eigenvalues --   -0.20410  -0.14699  -0.14101  -0.13323  -0.11875
 Alpha virt. eigenvalues --   -0.11574  -0.10047  -0.09802  -0.08644  -0.07868
 Alpha virt. eigenvalues --   -0.07212  -0.06869  -0.06556  -0.05953  -0.05218
 Alpha virt. eigenvalues --   -0.04136  -0.03680  -0.03457  -0.02770  -0.02527
 Alpha virt. eigenvalues --   -0.02301  -0.01851  -0.01083  -0.00902  -0.00288
 Alpha virt. eigenvalues --    0.00023   0.00297   0.00704   0.01177   0.01936
 Alpha virt. eigenvalues --    0.02346   0.02779   0.03383   0.03984   0.04047
 Alpha virt. eigenvalues --    0.05157   0.05450   0.06004   0.06536   0.07061
 Alpha virt. eigenvalues --    0.07475   0.08105   0.08623   0.08991   0.09399
 Alpha virt. eigenvalues --    0.09508   0.09817   0.10268   0.10750   0.11282
 Alpha virt. eigenvalues --    0.11846   0.12149   0.12355   0.12939   0.13355
 Alpha virt. eigenvalues --    0.13499   0.14102   0.14635   0.15389   0.15931
 Alpha virt. eigenvalues --    0.16188   0.16667   0.17196   0.17320   0.18121
 Alpha virt. eigenvalues --    0.18469   0.18900   0.19485   0.19893   0.20383
 Alpha virt. eigenvalues --    0.20586   0.21148   0.21777   0.22103   0.22648
 Alpha virt. eigenvalues --    0.23196   0.24103   0.24147   0.24828   0.25040
 Alpha virt. eigenvalues --    0.25624   0.26106   0.26232   0.26658   0.27259
 Alpha virt. eigenvalues --    0.27800   0.28174   0.29869   0.30026   0.31383
 Alpha virt. eigenvalues --    0.32042   0.33216   0.34612   0.35486   0.39039
 Alpha virt. eigenvalues --    0.40326   0.42100   0.42211   0.45729   0.46185
 Alpha virt. eigenvalues --    0.46566   0.48940   0.51519   0.55848   0.56028
 Alpha virt. eigenvalues --    0.57846   0.58907   0.60174   0.61896   0.62235
 Alpha virt. eigenvalues --    0.62831   0.63976   0.66151   0.66870   0.67854
 Alpha virt. eigenvalues --    0.68152   0.68484   0.69834   0.70406   0.71333
 Alpha virt. eigenvalues --    0.73579   0.74071   0.75972   0.76717   0.78406
 Alpha virt. eigenvalues --    0.78886   0.80042   0.80453   0.82468   0.83309
 Alpha virt. eigenvalues --    0.83884   0.85963   0.86766   0.87536   0.88840
 Alpha virt. eigenvalues --    0.89501   0.89866   0.91284   0.92192   0.92613
 Alpha virt. eigenvalues --    0.93555   0.94228   0.94517   0.96856   0.97874
 Alpha virt. eigenvalues --    0.99509   1.00352   1.00764   1.01528   1.04397
 Alpha virt. eigenvalues --    1.04866   1.06057   1.07610   1.08505   1.10349
 Alpha virt. eigenvalues --    1.11928   1.13533   1.14630   1.15027   1.16763
 Alpha virt. eigenvalues --    1.18882   1.19475   1.21165   1.22425   1.22533
 Alpha virt. eigenvalues --    1.23361   1.24291   1.26166   1.27251   1.28573
 Alpha virt. eigenvalues --    1.29256   1.30505   1.31891   1.32996   1.33215
 Alpha virt. eigenvalues --    1.34583   1.36405   1.39053   1.40467   1.42066
 Alpha virt. eigenvalues --    1.42912   1.45281   1.45984   1.47383   1.48869
 Alpha virt. eigenvalues --    1.50208   1.52833   1.54402   1.55787   1.57756
 Alpha virt. eigenvalues --    1.60054   1.62372   1.63362   1.64615   1.66404
 Alpha virt. eigenvalues --    1.68364   1.69449   1.71676   1.72696   1.73402
 Alpha virt. eigenvalues --    1.73811   1.75294   1.76351   1.78144   1.78514
 Alpha virt. eigenvalues --    1.79926   1.80631   1.82084   1.84618   1.86342
 Alpha virt. eigenvalues --    1.87906   1.89104   1.90631   1.91918   1.93651
 Alpha virt. eigenvalues --    1.95558   1.97064   1.97889   1.99486   2.00347
 Alpha virt. eigenvalues --    2.01439   2.02242   2.02937   2.04321   2.05289
 Alpha virt. eigenvalues --    2.05995   2.08090   2.08854   2.09722   2.10145
 Alpha virt. eigenvalues --    2.12764   2.15105   2.16424   2.17033   2.19844
 Alpha virt. eigenvalues --    2.22233   2.23678   2.24135   2.27634   2.29307
 Alpha virt. eigenvalues --    2.30842   2.31270   2.35295   2.35642   2.36816
 Alpha virt. eigenvalues --    2.37904   2.39597   2.41156   2.42259   2.43843
 Alpha virt. eigenvalues --    2.45200   2.46975   2.49231   2.49640   2.50648
 Alpha virt. eigenvalues --    2.50917   2.53814   2.54454   2.55392   2.56202
 Alpha virt. eigenvalues --    2.57441   2.59222   2.60650   2.61533   2.62485
 Alpha virt. eigenvalues --    2.64539   2.65334   2.67318   2.67703   2.69106
 Alpha virt. eigenvalues --    2.71694   2.71875   2.73209   2.73465   2.76216
 Alpha virt. eigenvalues --    2.77333   2.80634   2.82581   2.87547   2.92483
 Alpha virt. eigenvalues --    2.93195   2.95904   2.97165   2.97767   3.02727
 Alpha virt. eigenvalues --    3.03175   3.07624   3.12280   3.13147   3.15177
 Alpha virt. eigenvalues --    3.16699   3.18584   3.23979   3.26365   3.27502
 Alpha virt. eigenvalues --    3.28454   3.32728   3.38416   3.41235   3.45745
 Alpha virt. eigenvalues --    3.46467   3.51739   3.64278   3.97247   4.15583
 Alpha virt. eigenvalues --    4.16594   4.19644   4.24018   4.26144   4.29890
 Alpha virt. eigenvalues --    4.31817   4.32605   4.42591   4.44341   4.47652
 Alpha virt. eigenvalues --    4.51915   4.57870   4.60686   4.77197
          Condensed to atoms (all electrons):
               1          2          3          4          5          6
     1  O    8.204725   0.357434  -0.150703   0.000761  -0.028998  -0.000575
     2  C    0.357434   7.817852   0.120577  -0.338894   0.001245   0.023647
     3  N   -0.150703   0.120577   7.527921  -0.824809   0.388396   0.013142
     4  C    0.000761  -0.338894  -0.824809  17.196021  -6.853941  -0.359390
     5  C   -0.028998   0.001245   0.388396  -6.853941  10.718706   0.430064
     6  O   -0.000575   0.023647   0.013142  -0.359390   0.430064   8.204006
     7  O    0.000003   0.049425  -0.004471  -0.008565   0.495213  -0.125216
     8  C   -0.018921   0.107923   0.036173  -6.654518   3.938179   0.072157
     9  C   -0.006049  -0.000974   0.007372   3.204006  -2.570673  -0.084512
    10  C   -0.044336  -0.176154   0.064172   0.686125  -0.717679  -0.023266
    11  N    0.003275   0.013413  -0.005362  -0.036714   0.002041   0.000279
    12  C   -0.004667  -0.021297   0.005144   0.000036  -0.133008  -0.001728
    13  N   -0.000406   0.003987  -0.001624   0.056841  -0.018646  -0.000311
    14  C    0.102227  -1.826064  -0.147182  -0.626295   0.286437   0.002162
    15  C    0.014058  -0.280307   0.038257  -0.174590   0.069929  -0.000505
    16  N   -0.002476   0.122492  -0.005475   0.012028  -0.004705  -0.000002
    17  H    0.005936  -0.034057   0.276071   0.069850  -0.038806   0.001161
    18  H    0.003146  -0.008426  -0.101168   0.700901  -0.213317  -0.005331
    19  H    0.000293   0.001048   0.002313   0.131280  -0.037075   0.190634
    20  H   -0.000397  -0.006163  -0.012502   0.063802  -0.060482  -0.001387
    21  H    0.000446   0.004911   0.012740  -0.042614  -0.003548   0.006534
    22  H   -0.012974   0.011811  -0.004899   0.012066   0.021408   0.000049
    23  H    0.000002   0.000142   0.000018  -0.004238  -0.000120   0.000000
    24  H   -0.000004  -0.000486  -0.000192   0.013678   0.000052  -0.000004
    25  H    0.007582  -0.180047   0.015694  -0.010553   0.000165   0.000004
    26  H    0.002703   0.009074  -0.007294   0.003843   0.006807  -0.000020
    27  H    0.001728  -0.032818   0.003928  -0.002104   0.001132   0.000003
    28  H   -0.003717   0.084110   0.000083   0.001504   0.000200   0.000000
    29  H    0.000300  -0.008413   0.000235  -0.000180   0.000072   0.000000
    30  H    0.000269  -0.013395   0.000145  -0.000064   0.000022   0.000000
    31  H   -0.000216   0.021857  -0.000359   0.000153   0.000013   0.000000
               7          8          9         10         11         12
     1  O    0.000003  -0.018921  -0.006049  -0.044336   0.003275  -0.004667
     2  C    0.049425   0.107923  -0.000974  -0.176154   0.013413  -0.021297
     3  N   -0.004471   0.036173   0.007372   0.064172  -0.005362   0.005144
     4  C   -0.008565  -6.654518   3.204006   0.686125  -0.036714   0.000036
     5  C    0.495213   3.938179  -2.570673  -0.717679   0.002041  -0.133008
     6  O   -0.125216   0.072157  -0.084512  -0.023266   0.000279  -0.001728
     7  O    8.105426  -0.200012   0.052432   0.003957   0.000014   0.000801
     8  C   -0.200012  20.678354  -8.151715  -2.594242  -0.178796  -0.430949
     9  C    0.052432  -8.151715  12.821884  -0.262967  -0.190288   0.260483
    10  C    0.003957  -2.594242  -0.262967   8.654854   0.608666  -0.439799
    11  N    0.000014  -0.178796  -0.190288   0.608666   6.775421   0.426373
    12  C    0.000801  -0.430949   0.260483  -0.439799   0.426373   5.610594
    13  N   -0.000062  -0.210012   0.390958  -0.078044  -0.009779   0.111874
    14  C    0.002917  -0.023229  -0.152198  -0.018532  -0.005528  -0.028804
    15  C    0.002837   0.047963  -0.038051  -0.007472  -0.000690  -0.004252
    16  N    0.000033  -0.001442   0.001182   0.000473   0.000023   0.000119
    17  H    0.010265  -0.122299   0.037876  -0.003222  -0.000017   0.000239
    18  H    0.004739  -0.194499   0.056884   0.035766  -0.000963   0.003922
    19  H    0.007520  -0.057063  -0.008819   0.003987  -0.000020  -0.000447
    20  H    0.001095   0.337280  -0.027942   0.016368  -0.000981   0.006952
    21  H    0.001374   0.582528  -0.223072  -0.023682  -0.001254  -0.008862
    22  H    0.000019   0.117278  -0.116229   0.318938  -0.058521   0.014253
    23  H    0.000000   0.031151   0.040034  -0.062355  -0.057376   0.458347
    24  H    0.000001  -0.022961   0.033391  -0.036414   0.010902  -0.010168
    25  H   -0.000027   0.002420  -0.004164   0.007713  -0.000338  -0.000237
    26  H   -0.000101  -0.000213  -0.000414  -0.002269   0.000021   0.000006
    27  H   -0.000016   0.000597  -0.000368   0.000193  -0.000003  -0.000007
    28  H    0.000000  -0.000089   0.000013  -0.000067   0.000016   0.000014
    29  H    0.000000   0.000031  -0.000043   0.000025  -0.000001  -0.000002
    30  H    0.000000  -0.000005  -0.000001  -0.000005   0.000000   0.000000
    31  H    0.000001   0.000021  -0.000007   0.000002   0.000000   0.000000
              13         14         15         16         17         18
     1  O   -0.000406   0.102227   0.014058  -0.002476   0.005936   0.003146
     2  C    0.003987  -1.826064  -0.280307   0.122492  -0.034057  -0.008426
     3  N   -0.001624  -0.147182   0.038257  -0.005475   0.276071  -0.101168
     4  C    0.056841  -0.626295  -0.174590   0.012028   0.069850   0.700901
     5  C   -0.018646   0.286437   0.069929  -0.004705  -0.038806  -0.213317
     6  O   -0.000311   0.002162  -0.000505  -0.000002   0.001161  -0.005331
     7  O   -0.000062   0.002917   0.002837   0.000033   0.010265   0.004739
     8  C   -0.210012  -0.023229   0.047963  -0.001442  -0.122299  -0.194499
     9  C    0.390958  -0.152198  -0.038051   0.001182   0.037876   0.056884
    10  C   -0.078044  -0.018532  -0.007472   0.000473  -0.003222   0.035766
    11  N   -0.009779  -0.005528  -0.000690   0.000023  -0.000017  -0.000963
    12  C    0.111874  -0.028804  -0.004252   0.000119   0.000239   0.003922
    13  N    6.958367  -0.002636   0.000132   0.000008  -0.000047   0.001785
    14  C   -0.002636   7.678310   0.460619  -0.185485   0.083594   0.003229
    15  C    0.000132   0.460619   5.350944   0.088557   0.000139  -0.004587
    16  N    0.000008  -0.185485   0.088557   6.683685  -0.000102   0.000042
    17  H   -0.000047   0.083594   0.000139  -0.000102   0.379308   0.004427
    18  H    0.001785   0.003229  -0.004587   0.000042   0.004427   0.518607
    19  H   -0.000148   0.000144  -0.000015   0.000000  -0.000034   0.000136
    20  H    0.001949  -0.003923  -0.000496   0.000003   0.000883   0.004888
    21  H   -0.001686   0.000738   0.000192   0.000000   0.000000  -0.003235
    22  H    0.000733  -0.008491  -0.000767   0.000024  -0.000021  -0.000055
    23  H   -0.098410  -0.000032  -0.000001   0.000000   0.000000   0.000000
    24  H    0.294240   0.000069  -0.000006   0.000000   0.000001   0.000000
    25  H   -0.000019   0.525727  -0.037573  -0.004849  -0.000126  -0.000021
    26  H   -0.000006   0.346996  -0.043232   0.005602   0.002475  -0.000026
    27  H    0.000000  -0.001639   0.397556  -0.037209  -0.000005  -0.000002
    28  H    0.000000  -0.119452   0.399173  -0.025046  -0.000004  -0.000002
    29  H    0.000000   0.008655  -0.019772   0.317848  -0.000001   0.000000
    30  H    0.000000   0.030171  -0.028130   0.310253   0.000000   0.000000
    31  H    0.000000  -0.031978  -0.013304   0.325083   0.000001   0.000000
              19         20         21         22         23         24
     1  O    0.000293  -0.000397   0.000446  -0.012974   0.000002  -0.000004
     2  C    0.001048  -0.006163   0.004911   0.011811   0.000142  -0.000486
     3  N    0.002313  -0.012502   0.012740  -0.004899   0.000018  -0.000192
     4  C    0.131280   0.063802  -0.042614   0.012066  -0.004238   0.013678
     5  C   -0.037075  -0.060482  -0.003548   0.021408  -0.000120   0.000052
     6  O    0.190634  -0.001387   0.006534   0.000049   0.000000  -0.000004
     7  O    0.007520   0.001095   0.001374   0.000019   0.000000   0.000001
     8  C   -0.057063   0.337280   0.582528   0.117278   0.031151  -0.022961
     9  C   -0.008819  -0.027942  -0.223072  -0.116229   0.040034   0.033391
    10  C    0.003987   0.016368  -0.023682   0.318938  -0.062355  -0.036414
    11  N   -0.000020  -0.000981  -0.001254  -0.058521  -0.057376   0.010902
    12  C   -0.000447   0.006952  -0.008862   0.014253   0.458347  -0.010168
    13  N   -0.000148   0.001949  -0.001686   0.000733  -0.098410   0.294240
    14  C    0.000144  -0.003923   0.000738  -0.008491  -0.000032   0.000069
    15  C   -0.000015  -0.000496   0.000192  -0.000767  -0.000001  -0.000006
    16  N    0.000000   0.000003   0.000000   0.000024   0.000000   0.000000
    17  H   -0.000034   0.000883   0.000000  -0.000021   0.000000   0.000001
    18  H    0.000136   0.004888  -0.003235  -0.000055   0.000000   0.000000
    19  H    0.406865   0.000007   0.000997  -0.000002   0.000000   0.000001
    20  H    0.000007   0.540114  -0.036214  -0.000008  -0.000005   0.000918
    21  H    0.000997  -0.036214   0.560132  -0.000188  -0.000001   0.000511
    22  H   -0.000002  -0.000008  -0.000188   0.567834  -0.000037  -0.000072
    23  H    0.000000  -0.000005  -0.000001  -0.000037   0.542012   0.000199
    24  H    0.000001   0.000918   0.000511  -0.000072   0.000199   0.406064
    25  H    0.000000  -0.000002   0.000000  -0.000003   0.000000   0.000000
    26  H    0.000000   0.000001   0.000000  -0.000004   0.000000   0.000000
    27  H    0.000000   0.000000   0.000000   0.000000   0.000000   0.000000
    28  H    0.000000   0.000000   0.000000  -0.000007   0.000000   0.000000
    29  H    0.000000   0.000000   0.000000   0.000000   0.000000   0.000000
    30  H    0.000000   0.000000   0.000000   0.000000   0.000000   0.000000
    31  H    0.000000   0.000000   0.000000   0.000000   0.000000   0.000000
              25         26         27         28         29         30
     1  O    0.007582   0.002703   0.001728  -0.003717   0.000300   0.000269
     2  C   -0.180047   0.009074  -0.032818   0.084110  -0.008413  -0.013395
     3  N    0.015694  -0.007294   0.003928   0.000083   0.000235   0.000145
     4  C   -0.010553   0.003843  -0.002104   0.001504  -0.000180  -0.000064
     5  C    0.000165   0.006807   0.001132   0.000200   0.000072   0.000022
     6  O    0.000004  -0.000020   0.000003   0.000000   0.000000   0.000000
     7  O   -0.000027  -0.000101  -0.000016   0.000000   0.000000   0.000000
     8  C    0.002420  -0.000213   0.000597  -0.000089   0.000031  -0.000005
     9  C   -0.004164  -0.000414  -0.000368   0.000013  -0.000043  -0.000001
    10  C    0.007713  -0.002269   0.000193  -0.000067   0.000025  -0.000005
    11  N   -0.000338   0.000021  -0.000003   0.000016  -0.000001   0.000000
    12  C   -0.000237   0.000006  -0.000007   0.000014  -0.000002   0.000000
    13  N   -0.000019  -0.000006   0.000000   0.000000   0.000000   0.000000
    14  C    0.525727   0.346996  -0.001639  -0.119452   0.008655   0.030171
    15  C   -0.037573  -0.043232   0.397556   0.399173  -0.019772  -0.028130
    16  N   -0.004849   0.005602  -0.037209  -0.025046   0.317848   0.310253
    17  H   -0.000126   0.002475  -0.000005  -0.000004  -0.000001   0.000000
    18  H   -0.000021  -0.000026  -0.000002  -0.000002   0.000000   0.000000
    19  H    0.000000   0.000000   0.000000   0.000000   0.000000   0.000000
    20  H   -0.000002   0.000001   0.000000   0.000000   0.000000   0.000000
    21  H    0.000000   0.000000   0.000000   0.000000   0.000000   0.000000
    22  H   -0.000003  -0.000004   0.000000  -0.000007   0.000000   0.000000
    23  H    0.000000   0.000000   0.000000   0.000000   0.000000   0.000000
    24  H    0.000000   0.000000   0.000000   0.000000   0.000000   0.000000
    25  H    0.506562  -0.031475   0.004072  -0.005299   0.004334  -0.000063
    26  H   -0.031475   0.541408  -0.004911   0.004118  -0.000871  -0.000030
    27  H    0.004072  -0.004911   0.470969  -0.020678   0.003959  -0.002388
    28  H   -0.005299   0.004118  -0.020678   0.442551  -0.004451  -0.002376
    29  H    0.004334  -0.000871   0.003959  -0.004451   0.328403  -0.014068
    30  H   -0.000063  -0.000030  -0.002388  -0.002376  -0.014068   0.324018
    31  H   -0.000797   0.003696  -0.004421   0.003569  -0.021222  -0.015250
              31
     1  O   -0.000216
     2  C    0.021857
     3  N   -0.000359
     4  C    0.000153
     5  C    0.000013
     6  O    0.000000
     7  O    0.000001
     8  C    0.000021
     9  C   -0.000007
    10  C    0.000002
    11  N    0.000000
    12  C    0.000000
    13  N    0.000000
    14  C   -0.031978
    15  C   -0.013304
    16  N    0.325083
    17  H    0.000001
    18  H    0.000000
    19  H    0.000000
    20  H    0.000000
    21  H    0.000000
    22  H    0.000000
    23  H    0.000000
    24  H    0.000000
    25  H   -0.000797
    26  H    0.003696
    27  H   -0.004421
    28  H    0.003569
    29  H   -0.021222
    30  H   -0.015250
    31  H    0.327949
 Mulliken charges:
               1
     1  O   -0.430448
     2  C    0.176547
     3  N   -0.246341
     4  C   -0.215426
     5  C    0.320917
     6  O   -0.341594
     7  O   -0.399599
     8  C   -1.091092
     9  C    0.931972
    10  C    0.089265
    11  N   -0.293813
    12  C    0.185070
    13  N   -0.399036
    14  C   -0.350526
    15  C   -0.216604
    16  N   -0.600663
    17  H    0.326515
    18  H    0.193160
    19  H    0.358399
    20  H    0.176246
    21  H    0.173254
    22  H    0.137866
    23  H    0.150671
    24  H    0.310282
    25  H    0.201322
    26  H    0.164114
    27  H    0.222430
    28  H    0.245840
    29  H    0.405162
    30  H    0.410899
    31  H    0.405210
 Sum of Mulliken charges =   1.00000
 Mulliken charges with hydrogens summed into heavy atoms:
               1
     1  O   -0.430448
     2  C    0.176547
     3  N    0.080174
     4  C   -0.022266
     5  C    0.320917
     6  O    0.016806
     7  O   -0.399599
     8  C   -0.741591
     9  C    0.931972
    10  C    0.227131
    11  N   -0.293813
    12  C    0.335741
    13  N   -0.088755
    14  C    0.014910
    15  C    0.251665
    16  N    0.620609
 APT charges:
               1
     1  O   -0.423250
     2  C    0.277613
     3  N   -0.425574
     4  C   -0.178189
     5  C   -0.711825
     6  O   -0.160090
     7  O   -0.073818
     8  C   -1.621747
     9  C    0.523879
    10  C    0.153455
    11  N   -0.698534
    12  C   -0.368941
    13  N   -0.776119
    14  C   -0.817073
    15  C   -0.279589
    16  N   -1.951680
    17  H    0.601854
    18  H    0.342566
    19  H    0.480150
    20  H    0.415381
    21  H    0.624914
    22  H    0.063607
    23  H    1.131019
    24  H    0.939538
    25  H    0.359538
    26  H    0.396266
    27  H    0.389894
    28  H    0.312892
    29  H    0.575730
    30  H    1.222598
    31  H    0.675534
 Sum of APT charges =   1.00000
 APT charges with hydrogens summed into heavy atoms:
               1
     1  O   -0.423250
     2  C    0.277613
     3  N    0.176281
     4  C    0.164377
     5  C   -0.711825
     6  O    0.320060
     7  O   -0.073818
     8  C   -0.581452
     9  C    0.523879
    10  C    0.217062
    11  N   -0.698534
    12  C    0.762077
    13  N    0.163419
    14  C   -0.061269
    15  C    0.423197
    16  N    0.522182
 Electronic spatial extent (au):  <R**2>=           4832.4417
 Charge=              1.0000 electrons
 Dipole moment (field-independent basis, Debye):
    X=            -15.6147    Y=              4.4745    Z=              3.7490  Tot=             16.6702
 Quadrupole moment (field-independent basis, Debye-Ang):
   XX=             33.3239   YY=            -90.2697   ZZ=           -108.6867
   XY=            -22.0443   XZ=             -2.5208   YZ=             15.3396
 Traceless Quadrupole moment (field-independent basis, Debye-Ang):
   XX=             88.5347   YY=            -35.0588   ZZ=            -53.4759
   XY=            -22.0443   XZ=             -2.5208   YZ=             15.3396
 Octapole moment (field-independent basis, Debye-Ang**2):
  XXX=           -507.9300  YYY=             71.8966  ZZZ=             31.0230  XYY=            -63.9026
  XXY=            142.9112  XXZ=             42.7757  XZZ=            -80.2318  YZZ=             29.1366
  YYZ=            -20.2880  XYZ=             10.9930
 Hexadecapole moment (field-independent basis, Debye-Ang**3):
 XXXX=           -648.9973 YYYY=          -1469.3943 ZZZZ=          -1128.6846 XXXY=           -313.7734
 XXXZ=            125.1175 YYYX=            -56.5984 YYYZ=            515.5176 ZZZX=            274.4616
 ZZZY=            506.9355 XXYY=           -601.4196 XXZZ=           -761.9643 YYZZ=           -502.5445
 XXYZ=            145.2569 YYXZ=             32.0713 ZZXY=            -27.6963
 N-N= 1.121287997682D+03 E-N=-4.083436762393D+03  KE= 7.894221191735D+02
  Exact polarizability:   0.000   0.000   0.000   0.000   0.000   0.000
 Approx polarizability: 198.389   2.542 175.510   7.718 -11.383 217.937
 Calling FoFJK, ICntrl=    100147 FMM=F ISym2X=0 I1Cent= 0 IOpClX= 0 NMat=1 NMatS=1 NMatT=0.
 -------------------------------------------------------------------
 Center     Atomic                   Forces (Hartrees/Bohr)
 Number     Number              X              Y              Z
 -------------------------------------------------------------------
      1        8          -0.010437936    0.002135929   -0.001654485
      2        6           0.016649779   -0.007059289   -0.002569377
      3        7          -0.012883371    0.002356083   -0.001017057
      4        6           0.003912265    0.002099313   -0.002088843
      5        6           0.007905140   -0.011530503   -0.008407572
      6        8          -0.003414654    0.003432457    0.005240163
      7        8          -0.009153427    0.003817195    0.012689847
      8        6           0.008003241    0.006192140   -0.006270092
      9        6           0.003598031   -0.003338729    0.008575623
     10        6          -0.006897886    0.003387620   -0.008030746
     11        7          -0.005512099   -0.001808593   -0.001336320
     12        6           0.000673401    0.004019046   -0.005134158
     13        7           0.000891142   -0.005516241    0.009078276
     14        6          -0.008307791    0.009525867    0.008710815
     15        6           0.023334459   -0.016366701   -0.011962464
     16        7          -0.004879101    0.001857945    0.000813445
     17        1           0.001302407    0.000885836    0.003657733
     18        1          -0.001449017   -0.001642726   -0.002532607
     19        1           0.003992697   -0.003581682   -0.007044476
     20        1          -0.000736614    0.000214556    0.005444870
     21        1           0.000996382   -0.002223327    0.001443087
     22        1          -0.000650266    0.000563970   -0.004654321
     23        1           0.002552932    0.002273076   -0.001149130
     24        1           0.003784950    0.000767640    0.001697752
     25        1           0.003325472    0.003440817    0.000754569
     26        1          -0.000208794    0.000069669    0.003822157
     27        1          -0.006990507   -0.000748668    0.001085914
     28        1          -0.004815287    0.002346519   -0.002165596
     29        1           0.000549058    0.006110879    0.000225258
     30        1          -0.003932736   -0.001325680   -0.002947935
     31        1          -0.001201871   -0.000354421    0.005725670
 -------------------------------------------------------------------
 Cartesian Forces:  Max     0.023334459 RMS     0.006058788
 FormGI is forming the generalized inverse of G from B-inverse, IUseBI=4.
 GSVD:  received Info=                   1 from GESDD.

 GradGradGradGradGradGradGradGradGradGradGradGradGradGradGradGradGradGrad
 Berny optimization.
 Internal  Forces:  Max     0.015532612 RMS     0.003897137
 Search for a local minimum.
 Step number   1 out of a maximum of  167
 All quantities printed in internal units (Hartrees-Bohrs-Radians)
 Mixed Optimization -- RFO/linear search
 Second derivative matrix not updated -- analytic derivatives used.
 ITU=  0
     Eigenvalues ---    0.00033   0.00092   0.00168   0.00209   0.00301
     Eigenvalues ---    0.00453   0.00495   0.00584   0.00911   0.00923
     Eigenvalues ---    0.01088   0.01772   0.02191   0.02729   0.03377
     Eigenvalues ---    0.03850   0.03943   0.04002   0.04109   0.04351
     Eigenvalues ---    0.04375   0.04528   0.04974   0.05047   0.05127
     Eigenvalues ---    0.05308   0.05619   0.05866   0.06130   0.07506
     Eigenvalues ---    0.08429   0.08470   0.10566   0.10625   0.11295
     Eigenvalues ---    0.11842   0.12023   0.12405   0.13123   0.13431
     Eigenvalues ---    0.13761   0.15782   0.15884   0.16678   0.16745
     Eigenvalues ---    0.17840   0.18563   0.20369   0.20970   0.22070
     Eigenvalues ---    0.23198   0.23378   0.23800   0.24248   0.24716
     Eigenvalues ---    0.27125   0.29792   0.29945   0.31744   0.32962
     Eigenvalues ---    0.33196   0.33810   0.34207   0.34435   0.34617
     Eigenvalues ---    0.34705   0.35028   0.35249   0.35735   0.36887
     Eigenvalues ---    0.38082   0.38457   0.41154   0.42636   0.43209
     Eigenvalues ---    0.44148   0.44341   0.44863   0.45278   0.46726
     Eigenvalues ---    0.47937   0.48819   0.49568   0.54400   0.59563
     Eigenvalues ---    0.81782   0.94382
 RFO step:  Lambda=-1.02094943D-02 EMin= 3.32640896D-04
 Linear search not attempted -- first point.
 Iteration  1 RMS(Cart)=  0.09401130 RMS(Int)=  0.00237313
 Iteration  2 RMS(Cart)=  0.00495237 RMS(Int)=  0.00034279
 Iteration  3 RMS(Cart)=  0.00001184 RMS(Int)=  0.00034273
 Iteration  4 RMS(Cart)=  0.00000001 RMS(Int)=  0.00034273
 Variable       Old X    -DE/DX   Delta X   Delta X   Delta X     New X
                                 (Linear)    (Quad)   (Total)
    R1        2.31778   0.00045   0.00000   0.00326   0.00326   2.32104
    R2        2.58343  -0.00227   0.00000  -0.02537  -0.02537   2.55806
    R3        2.86585   0.00623   0.00000   0.03623   0.03623   2.90208
    R4        2.73361   0.00876   0.00000   0.02244   0.02244   2.75605
    R5        1.91152   0.00337   0.00000   0.00644   0.00644   1.91796
    R6        2.88133   0.00765   0.00000   0.02617   0.02617   2.90749
    R7        2.90090   0.00798   0.00000   0.02296   0.02296   2.92386
    R8        2.05995   0.00310   0.00000   0.00828   0.00828   2.06823
    R9        2.55480   0.00095   0.00000  -0.01370  -0.01370   2.54110
   R10        2.26626   0.01553   0.00000   0.01786   0.01786   2.28411
   R11        1.81874   0.00745   0.00000   0.01334   0.01334   1.83208
   R12        2.83948   0.00066   0.00000  -0.00478  -0.00478   2.83470
   R13        2.06179   0.00489   0.00000   0.01411   0.01411   2.07590
   R14        2.07039   0.00222   0.00000   0.00662   0.00662   2.07701
   R15        2.57541   0.01483   0.00000   0.02720   0.02721   2.60262
   R16        2.61457   0.00326   0.00000   0.00344   0.00344   2.61801
   R17        2.61419  -0.00170   0.00000  -0.00761  -0.00760   2.60659
   R18        2.03705   0.00171   0.00000   0.00490   0.00490   2.04196
   R19        2.47698   0.00499   0.00000   0.00573   0.00572   2.48270
   R20        2.56593   0.01015   0.00000   0.02150   0.02149   2.58743
   R21        2.03403   0.00359   0.00000   0.00856   0.00856   2.04259
   R22        1.90120   0.00391   0.00000   0.00765   0.00765   1.90885
   R23        2.87487   0.00450   0.00000   0.00570   0.00570   2.88056
   R24        2.06651   0.00395   0.00000   0.00891   0.00891   2.07542
   R25        2.06375   0.00372   0.00000   0.00817   0.00817   2.07192
   R26        2.81112   0.01197   0.00000   0.06009   0.06009   2.87121
   R27        2.05860   0.00216   0.00000   0.00405   0.00405   2.06265
   R28        2.05853   0.00198   0.00000   0.00267   0.00267   2.06120
   R29        1.92736   0.00609   0.00000   0.01182   0.01182   1.93918
   R30        1.92930   0.00505   0.00000   0.00966   0.00966   1.93896
   R31        1.92735   0.00579   0.00000   0.01106   0.01106   1.93841
    A1        2.13854   0.01179   0.00000   0.04175   0.04175   2.18030
    A2        2.13957  -0.01279   0.00000  -0.05593  -0.05594   2.08363
    A3        2.00349   0.00100   0.00000   0.01443   0.01442   2.01791
    A4        2.11097   0.00528   0.00000   0.02322   0.02241   2.13338
    A5        2.05456  -0.00135   0.00000   0.01407   0.01330   2.06785
    A6        1.99409  -0.00281   0.00000  -0.00344  -0.00439   1.98970
    A7        1.89334  -0.00281   0.00000  -0.01940  -0.01935   1.87399
    A8        1.97257  -0.00152   0.00000  -0.01556  -0.01546   1.95711
    A9        1.86962   0.00126   0.00000   0.00168   0.00173   1.87135
   A10        1.89673   0.00318   0.00000   0.01630   0.01604   1.91277
   A11        1.92938  -0.00074   0.00000  -0.00064  -0.00092   1.92846
   A12        1.90238   0.00055   0.00000   0.01721   0.01713   1.91950
   A13        2.01483   0.00607   0.00000   0.02690   0.02690   2.04173
   A14        2.16079  -0.00759   0.00000  -0.03209  -0.03210   2.12870
   A15        2.10685   0.00154   0.00000   0.00536   0.00536   2.11222
   A16        1.91811   0.00865   0.00000   0.04371   0.04371   1.96182
   A17        1.98964   0.00055   0.00000  -0.00851  -0.00851   1.98112
   A18        1.90880  -0.00250   0.00000  -0.02493  -0.02494   1.88385
   A19        1.89523  -0.00019   0.00000  -0.00129  -0.00130   1.89393
   A20        1.91576   0.00139   0.00000   0.01484   0.01459   1.93036
   A21        1.89533   0.00094   0.00000   0.02572   0.02565   1.92098
   A22        1.85406  -0.00023   0.00000  -0.00541  -0.00575   1.84832
   A23        2.33349   0.00165   0.00000   0.00116   0.00114   2.33463
   A24        2.12611  -0.00200   0.00000  -0.00227  -0.00229   2.12382
   A25        1.82329   0.00035   0.00000   0.00124   0.00126   1.82455
   A26        1.94012  -0.00103   0.00000  -0.00375  -0.00380   1.93632
   A27        2.20269   0.00465   0.00000   0.03008   0.02999   2.23268
   A28        2.13999  -0.00360   0.00000  -0.02572  -0.02582   2.11417
   A29        1.83206   0.00213   0.00000   0.00832   0.00834   1.84040
   A30        1.94928   0.00065   0.00000  -0.00226  -0.00226   1.94702
   A31        2.19919  -0.00060   0.00000   0.00124   0.00124   2.20043
   A32        2.13471  -0.00004   0.00000   0.00102   0.00102   2.13573
   A33        1.88002  -0.00209   0.00000  -0.00355  -0.00355   1.87647
   A34        2.19506   0.00252   0.00000   0.01336   0.01335   2.20841
   A35        2.20810  -0.00042   0.00000  -0.00981  -0.00982   2.19828
   A36        1.96228  -0.01492   0.00000  -0.08718  -0.08716   1.87512
   A37        1.88125   0.00209   0.00000  -0.00648  -0.00666   1.87459
   A38        1.91394   0.00565   0.00000   0.03589   0.03638   1.95032
   A39        1.90230   0.00577   0.00000   0.02725   0.02580   1.92809
   A40        1.92746   0.00448   0.00000   0.02699   0.02718   1.95464
   A41        1.87390  -0.00263   0.00000   0.00673   0.00598   1.87988
   A42        1.95276  -0.00256   0.00000  -0.00863  -0.00820   1.94456
   A43        1.91108   0.00457   0.00000   0.04423   0.04359   1.95467
   A44        1.89777   0.00368   0.00000   0.03195   0.03119   1.92896
   A45        1.91200  -0.00313   0.00000  -0.04466  -0.04459   1.86742
   A46        1.91839  -0.00269   0.00000  -0.04128  -0.04128   1.87711
   A47        1.86994   0.00031   0.00000   0.02050   0.01795   1.88789
   A48        1.94014   0.00082   0.00000   0.00194   0.00193   1.94207
   A49        1.95171  -0.00112   0.00000  -0.01037  -0.01036   1.94135
   A50        1.94405   0.00102   0.00000   0.00650   0.00651   1.95056
   A51        1.87276   0.00008   0.00000   0.00240   0.00239   1.87515
   A52        1.87904  -0.00098   0.00000  -0.00412  -0.00413   1.87491
   A53        1.87240   0.00012   0.00000   0.00374   0.00376   1.87616
    D1       -0.23967   0.00161   0.00000   0.06634   0.06669  -0.17298
    D2       -2.83817   0.00026   0.00000  -0.00091  -0.00107  -2.83924
    D3        2.96087   0.00205   0.00000   0.06392   0.06408   3.02495
    D4        0.36238   0.00070   0.00000  -0.00333  -0.00369   0.35869
    D5        0.47871  -0.00065   0.00000  -0.03359  -0.03283   0.44588
    D6       -1.61824  -0.00010   0.00000  -0.00990  -0.01035  -1.62859
    D7        2.63018  -0.00118   0.00000  -0.03358  -0.03369   2.59649
    D8       -2.72188  -0.00016   0.00000  -0.02748  -0.02685  -2.74873
    D9        1.46436   0.00039   0.00000  -0.00379  -0.00437   1.45999
   D10       -0.57040  -0.00070   0.00000  -0.02746  -0.02771  -0.59811
   D11       -1.99828   0.00085   0.00000  -0.01889  -0.01872  -2.01700
   D12        2.18030  -0.00025   0.00000  -0.01609  -0.01612   2.16418
   D13        0.08477  -0.00085   0.00000  -0.02922  -0.02918   0.05559
   D14        0.61766   0.00247   0.00000   0.05092   0.05097   0.66863
   D15       -1.48694   0.00137   0.00000   0.05372   0.05356  -1.43337
   D16        2.70071   0.00077   0.00000   0.04059   0.04051   2.74122
   D17        2.78637   0.00028   0.00000   0.01490   0.01498   2.80135
   D18       -0.39544   0.00100   0.00000   0.02009   0.02015  -0.37529
   D19       -1.34583  -0.00135   0.00000  -0.00612  -0.00613  -1.35196
   D20        1.75555  -0.00064   0.00000  -0.00092  -0.00097   1.75458
   D21        0.74124   0.00085   0.00000   0.02473   0.02471   0.76595
   D22       -2.44057   0.00157   0.00000   0.02993   0.02987  -2.41069
   D23       -1.23875  -0.00061   0.00000   0.01746   0.01738  -1.22137
   D24        0.91302  -0.00031   0.00000   0.01174   0.01176   0.92479
   D25        2.92917  -0.00204   0.00000  -0.00888  -0.00885   2.92032
   D26        2.94177   0.00171   0.00000   0.04065   0.04069   2.98246
   D27       -1.18965   0.00201   0.00000   0.03493   0.03508  -1.15457
   D28        0.82650   0.00028   0.00000   0.01431   0.01447   0.84097
   D29        0.83793   0.00038   0.00000   0.02141   0.02124   0.85917
   D30        2.98970   0.00068   0.00000   0.01570   0.01562   3.00532
   D31       -1.27734  -0.00105   0.00000  -0.00492  -0.00499  -1.28233
   D32       -0.07410  -0.00025   0.00000  -0.01200  -0.01195  -0.08605
   D33        3.10636  -0.00071   0.00000  -0.01607  -0.01612   3.09024
   D34       -0.08776  -0.00137   0.00000  -0.03913  -0.03922  -0.12699
   D35        3.08421  -0.00133   0.00000  -0.04598  -0.04600   3.03821
   D36       -2.23575   0.00045   0.00000  -0.01173  -0.01160  -2.24735
   D37        0.93623   0.00049   0.00000  -0.01857  -0.01838   0.91785
   D38        2.02745  -0.00057   0.00000  -0.02781  -0.02794   1.99951
   D39       -1.08376  -0.00053   0.00000  -0.03465  -0.03472  -1.11848
   D40       -3.11728  -0.00012   0.00000  -0.00747  -0.00743  -3.12471
   D41        0.05357  -0.00090   0.00000  -0.03016  -0.03038   0.02319
   D42       -0.00235  -0.00019   0.00000  -0.00151  -0.00152  -0.00387
   D43       -3.11468  -0.00098   0.00000  -0.02420  -0.02447  -3.13915
   D44        3.12008   0.00016   0.00000   0.00579   0.00569   3.12577
   D45       -0.02069   0.00019   0.00000   0.01088   0.01088  -0.00982
   D46        0.00117   0.00016   0.00000   0.00066   0.00062   0.00179
   D47       -3.13960   0.00019   0.00000   0.00575   0.00580  -3.13380
   D48        0.00263   0.00015   0.00000   0.00178   0.00184   0.00447
   D49        3.11620   0.00106   0.00000   0.02459   0.02405   3.14025
   D50       -0.00184  -0.00004   0.00000  -0.00133  -0.00143  -0.00326
   D51        3.13945  -0.00017   0.00000  -0.00350  -0.00351   3.13594
   D52        0.00045  -0.00009   0.00000   0.00043   0.00051   0.00095
   D53        3.14121  -0.00011   0.00000  -0.00469  -0.00462   3.13658
   D54       -3.14086   0.00004   0.00000   0.00250   0.00250  -3.13836
   D55       -0.00010   0.00002   0.00000  -0.00262  -0.00263  -0.00272
   D56       -3.11501   0.00133   0.00000   0.04886   0.04889  -3.06613
   D57        1.04494   0.00383   0.00000   0.08058   0.08116   1.12610
   D58       -0.99284  -0.00119   0.00000   0.01318   0.01266  -0.98018
   D59       -1.03028  -0.00156   0.00000   0.00419   0.00389  -1.02639
   D60        3.12967   0.00093   0.00000   0.03591   0.03616  -3.11735
   D61        1.09189  -0.00409   0.00000  -0.03149  -0.03234   1.05955
   D62        1.02428   0.00134   0.00000   0.04456   0.04482   1.06910
   D63       -1.09895   0.00383   0.00000   0.07627   0.07709  -1.02186
   D64       -3.13674  -0.00119   0.00000   0.00887   0.00859  -3.12814
   D65        1.04370  -0.00025   0.00000  -0.00382  -0.00380   1.03990
   D66        3.13642  -0.00034   0.00000  -0.00646  -0.00644   3.12998
   D67       -1.05181  -0.00025   0.00000  -0.00429  -0.00428  -1.05610
   D68       -3.11678   0.00169   0.00000   0.01561   0.01536  -3.10142
   D69       -1.02406   0.00159   0.00000   0.01297   0.01272  -1.01134
   D70        1.07089   0.00168   0.00000   0.01514   0.01488   1.08577
   D71       -1.06655  -0.00137   0.00000  -0.01024  -0.01000  -1.07655
   D72        1.02617  -0.00146   0.00000  -0.01288  -0.01264   1.01353
   D73        3.12112  -0.00137   0.00000  -0.01071  -0.01048   3.11064
         Item               Value     Threshold  Converged?
 Maximum Force            0.015533     0.000450     NO 
 RMS     Force            0.003897     0.000300     NO 
 Maximum Displacement     0.336868     0.001800     NO 
 RMS     Displacement     0.096212     0.001200     NO 
 Predicted change in Energy=-5.610502D-03
 GradGradGradGradGradGradGradGradGradGradGradGradGradGradGradGradGradGrad

                          Input orientation:                          
 ---------------------------------------------------------------------
 Center     Atomic      Atomic             Coordinates (Angstroms)
 Number     Number       Type             X           Y           Z
 ---------------------------------------------------------------------
      1          8           0       -1.149264   -0.578278   -1.203179
      2          6           0       -1.102157   -0.217363   -0.030106
      3          7           0       -0.059159   -0.432444    0.805543
      4          6           0        1.050821   -1.310814    0.454174
      5          6           0        1.031374   -2.492293    1.439543
      6          8           0        1.689805   -3.605241    1.070738
      7          8           0        0.483469   -2.420043    2.514502
      8          6           0        2.415922   -0.587376    0.538362
      9          6           0        2.614498    0.442509   -0.534053
     10          6           0        1.899195    0.800522   -1.655202
     11          7           0        2.531195    1.818073   -2.339137
     12          6           0        3.620653    2.077459   -1.652229
     13          7           0        3.722204    1.274436   -0.547887
     14          6           0       -2.261142    0.604717    0.552442
     15          6           0       -3.508947    0.272986   -0.257815
     16          7           0       -4.693575    1.119607    0.176240
     17          1           0       -0.212501   -0.340394    1.804602
     18          1           0        0.875720   -1.661278   -0.567764
     19          1           0        2.042002   -3.544680    0.169508
     20          1           0        2.495217   -0.129268    1.533649
     21          1           0        3.214104   -1.341398    0.489472
     22          1           0        0.963965    0.388313   -2.005960
     23          1           0        4.366022    2.820749   -1.897747
     24          1           0        4.473345    1.286873    0.127376
     25          1           0       -2.000666    1.665660    0.439567
     26          1           0       -2.401590    0.407725    1.621830
     27          1           0       -3.804550   -0.771547   -0.143983
     28          1           0       -3.338582    0.464635   -1.317983
     29          1           0       -4.498891    2.120292    0.058951
     30          1           0       -5.528963    0.901824   -0.378274
     31          1           0       -4.929537    0.966145    1.162627
 ---------------------------------------------------------------------
                    Distance matrix (angstroms):
                    1          2          3          4          5
     1  O    0.000000
     2  C    1.228242   0.000000
     3  N    2.290100   1.353666   0.000000
     4  C    2.850228   2.462818   1.458441   0.000000
     5  C    3.924617   3.447772   2.415409   1.538579   0.000000
     6  O    4.732178   4.525994   3.632609   2.460254   1.344693
     7  O    4.458594   3.720355   2.676852   2.407743   1.208700
     8  C    3.967821   3.582868   2.494277   1.547240   2.521470
     9  C    3.956720   3.808269   3.115847   2.548690   3.874846
    10  C    3.376169   3.561620   3.377961   3.102732   4.601434
    11  N    4.536373   4.761918   4.654435   4.447923   5.925128
    12  C    5.477837   5.495673   5.087364   4.745668   6.094757
    13  N    5.252919   5.076221   4.363934   3.850186   5.037728
    14  C    2.391225   1.535716   2.447139   3.827272   4.606418
    15  C    2.680759   2.466766   3.678233   4.879225   5.580529
    16  N    4.165064   3.837754   4.927748   6.243579   6.885986
    17  H    3.159250   2.042738   1.014942   2.088385   2.512203
    18  H    2.382688   2.507182   2.066399   1.094460   2.178094
    19  H    4.568149   4.582207   3.808599   2.460413   1.934392
    20  H    4.579746   3.923542   2.673367   2.155828   2.781291
    21  H    4.741982   4.490381   3.411796   2.163787   2.644145
    22  H    2.458555   2.922276   3.102414   2.991126   4.491540
    23  H    6.515688   6.528337   6.121541   5.795852   7.105336
    24  H    6.071482   5.777001   4.894850   4.309112   5.277409
    25  H    2.908394   2.138618   2.881914   4.262767   5.242308
    26  H    3.243640   2.192751   2.619006   4.029385   4.497620
    27  H    2.865274   2.760981   3.878729   4.921710   5.371655
    28  H    2.427748   2.669335   4.008582   5.055652   5.953478
    29  H    4.482773   4.124363   5.175430   6.536665   7.332518
    30  H    4.696055   4.579346   5.753298   6.991587   7.606741
    31  H    4.719401   4.179970   5.079778   6.438255   6.897097
                    6          7          8          9         10
     6  O    0.000000
     7  O    2.223599   0.000000
     8  C    3.149314   3.316349   0.000000
     9  C    4.451370   4.693525   1.500057   0.000000
    10  C    5.185107   5.455524   2.646694   1.377245   0.000000
    11  N    6.461232   6.761110   3.752262   2.271000   1.379348
    12  C    6.590585   6.887024   3.653959   2.221650   2.143361
    13  N    5.528277   5.789370   2.520448   1.385391   2.184972
    14  C    5.796754   4.531196   4.826616   4.997864   4.713856
    15  C    6.620628   5.556755   6.039719   6.132016   5.610614
    16  N    7.991987   6.693159   7.320511   7.373663   6.849863
    17  H    3.849227   2.305053   2.927965   3.751556   4.210843
    18  H    2.669535   3.198429   2.179221   2.729543   2.879320
    19  H    0.969497   3.031967   3.003583   4.089062   4.714948
    20  H    3.597967   3.202632   1.098520   2.148616   3.374688
    21  H    2.790402   3.566593   1.099105   2.142302   3.304002
    22  H    5.093269   5.343436   3.087673   2.212172   1.080557
    23  H    7.567522   7.874519   4.620912   3.253232   3.197715
    24  H    5.707084   5.946319   2.813309   2.146102   3.168654
    25  H    6.465319   5.212413   4.959051   4.872758   4.510592
    26  H    5.757353   4.137234   5.037118   5.459870   5.421253
    27  H    6.300262   5.307747   6.260494   6.544483   6.106381
    28  H    6.895981   6.133301   6.137350   6.004514   5.259358
    29  H    8.491490   7.174140   7.441502   7.332592   6.753934
[...]
 20,0.00006267,0.00006443,0.00004670,0.00009324,-0.00013510,0.00002388,
 0.00002790,-0.00002655,0.00009350,-0.00001279,0.00002457,-0.00000010,0
 .00002411,-0.00006241,-0.00008291,-0.00009323,0.00930803,0.03631954,-0
 .05389948,-0.00551083,-0.01749826,0.00276251,0.00085062,-0.00015608,0.
 00076261,0.00025254,0.00047961,-0.00000009,-0.00005377,0.00001893,-0.0
 0002668,0.00000917,-0.00002002,-0.00001473,-0.00000885,0.00000958,-0.0
 0002148,0.00000073,0.00001120,-0.00001528,0.00000775,-0.00009957,-0.00
 003175,-0.00000545,0.00000019,0.00000226,-0.00000407,0.00001200,0.0000
 2173,-0.00996952,-0.03864391,0.05403192,-0.00253665,0.00532623,0.00193
 309,0.00242551,-0.00908833,0.02219191,-0.00047896,0.00026164,-0.001376
 88,0.00012973,-0.00004890,-0.00047542,-0.00018069,0.00009348,0.0003743
 1,0.00003586,-0.00003843,-0.00011096,0.00011784,-0.00003565,-0.0002207
 2,0.00005130,-0.00002522,0.00000520,0.00005549,0.00000619,0.00006023,0
 .00001215,0.00004490,0.00004410,-0.00003497,0.00001800,-0.00001979,-0.
 00000188,-0.00001759,0.00000111,-0.00005495,-0.00004586,-0.00005919,-0
 .05725576,-0.00588579,0.03566699,0.00335396,0.00383131,-0.03231613,0.0
 0124748,-0.00046310,-0.00012813,-0.00160662,0.00108237,0.00011632,0.00
 028537,-0.00012077,0.00006493,0.00001915,-0.00001426,0.00000583,-0.000
 03104,-0.00000306,-0.00001626,0.00000599,0.00001533,-0.00001413,0.0000
 4073,0.00000039,-0.00005307,-0.00000561,-0.00000049,-0.00000315,-0.000
 00371,0.00000059,0.00001656,-0.00127985,-0.00074601,0.00945788,0.06023
 828,0.00315710,-0.00396681,-0.00238532,0.00002937,0.00431731,-0.020747
 63,-0.00081551,0.00009290,0.00095950,-0.00017057,-0.00022348,0.0001120
 2,0.00021590,-0.00010920,-0.00030492,-0.00005898,0.00007518,0.00009279
 ,-0.00021416,-0.00001256,0.00014377,-0.00007339,0.00010226,0.00008201,
 0.00002554,0.00001662,0.00002008,-0.00005481,-0.00000088,-0.00000143,-
 0.00002196,0.00002245,0.00000432,0.00002403,-0.00000106,0.00002230,-0.
 00001487,-0.00001919,-0.00002705,-0.00569013,-0.05233196,0.04029281,0.
 00109089,-0.00002696,-0.00588764,-0.00006327,0.00008247,0.00043014,0.0
 0085542,0.00040585,0.00005810,-0.00012916,0.00003659,-0.00005013,0.000
 00760,0.00000596,-0.00000891,0.00001116,0.00001257,-0.00000890,-0.0000
 3387,-0.00002329,-0.00000910,-0.00000332,-0.00004216,-0.00000972,-0.00
 000076,0.00000008,0.00000226,-0.00000118,0.00001002,0.00000985,-0.0036
 0387,-0.00295181,0.03024279,0.00548043,0.05366928,0.00228310,-0.001696
 09,0.00040047,-0.00145530,0.00181660,-0.01124425,-0.00092688,0.0005552
 3,0.00105512,0.00018609,-0.00064837,0.00026442,0.00013744,-0.00008623,
 -0.00014377,-0.00002083,0.00004021,0.00004138,-0.00007072,-0.00000235,
 0.00006228,-0.00010595,0.00009473,0.00005714,-0.00003763,0.00001983,-0
 .00003043,-0.00002149,-0.00002397,-0.00004336,0.00002224,-0.00000996,0
 .00002757,-0.00000105,-0.00000104,-0.00000540,0.00004402,0.00002565,0.
 00004384,0.03392001,0.03919063,-0.30139914,0.00255923,0.00113137,-0.01
 370148,-0.00031411,0.00032513,0.00065943,0.00049598,0.00024677,0.00082
 079,-0.00012026,0.00009415,0.00006043,-0.00000605,-0.00000158,-0.00000
 626,0.00002780,0.00000263,0.00000752,-0.00002903,-0.00003247,0.0000022
 6,-0.00002749,-0.00000537,0.00001612,0.00000399,0.00000038,0.00000161,
 0.00000481,0.00000178,-0.00000781,0.00066801,0.00038913,-0.00303515,-0
 .03428894,-0.04135019,0.32582185,0.00016995,0.00101653,0.00074676,0.00
 087589,-0.00188031,-0.00137726,-0.00039769,0.00055875,0.00002041,0.000
 07210,-0.00005912,-0.00010955,-0.00008579,-0.00009009,0.00012013,0.000
 00305,0.00007380,-0.00002680,0.00006618,0.00007009,-0.00006794,-0.0000
 2763,0.00002624,0.00002008,0.00001638,-0.00000462,0.00003240,-0.000035
 78,0.00001470,-0.00000164,-0.00001165,0.00002302,0.00000555,0.00001309
 ,0.00000745,-0.00000316,-0.00001533,0.00000030,-0.00000767,-0.01158990
 ,-0.02261208,0.00776835,-0.11486669,-0.11721630,0.04322107,0.00756642,
 0.02998052,-0.00815645,-0.00001920,-0.00016659,0.00009477,-0.00002109,
 0.00000432,0.00002066,-0.00001394,-0.00002662,-0.00000757,0.00001362,-
 0.00000160,0.00000127,-0.00001987,0.00000005,0.00000141,0.00001423,-0.
 00001982,-0.00001135,0.00000155,-0.00000031,-0.00000308,0.00001248,-0.
 00000368,-0.00000006,-0.00412458,0.00035490,-0.00280895,0.00135792,0.0
 0056725,0.00010232,0.12387360,0.00011474,-0.00008960,0.00012294,-0.000
 54634,0.00050044,-0.00034102,0.00013385,-0.00011917,0.00021113,-0.0000
 2514,0.00006275,0.00000341,0.00000595,0.00006232,-0.00001323,0.0000037
 7,-0.00004330,-0.00000318,-0.00000789,-0.00003998,0.00000769,0.0000178
 3,-0.00000890,-0.00000166,-0.00000902,0.00000177,-0.00001344,0.0000083
 6,-0.00001404,-0.00000599,0.00000773,-0.00000522,0.00000016,-0.0000026
 0,-0.00000098,0.00000230,0.00001105,0.00000377,0.00000737,-0.00273368,
 -0.00047019,0.00034022,-0.10558147,-0.23707473,0.06665939,-0.00612137,
 -0.02642136,0.00727119,-0.00002702,-0.00000505,-0.00000770,0.00000343,
 0.00000205,-0.00000781,0.00000823,0.00001318,0.00000310,-0.00000359,0.
 00000068,0.00000061,0.00000813,-0.00000048,-0.00000017,-0.00001072,0.0
 0000955,0.00000622,0.00000031,0.00000029,0.00000128,-0.00000355,0.0000
 0123,-0.00000024,0.00010019,0.00092418,-0.00015789,0.00032631,0.000370
 38,-0.00005474,0.11125791,0.26013078,-0.00020637,-0.00088268,0.0001787
 0,0.00038054,-0.00008939,0.00035006,0.00009618,0.00020196,-0.00021102,
 0.00001540,0.00003522,-0.00000472,-0.00008012,0.00005415,0.00012130,0.
 00002841,-0.00004739,-0.00004221,0.00006493,0.00000350,-0.00007493,0.0
 0000782,-0.00000986,-0.00001367,0.00000521,-0.00000069,0.00000592,-0.0
 0000860,-0.00000461,-0.00000523,0.00001188,0.00000571,-0.00000011,-0.0
 0000227,-0.00000081,-0.00000576,0.00000564,0.00000461,0.00000820,-0.00
 903088,-0.01580403,0.00545528,0.04059637,0.07307353,-0.07810191,-0.001
 79830,-0.00803825,0.00138603,-0.00008246,-0.00005825,0.00001798,0.0000
 0295,0.00000464,-0.00000344,0.00000259,0.00000451,0.00000811,-0.000001
 38,-0.00000300,0.00000041,0.00000250,0.00000348,0.00000042,-0.00001056
 ,0.00000933,-0.00000178,0.00000048,0.00000058,-0.00000020,-0.00000044,
 -0.00000148,0.00000175,-0.00365421,-0.00048525,-0.00102279,0.00084710,
 -0.00060777,0.00086433,-0.04042120,-0.07287182,0.07609756,-0.00093035,
 0.00034514,0.00353131,-0.00085633,-0.00125834,-0.00559984,0.00137235,0
 .00040047,0.00192498,-0.00022539,0.00016155,0.00026627,0.00003498,0.00
 019294,-0.00024376,0.00003418,-0.00011656,0.00005934,-0.00004530,-0.00
 010947,0.00018843,0.00000522,-0.00003137,-0.00002285,-0.00004789,-0.00
 002302,-0.00005342,-0.00004138,-0.00009612,-0.00005822,0.00006647,0.00
 001644,0.00001453,0.00000562,0.00002267,-0.00000174,0.00008521,0.00005
 814,0.00006967,0.00619640,0.00029563,-0.02784853,-0.05526776,-0.001996
 33,0.04543223,-0.00962035,0.00554368,0.02309815,0.00051253,-0.00030285
 ,-0.00003253,-0.00015992,0.00007006,-0.00004258,-0.00002714,0.00004937
 ,0.00000504,0.00001098,0.00000912,0.00000702,0.00003297,-0.00000160,-0
 .00000401,-0.00009407,0.00003610,0.00005783,0.00000718,0.00000291,0.00
 000482,-0.00001109,-0.00000480,-0.00001483,0.00080297,-0.00035443,0.00
 024283,-0.00549690,-0.00073830,-0.00212248,-0.00144035,0.00047851,0.01
 337250,0.06637351,0.00039717,-0.00179265,-0.00113855,0.00099168,0.0014
 0717,0.00249714,-0.00047796,-0.00021639,-0.00127652,0.00012258,-0.0000
 7366,0.00000859,-0.00001152,-0.00000837,0.00008581,-0.00000537,-0.0000
 0647,-0.00002924,0.00001899,0.00003715,-0.00006705,0.00000900,0.000017
 90,-0.00001601,0.00000372,0.00000577,-0.00002766,0.00003251,0.00002363
 ,-0.00000104,0.00002609,-0.00004689,0.00000283,-0.00003556,-0.00002896
 ,-0.00001710,0.00001462,-0.00000042,0.00002970,-0.00063187,0.00043081,
 -0.00657208,-0.00462537,-0.05085347,-0.00002132,0.01151152,-0.00809373
 ,-0.02997800,-0.00015154,0.00016271,-0.00000175,0.00005817,-0.00001085
 ,0.00001764,0.00002156,-0.00000229,0.00000835,-0.00000604,-0.00000924,
 0.00000421,-0.00000806,-0.00000916,0.00000810,-0.00000338,0.00004272,-
 0.00000677,-0.00000400,0.00000067,0.00000059,-0.00000413,0.00000585,0.
 00000359,0.00059835,0.00023619,-0.00018105,-0.00021057,0.00035522,-0.0
 0050329,-0.00513944,0.00398373,0.02671609,-0.00500312,0.05664780,0.003
 17799,-0.00068411,0.00080905,0.00049367,-0.00105933,-0.00202536,-0.000
 12030,-0.00006866,-0.00019289,0.00006866,-0.00006989,0.00002973,0.0000
 1730,0.00000247,-0.00001006,-0.00000306,0.00000321,0.00000154,-0.00001
 381,0.00000711,0.00001139,-0.00000777,0.00000517,0.00000837,-0.0000044
 1,-0.00000834,-0.00000269,0.00002135,0.00001486,-0.00000607,-0.0000053
 0,-0.00001574,-0.00001423,0.00000634,0.00000412,0.00000603,-0.00001433
 ,-0.00000043,-0.00001768,-0.00137483,0.00137284,-0.01567426,0.05267772
 ,-0.00967603,-0.32272935,-0.00052443,0.00036606,0.00303004,-0.00000750
 ,0.00001130,0.00009437,-0.00000989,0.00002208,0.00002932,-0.00000097,0
 .00000025,0.00000310,0.00000574,0.00000186,-0.00000104,-0.00000158,-0.
 00000001,0.00000246,0.00001004,-0.00000380,0.00003485,-0.00000253,0.00
 000057,0.00000108,-0.00000034,0.00000229,0.00000164,0.00011084,-0.0001
 5042,0.00057728,-0.00209692,-0.00141798,-0.00005523,0.00050280,-0.0004
 3264,-0.00579709,-0.05266529,0.01168049,0.34027425,-0.00002539,-0.0004
 9597,-0.00048663,-0.00081252,0.00037328,0.00084358,0.00030247,-0.00020
 245,-0.00005864,-0.00007754,0.00013330,0.00010202,-0.00002294,0.000194
 79,-0.00010245,0.00004710,-0.00014165,0.00000949,0.00000479,-0.0000953
 8,0.00006908,0.00002662,-0.00002952,-0.00002740,-0.00002677,-0.0000179
 7,-0.00004731,0.00004780,-0.00001110,-0.00002666,0.00007630,-0.0000421
 3,-0.00000904,-0.00004103,-0.00001490,-0.00002330,0.00004937,0.0000128
 0,0.00004050,0.00244822,0.00163042,-0.00005243,0.01350123,0.01975555,-
 0.00926581,-0.11274521,-0.11412973,0.04089234,-0.00002101,0.00005463,-
 0.00009134,0.00000121,-0.00000049,-0.00001710,-0.00000899,0.00004426,0
 .00001338,-0.00001145,0.00000525,0.00000387,0.00002778,-0.00000292,-0.
 00000183,-0.00002796,0.00003762,0.00003277,-0.00000664,0.00000358,0.00
 000813,-0.00002878,0.00000445,-0.00000098,-0.00108126,-0.00120451,-0.0
 0016693,-0.00014521,-0.00039239,0.00002984,-0.00388859,0.00379597,0.00
 079688,0.00072858,-0.00036893,0.00010395,0.11589857,-0.00043533,0.0002
 4524,0.00002599,0.00045375,-0.00042199,-0.00053940,-0.00068843,0.00030
 507,0.00002720,0.00015127,-0.00012818,-0.00016477,0.00002944,-0.000154
 39,0.00005087,-0.00006970,0.00013683,-0.00000348,-0.00005257,0.0000731
 7,-0.00002892,-0.00000024,0.00007881,0.00000561,0.00000536,0.00003086,
 0.00001243,0.00001936,0.00006111,0.00000233,0.00000333,-0.00005928,0.0
 0001379,-0.00003489,-0.00003546,-0.00003038,-0.00000916,-0.00002806,0.
 00001065,-0.00056028,0.00249644,0.00073407,-0.00727853,-0.02269179,0.0
 0670287,-0.12421182,-0.31497124,0.09659100,0.00007055,0.00002272,0.000
 07861,0.00001620,0.00000580,0.00000996,0.00003067,-0.00002701,-0.00001
 110,0.00000168,-0.00001218,0.00000250,-0.00003453,-0.00002616,0.000011
 56,0.00002140,-0.00000295,-0.00003428,-0.00001239,0.00000254,0.0000017
 2,0.00000619,0.00001640,0.00000633,0.00080212,0.00022071,0.00048586,-0
 .00009662,-0.00004258,-0.00006891,0.00403019,-0.00157804,-0.00158367,-
 0.00064785,0.00094046,-0.00070042,0.12589138,0.33186124,0.00022073,-0.
 00013805,-0.00070442,-0.00070950,0.00040917,0.00078960,0.00024854,-0.0
 0019814,-0.00012722,-0.00008359,0.00008076,0.00007017,-0.00004526,0.00
 009356,0.00004203,0.00005043,-0.00009024,-0.00001937,0.00004577,-0.000
 04562,-0.00003555,-0.00000906,-0.00004488,0.00001530,0.00002389,-0.000
 01291,0.00000926,0.00000268,-0.00002685,0.00002299,-0.00004647,0.00003
 499,-0.00004534,0.00005372,0.00002777,0.00005410,-0.00004405,-0.000004
 93,-0.00008613,0.00055609,0.00021793,-0.00069306,-0.00401564,-0.004713
 00,0.00290073,0.04262254,0.09309170,-0.09831719,-0.00005267,0.00004007
 ,-0.00003245,-0.00000345,-0.00001149,-0.00000571,-0.00001472,0.0000144
 9,0.00001265,-0.00000558,0.00001031,-0.00001151,0.00001911,0.00001986,
 -0.00001124,0.00000712,-0.00002494,0.00003216,-0.00000151,-0.00000028,
 0.00000443,-0.00001039,0.00000119,0.00000852,-0.00040520,-0.00010423,0
 .00039252,-0.00008580,0.00021560,-0.00013806,0.00114513,-0.00120990,0.
 00027549,-0.00006131,-0.00114170,0.00005354,-0.04691086,-0.10083038,0.
 09551474,0.00076329,-0.00003181,0.00063130,-0.00055649,-0.00068248,-0.
 00229941,-0.00009169,0.00026028,0.00045658,-0.00007672,-0.00002363,-0.
 00004311,-0.00006457,0.00011772,0.00000784,0.00004806,-0.00008448,-0.0
 0001025,0.00003743,-0.00005824,0.00000816,-0.00001888,0.00002249,0.000
 00300,-0.00001488,-0.00000854,-0.00002379,0.00000963,-0.00002019,-0.00
 002216,0.00003980,-0.00000877,0.00000077,-0.00001293,-0.00000346,-0.00
 000820,0.00003586,0.00001108,0.00002299,-0.00208326,0.00367359,0.00185
 136,-0.01560265,-0.00228252,-0.00875880,-0.30145728,-0.05640747,-0.152
 68368,-0.00000764,0.00001454,-0.00000187,-0.00001156,0.00000374,-0.000
 00418,-0.00001556,0.00002205,0.00000513,-0.00000247,0.00000544,0.00000
 129,0.00000548,-0.00001145,-0.00000263,-0.00002303,0.00001726,0.000018
 34,-0.00000219,0.00000241,0.00000477,-0.00001708,0.00000196,-0.0000003
 0,0.00048551,0.00010878,0.00021989,0.00005745,0.00014569,-0.00012714,0
 .00139500,-0.00045243,-0.00027017,0.00011777,-0.00074453,0.00073409,-0
 .01044595,-0.00066486,-0.00730776,0.31544771,-0.00035167,-0.00026146,-
 0.00046860,0.00078006,0.00133115,0.00203522,0.00059390,-0.00054024,-0.
 00040946,-0.00006613,0.00002685,0.00019620,0.00004226,0.00010362,-0.00
 010203,0.00001470,-0.00010077,0.00001565,-0.00001384,-0.00005318,0.000
 04429,0.00001571,-0.00003077,-0.00000565,-0.00000114,-0.00000927,0.000
 00173,0.00001379,-0.00000024,-0.00000014,0.00000995,-0.00000556,-0.000
 00508,-0.00000290,0.00000568,-0.00000703,-0.00000017,-0.00000303,-0.00
 000099,0.00261530,-0.00531063,-0.00258311,0.02112127,0.00795758,0.0154
 7670,-0.04827524,-0.06919136,-0.02740545,-0.00002778,0.00004887,-0.000
 08154,0.00000757,-0.00000437,-0.00000859,0.00000284,0.00002867,0.00001
 181,-0.00000310,0.00000396,0.,0.00001888,0.00000885,-0.00000266,-0.000
 00431,0.00000434,0.00001071,-0.00000272,0.00000194,0.00000063,-0.00000
 560,0.00000085,0.00000048,-0.00027372,0.00026988,-0.00030680,-0.000215
 62,0.00002546,0.00001688,-0.00004154,-0.00016204,0.00088047,-0.0002940
 8,0.00088604,-0.00031945,-0.02775977,-0.00309672,-0.02031717,0.0546115
 0,0.06932802,0.00014716,-0.00007217,-0.00013368,0.00016112,0.00003132,
 0.00055294,0.00025168,-0.00018634,-0.00014538,-0.00005024,0.00004594,0
 .00006064,-0.00004738,0.00009550,0.00003870,0.00004627,-0.00009108,-0.
 00001920,0.00004664,-0.00003735,-0.00003166,-0.00000604,-0.00002601,0.
 00000511,0.00000783,-0.00001363,-0.00000124,0.00001902,-0.00001603,0.0
 0000324,-0.00000432,0.00000654,-0.00002903,0.00001819,0.00001248,0.000
 01994,-0.00001402,0.00000145,-0.00003472,0.00049314,-0.00107677,-0.000
 11818,0.00508176,0.00419803,0.00459287,-0.14804766,-0.03163853,-0.1568
 7231,-0.00005681,0.00001842,-0.00004640,0.00000397,-0.00000663,0.00000
 042,-0.00001142,0.00001720,0.00001312,-0.00000402,0.00000575,-0.000004
 96,0.00001562,0.00000977,-0.00000488,-0.00000316,-0.00000038,0.0000279
 9,-0.00000201,0.00000084,0.00000339,-0.00001044,0.00000004,0.00000449,
 -0.00016401,-0.00014523,-0.00013741,0.00021127,-0.00018877,0.00013194,
 -0.00023554,0.00029399,0.00005791,0.00107224,-0.00015173,0.00026876,0.
 01308370,0.00136095,0.00852406,0.16130061,0.03420709,0.15932886,-0.000
 33187,-0.00053769,-0.00125096,-0.00114459,0.00149902,0.00144204,0.0004
 9321,-0.00038966,-0.00019548,-0.00015254,0.00013433,0.00015080,-0.0000
 5090,0.00022063,-0.00005170,0.00007717,-0.00018434,-0.00000588,0.00005
 057,-0.00010937,0.00002646,0.00000805,-0.00005356,-0.00000741,-0.00000
 434,-0.00002291,-0.00001604,0.00002379,-0.00003074,-0.00000736,0.00002
 699,0.00000784,-0.00001975,0.00000145,0.00001182,0.00000594,0.00001460
 ,0.00000488,-0.00001272,0.00164283,-0.00142177,0.00081408,-0.00456725,
 0.00128005,0.02198193,-0.08212818,0.00424697,0.08511311,-0.00010888,0.
 00006916,-0.00009674,-0.00000009,-0.00001582,-0.00002419,-0.00002098,0
 .00004435,0.00001703,-0.00001105,0.00001242,-0.00000342,0.00003405,0.0
 0001223,-0.00001081,-0.00001587,0.00000857,0.00003325,-0.00000332,0.00
 000253,0.00000528,-0.00002532,-0.00000086,0.00000203,-0.00047602,-0.00
 021915,0.00016493,-0.00032140,0.00047012,-0.00080954,0.00110664,-0.000
 75745,-0.00067043,-0.00212272,0.00362543,-0.00107724,-0.00374280,0.003
 26432,0.01481708,0.01206182,-0.00250841,-0.03330316,0.07968696,0.00064
 877,0.00010077,0.00064818,0.00005369,-0.00094618,-0.00108276,-0.000171
 36,0.00012781,0.00022428,0.00003924,-0.00001290,-0.00004741,0.00004234
 ,-0.00000977,-0.00005321,-0.00003228,0.00003374,0.00001431,-0.00005978
 ,-0.00001015,0.00004166,0.00000695,0.00001627,0.00000469,0.00000093,0.
 00001227,-0.00000108,-0.00000241,0.00000793,-0.00000447,-0.00000401,-0
 .00001688,0.00000232,-0.00000182,-0.00000942,0.00000224,-0.00000043,-0
 .00000791,-0.00000361,-0.00129099,0.00118699,0.00008406,0.00547067,-0.
 00060972,-0.02668302,0.00541802,-0.06328479,-0.03732045,0.00006281,0.0
 0003629,0.00002544,-0.00000514,0.00001102,0.00000441,0.00001430,0.0000
 0125,-0.00000368,0.00000108,-0.00000140,-0.00000043,-0.00000544,-0.000
 00803,0.00000224,-0.00000077,-0.00000118,-0.00000334,-0.00000409,0.000
 00116,0.00000282,-0.00000067,0.00000961,0.00000388,-0.00009619,-0.0001
 0719,0.00031422,0.00056913,0.00015133,0.00053346,-0.00072389,-0.000034
 01,-0.00050880,0.00329551,-0.00403126,0.00111256,-0.00702749,0.0067786
 4,0.03465730,0.00246632,-0.00126213,-0.00665464,-0.00866299,0.06187785
 ,-0.00044037,0.00009299,-0.00021311,0.00031327,-0.00021606,-0.00020629
 ,-0.00053117,0.00020334,-0.00012870,0.00008622,-0.00005509,-0.00012652
 ,-0.00005256,-0.00007584,0.00019539,-0.00000558,0.00004684,-0.00005182
 ,0.00003152,0.00004377,-0.00013755,-0.00001249,0.00003028,0.00001659,0
 .00002482,0.00001782,0.00001906,0.00000162,0.00001611,0.00001658,-0.00
 003770,0.00000273,-0.00001387,0.00001610,-0.00000906,0.00002115,-0.000
 03408,-0.00001550,-0.00004004,-0.00000602,0.00064374,0.00249704,0.0030
 4068,-0.00405990,0.00112027,0.07776766,-0.02891293,-0.38285879,-0.0000
 4633,0.00003291,0.00009557,0.00002391,-0.00000594,0.00000835,0.0000156
 4,-0.00002228,0.00000003,-0.00000243,-0.00000610,-0.00000658,-0.000020
 15,-0.00000396,0.00000170,0.00001730,-0.00001072,-0.00001528,-0.000001
 43,-0.00000144,-0.00000003,0.00000519,0.00000496,0.00001077,0.00017309
 ,0.00000796,0.00003956,0.00026867,0.00031709,-0.00052816,-0.00056491,0
 .00019041,0.00045542,-0.00057580,0.00006770,0.00128917,0.00125919,-0.0
 0213860,-0.00849504,0.00629728,-0.00087409,-0.01605532,-0.08701113,0.0
 3468885,0.40309042\\-0.00000091,0.00000080,-0.00000029,-0.00000214,0.0
 0000130,-0.00000070,-0.00000121,-0.00000123,0.00000077,0.00000054,-0.0
 0000022,0.00000027,-0.00000053,0.00000042,-0.00000020,0.,-0.00000036,-
 0.00000005,-0.00000020,-0.00000031,0.00000021,0.00000038,-0.00000026,-
 0.00000073,0.00000022,0.00000056,0.00000051,0.00000023,0.00000022,-0.0
 0000005,0.00000012,-0.00000031,0.00000003,0.00000002,-0.00000014,0.000
 00028,0.00000035,-0.00000062,0.00000038,-0.00000113,-0.00000050,0.0000
 0078,0.00000125,0.00000147,-0.00000030,0.00000205,-0.00000127,-0.00000
 011,0.00000012,0.00000040,-0.00000007,-0.00000018,0.00000002,0.0000000
 5,-0.00000029,-0.00000010,0.00000008,-0.00000006,0.00000012,0.00000029
 ,0.,0.00000013,0.00000023,-0.00000030,-0.00000046,0.00000016,0.0000001
 9,-0.00000018,0.00000024,0.00000008,-0.00000029,0.00000010,0.00000027,
 0.00000057,-0.00000128,-0.00000076,-0.00000017,-0.00000010,0.00000101,
 0.00000013,-0.00000003,0.00000032,-0.00000021,-0.00000007,0.00000019,0
 .00000021,0.00000003,0.00000027,0.00000006,-0.00000019,0.00000008,0.00
 000025,-0.00000022\\\@


 SILVERMAN'S PARADOX - IF MURPHY'S LAW CAN GO WRONG, IT WILL.
 Job cpu time:       0 days  2 hours 46 minutes 44.2 seconds.
 File lengths (MBytes):  RWF=    460 Int=      0 D2E=      0 Chk=     13 Scr=      1
 Normal termination of Gaussian 09 at Wed Jul 28 23:55:27 2021.
