 Entering Gaussian System, Link 0=g09
 Input=opt_freq-conf-885.com
 Output=opt_freq-conf-885.log
 Initial command:
 /aerosol/software/g09/l1.exe "/scratch/nicole/10657/Gau-83077.inp" -scrdir="/scratch/nicole/10657/"
 Entering Link 1 = /aerosol/software/g09/l1.exe PID=     83082.
  
 Copyright (c) 1988,1990,1992,1993,1995,1998,2003,2009,2013,
            Gaussian, Inc.  All Rights Reserved.
  
 This is part of the Gaussian(R) 09 program.  It is based on
 the Gaussian(R) 03 system (copyright 2003, Gaussian, Inc.),
 the Gaussian(R) 98 system (copyright 1998, Gaussian, Inc.),
 the Gaussian(R) 94 system (copyright 1995, Gaussian, Inc.),
 the Gaussian 92(TM) system (copyright 1992, Gaussian, Inc.),
 the Gaussian 90(TM) system (copyright 1990, Gaussian, Inc.),
 the Gaussian 88(TM) system (copyright 1988, Gaussian, Inc.),
 the Gaussian 86(TM) system (copyright 1986, Carnegie Mellon
 University), and the Gaussian 82(TM) system (copyright 1983,
 Carnegie Mellon University). Gaussian is a federally registered
 trademark of Gaussian, Inc.
  
 This software contains proprietary and confidential information,
 including trade secrets, belonging to Gaussian, Inc.
  
 This software is provided under written license and may be
 used, copied, transmitted, or stored only in accord with that
 written license.
  
 The following legend is applicable only to US Government
 contracts under FAR:
  
                    RESTRICTED RIGHTS LEGEND
  
 Use, reproduction and disclosure by the US Government is
 subject to restrictions as set forth in subparagraphs (a)
 and (c) of the Commercial Computer Software - Restricted
 Rights clause in FAR 52.227-19.
  
 Gaussian, Inc.
 340 Quinnipiac St., Bldg. 40, Wallingford CT 06492
  
  
 ---------------------------------------------------------------
 Warning -- This program may not be used in any manner that
 competes with the business of Gaussian, Inc. or will provide
 assistance to any competitor of Gaussian, Inc.  The licensee
 of this program is prohibited from giving any competitor of
 Gaussian, Inc. access to this program.  By using this program,
 the user acknowledges that Gaussian, Inc. is engaged in the
 business of creating and licensing software in the field of
 computational chemistry and represents and warrants to the
 licensee that it is not a competitor of Gaussian, Inc. and that
 it will not use this program in any manner prohibited above.
 ---------------------------------------------------------------
  

 Cite this work as:
 Gaussian 09, Revision D.01,
 M. J. Frisch, G. W. Trucks, H. B. Schlegel, G. E. Scuseria, 
 M. A. Robb, J. R. Cheeseman, G. Scalmani, V. Barone, B. Mennucci, 
 G. A. Petersson, H. Nakatsuji, M. Caricato, X. Li, H. P. Hratchian, 
 A. F. Izmaylov, J. Bloino, G. Zheng, J. L. Sonnenberg, M. Hada, 
 M. Ehara, K. Toyota, R. Fukuda, J. Hasegawa, M. Ishida, T. Nakajima, 
 Y. Honda, O. Kitao, H. Nakai, T. Vreven, J. A. Montgomery, Jr., 
 J. E. Peralta, F. Ogliaro, M. Bearpark, J. J. Heyd, E. Brothers, 
 K. N. Kudin, V. N. Staroverov, T. Keith, R. Kobayashi, J. Normand, 
 K. Raghavachari, A. Rendell, J. C. Burant, S. S. Iyengar, J. Tomasi, 
 M. Cossi, N. Rega, J. M. Millam, M. Klene, J. E. Knox, J. B. Cross, 
 V. Bakken, C. Adamo, J. Jaramillo, R. Gomperts, R. E. Stratmann, 
 O. Yazyev, A. J. Austin, R. Cammi, C. Pomelli, J. W. Ochterski, 
 R. L. Martin, K. Morokuma, V. G. Zakrzewski, G. A. Voth, 
 P. Salvador, J. J. Dannenberg, S. Dapprich, A. D. Daniels, 
 O. Farkas, J. B. Foresman, J. V. Ortiz, J. Cioslowski, 
 and D. J. Fox, Gaussian, Inc., Wallingford CT, 2013.
 
 ******************************************
 Gaussian 09:  ES64L-G09RevD.01 24-Apr-2013
                28-Jul-2021 
 ******************************************
 %mem=2gb
 %nproc=4
 Will use up to    4 processors via shared memory.
 %chk=conf-885.chk
 ----------------------------------------------------------------------
 # B3LYP/6-31+G(d,p) opt=calcfc freq=noraman nosymm integral(ultrafineg
 rid)
 ----------------------------------------------------------------------
 1/10=4,14=-1,18=20,19=15,26=4,38=1/1,3;
 2/9=110,12=2,15=1,17=6,18=5,40=1/2;
 3/5=1,6=6,7=111,11=2,16=1,25=1,30=1,71=2,74=-5,75=-5,140=1/1,2,3;
 4//1;
 5/5=2,38=5/2;
 8/6=4,10=90,11=11/1;
 11/6=1,8=1,9=11,15=111,16=1,31=1/1,2,10;
 10/6=1,13=1,31=1/2;
 6/7=2,8=2,9=2,10=2,28=1/1;
 7/10=1,18=20,25=1,30=1/1,2,3,16;
 1/10=4,14=-1,18=20,19=15,26=4/3(2);
 2/9=110,15=1/2;
 99//99;
 2/9=110,15=1/2;
 3/5=1,6=6,7=111,11=2,16=1,25=1,30=1,71=1,74=-5,75=-5/1,2,3;
 4/5=5,16=3,69=1/1;
 5/5=2,38=5/2;
 7/30=1/1,2,3,16;
 1/14=-1,18=20,19=15,26=4/3(-5);
 2/9=110,15=1/2;
 6/7=2,8=2,9=2,10=2,19=2,28=1/1;
 99/9=1/99;
 ------------------------------------------------------------
 Candidate Structure: Conf:885 OPT and FREQ calc in gas phase
 ------------------------------------------------------------
 Symbolic Z-matrix:
 Charge =  1 Multiplicity = 1
 O                    -1.53818   0.57137  -0.33869 
 C                    -1.47554  -0.58604   0.06799 
 N                    -0.33365  -1.08817   0.5939 
 C                     0.82432  -0.23497   0.84341 
 C                     0.46092   0.81771   1.87913 
 O                     1.1605    1.96328   1.73747 
 O                    -0.33418   0.64265   2.76341 
 C                     1.41772   0.3368   -0.46374 
 C                     2.89502   0.58328  -0.40144 
 C                     3.66779   1.61256   0.05406 
 N                     5.01245   1.34801  -0.13655 
 C                     5.05197   0.16407  -0.69755 
 N                     3.80291  -0.34078  -0.88151 
 C                    -2.64265  -1.55339  -0.03225 
 C                    -3.97464  -0.88997   0.28999 
 N                    -4.25956   0.20384  -0.66934 
 H                    -0.37283  -1.95635   1.09943 
 H                     1.55463  -0.89271   1.33001 
 H                     0.86184   2.54627   2.44771 
 H                     1.23317  -0.38449  -1.26056 
 H                     0.88831   1.24414  -0.73456 
 H                     3.33952   2.5325    0.5093 
 H                     5.93702  -0.37237  -0.9914 
 H                     3.57006  -1.22406  -1.30015 
 H                    -2.66526  -1.93206  -1.05777 
 H                    -2.46599  -2.40279   0.62929 
 H                    -4.77649  -1.62938   0.25892 
 H                    -3.94437  -0.48179   1.3025 
 H                    -4.47322  -0.16443  -1.59548 
 H                    -5.02282   0.80563  -0.36245 
 H                    -3.39869   0.76171  -0.75108 
 

 GradGradGradGradGradGradGradGradGradGradGradGradGradGradGradGradGradGrad
 Berny optimization.
 Initialization pass.
                           ----------------------------
                           !    Initial Parameters    !
                           ! (Angstroms and Degrees)  !
 --------------------------                            --------------------------
 ! Name  Definition              Value          Derivative Info.                !
 --------------------------------------------------------------------------------
 ! R1    R(1,2)                  1.2284         calculate D2E/DX2 analytically  !
 ! R2    R(2,3)                  1.3538         calculate D2E/DX2 analytically  !
 ! R3    R(2,14)                 1.5192         calculate D2E/DX2 analytically  !
 ! R4    R(3,4)                  1.4598         calculate D2E/DX2 analytically  !
 ! R5    R(3,17)                 1.0054         calculate D2E/DX2 analytically  !
 ! R6    R(4,5)                  1.5208         calculate D2E/DX2 analytically  !
 ! R7    R(4,8)                  1.5452         calculate D2E/DX2 analytically  !
 ! R8    R(4,18)                 1.0967         calculate D2E/DX2 analytically  !
 ! R9    R(5,6)                  1.3497         calculate D2E/DX2 analytically  !
 ! R10   R(5,7)                  1.202          calculate D2E/DX2 analytically  !
 ! R11   R(6,19)                 0.9662         calculate D2E/DX2 analytically  !
 ! R12   R(8,9)                  1.499          calculate D2E/DX2 analytically  !
 ! R13   R(8,20)                 1.0905         calculate D2E/DX2 analytically  !
 ! R14   R(8,21)                 1.0848         calculate D2E/DX2 analytically  !
 ! R15   R(9,10)                 1.3653         calculate D2E/DX2 analytically  !
 ! R16   R(9,13)                 1.3815         calculate D2E/DX2 analytically  !
 ! R17   R(10,11)                1.3836         calculate D2E/DX2 analytically  !
 ! R18   R(10,22)                1.0776         calculate D2E/DX2 analytically  !
 ! R19   R(11,12)                1.3107         calculate D2E/DX2 analytically  !
 ! R20   R(12,13)                1.3597         calculate D2E/DX2 analytically  !
 ! R21   R(12,23)                1.0758         calculate D2E/DX2 analytically  !
 ! R22   R(13,24)                1.0048         calculate D2E/DX2 analytically  !
 ! R23   R(14,15)                1.5226         calculate D2E/DX2 analytically  !
 ! R24   R(14,25)                1.0934         calculate D2E/DX2 analytically  !
 ! R25   R(14,26)                1.091          calculate D2E/DX2 analytically  !
 ! R26   R(15,16)                1.4825         calculate D2E/DX2 analytically  !
 ! R27   R(15,27)                1.0912         calculate D2E/DX2 analytically  !
 ! R28   R(15,28)                1.0921         calculate D2E/DX2 analytically  !
 ! R29   R(16,29)                1.0193         calculate D2E/DX2 analytically  !
 ! R30   R(16,30)                1.0193         calculate D2E/DX2 analytically  !
 ! R31   R(16,31)                1.0291         calculate D2E/DX2 analytically  !
 ! A1    A(1,2,3)              121.407          calculate D2E/DX2 analytically  !
 ! A2    A(1,2,14)             122.6121         calculate D2E/DX2 analytically  !
 ! A3    A(3,2,14)             115.9422         calculate D2E/DX2 analytically  !
 ! A4    A(2,3,4)              121.2453         calculate D2E/DX2 analytically  !
 ! A5    A(2,3,17)             118.8653         calculate D2E/DX2 analytically  !
 ! A6    A(4,3,17)             116.7217         calculate D2E/DX2 analytically  !
 ! A7    A(3,4,5)              109.3542         calculate D2E/DX2 analytically  !
 ! A8    A(3,4,8)              112.1043         calculate D2E/DX2 analytically  !
 ! A9    A(3,4,18)             104.6867         calculate D2E/DX2 analytically  !
 ! A10   A(5,4,8)              114.314          calculate D2E/DX2 analytically  !
 ! A11   A(5,4,18)             105.7881         calculate D2E/DX2 analytically  !
 ! A12   A(8,4,18)             109.9704         calculate D2E/DX2 analytically  !
 ! A13   A(4,5,6)              113.0883         calculate D2E/DX2 analytically  !
 ! A14   A(4,5,7)              123.9356         calculate D2E/DX2 analytically  !
 ! A15   A(6,5,7)              122.9345         calculate D2E/DX2 analytically  !
 ! A16   A(5,6,19)             105.9471         calculate D2E/DX2 analytically  !
 ! A17   A(4,8,9)              113.8375         calculate D2E/DX2 analytically  !
 ! A18   A(4,8,20)             107.961          calculate D2E/DX2 analytically  !
 ! A19   A(4,8,21)             109.4665         calculate D2E/DX2 analytically  !
 ! A20   A(9,8,20)             107.8126         calculate D2E/DX2 analytically  !
 ! A21   A(9,8,21)             110.7195         calculate D2E/DX2 analytically  !
 ! A22   A(20,8,21)            106.7503         calculate D2E/DX2 analytically  !
 ! A23   A(8,9,10)             134.0777         calculate D2E/DX2 analytically  !
 ! A24   A(8,9,13)             121.5484         calculate D2E/DX2 analytically  !
 ! A25   A(10,9,13)            104.3721         calculate D2E/DX2 analytically  !
 ! A26   A(9,10,11)            111.0979         calculate D2E/DX2 analytically  !
 ! A27   A(9,10,22)            127.74           calculate D2E/DX2 analytically  !
 ! A28   A(11,10,22)           121.1621         calculate D2E/DX2 analytically  !
 ! A29   A(10,11,12)           105.1277         calculate D2E/DX2 analytically  !
 ! A30   A(11,12,13)           111.4432         calculate D2E/DX2 analytically  !
 ! A31   A(11,12,23)           126.3059         calculate D2E/DX2 analytically  !
 ! A32   A(13,12,23)           122.2508         calculate D2E/DX2 analytically  !
 ! A33   A(9,13,12)            107.9583         calculate D2E/DX2 analytically  !
 ! A34   A(9,13,24)            125.4832         calculate D2E/DX2 analytically  !
 ! A35   A(12,13,24)           126.5558         calculate D2E/DX2 analytically  !
 ! A36   A(2,14,15)            112.3751         calculate D2E/DX2 analytically  !
 ! A37   A(2,14,25)            107.3548         calculate D2E/DX2 analytically  !
 ! A38   A(2,14,26)            109.3497         calculate D2E/DX2 analytically  !
 ! A39   A(15,14,25)           109.3478         calculate D2E/DX2 analytically  !
 ! A40   A(15,14,26)           110.6441         calculate D2E/DX2 analytically  !
 ! A41   A(25,14,26)           107.6032         calculate D2E/DX2 analytically  !
 ! A42   A(14,15,16)           110.6503         calculate D2E/DX2 analytically  !
 ! A43   A(14,15,27)           109.9734         calculate D2E/DX2 analytically  !
 ! A44   A(14,15,28)           109.5618         calculate D2E/DX2 analytically  !
 ! A45   A(16,15,27)           109.8954         calculate D2E/DX2 analytically  !
 ! A46   A(16,15,28)           109.2385         calculate D2E/DX2 analytically  !
 ! A47   A(27,15,28)           107.459          calculate D2E/DX2 analytically  !
 ! A48   A(15,16,29)           111.2021         calculate D2E/DX2 analytically  !
 ! A49   A(15,16,30)           112.6245         calculate D2E/DX2 analytically  !
 ! A50   A(15,16,31)           106.8938         calculate D2E/DX2 analytically  !
 ! A51   A(29,16,30)           109.2634         calculate D2E/DX2 analytically  !
 ! A52   A(29,16,31)           107.3997         calculate D2E/DX2 analytically  !
 ! A53   A(30,16,31)           109.2859         calculate D2E/DX2 analytically  !
 ! D1    D(1,2,3,4)              7.1885         calculate D2E/DX2 analytically  !
 ! D2    D(1,2,3,17)           166.4159         calculate D2E/DX2 analytically  !
 ! D3    D(14,2,3,4)          -175.0172         calculate D2E/DX2 analytically  !
 ! D4    D(14,2,3,17)          -15.7898         calculate D2E/DX2 analytically  !
 ! D5    D(1,2,14,15)          -40.7302         calculate D2E/DX2 analytically  !
 ! D6    D(1,2,14,25)           79.5357         calculate D2E/DX2 analytically  !
 ! D7    D(1,2,14,26)         -164.005          calculate D2E/DX2 analytically  !
 ! D8    D(3,2,14,15)          141.5048         calculate D2E/DX2 analytically  !
 ! D9    D(3,2,14,25)          -98.2293         calculate D2E/DX2 analytically  !
 ! D10   D(3,2,14,26)           18.2299         calculate D2E/DX2 analytically  !
 ! D11   D(2,3,4,5)             63.0455         calculate D2E/DX2 analytically  !
 ! D12   D(2,3,4,8)            -64.8105         calculate D2E/DX2 analytically  !
 ! D13   D(2,3,4,18)           176.0112         calculate D2E/DX2 analytically  !
 ! D14   D(17,3,4,5)           -96.6058         calculate D2E/DX2 analytically  !
 ! D15   D(17,3,4,8)           135.5382         calculate D2E/DX2 analytically  !
 ! D16   D(17,3,4,18)           16.36           calculate D2E/DX2 analytically  !
 ! D17   D(3,4,5,6)           -151.0244         calculate D2E/DX2 analytically  !
 ! D18   D(3,4,5,7)             31.2652         calculate D2E/DX2 analytically  !
 ! D19   D(8,4,5,6)            -24.4154         calculate D2E/DX2 analytically  !
 ! D20   D(8,4,5,7)            157.8743         calculate D2E/DX2 analytically  !
 ! D21   D(18,4,5,6)            96.7304         calculate D2E/DX2 analytically  !
 ! D22   D(18,4,5,7)           -80.98           calculate D2E/DX2 analytically  !
 ! D23   D(3,4,8,9)           -149.8559         calculate D2E/DX2 analytically  !
 ! D24   D(3,4,8,20)           -30.1997         calculate D2E/DX2 analytically  !
 ! D25   D(3,4,8,21)            85.6439         calculate D2E/DX2 analytically  !
 ! D26   D(5,4,8,9)             84.9736         calculate D2E/DX2 analytically  !
 ! D27   D(5,4,8,20)          -155.3702         calculate D2E/DX2 analytically  !
 ! D28   D(5,4,8,21)           -39.5266         calculate D2E/DX2 analytically  !
 ! D29   D(18,4,8,9)           -33.8324         calculate D2E/DX2 analytically  !
 ! D30   D(18,4,8,20)           85.8239         calculate D2E/DX2 analytically  !
 ! D31   D(18,4,8,21)         -158.3326         calculate D2E/DX2 analytically  !
 ! D32   D(4,5,6,19)          -179.1045         calculate D2E/DX2 analytically  !
 ! D33   D(7,5,6,19)            -1.3678         calculate D2E/DX2 analytically  !
 ! D34   D(4,8,9,10)           -84.1443         calculate D2E/DX2 analytically  !
 ! D35   D(4,8,9,13)            96.4351         calculate D2E/DX2 analytically  !
 ! D36   D(20,8,9,10)          156.1155         calculate D2E/DX2 analytically  !
 ! D37   D(20,8,9,13)          -23.3051         calculate D2E/DX2 analytically  !
 ! D38   D(21,8,9,10)           39.6805         calculate D2E/DX2 analytically  !
 ! D39   D(21,8,9,13)         -139.7401         calculate D2E/DX2 analytically  !
 ! D40   D(8,9,10,11)         -179.2905         calculate D2E/DX2 analytically  !
 ! D41   D(8,9,10,22)            0.6845         calculate D2E/DX2 analytically  !
 ! D42   D(13,9,10,11)           0.1998         calculate D2E/DX2 analytically  !
 ! D43   D(13,9,10,22)        -179.8253         calculate D2E/DX2 analytically  !
 ! D44   D(8,9,13,12)          179.5376         calculate D2E/DX2 analytically  !
 ! D45   D(8,9,13,24)            0.1163         calculate D2E/DX2 analytically  !
 ! D46   D(10,9,13,12)          -0.0327         calculate D2E/DX2 analytically  !
 ! D47   D(10,9,13,24)        -179.454          calculate D2E/DX2 analytically  !
 ! D48   D(9,10,11,12)          -0.2927         calculate D2E/DX2 analytically  !
 ! D49   D(22,10,11,12)        179.7304         calculate D2E/DX2 analytically  !
 ! D50   D(10,11,12,13)          0.2688         calculate D2E/DX2 analytically  !
 ! D51   D(10,11,12,23)       -179.839          calculate D2E/DX2 analytically  !
 ! D52   D(11,12,13,9)          -0.1545         calculate D2E/DX2 analytically  !
 ! D53   D(11,12,13,24)        179.2589         calculate D2E/DX2 analytically  !
 ! D54   D(23,12,13,9)         179.9482         calculate D2E/DX2 analytically  !
 ! D55   D(23,12,13,24)         -0.6384         calculate D2E/DX2 analytically  !
 ! D56   D(2,14,15,16)          61.4384         calculate D2E/DX2 analytically  !
 ! D57   D(2,14,15,27)        -176.9661         calculate D2E/DX2 analytically  !
 ! D58   D(2,14,15,28)         -59.0665         calculate D2E/DX2 analytically  !
 ! D59   D(25,14,15,16)        -57.6677         calculate D2E/DX2 analytically  !
 ! D60   D(25,14,15,27)         63.9278         calculate D2E/DX2 analytically  !
 ! D61   D(25,14,15,28)       -178.1726         calculate D2E/DX2 analytically  !
 ! D62   D(26,14,15,16)       -176.0146         calculate D2E/DX2 analytically  !
 ! D63   D(26,14,15,27)        -54.4191         calculate D2E/DX2 analytically  !
 ! D64   D(26,14,15,28)         63.4805         calculate D2E/DX2 analytically  !
 ! D65   D(14,15,16,29)         70.3138         calculate D2E/DX2 analytically  !
 ! D66   D(14,15,16,30)       -166.6591         calculate D2E/DX2 analytically  !
 ! D67   D(14,15,16,31)        -46.6241         calculate D2E/DX2 analytically  !
 ! D68   D(27,15,16,29)        -51.3276         calculate D2E/DX2 analytically  !
 ! D69   D(27,15,16,30)         71.6994         calculate D2E/DX2 analytically  !
 ! D70   D(27,15,16,31)       -168.2656         calculate D2E/DX2 analytically  !
 ! D71   D(28,15,16,29)       -168.9888         calculate D2E/DX2 analytically  !
 ! D72   D(28,15,16,30)        -45.9617         calculate D2E/DX2 analytically  !
 ! D73   D(28,15,16,31)         74.0733         calculate D2E/DX2 analytically  !
 --------------------------------------------------------------------------------
 Trust Radius=3.00D-01 FncErr=1.00D-07 GrdErr=1.00D-06
 Number of steps in this run=    167 maximum allowed number of steps=    186.
 GradGradGradGradGradGradGradGradGradGradGradGradGradGradGradGradGradGrad

                          Input orientation:                          
 ---------------------------------------------------------------------
 Center     Atomic      Atomic             Coordinates (Angstroms)
 Number     Number       Type             X           Y           Z
 ---------------------------------------------------------------------
      1          8           0       -1.538177    0.571365   -0.338685
      2          6           0       -1.475544   -0.586038    0.067993
      3          7           0       -0.333646   -1.088170    0.593896
      4          6           0        0.824321   -0.234971    0.843410
      5          6           0        0.460921    0.817714    1.879128
      6          8           0        1.160504    1.963284    1.737470
      7          8           0       -0.334184    0.642647    2.763409
      8          6           0        1.417721    0.336804   -0.463742
      9          6           0        2.895018    0.583283   -0.401438
     10          6           0        3.667793    1.612560    0.054059
     11          7           0        5.012447    1.348006   -0.136547
     12          6           0        5.051966    0.164069   -0.697549
     13          7           0        3.802905   -0.340777   -0.881507
     14          6           0       -2.642649   -1.553390   -0.032247
     15          6           0       -3.974637   -0.889965    0.289986
     16          7           0       -4.259556    0.203843   -0.669340
     17          1           0       -0.372831   -1.956352    1.099430
     18          1           0        1.554627   -0.892708    1.330011
     19          1           0        0.861839    2.546274    2.447712
     20          1           0        1.233170   -0.384492   -1.260563
     21          1           0        0.888307    1.244140   -0.734564
     22          1           0        3.339524    2.532496    0.509303
     23          1           0        5.937025   -0.372368   -0.991397
     24          1           0        3.570064   -1.224065   -1.300151
     25          1           0       -2.665263   -1.932058   -1.057774
     26          1           0       -2.465988   -2.402790    0.629291
     27          1           0       -4.776490   -1.629383    0.258918
     28          1           0       -3.944371   -0.481792    1.302504
     29          1           0       -4.473217   -0.164428   -1.595482
     30          1           0       -5.022815    0.805627   -0.362453
     31          1           0       -3.398692    0.761715   -0.751084
 ---------------------------------------------------------------------
                    Distance matrix (angstroms):
                    1          2          3          4          5
     1  O    0.000000
     2  C    1.228370   0.000000
     3  N    2.252700   1.353751   0.000000
     4  C    2.762051   2.452325   1.459826   0.000000
     5  C    2.995960   3.000104   2.432191   1.520828   0.000000
     6  O    3.678415   4.029261   3.584915   2.396808   1.349745
     7  O    3.328313   3.174529   2.775340   2.408058   1.201995
     8  C    2.967827   3.083077   2.493278   1.545217   2.576002
     9  C    4.433655   4.548570   3.769445   2.550876   3.343766
    10  C    5.323576   5.593562   4.857662   3.481634   3.774478
    11  N    6.599600   6.773212   5.920238   4.583288   5.006052
    12  C    6.612463   6.614915   5.678094   4.517385   5.305113
    13  N    5.445532   5.368773   4.454937   3.443616   4.486877
    14  C    2.414196   1.519194   2.437207   3.811152   4.348291
    15  C    2.909820   2.527275   3.659025   4.874966   5.011558
    16  N    2.765919   2.986351   4.321786   5.322290   5.399484
    17  H    3.132979   2.039019   1.005406   2.112314   2.999752
    18  H    3.807032   3.296767   2.036086   1.096697   2.103156
    19  H    4.174249   4.575784   4.251471   3.211000   1.863315
    20  H    3.073091   3.023708   2.527665   2.148538   3.449540
    21  H    2.548955   3.095390   2.949177   2.163762   2.682515
    22  H    5.325137   5.753685   5.158348   3.754563   3.619842
    23  H    7.562758   7.490937   6.507445   5.433703   6.296342
    24  H    5.499283   5.266598   4.341063   3.621086   4.893205
    25  H    2.838052   2.120036   2.979363   4.321088   5.095063
    26  H    3.262424   2.143974   2.505267   3.946064   4.527752
    27  H    3.960694   3.467170   4.488205   5.801302   6.003652
    28  H    3.097162   2.762244   3.729230   4.797095   4.629018
    29  H    3.276490   3.454121   4.773125   5.832416   6.114183
    30  H    3.492584   3.834729   5.146783   6.060194   5.924204
    31  H    1.915155   2.487131   3.824336   4.622730   4.670949
                    6          7          8          9         10
     6  O    0.000000
     7  O    2.242927   0.000000
     8  C    2.748988   3.684727   0.000000
     9  C    3.080238   4.521894   1.499013   0.000000
    10  C    3.040293   4.929211   2.637896   1.365309   0.000000
    11  N    4.327583   6.123213   3.748552   2.266821   1.383624
    12  C    4.930515   6.420115   3.645852   2.217172   2.139855
    13  N    4.376074   5.600717   2.514507   1.381526   2.170038
    14  C    5.473834   4.238783   4.499514   5.947052   7.060620
    15  C    6.050282   4.660432   5.581272   7.059794   8.045187
    16  N    6.185904   5.233055   5.682555   7.169635   8.083975
    17  H    4.256965   3.086279   3.302749   4.402407   5.491500
    18  H    2.911708   2.824809   2.178989   2.640666   3.517086
    19  H    0.966190   2.270227   3.696935   4.013079   3.804573
    20  H    3.808613   4.438914   1.090527   2.106282   3.412306
    21  H    2.588863   3.753944   1.084843   2.138830   2.912594
    22  H    2.565254   4.706236   3.075907   2.196921   1.077631
    23  H    5.976382   7.379490   4.604938   3.242704   3.190977
    24  H    5.019195   5.936353   2.787197   2.128352   3.144818
    25  H    6.133806   5.163766   4.708649   6.137951   7.342213
    26  H    5.782915   4.286460   4.876812   6.222493   7.353720
    27  H    7.095158   5.582892   6.538837   8.011491   9.047545
    28  H    5.676913   4.053648   5.704539   7.128467   7.993120
    29  H    6.882916   6.064890   6.019570   7.501713   8.494393
    30  H    6.631989   5.637450   6.458371   7.921050   8.737922
    31  H    5.331316   4.664445   4.843650   6.305939   7.162918
                   11         12         13         14         15
    11  N    0.000000
    12  C    1.310722   0.000000
    13  N    2.206795   1.359729   0.000000
    14  C    8.187153   7.911978   6.613383   0.000000
    15  C    9.271361   9.141432   7.884426   1.522550   0.000000
    16  N    9.357512   9.311650   8.083620   2.471466   1.482532
    17  H    6.437985   6.095387   4.896015   2.568101   3.842576
    18  H    4.373570   4.178417   3.201593   4.461992   5.626226
    19  H    5.034063   5.755410   5.297984   5.936234   6.313084
    20  H    4.306727   3.898860   2.597909   4.230491   5.457194
    21  H    4.168567   4.301626   3.320909   4.559284   5.408543
    22  H    2.149141   3.162024   3.225642   7.264581   8.078261
    23  H    2.131971   1.075844   2.137181   8.713529  10.007542
    24  H    3.170173   2.118037   1.004826   6.349317   7.717686
    25  H    8.399686   8.004945   6.663366   1.093438   2.148692
    26  H    8.401308   8.054124   6.770039   1.091019   2.163282
    27  H   10.239362  10.036426   8.750263   2.154955   1.091179
    28  H    9.254384   9.238584   8.050471   2.150433   1.092114
    29  H    9.715646   9.573051   8.308734   2.779190   2.080860
    30  H   10.052447  10.100748   8.914987   3.367371   2.097471
    31  H    8.453914   8.471934   7.286666   2.539298   2.035581
                   16         17         18         19         20
    16  N    0.000000
    17  H    4.785564   0.000000
    18  H    6.245362   2.213504   0.000000
    19  H    6.436745   4.859621   3.681821   0.000000
    20  H    5.555693   3.258765   2.659453   4.741158   0.000000
    21  H    5.252329   3.898352   3.045090   3.438479   1.745866
    22  H    8.034790   5.854877   3.948600   3.145878   4.009734
    23  H   10.217926   6.833363   4.986492   6.789953   4.711565
    24  H    7.983720   4.673399   3.330096   5.966274   2.483450
    25  H    2.693459   3.147914   4.958754   6.692111   4.199270
    26  H    3.420214   2.191266   4.351632   6.234928   4.618316
    27  H    2.118868   4.495062   6.463201   7.349672   6.322546
    28  H    2.111304   3.869298   5.514398   5.794855   5.778037
    29  H    1.019320   5.223668   6.739718   7.222060   5.720442
    30  H    1.019258   5.602497   7.000822   6.749521   6.431200
    31  H    1.029073   4.468570   5.621693   5.618636   4.798698
                   21         22         23         24         25
    21  H    0.000000
    22  H    3.035710   0.000000
    23  H    5.307412   4.175804   0.000000
    24  H    3.688326   4.176005   2.534408   0.000000
    25  H    4.777087   7.644962   8.742792   6.280072   0.000000
    26  H    5.139212   7.620723   8.795446   6.445624   1.762806
    27  H    6.429157   9.124342  10.859226   8.500585   2.506506
    28  H    5.521165   7.922767  10.144750   7.986959   3.051279
    29  H    5.609918   8.528918  10.429827   8.118154   2.585023
    30  H    5.939034   8.583167  11.040894   8.878992   3.679190
    31  H    4.314089   7.080099   9.407417   7.266935   2.808628
                   26         27         28         29         30
    26  H    0.000000
    27  H    2.464499   0.000000
    28  H    2.515764   1.760243   0.000000
    29  H    3.740167   2.382618   2.962890   0.000000
    30  H    4.220765   2.525084   2.364862   1.662355   0.000000
    31  H    3.576236   2.938670   2.461971   1.650864   1.670550
                   31
    31  H    0.000000
 Symmetry turned off by external request.
 Stoichiometry    C9H15N4O3(1+)
 Framework group  C1[X(C9H15N4O3)]
 Deg. of freedom    87
 Full point group                 C1      NOp   1
 Rotational constants (GHZ):      1.1693117      0.2438321      0.2245456
 Standard basis: 6-31+G(d,p) (6D, 7F)
   379 basis functions,   617 primitive gaussians,   379 cartesian basis functions
    60 alpha electrons       60 beta electrons
       nuclear repulsion energy      1139.5684606199 Hartrees.
 NAtoms=   31 NActive=   31 NUniq=   31 SFac= 1.00D+00 NAtFMM=   60 NAOKFM=F Big=F
 Integral buffers will be    131072 words long.
 Raffenetti 2 integral format.
 Two-electron integral symmetry is turned off.
 One-electron integrals computed using PRISM.
 NBasis=   379 RedAO= T EigKep=  1.78D-06  NBF=   379
 NBsUse=   379 1.00D-06 EigRej= -1.00D+00 NBFU=   379
 ExpMin= 4.38D-02 ExpMax= 5.48D+03 ExpMxC= 8.25D+02 IAcc=3 IRadAn=         5 AccDes= 0.00D+00
 Harris functional with IExCor=  402 and IRadAn=       5 diagonalized for initial guess.
 HarFok:  IExCor=  402 AccDes= 0.00D+00 IRadAn=         5 IDoV= 1 UseB2=F ITyADJ=14
 ICtDFT=  3500011 ScaDFX=  1.000000  1.000000  1.000000  1.000000
 FoFCou: FMM=F IPFlag=           0 FMFlag=      100000 FMFlg1=           0
         NFxFlg=           0 DoJE=T BraDBF=F KetDBF=T FulRan=T
         wScrn=  0.000000 ICntrl=     500 IOpCl=  0 I1Cent=   200000004 NGrid=           0
         NMat0=    1 NMatS0=      1 NMatT0=    0 NMatD0=    1 NMtDS0=    0 NMtDT0=    0
 Symmetry not used in FoFCou.
 Requested convergence on RMS density matrix=1.00D-08 within 128 cycles.
 Requested convergence on MAX density matrix=1.00D-06.
 Requested convergence on             energy=1.00D-06.
 No special actions if energy rises.
 SCF Done:  E(RB3LYP) =  -796.515324677     A.U. after   15 cycles
            NFock= 15  Conv=0.54D-08     -V/T= 2.0089
 DoSCS=F DFT=T ScalE2(SS,OS)=  1.000000  1.000000
 Range of M.O.s used for correlation:     1   379
 NBasis=   379 NAE=    60 NBE=    60 NFC=     0 NFV=     0
 NROrb=    379 NOA=    60 NOB=    60 NVA=   319 NVB=   319

 **** Warning!!: The largest alpha MO coefficient is  0.19091154D+03

 Symmetrizing basis deriv contribution to polar:
 IMax=3 JMax=2 DiffMx= 0.00D+00
 G2DrvN: will do    32 centers at a time, making    1 passes.
 Calling FoFCou, ICntrl=  3107 FMM=F I1Cent=   0 AccDes= 0.00D+00.
 End of G2Drv F.D. properties file   721 does not exist.
 End of G2Drv F.D. properties file   722 does not exist.
 End of G2Drv F.D. properties file   788 does not exist.
          IDoAtm=1111111111111111111111111111111
          Differentiating once with respect to nuclear coordinates.
          There are    96 degrees of freedom in the 1st order CPHF.  IDoFFX=6 NUNeed=     0.
     90 vectors produced by pass  0 Test12= 1.99D-14 1.04D-09 XBig12= 2.92D-01 8.98D-02.
 AX will form    90 AO Fock derivatives at one time.
     90 vectors produced by pass  1 Test12= 1.99D-14 1.04D-09 XBig12= 2.35D-02 3.98D-02.
     90 vectors produced by pass  2 Test12= 1.99D-14 1.04D-09 XBig12= 2.20D-04 1.75D-03.
     90 vectors produced by pass  3 Test12= 1.99D-14 1.04D-09 XBig12= 6.71D-07 9.43D-05.
     90 vectors produced by pass  4 Test12= 1.99D-14 1.04D-09 XBig12= 1.27D-09 3.83D-06.
     80 vectors produced by pass  5 Test12= 1.99D-14 1.04D-09 XBig12= 1.63D-12 1.35D-07.
     24 vectors produced by pass  6 Test12= 1.99D-14 1.04D-09 XBig12= 2.43D-15 5.29D-09.
      7 vectors produced by pass  7 Test12= 1.99D-14 1.04D-09 XBig12= 2.02D-16 1.83D-09.
      5 vectors produced by pass  8 Test12= 1.99D-14 1.04D-09 XBig12= 3.56D-16 1.75D-09.
      5 vectors produced by pass  9 Test12= 1.99D-14 1.04D-09 XBig12= 1.15D-15 3.48D-09.
      5 vectors produced by pass 10 Test12= 1.99D-14 1.04D-09 XBig12= 5.58D-16 2.47D-09.
      5 vectors produced by pass 11 Test12= 1.99D-14 1.04D-09 XBig12= 3.15D-15 5.50D-09.
      3 vectors produced by pass 12 Test12= 1.99D-14 1.04D-09 XBig12= 1.73D-16 1.28D-09.
      3 vectors produced by pass 13 Test12= 1.99D-14 1.04D-09 XBig12= 8.92D-16 2.65D-09.
      3 vectors produced by pass 14 Test12= 1.99D-14 1.04D-09 XBig12= 1.48D-15 3.39D-09.
      3 vectors produced by pass 15 Test12= 1.99D-14 1.04D-09 XBig12= 6.88D-16 1.97D-09.
      3 vectors produced by pass 16 Test12= 1.99D-14 1.04D-09 XBig12= 3.99D-15 6.24D-09.
      3 vectors produced by pass 17 Test12= 1.99D-14 1.04D-09 XBig12= 9.84D-16 2.49D-09.
      3 vectors produced by pass 18 Test12= 1.99D-14 1.04D-09 XBig12= 1.83D-15 3.82D-09.
      3 vectors produced by pass 19 Test12= 1.99D-14 1.04D-09 XBig12= 1.53D-15 3.26D-09.
      3 vectors produced by pass 20 Test12= 1.99D-14 1.04D-09 XBig12= 9.48D-16 2.82D-09.
      3 vectors produced by pass 21 Test12= 1.99D-14 1.04D-09 XBig12= 1.33D-15 2.67D-09.
      3 vectors produced by pass 22 Test12= 1.99D-14 1.04D-09 XBig12= 2.00D-15 3.38D-09.
      3 vectors produced by pass 23 Test12= 1.99D-14 1.04D-09 XBig12= 7.48D-16 2.64D-09.
      3 vectors produced by pass 24 Test12= 1.99D-14 1.04D-09 XBig12= 2.08D-15 4.83D-09.
      3 vectors produced by pass 25 Test12= 1.99D-14 1.04D-09 XBig12= 1.60D-15 4.20D-09.
      3 vectors produced by pass 26 Test12= 1.99D-14 1.04D-09 XBig12= 2.48D-15 3.93D-09.
      2 vectors produced by pass 27 Test12= 1.99D-14 1.04D-09 XBig12= 2.60D-16 1.58D-09.
 InvSVY:  IOpt=1 It=  1 EMax= 3.89D-16
 Solved reduced A of dimension   628 with    96 vectors.
 End of Minotr F.D. properties file   721 does not exist.
 End of Minotr F.D. properties file   722 does not exist.
 End of Minotr F.D. properties file   788 does not exist.

 **********************************************************************

            Population analysis using the SCF density.

 **********************************************************************

 Alpha  occ. eigenvalues --  -19.31772 -19.29649 -19.26753 -14.64465 -14.52246
 Alpha  occ. eigenvalues --  -14.47624 -14.39226 -10.46029 -10.44543 -10.43664
 Alpha  occ. eigenvalues --  -10.38457 -10.37635 -10.31744 -10.31355 -10.30552
 Alpha  occ. eigenvalues --  -10.27523  -1.23380  -1.21890  -1.19554  -1.14487
 Alpha  occ. eigenvalues --   -1.10013  -1.08728  -0.97699  -0.95355  -0.92005
 Alpha  occ. eigenvalues --   -0.86183  -0.83642  -0.78607  -0.78166  -0.77759
 Alpha  occ. eigenvalues --   -0.75973  -0.71990  -0.70021  -0.69753  -0.67695
 Alpha  occ. eigenvalues --   -0.67218  -0.64234  -0.62926  -0.62362  -0.60840
 Alpha  occ. eigenvalues --   -0.60429  -0.58989  -0.57634  -0.57289  -0.55925
 Alpha  occ. eigenvalues --   -0.54210  -0.53973  -0.52376  -0.51851  -0.50457
 Alpha  occ. eigenvalues --   -0.49804  -0.48908  -0.48092  -0.44324  -0.43313
 Alpha  occ. eigenvalues --   -0.42559  -0.40187  -0.36134  -0.34466  -0.31030
 Alpha virt. eigenvalues --   -0.18077  -0.15525  -0.13461  -0.12875  -0.12301
 Alpha virt. eigenvalues --   -0.11146  -0.09492  -0.08881  -0.08707  -0.07595
 Alpha virt. eigenvalues --   -0.07399  -0.06911  -0.06188  -0.05717  -0.04985
 Alpha virt. eigenvalues --   -0.04302  -0.03936  -0.03661  -0.03519  -0.02753
 Alpha virt. eigenvalues --   -0.02091  -0.01423  -0.01321  -0.01060  -0.01041
 Alpha virt. eigenvalues --   -0.00016   0.00331   0.00776   0.01168   0.01377
 Alpha virt. eigenvalues --    0.02267   0.02696   0.03538   0.03929   0.04305
 Alpha virt. eigenvalues --    0.04679   0.05106   0.05199   0.06417   0.06622
 Alpha virt. eigenvalues --    0.06890   0.07150   0.08138   0.09016   0.09219
 Alpha virt. eigenvalues --    0.09893   0.10042   0.10370   0.10730   0.11217
 Alpha virt. eigenvalues --    0.11690   0.12346   0.12717   0.12785   0.13312
 Alpha virt. eigenvalues --    0.14039   0.14581   0.14950   0.15150   0.15668
 Alpha virt. eigenvalues --    0.15793   0.16079   0.16948   0.17088   0.17740
 Alpha virt. eigenvalues --    0.18504   0.18784   0.19049   0.19424   0.19995
 Alpha virt. eigenvalues --    0.20459   0.21026   0.21437   0.22316   0.22602
 Alpha virt. eigenvalues --    0.23100   0.23292   0.24512   0.24806   0.25070
 Alpha virt. eigenvalues --    0.25537   0.25937   0.26280   0.26938   0.27512
 Alpha virt. eigenvalues --    0.27797   0.28132   0.30091   0.30127   0.31312
 Alpha virt. eigenvalues --    0.32837   0.33059   0.34302   0.36588   0.37864
 Alpha virt. eigenvalues --    0.40834   0.41628   0.42302   0.45219   0.46036
 Alpha virt. eigenvalues --    0.46915   0.49779   0.54532   0.55705   0.57508
 Alpha virt. eigenvalues --    0.57785   0.58743   0.60426   0.61626   0.62439
 Alpha virt. eigenvalues --    0.64777   0.65529   0.65715   0.66919   0.68032
 Alpha virt. eigenvalues --    0.69233   0.70205   0.71249   0.71448   0.72600
 Alpha virt. eigenvalues --    0.73966   0.75205   0.75775   0.76905   0.78493
 Alpha virt. eigenvalues --    0.79489   0.80175   0.80990   0.81320   0.82829
 Alpha virt. eigenvalues --    0.85323   0.86043   0.86535   0.86928   0.88285
 Alpha virt. eigenvalues --    0.88694   0.89641   0.91543   0.92377   0.93666
 Alpha virt. eigenvalues --    0.94656   0.95203   0.95763   0.97777   0.99003
 Alpha virt. eigenvalues --    0.99899   1.00704   1.01027   1.02501   1.04467
 Alpha virt. eigenvalues --    1.06214   1.06977   1.08184   1.10358   1.11143
 Alpha virt. eigenvalues --    1.13088   1.13872   1.14125   1.15516   1.18241
 Alpha virt. eigenvalues --    1.18287   1.18924   1.21125   1.21529   1.21971
 Alpha virt. eigenvalues --    1.22608   1.24124   1.25054   1.26079   1.26908
 Alpha virt. eigenvalues --    1.28060   1.29276   1.30194   1.31052   1.32567
 Alpha virt. eigenvalues --    1.33088   1.36569   1.39051   1.40581   1.42133
 Alpha virt. eigenvalues --    1.43215   1.44222   1.46105   1.46740   1.48713
 Alpha virt. eigenvalues --    1.49312   1.50236   1.52709   1.58245   1.59705
 Alpha virt. eigenvalues --    1.61399   1.63960   1.65843   1.66541   1.66954
 Alpha virt. eigenvalues --    1.68202   1.69209   1.70217   1.70525   1.72435
 Alpha virt. eigenvalues --    1.73011   1.74951   1.77235   1.78083   1.79008
 Alpha virt. eigenvalues --    1.80830   1.82133   1.82932   1.83420   1.85963
 Alpha virt. eigenvalues --    1.86371   1.87915   1.91595   1.92949   1.94023
 Alpha virt. eigenvalues --    1.96061   1.97841   1.98632   1.99778   2.00148
 Alpha virt. eigenvalues --    2.02401   2.03022   2.04036   2.05299   2.06182
 Alpha virt. eigenvalues --    2.07350   2.09061   2.11708   2.13015   2.14856
 Alpha virt. eigenvalues --    2.15209   2.17172   2.19401   2.20464   2.21949
 Alpha virt. eigenvalues --    2.22319   2.23869   2.24403   2.26522   2.29966
 Alpha virt. eigenvalues --    2.31175   2.32556   2.33584   2.35322   2.36034
 Alpha virt. eigenvalues --    2.37545   2.38554   2.40702   2.42180   2.42652
 Alpha virt. eigenvalues --    2.44008   2.45392   2.47451   2.47656   2.50330
 Alpha virt. eigenvalues --    2.51225   2.52095   2.53423   2.55012   2.56580
 Alpha virt. eigenvalues --    2.57420   2.58607   2.60386   2.60887   2.62753
 Alpha virt. eigenvalues --    2.64038   2.64518   2.66428   2.67774   2.68827
 Alpha virt. eigenvalues --    2.71076   2.73167   2.75460   2.76753   2.78401
 Alpha virt. eigenvalues --    2.78455   2.81117   2.82546   2.86835   2.91707
 Alpha virt. eigenvalues --    2.92586   2.93108   2.96403   2.98739   3.04738
 Alpha virt. eigenvalues --    3.06854   3.09153   3.12892   3.15537   3.17511
 Alpha virt. eigenvalues --    3.17686   3.21563   3.22597   3.25562   3.27188
 Alpha virt. eigenvalues --    3.32097   3.34323   3.38364   3.41897   3.43389
 Alpha virt. eigenvalues --    3.47492   3.52718   3.64742   3.99818   4.12572
 Alpha virt. eigenvalues --    4.14123   4.21956   4.22921   4.24629   4.27686
 Alpha virt. eigenvalues --    4.29759   4.36447   4.45983   4.47846   4.52712
 Alpha virt. eigenvalues --    4.53311   4.62284   4.70755   4.76088
          Condensed to atoms (all electrons):
               1          2          3          4          5          6
     1  O    8.182701   0.439039  -0.210344   0.193377  -0.116387   0.005340
     2  C    0.439039   7.098314   0.283818  -1.038044  -0.187199   0.020115
     3  N   -0.210344   0.283818   7.570323  -1.034801   0.239746   0.045570
     4  C    0.193377  -1.038044  -1.034801  12.112236  -1.090764  -0.324438
     5  C   -0.116387  -0.187199   0.239746  -1.090764   5.687262   0.355423
     6  O    0.005340   0.020115   0.045570  -0.324438   0.355423   8.294249
     7  O    0.012882   0.045040  -0.023105  -0.216378   0.497275  -0.145805
     8  C   -0.091867   1.364755   0.234343  -0.677095  -0.709718  -0.008790
     9  C   -0.055521  -1.446839   0.213766  -1.719443   0.911391  -0.062681
    10  C    0.004329  -0.002517  -0.021671  -0.043790   0.010030   0.050760
    11  N    0.000119  -0.001574   0.001833  -0.029905   0.005389  -0.000164
    12  C    0.000147  -0.018785   0.005542  -0.067389   0.025872  -0.003869
    13  N    0.000736   0.023710  -0.004024   0.031108  -0.004062   0.001447
    14  C    0.065237  -0.468709  -0.356291  -0.229556  -0.122386   0.000395
    15  C    0.031894  -0.191186   0.039917   0.068000  -0.021646  -0.000284
    16  N   -0.063262   0.015890  -0.016051  -0.007195  -0.002176   0.000141
    17  H    0.006340  -0.013445   0.244164   0.102084  -0.036425  -0.001391
    18  H    0.002188   0.041731   0.013086   0.149442   0.028760   0.008441
    19  H    0.000093  -0.013455  -0.003021   0.082526  -0.022380   0.198333
    20  H   -0.000643  -0.043600   0.000060   0.010479   0.025676  -0.000070
    21  H   -0.001612   0.013027   0.002154  -0.081064  -0.014995   0.002701
    22  H   -0.000014   0.003069  -0.000211   0.013375  -0.003120  -0.003701
    23  H    0.000000   0.000073  -0.000057   0.004064  -0.000396  -0.000016
    24  H   -0.000023  -0.006182   0.000090  -0.016184   0.003539  -0.000076
    25  H    0.003915  -0.093710   0.002594  -0.006435   0.002617   0.000006
    26  H    0.004698  -0.038265  -0.001093   0.006726  -0.001263  -0.000014
    27  H   -0.002445   0.022810  -0.001442  -0.000213  -0.000401   0.000000
    28  H    0.002460  -0.007662   0.005206  -0.000662   0.003808  -0.000005
    29  H    0.002778   0.003380   0.000463  -0.000257   0.000116   0.000000
    30  H    0.003159  -0.008305   0.000401  -0.000066   0.000361  -0.000001
    31  H    0.059127   0.030527   0.005536   0.000723  -0.000468  -0.000006
               7          8          9         10         11         12
     1  O    0.012882  -0.091867  -0.055521   0.004329   0.000119   0.000147
     2  C    0.045040   1.364755  -1.446839  -0.002517  -0.001574  -0.018785
     3  N   -0.023105   0.234343   0.213766  -0.021671   0.001833   0.005542
     4  C   -0.216378  -0.677095  -1.719443  -0.043790  -0.029905  -0.067389
     5  C    0.497275  -0.709718   0.911391   0.010030   0.005389   0.025872
     6  O   -0.145805  -0.008790  -0.062681   0.050760  -0.000164  -0.003869
     7  O    8.212887  -0.035210   0.042728   0.018288   0.000101   0.000813
     8  C   -0.035210  26.341046 -16.384784  -2.940415  -0.303876  -0.687799
     9  C    0.042728 -16.384784  22.639399   0.675147  -0.090142   0.503044
    10  C    0.018288  -2.940415   0.675147   8.019765   0.585780  -0.428999
    11  N    0.000101  -0.303876  -0.090142   0.585780   6.800831   0.447482
    12  C    0.000813  -0.687799   0.503044  -0.428999   0.447482   5.393134
    13  N    0.000260   0.338923  -0.150102  -0.189869  -0.029235   0.124750
    14  C   -0.001535   0.119180  -0.250201  -0.003646  -0.000070  -0.000421
    15  C    0.004510   0.000524   0.022606  -0.000513   0.000005   0.000171
    16  N   -0.000143  -0.006973  -0.002467   0.000106   0.000000  -0.000002
    17  H   -0.001651  -0.030757   0.008921   0.002105  -0.000008   0.000144
    18  H    0.000334   0.016499   0.012070  -0.000532  -0.000217   0.001804
    19  H    0.003860  -0.031720   0.035255  -0.006849   0.000106   0.000138
    20  H   -0.000504   0.062348   0.270350  -0.000989   0.000334   0.006435
    21  H    0.001430   0.522083  -0.129316   0.004284  -0.001082  -0.004999
    22  H   -0.000183   0.210235  -0.170156   0.301741  -0.068334   0.014611
    23  H    0.000000   0.045808   0.038341  -0.058086  -0.059350   0.432896
    24  H    0.000004  -0.231830   0.237150   0.030539   0.012171  -0.002990
    25  H   -0.000042   0.003840   0.000261  -0.000043   0.000000   0.000004
    26  H   -0.000014  -0.002335   0.001001   0.000048   0.000000  -0.000001
    27  H   -0.000006  -0.000369  -0.000061   0.000001   0.000000   0.000000
    28  H    0.000045   0.000018  -0.000401   0.000000   0.000000  -0.000001
    29  H    0.000007   0.001065   0.000201   0.000001   0.000000   0.000000
    30  H   -0.000007   0.000013  -0.000043  -0.000002   0.000000   0.000000
    31  H    0.000025  -0.001727  -0.001483  -0.000043   0.000000  -0.000002
              13         14         15         16         17         18
     1  O    0.000736   0.065237   0.031894  -0.063262   0.006340   0.002188
     2  C    0.023710  -0.468709  -0.191186   0.015890  -0.013445   0.041731
     3  N   -0.004024  -0.356291   0.039917  -0.016051   0.244164   0.013086
     4  C    0.031108  -0.229556   0.068000  -0.007195   0.102084   0.149442
     5  C   -0.004062  -0.122386  -0.021646  -0.002176  -0.036425   0.028760
     6  O    0.001447   0.000395  -0.000284   0.000141  -0.001391   0.008441
     7  O    0.000260  -0.001535   0.004510  -0.000143  -0.001651   0.000334
     8  C    0.338923   0.119180   0.000524  -0.006973  -0.030757   0.016499
     9  C   -0.150102  -0.250201   0.022606  -0.002467   0.008921   0.012070
    10  C   -0.189869  -0.003646  -0.000513   0.000106   0.002105  -0.000532
    11  N   -0.029235  -0.000070   0.000005   0.000000  -0.000008  -0.000217
    12  C    0.124750  -0.000421   0.000171  -0.000002   0.000144   0.001804
    13  N    7.027635   0.003746  -0.000268   0.000031  -0.000252   0.008295
    14  C    0.003746   6.867743   0.141101  -0.020211   0.017373   0.006763
    15  C   -0.000268   0.141101   5.325429   0.041887  -0.003297  -0.000612
    16  N    0.000031  -0.020211   0.041887   6.871560   0.000376   0.000031
    17  H   -0.000252   0.017373  -0.003297   0.000376   0.389481  -0.008003
    18  H    0.008295   0.006763  -0.000612   0.000031  -0.008003   0.528477
    19  H   -0.000250  -0.000951   0.000097  -0.000008   0.000010  -0.000310
    20  H   -0.011995  -0.009906   0.000313  -0.000019   0.000543  -0.000905
    21  H    0.006304   0.001901   0.000273  -0.000003  -0.000225   0.003980
    22  H    0.005025   0.000086   0.000003   0.000000   0.000000   0.000042
    23  H   -0.097509   0.000004   0.000000   0.000000   0.000000   0.000002
    24  H    0.249160  -0.000456   0.000011   0.000000   0.000005  -0.000097
    25  H    0.000007   0.445220  -0.051073   0.007115   0.000088   0.000009
    26  H   -0.000018   0.383375  -0.024042   0.008695   0.002508  -0.000015
    27  H    0.000000  -0.053382   0.402173  -0.027934  -0.000006   0.000000
    28  H    0.000000  -0.036380   0.404523  -0.035936   0.000000   0.000001
    29  H    0.000000  -0.016861  -0.005693   0.310777  -0.000001   0.000000
    30  H    0.000000   0.020809  -0.015330   0.296212   0.000000   0.000000
    31  H   -0.000004  -0.037688  -0.015414   0.255298  -0.000059   0.000000
              19         20         21         22         23         24
     1  O    0.000093  -0.000643  -0.001612  -0.000014   0.000000  -0.000023
     2  C   -0.013455  -0.043600   0.013027   0.003069   0.000073  -0.006182
     3  N   -0.003021   0.000060   0.002154  -0.000211  -0.000057   0.000090
     4  C    0.082526   0.010479  -0.081064   0.013375   0.004064  -0.016184
     5  C   -0.022380   0.025676  -0.014995  -0.003120  -0.000396   0.003539
     6  O    0.198333  -0.000070   0.002701  -0.003701  -0.000016  -0.000076
     7  O    0.003860  -0.000504   0.001430  -0.000183   0.000000   0.000004
     8  C   -0.031720   0.062348   0.522083   0.210235   0.045808  -0.231830
     9  C    0.035255   0.270350  -0.129316  -0.170156   0.038341   0.237150
    10  C   -0.006849  -0.000989   0.004284   0.301741  -0.058086   0.030539
    11  N    0.000106   0.000334  -0.001082  -0.068334  -0.059350   0.012171
    12  C    0.000138   0.006435  -0.004999   0.014611   0.432896  -0.002990
    13  N   -0.000250  -0.011995   0.006304   0.005025  -0.097509   0.249160
    14  C   -0.000951  -0.009906   0.001901   0.000086   0.000004  -0.000456
    15  C    0.000097   0.000313   0.000273   0.000003   0.000000   0.000011
    16  N   -0.000008  -0.000019  -0.000003   0.000000   0.000000   0.000000
    17  H    0.000010   0.000543  -0.000225   0.000000   0.000000   0.000005
    18  H   -0.000310  -0.000905   0.003980   0.000042   0.000002  -0.000097
    19  H    0.363881   0.000004  -0.000204   0.000087   0.000000   0.000000
    20  H    0.000004   0.567280  -0.025473  -0.000091  -0.000014   0.002707
    21  H   -0.000204  -0.025473   0.490980   0.000866   0.000004  -0.000074
    22  H    0.000087  -0.000091   0.000866   0.559617  -0.000031  -0.000098
    23  H    0.000000  -0.000014   0.000004  -0.000031   0.546439   0.000165
    24  H    0.000000   0.002707  -0.000074  -0.000098   0.000165   0.430232
    25  H    0.000000   0.000004   0.000001   0.000000   0.000000   0.000000
    26  H    0.000000   0.000001  -0.000001   0.000000   0.000000   0.000000
    27  H    0.000000   0.000000   0.000000   0.000000   0.000000   0.000000
    28  H    0.000000   0.000000   0.000000   0.000000   0.000000   0.000000
    29  H    0.000000   0.000000   0.000000   0.000000   0.000000   0.000000
    30  H    0.000000   0.000000   0.000000   0.000000   0.000000   0.000000
    31  H    0.000000  -0.000003   0.000014   0.000000   0.000000   0.000000
              25         26         27         28         29         30
     1  O    0.003915   0.004698  -0.002445   0.002460   0.002778   0.003159
     2  C   -0.093710  -0.038265   0.022810  -0.007662   0.003380  -0.008305
     3  N    0.002594  -0.001093  -0.001442   0.005206   0.000463   0.000401
     4  C   -0.006435   0.006726  -0.000213  -0.000662  -0.000257  -0.000066
     5  C    0.002617  -0.001263  -0.000401   0.003808   0.000116   0.000361
     6  O    0.000006  -0.000014   0.000000  -0.000005   0.000000  -0.000001
     7  O   -0.000042  -0.000014  -0.000006   0.000045   0.000007  -0.000007
     8  C    0.003840  -0.002335  -0.000369   0.000018   0.001065   0.000013
     9  C    0.000261   0.001001  -0.000061  -0.000401   0.000201  -0.000043
    10  C   -0.000043   0.000048   0.000001   0.000000   0.000001  -0.000002
    11  N    0.000000   0.000000   0.000000   0.000000   0.000000   0.000000
    12  C    0.000004  -0.000001   0.000000  -0.000001   0.000000   0.000000
    13  N    0.000007  -0.000018   0.000000   0.000000   0.000000   0.000000
    14  C    0.445220   0.383375  -0.053382  -0.036380  -0.016861   0.020809
    15  C   -0.051073  -0.024042   0.402173   0.404523  -0.005693  -0.015330
    16  N    0.007115   0.008695  -0.027934  -0.035936   0.310777   0.296212
    17  H    0.000088   0.002508  -0.000006   0.000000  -0.000001   0.000000
    18  H    0.000009  -0.000015   0.000000   0.000001   0.000000   0.000000
    19  H    0.000000   0.000000   0.000000   0.000000   0.000000   0.000000
    20  H    0.000004   0.000001   0.000000   0.000000   0.000000   0.000000
    21  H    0.000001  -0.000001   0.000000   0.000000   0.000000   0.000000
    22  H    0.000000   0.000000   0.000000   0.000000   0.000000   0.000000
    23  H    0.000000   0.000000   0.000000   0.000000   0.000000   0.000000
    24  H    0.000000   0.000000   0.000000   0.000000   0.000000   0.000000
    25  H    0.497471  -0.017812  -0.003764   0.003712   0.002510  -0.000022
    26  H   -0.017812   0.494103  -0.003323  -0.001824  -0.000071  -0.000098
    27  H   -0.003764  -0.003323   0.483691  -0.024251  -0.005338  -0.001835
    28  H    0.003712  -0.001824  -0.024251   0.464201   0.003596  -0.002947
    29  H    0.002510  -0.000071  -0.005338   0.003596   0.334895  -0.013381
    30  H   -0.000022  -0.000098  -0.001835  -0.002947  -0.013381   0.332724
    31  H   -0.001086   0.000214   0.003545  -0.003114  -0.016288  -0.010179
              31
     1  O    0.059127
     2  C    0.030527
     3  N    0.005536
     4  C    0.000723
     5  C   -0.000468
     6  O   -0.000006
     7  O    0.000025
     8  C   -0.001727
     9  C   -0.001483
    10  C   -0.000043
    11  N    0.000000
    12  C   -0.000002
    13  N   -0.000004
    14  C   -0.037688
    15  C   -0.015414
    16  N    0.255298
    17  H   -0.000059
    18  H    0.000000
    19  H    0.000000
    20  H   -0.000003
    21  H    0.000014
    22  H    0.000000
    23  H    0.000000
    24  H    0.000000
    25  H   -0.001086
    26  H    0.000214
    27  H    0.003545
    28  H   -0.003114
    29  H   -0.016288
    30  H   -0.010179
    31  H    0.299308
 Mulliken charges:
               1
     1  O   -0.478441
     2  C    0.174178
     3  N   -0.236499
     4  C   -0.190461
     5  C    0.536522
     6  O   -0.431614
     7  O   -0.415904
     8  C   -1.115415
     9  C    0.852006
    10  C   -0.004961
    11  N   -0.270194
    12  C    0.258269
    13  N   -0.333547
    14  C   -0.464283
    15  C   -0.154078
    16  N   -0.625737
    17  H    0.321378
    18  H    0.188734
    19  H    0.394759
    20  H    0.147678
    21  H    0.209044
    22  H    0.137180
    23  H    0.147663
    24  H    0.292236
    25  H    0.204615
    26  H    0.188821
    27  H    0.212552
    28  H    0.225613
    29  H    0.398103
    30  H    0.398537
    31  H    0.433246
 Sum of Mulliken charges =   1.00000
 Mulliken charges with hydrogens summed into heavy atoms:
               1
     1  O   -0.478441
     2  C    0.174178
     3  N    0.084878
     4  C   -0.001727
     5  C    0.536522
     6  O   -0.036855
     7  O   -0.415904
     8  C   -0.758693
     9  C    0.852006
    10  C    0.132220
    11  N   -0.270194
    12  C    0.405932
    13  N   -0.041311
    14  C   -0.070848
    15  C    0.284088
    16  N    0.604149
 APT charges:
               1
     1  O   -0.630891
     2  C    0.492622
     3  N   -0.538506
     4  C   -0.861721
     5  C    0.075847
     6  O   -0.682460
     7  O   -0.136907
     8  C   -1.274744
     9  C    0.293913
    10  C   -0.100535
    11  N   -0.280668
    12  C   -0.487637
    13  N   -0.528001
    14  C   -0.891592
    15  C   -1.082033
    16  N   -1.250531
    17  H    0.714106
    18  H    0.540104
    19  H    0.933583
    20  H    0.304213
    21  H    0.333789
    22  H    0.419493
    23  H    1.137735
    24  H    0.402117
    25  H    0.437854
    26  H    0.458919
    27  H    0.921334
    28  H    0.344403
    29  H    0.770945
    30  H    1.108557
    31  H    0.056693
 Sum of APT charges =   1.00000
 APT charges with hydrogens summed into heavy atoms:
               1
     1  O   -0.630891
     2  C    0.492622
     3  N    0.175599
     4  C   -0.321617
     5  C    0.075847
     6  O    0.251123
     7  O   -0.136907
     8  C   -0.636742
     9  C    0.293913
    10  C    0.318958
    11  N   -0.280668
    12  C    0.650097
    13  N   -0.125884
    14  C    0.005181
    15  C    0.183705
    16  N    0.685663
 Electronic spatial extent (au):  <R**2>=           4951.2150
 Charge=              1.0000 electrons
 Dipole moment (field-independent basis, Debye):
    X=            -16.9392    Y=             -5.3819    Z=             -2.4480  Tot=             17.9414
 Quadrupole moment (field-independent basis, Debye-Ang):
   XX=            -24.4744   YY=            -78.8184   ZZ=            -88.9916
   XY=            -10.7384   XZ=              7.3235   YZ=              4.3812
 Traceless Quadrupole moment (field-independent basis, Debye-Ang):
   XX=             39.6204   YY=            -14.7236   ZZ=            -24.8968
   XY=            -10.7384   XZ=              7.3235   YZ=              4.3812
 Octapole moment (field-independent basis, Debye-Ang**2):
  XXX=           -585.1543  YYY=            -53.7566  ZZZ=            -92.0344  XYY=            -77.2928
  XXY=           -104.0389  XXZ=            -98.4289  XZZ=            -55.8468  YZZ=            -14.7531
  YYZ=             -0.3017  XYZ=             19.3495
 Hexadecapole moment (field-independent basis, Debye-Ang**3):
 XXXX=          -3757.3073 YYYY=           -602.0772 ZZZZ=           -771.1787 XXXY=           -915.1558
 XXXZ=            105.0078 YYYX=           -411.9744 YYYZ=            -36.8305 ZZZX=            144.7914
 ZZZY=            -50.6523 XXYY=           -955.3517 XXZZ=           -857.5709 YYZZ=           -173.4013
 XXYZ=              3.7032 YYXZ=             40.3237 ZZXY=           -131.3690
 N-N= 1.139568460620D+03 E-N=-4.119970868759D+03  KE= 7.894869589968D+02
  Exact polarizability:   0.000   0.000   0.000   0.000   0.000   0.000
 Approx polarizability: 220.086   5.344 204.827  -2.325   7.747 164.250
 Calling FoFJK, ICntrl=    100147 FMM=F ISym2X=0 I1Cent= 0 IOpClX= 0 NMat=1 NMatS=1 NMatT=0.
 -------------------------------------------------------------------
 Center     Atomic                   Forces (Hartrees/Bohr)
 Number     Number              X              Y              Z
 -------------------------------------------------------------------
      1        8          -0.016047008    0.017600559   -0.008983029
      2        6           0.015572712   -0.017405838    0.010922341
      3        7          -0.008279777    0.003511869   -0.001313078
      4        6           0.004268693   -0.004809086   -0.004691944
      5        6           0.011794626    0.012676975   -0.003381651
      6        8          -0.004155509   -0.008941534   -0.003904194
      7        8          -0.014238709   -0.004489663    0.010861777
      8        6           0.009621284   -0.000421698   -0.000880020
      9        6          -0.007330840   -0.002382183   -0.001770229
     10        6           0.010348110    0.009083851    0.002346016
     11        7          -0.003844364    0.004414851    0.003164759
     12        6           0.003733864    0.000215074   -0.000186431
     13        7          -0.003760088   -0.006331676   -0.001120469
     14        6           0.004137733    0.001091477   -0.004829715
     15        6           0.002586019   -0.017671264    0.018408959
     16        7          -0.004327210    0.003650724   -0.003555550
     17        1          -0.001134470   -0.004601294    0.001267615
     18        1           0.002231466    0.002463271   -0.001462783
     19        1           0.000554048    0.006330551    0.005758670
     20        1          -0.002727985   -0.002748953   -0.001872182
     21        1          -0.001064184    0.003157216   -0.000831221
     22        1           0.000053831    0.000897003    0.000087319
     23        1           0.003641308   -0.001364350   -0.001187901
     24        1           0.000853975   -0.004146247   -0.002900365
     25        1           0.001028268   -0.004234759   -0.002515294
     26        1          -0.005790158   -0.002006821    0.000204954
     27        1          -0.002749696    0.002226607   -0.002232932
     28        1          -0.001840970    0.005182084   -0.001381020
     29        1          -0.003271573    0.000040227   -0.004388675
     30        1          -0.004399077    0.001730071   -0.000196075
     31        1           0.014535679    0.007282954    0.000562345
 -------------------------------------------------------------------
 Cartesian Forces:  Max     0.018408959 RMS     0.006596514
 FormGI is forming the generalized inverse of G from B-inverse, IUseBI=4.

 GradGradGradGradGradGradGradGradGradGradGradGradGradGradGradGradGradGrad
 Berny optimization.
 Internal  Forces:  Max     0.022375355 RMS     0.005244418
 Search for a local minimum.
 Step number   1 out of a maximum of  167
 All quantities printed in internal units (Hartrees-Bohrs-Radians)
 Mixed Optimization -- RFO/linear search
 Second derivative matrix not updated -- analytic derivatives used.
 ITU=  0
     Eigenvalues ---    0.00024   0.00036   0.00287   0.00317   0.00419
     Eigenvalues ---    0.00429   0.00529   0.00936   0.00968   0.01064
     Eigenvalues ---    0.01990   0.02085   0.02139   0.02603   0.03485
     Eigenvalues ---    0.03913   0.04025   0.04118   0.04265   0.04492
     Eigenvalues ---    0.04751   0.04905   0.04988   0.05035   0.05143
     Eigenvalues ---    0.05586   0.06015   0.06084   0.06497   0.07755
     Eigenvalues ---    0.08138   0.08295   0.10378   0.10999   0.11015
     Eigenvalues ---    0.11601   0.11867   0.12409   0.13005   0.13260
     Eigenvalues ---    0.14978   0.15407   0.15966   0.16232   0.18013
     Eigenvalues ---    0.19255   0.20741   0.22367   0.22517   0.23358
     Eigenvalues ---    0.23610   0.24074   0.24812   0.25581   0.26129
     Eigenvalues ---    0.26739   0.29892   0.32196   0.32614   0.33201
     Eigenvalues ---    0.33884   0.34220   0.34356   0.34433   0.34613
     Eigenvalues ---    0.34943   0.35322   0.36041   0.36523   0.38082
     Eigenvalues ---    0.38529   0.39938   0.40728   0.41326   0.42011
     Eigenvalues ---    0.44650   0.44841   0.45160   0.46007   0.48673
     Eigenvalues ---    0.48960   0.49258   0.52472   0.53494   0.59423
     Eigenvalues ---    0.82620   0.93249
 RFO step:  Lambda=-1.48092752D-02 EMin= 2.38423714D-04
 Linear search not attempted -- first point.
 Iteration  1 RMS(Cart)=  0.10512423 RMS(Int)=  0.00368865
 Iteration  2 RMS(Cart)=  0.00970753 RMS(Int)=  0.00030794
 Iteration  3 RMS(Cart)=  0.00006454 RMS(Int)=  0.00030452
 Iteration  4 RMS(Cart)=  0.00000006 RMS(Int)=  0.00030452
 Variable       Old X    -DE/DX   Delta X   Delta X   Delta X     New X
                                 (Linear)    (Quad)   (Total)
    R1        2.32128   0.02038   0.00000   0.04048   0.04048   2.36176
    R2        2.55822  -0.00124   0.00000  -0.03095  -0.03095   2.52727
    R3        2.87086   0.00179   0.00000   0.01422   0.01422   2.88509
    R4        2.75867   0.00968   0.00000   0.02454   0.02454   2.78322
    R5        1.89994   0.00465   0.00000   0.01035   0.01035   1.91029
    R6        2.87395   0.01166   0.00000   0.03726   0.03726   2.91121
    R7        2.92004   0.00816   0.00000   0.02063   0.02063   2.94067
    R8        2.07246  -0.00064   0.00000  -0.00299  -0.00299   2.06947
    R9        2.55065  -0.00428   0.00000  -0.02378  -0.02378   2.52687
   R10        2.27144   0.01806   0.00000   0.01940   0.01940   2.29085
   R11        1.82583   0.00788   0.00000   0.01411   0.01411   1.83995
   R12        2.83272   0.00364   0.00000   0.00096   0.00096   2.83368
   R13        2.06080   0.00365   0.00000   0.01006   0.01006   2.07086
   R14        2.05006   0.00337   0.00000   0.01148   0.01148   2.06154
   R15        2.58006   0.01227   0.00000   0.02246   0.02245   2.60251
   R16        2.61071   0.00808   0.00000   0.01535   0.01537   2.62608
   R17        2.61467  -0.00317   0.00000  -0.01486  -0.01489   2.59978
   R18        2.03643   0.00079   0.00000   0.00357   0.00357   2.04000
   R19        2.47691   0.00548   0.00000   0.00782   0.00781   2.48472
   R20        2.56952   0.00777   0.00000   0.01563   0.01566   2.58517
   R21        2.03305   0.00400   0.00000   0.00948   0.00948   2.04253
   R22        1.89885   0.00466   0.00000   0.00913   0.00913   1.90798
   R23        2.87720   0.00213   0.00000   0.02033   0.02033   2.89753
   R24        2.06630   0.00380   0.00000   0.00822   0.00822   2.07452
   R25        2.06173   0.00075   0.00000   0.00375   0.00375   2.06547
   R26        2.80158   0.01379   0.00000   0.05006   0.05006   2.85164
   R27        2.06203   0.00058   0.00000  -0.00027  -0.00027   2.06176
   R28        2.06380   0.00061   0.00000   0.00072   0.00072   2.06452
   R29        1.92624   0.00466   0.00000   0.00742   0.00742   1.93366
   R30        1.92612   0.00426   0.00000   0.00637   0.00637   1.93249
   R31        1.94467   0.01606   0.00000   0.06521   0.06521   2.00987
    A1        2.11895   0.01264   0.00000   0.02187   0.02179   2.14074
    A2        2.13999  -0.02238   0.00000  -0.06777  -0.06787   2.07212
    A3        2.02357   0.00978   0.00000   0.04675   0.04666   2.07023
    A4        2.11613   0.00537   0.00000   0.01916   0.01916   2.13529
    A5        2.07459  -0.00412   0.00000  -0.02343  -0.02344   2.05115
    A6        2.03718  -0.00120   0.00000   0.00487   0.00489   2.04206
    A7        1.90859  -0.00911   0.00000  -0.03294  -0.03320   1.87539
    A8        1.95659   0.00440   0.00000   0.01722   0.01738   1.97397
    A9        1.82713   0.00165   0.00000   0.00897   0.00901   1.83614
   A10        1.99515   0.00727   0.00000   0.03049   0.03065   2.02580
   A11        1.84635   0.00054   0.00000   0.00101   0.00117   1.84752
   A12        1.91935  -0.00549   0.00000  -0.02771  -0.02766   1.89168
   A13        1.97376   0.00221   0.00000  -0.00186  -0.00187   1.97189
   A14        2.16308  -0.00441   0.00000  -0.01778  -0.01779   2.14529
   A15        2.14561   0.00223   0.00000   0.01998   0.01997   2.16558
   A16        1.84913   0.00549   0.00000   0.03687   0.03687   1.88599
   A17        1.98684   0.00380   0.00000   0.00756   0.00757   1.99441
   A18        1.88427  -0.00306   0.00000  -0.02022  -0.02027   1.86401
   A19        1.91055  -0.00019   0.00000   0.00097   0.00095   1.91150
   A20        1.88168   0.00010   0.00000   0.01810   0.01817   1.89985
   A21        1.93242  -0.00139   0.00000  -0.00489  -0.00489   1.92753
   A22        1.86314   0.00049   0.00000  -0.00234  -0.00240   1.86075
   A23        2.34010   0.00047   0.00000  -0.01033  -0.01034   2.32976
   A24        2.12142   0.00014   0.00000   0.01169   0.01168   2.13310
   A25        1.82164  -0.00061   0.00000  -0.00135  -0.00133   1.82030
   A26        1.93902  -0.00001   0.00000   0.00108   0.00106   1.94008
   A27        2.22948   0.00033   0.00000  -0.00372  -0.00371   2.22577
   A28        2.11468  -0.00032   0.00000   0.00264   0.00266   2.11733
   A29        1.83483   0.00260   0.00000   0.00669   0.00666   1.84148
   A30        1.94505   0.00059   0.00000   0.00095   0.00097   1.94602
   A31        2.20445  -0.00095   0.00000  -0.00438  -0.00439   2.20006
   A32        2.13368   0.00036   0.00000   0.00342   0.00341   2.13709
   A33        1.88423  -0.00257   0.00000  -0.00733  -0.00733   1.87689
   A34        2.19009   0.00320   0.00000   0.01962   0.01953   2.20963
   A35        2.20881  -0.00063   0.00000  -0.01248  -0.01256   2.19626
   A36        1.96132  -0.02092   0.00000  -0.05846  -0.05823   1.90309
   A37        1.87369   0.00370   0.00000   0.01115   0.01098   1.88467
   A38        1.90851   0.01320   0.00000   0.05854   0.05778   1.96630
   A39        1.90848   0.00722   0.00000   0.02054   0.02070   1.92918
   A40        1.93110   0.00117   0.00000  -0.02063  -0.01982   1.91128
   A41        1.87803  -0.00366   0.00000  -0.00833  -0.00886   1.86917
   A42        1.93121  -0.01107   0.00000  -0.03675  -0.03691   1.89431
   A43        1.91940   0.00530   0.00000   0.04185   0.04149   1.96089
   A44        1.91221   0.00609   0.00000   0.01869   0.01669   1.92890
   A45        1.91804   0.00332   0.00000   0.00117   0.00183   1.91987
   A46        1.90657  -0.00247   0.00000  -0.04537  -0.04547   1.86110
   A47        1.87551  -0.00087   0.00000   0.02166   0.02071   1.89622
   A48        1.94084   0.00285   0.00000   0.01805   0.01812   1.95896
   A49        1.96567   0.00067   0.00000   0.00357   0.00350   1.96917
   A50        1.86565  -0.00366   0.00000  -0.06384  -0.06381   1.80184
   A51        1.90701  -0.00239   0.00000  -0.01480  -0.01482   1.89218
   A52        1.87448   0.00104   0.00000   0.02045   0.02064   1.89512
   A53        1.90740   0.00153   0.00000   0.03762   0.03751   1.94491
    D1        0.12546  -0.00018   0.00000   0.02003   0.01965   0.14512
    D2        2.90451  -0.00031   0.00000   0.02270   0.02226   2.92676
    D3       -3.05463   0.00056   0.00000   0.04261   0.04306  -3.01157
    D4       -0.27558   0.00043   0.00000   0.04528   0.04566  -0.22993
    D5       -0.71088   0.00052   0.00000   0.01264   0.01183  -0.69904
    D6        1.38816  -0.00070   0.00000   0.01022   0.00966   1.39782
    D7       -2.86243   0.00391   0.00000   0.03714   0.03765  -2.82478
    D8        2.46972  -0.00109   0.00000  -0.01245  -0.01268   2.45704
    D9       -1.71443  -0.00231   0.00000  -0.01487  -0.01486  -1.72928
   D10        0.31817   0.00230   0.00000   0.01205   0.01313   0.33130
   D11        1.10035   0.00131   0.00000  -0.02062  -0.02069   1.07966
   D12       -1.13116  -0.00447   0.00000  -0.04804  -0.04788  -1.17904
   D13        3.07198  -0.00121   0.00000  -0.02932  -0.02933   3.04264
   D14       -1.68609   0.00206   0.00000  -0.01753  -0.01765  -1.70374
   D15        2.36559  -0.00372   0.00000  -0.04495  -0.04485   2.32074
   D16        0.28554  -0.00046   0.00000  -0.02624  -0.02629   0.25924
   D17       -2.63587  -0.00206   0.00000  -0.04051  -0.04037  -2.67624
   D18        0.54568  -0.00297   0.00000  -0.05055  -0.05035   0.49534
   D19       -0.42613   0.00197   0.00000  -0.02095  -0.02116  -0.44729
   D20        2.75543   0.00106   0.00000  -0.03099  -0.03114   2.72429
   D21        1.68826  -0.00013   0.00000  -0.03655  -0.03657   1.65169
   D22       -1.41337  -0.00104   0.00000  -0.04658  -0.04655  -1.45991
   D23       -2.61548  -0.00060   0.00000   0.00249   0.00271  -2.61277
   D24       -0.52708  -0.00021   0.00000   0.01600   0.01614  -0.51094
   D25        1.49477  -0.00141   0.00000   0.00262   0.00283   1.49760
   D26        1.48307   0.00223   0.00000   0.00821   0.00802   1.49109
   D27       -2.71172   0.00261   0.00000   0.02172   0.02146  -2.69026
   D28       -0.68987   0.00142   0.00000   0.00834   0.00815  -0.68172
   D29       -0.59049   0.00064   0.00000   0.00651   0.00656  -0.58392
   D30        1.49791   0.00103   0.00000   0.02002   0.02000   1.51791
   D31       -2.76343  -0.00017   0.00000   0.00665   0.00669  -2.75673
   D32       -3.12596   0.00099   0.00000   0.03436   0.03427  -3.09169
   D33       -0.02387   0.00172   0.00000   0.04329   0.04338   0.01951
   D34       -1.46860  -0.00143   0.00000  -0.01982  -0.01980  -1.48839
   D35        1.68311  -0.00124   0.00000  -0.02063  -0.02059   1.66252
   D36        2.72473  -0.00002   0.00000  -0.01163  -0.01168   2.71305
   D37       -0.40675   0.00017   0.00000  -0.01245  -0.01247  -0.41922
   D38        0.69256   0.00009   0.00000  -0.01669  -0.01670   0.67586
   D39       -2.43892   0.00028   0.00000  -0.01750  -0.01749  -2.45642
   D40       -3.12921  -0.00015   0.00000  -0.00379  -0.00373  -3.13294
   D41        0.01195  -0.00003   0.00000  -0.00277  -0.00275   0.00919
   D42        0.00349  -0.00031   0.00000  -0.00301  -0.00297   0.00052
   D43       -3.13854  -0.00019   0.00000  -0.00198  -0.00199  -3.14054
   D44        3.13352  -0.00002   0.00000   0.00000  -0.00004   3.13348
   D45        0.00203   0.00036   0.00000   0.01914   0.01932   0.02135
   D46       -0.00057   0.00011   0.00000  -0.00054  -0.00056  -0.00113
   D47       -3.13206   0.00050   0.00000   0.01861   0.01880  -3.11326
   D48       -0.00511   0.00040   0.00000   0.00546   0.00543   0.00032
   D49        3.13689   0.00029   0.00000   0.00452   0.00453   3.14141
   D50        0.00469  -0.00031   0.00000  -0.00577  -0.00576  -0.00107
   D51       -3.13878  -0.00042   0.00000  -0.01011  -0.01003   3.13437
   D52       -0.00270   0.00015   0.00000   0.00415   0.00413   0.00143
   D53        3.12866  -0.00022   0.00000  -0.01502  -0.01481   3.11385
   D54        3.14069   0.00025   0.00000   0.00830   0.00822  -3.13428
   D55       -0.01114  -0.00011   0.00000  -0.01087  -0.01071  -0.02186
   D56        1.07230  -0.00612   0.00000  -0.07331  -0.07366   0.99864
   D57       -3.08864  -0.00571   0.00000  -0.06817  -0.06898   3.12557
   D58       -1.03091   0.00004   0.00000  -0.00570  -0.00559  -1.03650
   D59       -1.00649  -0.00236   0.00000  -0.06408  -0.06407  -1.07056
   D60        1.11575  -0.00196   0.00000  -0.05894  -0.05939   1.05636
   D61       -3.10970   0.00379   0.00000   0.00354   0.00400  -3.10570
   D62       -3.07203  -0.00303   0.00000  -0.05412  -0.05378  -3.12581
   D63       -0.94979  -0.00262   0.00000  -0.04898  -0.04909  -0.99889
   D64        1.10794   0.00313   0.00000   0.01350   0.01429   1.12224
   D65        1.22721   0.00123   0.00000   0.03583   0.03533   1.26253
   D66       -2.90875   0.00073   0.00000   0.03262   0.03215  -2.87660
   D67       -0.81374   0.00060   0.00000   0.03923   0.03886  -0.77488
   D68       -0.89584  -0.00035   0.00000   0.00671   0.00658  -0.88926
   D69        1.25139  -0.00086   0.00000   0.00349   0.00340   1.25479
   D70       -2.93679  -0.00098   0.00000   0.01010   0.01011  -2.92667
   D71       -2.94941   0.00022   0.00000   0.00659   0.00705  -2.94236
   D72       -0.80218  -0.00028   0.00000   0.00338   0.00387  -0.79831
   D73        1.29282  -0.00040   0.00000   0.00998   0.01058   1.30341
         Item               Value     Threshold  Converged?
 Maximum Force            0.022375     0.000450     NO 
 RMS     Force            0.005244     0.000300     NO 
 Maximum Displacement     0.499725     0.001800     NO 
 RMS     Displacement     0.111499     0.001200     NO 
 Predicted change in Energy=-8.207824D-03
 GradGradGradGradGradGradGradGradGradGradGradGradGradGradGradGradGradGrad

                          Input orientation:                          
 ---------------------------------------------------------------------
 Center     Atomic      Atomic             Coordinates (Angstroms)
 Number     Number       Type             X           Y           Z
 ---------------------------------------------------------------------
      1          8           0       -1.644114    0.475425   -0.389773
      2          6           0       -1.502733   -0.687972    0.044391
      3          7           0       -0.345832   -1.136326    0.543516
      4          6           0        0.803592   -0.248516    0.788058
      5          6           0        0.366543    0.796050    1.832642
      6          8           0        1.045066    1.944390    1.738150
      7          8           0       -0.482496    0.575610    2.669374
      8          6           0        1.430007    0.313809   -0.520739
      9          6           0        2.901985    0.585847   -0.432220
     10          6           0        3.642422    1.659752    0.009518
     11          7           0        4.990753    1.423215   -0.127355
     12          6           0        5.085493    0.219233   -0.647257
     13          7           0        3.852491   -0.336692   -0.852480
     14          6           0       -2.692594   -1.642769   -0.014537
     15          6           0       -3.968674   -0.874819    0.350024
     16          7           0       -4.116323    0.288506   -0.599723
     17          1           0       -0.362073   -2.014509    1.043928
     18          1           0        1.550097   -0.875870    1.286488
     19          1           0        0.745982    2.531562    2.454940
     20          1           0        1.254428   -0.433747   -1.302548
     21          1           0        0.893757    1.214129   -0.823995
     22          1           0        3.274407    2.588559    0.418477
     23          1           0        6.002466   -0.294660   -0.898927
     24          1           0        3.672973   -1.242221   -1.261382
     25          1           0       -2.759731   -2.037994   -1.036511
     26          1           0       -2.578516   -2.499561    0.654452
     27          1           0       -4.858239   -1.505182    0.309109
     28          1           0       -3.886909   -0.450803    1.353553
     29          1           0       -4.385920   -0.011171   -1.540228
     30          1           0       -4.793970    0.982158   -0.275042
     31          1           0       -3.134249    0.694646   -0.641904
 ---------------------------------------------------------------------
                    Distance matrix (angstroms):
                    1          2          3          4          5
     1  O    0.000000
     2  C    1.249792   0.000000
     3  N    2.270310   1.337373   0.000000
     4  C    2.811163   2.462782   1.472815   0.000000
     5  C    3.014079   2.982341   2.429692   1.540547   0.000000
     6  O    3.730631   4.036017   3.585047   2.402046   1.337164
     7  O    3.273801   3.086755   2.732887   2.423335   1.212263
     8  C    3.081152   3.150223   2.527674   1.556134   2.627149
     9  C    4.547638   4.609915   3.803453   2.566806   3.406207
    10  C    5.432268   5.655586   4.899937   3.508072   3.847226
    11  N    6.707357   6.830225   5.956548   4.600542   5.061447
    12  C    6.739403   6.686264   5.723179   4.540220   5.362006
    13  N    5.575509   5.441158   4.496013   3.463369   4.543656
    14  C    2.393085   1.526722   2.464792   3.848560   4.326457
    15  C    2.788196   2.491824   3.637418   4.833079   4.876891
    16  N    2.488139   2.863432   4.189719   5.140028   5.125435
    17  H    3.146252   2.014914   1.010881   2.131426   3.008686
    18  H    3.852121   3.301195   2.052899   1.095115   2.120000
    19  H    4.246487   4.607914   4.277734   3.242013   1.882348
    20  H    3.171955   3.079093   2.542126   2.146671   3.482837
    21  H    2.678623   3.180447   2.988529   2.178571   2.740522
    22  H    5.413913   5.804883   5.195819   3.780279   3.697110
    23  H    7.702108   7.574468   6.564293   5.465926   6.357259
    24  H    5.655212   5.366579   4.406775   3.663468   4.965884
    25  H    2.824916   2.137979   3.022648   4.385037   5.102689
    26  H    3.288473   2.193476   2.618319   4.064937   4.574118
    27  H    3.839510   3.463715   4.533521   5.819358   5.908906
    28  H    2.987844   2.730284   3.696664   4.728795   4.458254
    29  H    3.012943   3.358845   4.682977   5.692827   5.883346
    30  H    3.192418   3.704539   4.994391   5.829017   5.577442
[...]
 .00007029,0.00000837,-0.00002569,0.00001805,-0.00000281,0.00001130,0.0
 0000641,-0.00000583,0.00000269,-0.00000380,-0.00000435,-0.00000951,0.0
 0000083,0.00000918,0.00000305,0.00000426,-0.04480297,-0.09373339,-0.25
 577368,-0.00083623,-0.00254414,-0.00788263,-0.00002945,0.00032926,0.00
 149882,0.00025467,-0.00032323,-0.00015172,0.00000203,-0.00001082,-0.00
 000060,0.00000791,0.00000513,-0.00000015,0.00000440,0.00000190,0.00001
 023,-0.00002615,-0.00001559,0.00001048,-0.00000026,-0.00000081,-0.0000
 0088,0.00000037,0.00000019,-0.00000077,-0.00000097,-0.00000297,-0.0000
 0185,0.04851539,0.10445345,0.27508755,-0.00507118,-0.00718892,0.000398
 97,0.00917072,-0.01822730,0.02020503,0.00001261,0.00097606,-0.00038749
 ,0.00015688,-0.00011019,-0.00007991,0.00006066,-0.00005775,-0.00000551
 ,0.00000256,0.00001690,0.00002811,-0.00003997,0.00012544,-0.00009340,0
 .00007818,-0.00003109,0.00008979,0.00003113,0.00002639,-0.00004278,0.0
 0000683,0.00000054,0.00000266,-0.00000312,0.00000593,-0.00000165,-0.00
 001551,0.00000107,-0.00000125,-0.00002156,0.00000286,-0.00002164,-0.05
 272201,0.01677185,-0.01413766,-0.00062185,0.01614459,-0.01787351,-0.00
 348249,0.00578236,0.00186911,-0.00202200,-0.00065672,-0.00024469,0.000
 03312,0.00004919,0.00000441,0.00000067,-0.00001084,0.00000763,0.000003
 47,0.00000767,-0.00000890,0.00006389,0.00007092,-0.00003469,0.00000189
 ,0.00000494,-0.00000032,-0.00000195,-0.00000029,0.00000301,-0.00000584
 ,-0.00000538,0.00000922,-0.00066794,0.00482507,-0.00390915,0.05687762,
 -0.00381786,-0.00156165,0.00070717,0.00519955,-0.01262180,0.01024721,0
 .00134864,0.00104248,-0.00038281,-0.00014404,-0.00016784,-0.00056948,-
 0.00026769,-0.00004755,0.00006709,0.00013306,0.00003132,0.00005152,0.0
 0016233,0.00015835,-0.00017339,0.00008616,-0.00001869,0.00015247,0.000
 01095,0.00007868,-0.00007114,0.00000266,-0.00002941,-0.00001113,0.0000
 2279,-0.00000158,0.00000687,0.00000747,0.00002020,-0.00000008,-0.00003
 511,0.00000452,-0.00001482,0.01479726,-0.19572852,0.13365423,0.0010822
 4,-0.01362837,0.01244137,0.00286375,-0.00169630,-0.00176582,-0.0008418
 9,0.00111325,-0.00006790,0.00001007,0.00000814,0.00001150,-0.00001538,
 -0.00002675,-0.00000274,0.00000715,0.00000115,-0.00000318,0.00005559,0
 .00005836,-0.00003556,0.00000073,0.00000167,0.00000336,-0.00000135,-0.
 00000034,0.00000212,-0.00000624,0.00000429,0.00000938,-0.00124281,0.01
 135249,-0.00897760,-0.01845486,0.21077205,0.00024239,-0.00002923,0.001
 97905,-0.00207017,-0.00095052,-0.00226252,-0.00001571,-0.00075232,-0.0
 0001031,0.00018814,-0.00003723,0.00028577,-0.00025374,0.00003489,0.000
 06253,0.00009881,0.00001811,0.00001020,0.00016465,-0.00000945,-0.00003
 980,-0.00005033,-0.00001322,-0.00003517,-0.00000540,-0.00002503,0.0000
 1884,-0.00000714,0.00000088,-0.00000023,0.00000601,-0.00000595,-0.0000
 0398,0.00000885,-0.00000038,0.00000139,0.00001136,0.00000212,-0.000001
 20,-0.01330178,0.13658042,-0.16888980,-0.00016013,-0.00682103,0.005818
 71,0.00187979,-0.00295447,0.00090925,0.00015826,-0.00007374,0.00089610
 ,0.00001587,0.00001851,0.00001462,-0.00001517,-0.00001422,-0.00000934,
 -0.00000035,0.00001095,-0.00002000,-0.00002077,-0.00002959,0.00001948,
 -0.00000121,-0.00000436,0.00000257,0.00000089,0.00000090,0.00000103,-0
 .00000033,0.00000946,0.00000462,-0.00226418,0.02144057,-0.01764664,0.0
 1511566,-0.14570669,0.17794215,0.00110889,-0.00103806,0.00025686,-0.00
 079187,0.00545820,0.00069988,-0.00128018,-0.00107256,0.00003127,0.0002
 2533,0.00020293,-0.00024442,-0.00009673,0.00013712,0.00017811,-0.00005
 125,-0.00011538,-0.00011914,0.00001152,-0.00006441,-0.00008985,0.00004
 506,0.00002969,-0.00006506,0.00000582,-0.00000876,0.00002119,0.0000067
 3,0.00002670,0.00000541,-0.00004039,-0.00000663,-0.00000622,-0.0000135
 8,-0.00000590,-0.00000161,0.00000784,-0.00002501,0.00000944,-0.0193514
 4,-0.01059251,0.00027281,-0.26269470,-0.12285505,0.00453673,0.00915586
 ,0.00569166,-0.00189568,0.00002300,-0.00007292,0.00012865,-0.00007812,
 -0.00006243,-0.00003432,-0.00000618,0.00000715,0.00001201,0.00000540,-
 0.00000494,-0.00000436,0.00001066,0.00000310,0.00000765,0.00000177,0.0
 0000367,-0.00000209,-0.00000073,-0.00000103,-0.00000045,0.00001543,-0.
 00000701,-0.00000729,0.00118045,-0.00043162,0.00017943,0.00031601,0.00
 004867,-0.00034112,0.27568449,-0.00125122,0.00219235,-0.00075839,0.001
 76964,-0.00571179,-0.00082613,0.00133086,0.00135297,0.00009760,-0.0001
 5039,-0.00023608,0.00029650,0.00022357,-0.00017095,-0.00021039,-0.0000
 2555,0.00009546,0.00010003,-0.00013924,0.00011069,0.00010344,-0.000034
 08,-0.00002277,0.00006181,-0.00000372,0.00000833,-0.00001866,-0.000001
 60,-0.00002480,-0.00000405,0.00003331,0.00000749,0.00000523,0.00001030
 ,0.00000547,0.00000043,-0.00000928,0.00002448,-0.00000927,0.01954347,0
 .01255589,-0.00148058,-0.11552808,-0.11674258,0.00184275,-0.02254858,-
 0.01767518,0.00576956,-0.00002587,0.00005519,-0.00014281,0.00009489,0.
 00007380,0.00004167,0.00001308,0.00000055,0.00000262,-0.00000757,0.000
 00449,0.00000758,-0.00000393,-0.00000293,-0.00000982,-0.00000087,-0.00
 000147,0.00000153,0.00000055,0.00000115,0.00000062,-0.00001345,0.00000
 508,0.00000756,-0.00072836,0.00080942,0.00014545,-0.00056116,0.0006031
 4,0.00035381,0.12550696,0.12985773,0.00006006,-0.00063007,0.00020219,0
 .00146910,-0.00174175,0.00022631,0.00071498,0.00032045,0.00029581,-0.0
 0006537,-0.00012846,0.00006959,0.00040478,-0.00011260,-0.00015704,-0.0
 0021319,-0.00002724,-0.00001825,-0.00038397,0.00006716,0.00011689,0.00
 001779,0.00003929,-0.00001019,-0.00000222,-0.00000668,-0.00000229,0.00
 000217,0.00000693,0.00000337,-0.00000337,-0.00000105,0.00000168,-0.000
 00009,0.00000083,-0.00000107,0.00000151,-0.00000318,0.00000203,0.00937
 494,0.00399975,-0.00041562,-0.00240806,-0.00318199,-0.05199990,0.02209
 128,0.01853123,-0.00632757,0.00000887,-0.00002717,-0.00002104,0.000030
 17,0.00003568,0.00001949,0.00002346,0.00002488,0.00002238,-0.00000710,
 -0.00000166,0.00001043,0.00000225,-0.00000351,-0.00000729,0.00000013,0
 .00000152,-0.00000309,0.00000036,0.00000021,-0.00000005,0.00000209,-0.
 00000120,0.00000008,-0.00014812,0.00086722,0.00028155,-0.00051004,0.00
 005848,0.00037448,-0.00387484,-0.00720731,0.05429718,-0.00023152,-0.00
 068281,-0.00029451,0.00172889,0.00115809,0.00148053,-0.00007820,0.0000
 4260,-0.00035587,0.00007419,0.00007495,0.00002082,-0.00096027,0.000177
 15,0.00026890,0.00056263,0.00013538,0.00012498,0.00084973,-0.00008396,
 -0.00029484,-0.00006126,-0.00005738,0.00007493,0.00000159,0.00000840,-
 0.00002509,-0.00001280,-0.00002773,-0.00001539,0.00003398,0.00000174,0
 .00000069,0.00001434,0.00000295,0.00000547,-0.00000497,0.00001944,-0.0
 0001433,0.00350491,0.01104419,0.02418527,-0.06265011,-0.02372935,-0.04
 721604,-0.00121812,0.00010180,-0.00325625,-0.00003498,0.00013382,0.000
 09898,0.00000477,-0.00002081,-0.00001481,-0.00005489,-0.00007321,-0.00
 006497,0.00002006,0.00000289,-0.00002913,-0.00000266,0.00000191,0.0000
 0982,-0.00000291,-0.00000758,0.00000966,-0.00000009,0.00000034,0.00000
 210,-0.00001326,0.00001098,0.00001322,-0.00398557,0.00315665,0.0014077
 1,0.00092057,-0.00061695,-0.00051323,-0.00300192,-0.01045490,-0.024941
 45,0.06327248,-0.00044316,0.00082854,-0.00039487,-0.00140003,-0.000642
 33,0.00076686,0.00041263,0.00018102,0.00008680,-0.00000838,-0.00007394
 ,-0.00004265,-0.00000844,-0.00002572,-0.00004112,0.00003633,0.00004092
 ,0.00001946,-0.00000679,-0.00016601,0.00007490,0.00001314,-0.00000642,
 0.00001504,-0.00000071,0.00000771,-0.00000604,-0.00000298,-0.00000760,
 -0.00000168,0.00001501,0.00000221,0.00000092,0.00000479,0.00000105,0.0
 0000040,-0.00000110,0.00000787,-0.00000004,-0.00213651,-0.00792464,-0.
 01734736,-0.02598363,-0.09903242,-0.10924167,0.00805630,0.00578744,0.0
 3402522,0.00001180,-0.00002606,-0.00014350,0.00002576,0.00000934,-0.00
 000289,-0.00000944,0.00000797,-0.00001204,-0.00000470,0.00000461,0.000
 00707,-0.00000694,-0.00000461,0.00000537,-0.00000112,-0.00000156,0.000
 00231,0.00000040,0.00000009,-0.00000046,-0.00000589,0.00000123,-0.0000
 0208,0.00362515,-0.00133140,-0.00039223,-0.00027028,0.00030915,0.00006
 379,-0.00158309,-0.00471454,-0.01418189,0.01860463,0.10882359,0.000344
 29,0.00046138,0.00017747,-0.00002547,-0.00063783,0.00010914,0.00005553
 ,0.00003227,-0.00001161,0.00006120,-0.00000251,-0.00005053,0.00017653,
 -0.00000993,-0.00001778,-0.00011336,-0.00005680,-0.00003411,-0.0002634
 6,0.00002981,-0.00013882,0.00002528,0.00000972,-0.00001563,0.00000385,
 -0.00000020,0.00000827,0.00000503,0.00000780,0.00000296,-0.00001450,-0
 .00000132,-0.00000225,-0.00000629,-0.00000088,-0.00000255,0.00000008,-
 0.00000704,0.00000169,0.00033728,-0.00402854,-0.00486597,-0.04527369,-
 0.09686780,-0.26770584,-0.00573642,-0.00365483,-0.02231502,-0.00000712
 ,-0.00001642,0.00002375,-0.00000783,0.00000111,0.,0.00000384,0.0000064
 1,0.00002240,0.00000040,-0.00000081,0.00000076,0.00000775,0.00000286,-
 0.00000475,0.00000140,0.00000262,-0.00000191,-0.00000043,-0.00000018,0
 .00000018,0.00000531,-0.00000284,-0.00000116,0.00063561,-0.00055684,0.
 00110685,0.00011386,-0.00006342,0.00045824,0.00029688,0.00041657,0.003
 96003,0.04978418,0.10228348,0.29020679,-0.00226974,0.00169082,0.002300
 59,-0.00080562,-0.00023259,-0.00003106,0.00026995,-0.00003589,-0.00019
 111,-0.00010603,-0.00003888,-0.00001942,-0.00013783,-0.00007772,-0.000
 10749,0.00010075,0.00008036,0.00008548,0.00008192,0.00003721,0.0000642
 4,-0.00000899,-0.00001510,0.00003393,-0.00001041,0.00000465,-0.0000130
 4,-0.00001693,-0.00002022,-0.00000062,0.00004884,0.00000698,0.00000693
 ,0.00001404,-0.00000218,0.00000312,0.00000289,0.00002518,-0.00000406,-
 0.00061058,-0.00025980,-0.00055380,0.00033773,0.00090097,0.00254729,-0
 .13916812,-0.04483112,-0.14854704,-0.00001567,0.00000360,-0.00010341,0
 .00001451,0.00000715,0.00000958,-0.00001184,-0.00001458,-0.00002383,-0
 .00001069,0.00001725,0.00000527,-0.00003094,-0.00001842,-0.00001108,-0
 .00000432,-0.00000966,-0.00000169,0.00000055,0.00000006,0.00000014,-0.
 00001732,0.00000727,0.00000007,0.00005965,0.00055779,0.00011386,0.0001
 1347,0.00011544,0.00024144,0.00069344,-0.00030059,0.00105811,0.0005879
 0,-0.00080430,0.00092681,0.13599238,-0.00029250,0.00006137,0.00049086,
 0.00028966,0.00027087,0.00007648,-0.00021583,-0.00011482,-0.00005638,0
 .00005845,0.00007088,0.00004240,-0.00003077,0.00007385,0.00007596,0.00
 000349,-0.00003864,-0.00002614,0.00003966,-0.00001720,-0.00006711,-0.0
 0001391,0.00000715,-0.00001201,-0.00000546,0.00000453,0.00000053,-0.00
 000514,0.00002012,0.00000089,-0.00001478,-0.00001422,0.00000023,-0.000
 00084,0.00000415,-0.00000044,0.00000542,-0.00002608,0.00000402,-0.0003
 3382,0.00078346,0.00087011,0.01374946,0.01177980,0.02415764,-0.0398727
 0,-0.08742685,-0.08315860,0.00002002,-0.00001913,0.00001130,-0.0000143
 9,-0.00001275,-0.00000422,-0.00000340,0.00000657,0.00000072,0.00000751
 ,-0.00000768,-0.00000971,0.00000470,0.00001142,-0.00000698,0.00000028,
 -0.00000054,-0.00000314,0.00000024,-0.00000070,-0.00000008,0.00000659,
 0.00000289,-0.00000041,0.00036716,-0.00058496,-0.00072797,-0.00019488,
 -0.00024704,-0.00041422,-0.00036781,0.00108867,-0.00000351,0.00066315,
 -0.00463792,0.00336667,0.04630626,0.08779447,0.00249386,-0.00163050,-0
 .00048560,-0.00057436,0.00082491,-0.00076797,0.00063190,-0.00030577,0.
 00035561,-0.00021463,-0.00008367,-0.00002724,-0.00022916,-0.00004030,-
 0.00007486,0.00015025,0.00010901,0.00009207,0.00018391,-0.00002291,0.0
 0004769,-0.00002759,0.00000089,0.00007514,-0.00000013,-0.00000169,-0.0
 0002712,-0.00000846,-0.00002921,-0.00001542,0.00004516,0.00000678,-0.0
 0000058,0.00001751,0.00000357,0.00000408,-0.00000145,0.00003063,-0.000
 01473,-0.00000501,0.00020984,0.00119155,-0.00843613,-0.00482744,-0.017
 79382,-0.13849409,-0.08575755,-0.30531957,0.00002436,0.00008744,0.0000
 6790,0.00002348,0.00001302,0.00001038,-0.00001657,-0.00001937,-0.00001
 546,0.00000489,-0.00000855,0.00000558,-0.00001793,-0.00001391,0.000023
 82,-0.00000397,-0.00000424,0.00001222,0.00000068,0.00000124,0.00000311
 ,-0.00001693,0.00000684,0.00001736,-0.00036041,0.00014218,0.00003381,0
 .00018776,-0.00019356,-0.00002793,0.00080815,-0.00086052,0.00129473,-0
 .00010435,0.00405027,-0.00083487,0.15314454,0.08727877,0.32211688,-0.0
 0427741,-0.00044955,-0.00122209,-0.00004404,-0.00087157,0.00047558,0.0
 0005408,-0.00000195,-0.00006387,0.00006252,0.00000031,-0.00001576,-0.0
 0053142,0.00011741,0.00013057,0.00025227,0.00006256,0.00005871,0.00040
 869,-0.00022147,-0.00004837,-0.00007557,-0.00004336,0.00002578,-0.0000
 0973,0.00003069,-0.00001051,-0.00002580,0.00000052,-0.00001176,0.00003
 366,-0.00000799,0.00000107,0.00001102,-0.00000010,0.00000271,0.0000025
 0,-0.00000339,-0.00000247,0.00039299,0.00023484,-0.00023329,-0.0009462
 7,-0.00082972,-0.00122971,-0.14058577,0.13963422,0.07192307,0.00004191
 ,0.00014451,-0.00001594,0.00000159,-0.00001369,-0.00000700,-0.00004355
 ,-0.00001640,-0.00004886,0.00001150,-0.00000089,-0.00001143,-0.0000125
 3,0.00002567,-0.00000250,-0.00000687,-0.00001122,0.00000759,-0.0000000
 8,-0.00000178,0.00000076,-0.00001087,0.00000897,0.00000481,0.00010330,
 0.00008178,-0.00006480,-0.00008308,-0.00008765,0.00016125,0.00014612,-
 0.00102654,0.00003873,0.00057118,0.00039051,-0.00039515,0.01106256,-0.
 01798550,-0.00816605,0.13751329,-0.00380089,0.00112801,-0.00120776,0.0
 0052644,-0.00153370,0.00115869,-0.00060860,0.00046508,-0.00033955,0.00
 028370,0.00009234,0.00001244,0.00004842,0.00018132,0.00020360,-0.00010
 178,-0.00014206,-0.00011071,-0.00005022,-0.00017818,-0.00010916,-0.000
 00706,-0.00000937,-0.00004578,-0.00000153,0.00002526,0.00000636,-0.000
 00535,0.00005282,-0.00000054,-0.00004640,-0.00002950,-0.00000738,-0.00
 001321,0.00000674,-0.00000220,0.00000486,-0.00006435,0.00001033,-0.001
 08026,-0.00267340,0.00405290,0.01145858,-0.01647725,-0.00979873,0.1319
 7201,-0.27193769,-0.11777123,-0.00009470,-0.00002222,-0.00005205,-0.00
 002211,-0.00001729,-0.00001440,-0.00001137,0.00004456,0.00000388,0.000
 01584,-0.00001777,-0.00001549,0.00003095,0.00005387,-0.00000500,0.0000
 0042,0.00000365,0.00000208,-0.00000055,-0.00000254,0.00000043,0.000019
 20,-0.00000136,-0.00000427,-0.00035219,0.00016902,0.00004847,0.0010961
 1,-0.00026794,-0.00047847,-0.00018033,-0.00041948,-0.00036180,0.000145
 92,0.00219513,-0.00043396,0.00485621,-0.00589305,-0.00219604,-0.145987
 27,0.28452533,0.00034821,-0.00024609,0.00046429,0.00084363,0.00078062,
 -0.00009034,-0.00023829,-0.00017282,-0.00010610,0.00014570,0.00007213,
 -0.00000381,-0.00040546,0.00016272,0.00022348,0.00015488,-0.00000977,-
 0.00003626,0.00032175,-0.00020470,-0.00015910,-0.00002171,-0.00003802,
 0.00000465,0.00000608,0.00000072,-0.00000493,0.00000255,-0.00000071,-0
 .00000751,-0.00001057,-0.00000491,-0.00001027,-0.00000214,0.00000210,0
 .00000231,-0.00000079,-0.00000670,-0.00000527,0.00019652,0.00383845,-0
 .00416718,-0.01361129,0.01732502,0.01298981,0.06655673,-0.11605617,-0.
 12052612,0.00008739,-0.00001038,0.00006133,-0.00001547,-0.00002140,-0.
 00001583,-0.00003810,-0.00000706,-0.00000201,0.00001345,-0.00000306,-0
 .00002135,0.00000974,0.00000520,0.00001746,0.00000049,0.00000091,0.000
 01179,-0.00000064,0.00000013,0.00000283,0.00000299,0.00000197,0.000007
 17,0.00017571,-0.00007360,0.00010414,-0.00120773,0.00092258,0.00052611
 ,0.00019349,0.00031507,-0.00014519,-0.00077939,0.00048633,0.00033631,0
 .01866245,-0.02412963,-0.01045541,-0.07269420,0.12231209,0.12450975,0.
 01495686,-0.03757864,0.01325245,0.00308981,0.04398209,-0.02329188,0.00
 790586,-0.01344575,0.00811982,-0.00391387,-0.00063598,-0.00081678,-0.0
 0058548,-0.00163258,-0.00267854,0.00086799,0.00136075,0.00128630,0.000
 09684,0.00079536,0.00203158,-0.00003885,0.00055447,0.00044427,-0.00011
 979,-0.00028400,-0.00007104,-0.00013826,-0.00039921,-0.00006458,0.0006
 8020,0.00012849,0.00008771,0.00028666,0.00000607,0.00003295,0.00007925
 ,0.00049608,-0.00005965,-0.00136636,-0.00182240,-0.00110719,0.00935689
 ,-0.01455802,0.01058502,-0.19726900,-0.04215302,0.03223489,0.00208140,
 0.00059067,0.00135645,0.00015615,0.00008024,0.00016481,0.00000885,-0.0
 0016536,-0.00022540,-0.00013969,0.00009533,0.00018255,-0.00050457,-0.0
 0066111,0.00023208,-0.00004597,-0.00009095,0.00002182,0.00002125,0.000
 02249,-0.00000125,-0.00022897,0.00010181,0.00006217,-0.00022439,-0.000
 85035,0.00036593,-0.00309176,-0.00042268,0.00072739,-0.00123673,0.0042
 8836,-0.00274297,0.00016631,0.00148102,-0.00094141,-0.00615556,-0.0021
 7030,-0.00103924,-0.00401619,0.00190515,0.00130402,0.17932115,-0.01304
 835,-0.00872921,-0.00191778,0.01067449,-0.00962546,0.00495657,-0.00184
 533,0.00047855,-0.00007620,0.00071628,0.00014349,0.00008923,-0.0001815
 7,0.00048862,0.00062828,-0.00006722,-0.00027136,-0.00022899,0.00016547
 ,-0.00044410,-0.00034995,-0.00018873,-0.00011684,-0.00010268,-0.000024
 10,0.00013980,0.00000580,-0.00001619,0.00012271,0.00000347,-0.00011346
 ,-0.00006087,-0.00001379,-0.00004418,0.00000613,-0.00000971,-0.0000108
 4,-0.00015220,0.00002420,0.00003458,-0.00097521,0.00024979,-0.02411711
 ,-0.01187491,0.00939437,-0.05345890,-0.07432715,0.00476439,-0.00000209
 ,0.00015639,0.00022744,-0.00005960,-0.00004210,-0.00004626,-0.00003111
 ,0.00005427,-0.00000924,0.00004088,-0.00004122,-0.00003870,0.00012550,
 0.00024836,-0.00008890,-0.00000207,0.00000155,-0.00000219,-0.00000396,
 -0.00000923,-0.00000082,0.00004475,-0.00000718,-0.00001170,0.00004985,
 -0.00055862,-0.00027560,-0.00013823,0.00048454,-0.00021431,0.00137962,
 -0.00312977,0.00366747,0.00026771,0.00038731,-0.00027858,-0.00795618,-
 0.00293864,0.00322983,0.02682809,0.01074403,-0.00524105,0.06098198,0.0
 9984831,0.00230494,0.00023669,-0.01393983,-0.00590427,0.00164495,-0.00
 113045,0.00036071,0.00160009,0.00053720,0.00019190,-0.00007288,-0.0000
 1362,-0.00081133,0.00021142,0.00038680,0.00040458,0.00011516,0.0000339
 7,0.00072489,-0.00031140,-0.00022113,-0.00010758,-0.00002708,0.0000448
 7,0.00002558,-0.00000189,-0.00002670,0.00000796,-0.00002491,-0.0000295
 6,0.00000312,0.00000147,-0.00000510,0.00000551,0.00000761,0.00000989,-
 0.00001550,0.00001197,-0.00001395,0.00012520,-0.00002393,0.00079285,0.
 01905715,0.01113584,-0.00629886,0.04192954,0.00482739,-0.07385653,-0.0
 0046793,0.00044736,0.00047304,0.00001213,-0.00001861,-0.00002046,-0.00
 005483,-0.00004691,-0.00002984,0.00001955,-0.00001151,-0.00002188,0.00
 005331,0.00001956,0.00003249,-0.00000227,0.00000288,0.00002619,-0.0000
 0123,0.00000073,0.00000410,-0.00000592,0.00000158,0.00002187,-0.000225
 79,-0.00036270,-0.00004228,0.00052508,-0.00029603,-0.00037821,-0.00095
 152,0.00195811,-0.00206964,0.00043238,-0.00007773,-0.00041201,-0.02959
 621,-0.00775605,0.01050865,0.01141313,0.00514324,-0.00350478,-0.039452
 31,-0.01833439,0.08914290\\0.00000016,-0.00000116,-0.00000033,-0.00000
 113,0.00000254,-0.00000090,0.00000017,-0.00000037,0.00000007,-0.000000
 82,-0.00000198,0.00000043,0.00000157,0.00000085,-0.00000099,-0.0000006
 7,-0.00000066,-0.00000040,-0.00000053,-0.00000046,0.00000079,0.0000005
 4,0.00000219,0.00000187,0.00000084,0.00000043,0.00000083,0.00000061,-0
 .00000174,-0.00000049,-0.00000049,0.00000062,-0.00000001,0.00000020,-0
 .00000108,0.00000067,0.00000051,-0.00000006,0.00000003,0.00000026,-0.0
 0000011,-0.00000161,0.00000008,-0.00000044,0.00000141,0.00000438,0.000
 00131,-0.00000117,0.00000001,-0.00000012,-0.00000028,-0.00000006,-0.00
 000069,-0.00000037,-0.00000010,-0.00000053,0.00000062,0.00000009,0.000
 00046,0.00000011,-0.00000113,0.00000009,-0.00000059,-0.00000041,0.0000
 0038,0.00000093,0.00000004,-0.00000029,0.00000024,0.00000008,-0.000000
 27,-0.00000003,-0.00000014,0.00000032,-0.00000018,-0.00000048,-0.00000
 003,-0.00000028,-0.00000017,0.00000029,-0.00000070,0.00000018,0.000000
 12,-0.00000031,0.00000033,0.00000051,-0.00000026,0.00000052,0.00000047
 ,-0.00000002,-0.00000444,-0.00000057,0.00000094\\\@


 A DANDELION FROM A LOVER MEANS MORE THAN AN ORCHID FROM A FRIEND.
 Job cpu time:       0 days  2 hours 46 minutes  0.2 seconds.
 File lengths (MBytes):  RWF=    460 Int=      0 D2E=      0 Chk=     13 Scr=      1
 Normal termination of Gaussian 09 at Thu Jul 29 01:14:06 2021.
