 Entering Gaussian System, Link 0=g09
 Input=opt_freq-conf-318.com
 Output=opt_freq-conf-318.log
 Initial command:
 /aerosol/software/g09/l1.exe "/scratch/nicole/10648/Gau-82934.inp" -scrdir="/scratch/nicole/10648/"
 Entering Link 1 = /aerosol/software/g09/l1.exe PID=     82937.
  
 Copyright (c) 1988,1990,1992,1993,1995,1998,2003,2009,2013,
            Gaussian, Inc.  All Rights Reserved.
  
 This is part of the Gaussian(R) 09 program.  It is based on
 the Gaussian(R) 03 system (copyright 2003, Gaussian, Inc.),
 the Gaussian(R) 98 system (copyright 1998, Gaussian, Inc.),
 the Gaussian(R) 94 system (copyright 1995, Gaussian, Inc.),
 the Gaussian 92(TM) system (copyright 1992, Gaussian, Inc.),
 the Gaussian 90(TM) system (copyright 1990, Gaussian, Inc.),
 the Gaussian 88(TM) system (copyright 1988, Gaussian, Inc.),
 the Gaussian 86(TM) system (copyright 1986, Carnegie Mellon
 University), and the Gaussian 82(TM) system (copyright 1983,
 Carnegie Mellon University). Gaussian is a federally registered
 trademark of Gaussian, Inc.
  
 This software contains proprietary and confidential information,
 including trade secrets, belonging to Gaussian, Inc.
  
 This software is provided under written license and may be
 used, copied, transmitted, or stored only in accord with that
 written license.
  
 The following legend is applicable only to US Government
 contracts under FAR:
  
                    RESTRICTED RIGHTS LEGEND
  
 Use, reproduction and disclosure by the US Government is
 subject to restrictions as set forth in subparagraphs (a)
 and (c) of the Commercial Computer Software - Restricted
 Rights clause in FAR 52.227-19.
  
 Gaussian, Inc.
 340 Quinnipiac St., Bldg. 40, Wallingford CT 06492
  
  
 ---------------------------------------------------------------
 Warning -- This program may not be used in any manner that
 competes with the business of Gaussian, Inc. or will provide
 assistance to any competitor of Gaussian, Inc.  The licensee
 of this program is prohibited from giving any competitor of
 Gaussian, Inc. access to this program.  By using this program,
 the user acknowledges that Gaussian, Inc. is engaged in the
 business of creating and licensing software in the field of
 computational chemistry and represents and warrants to the
 licensee that it is not a competitor of Gaussian, Inc. and that
 it will not use this program in any manner prohibited above.
 ---------------------------------------------------------------
  

 Cite this work as:
 Gaussian 09, Revision D.01,
 M. J. Frisch, G. W. Trucks, H. B. Schlegel, G. E. Scuseria, 
 M. A. Robb, J. R. Cheeseman, G. Scalmani, V. Barone, B. Mennucci, 
 G. A. Petersson, H. Nakatsuji, M. Caricato, X. Li, H. P. Hratchian, 
 A. F. Izmaylov, J. Bloino, G. Zheng, J. L. Sonnenberg, M. Hada, 
 M. Ehara, K. Toyota, R. Fukuda, J. Hasegawa, M. Ishida, T. Nakajima, 
 Y. Honda, O. Kitao, H. Nakai, T. Vreven, J. A. Montgomery, Jr., 
 J. E. Peralta, F. Ogliaro, M. Bearpark, J. J. Heyd, E. Brothers, 
 K. N. Kudin, V. N. Staroverov, T. Keith, R. Kobayashi, J. Normand, 
 K. Raghavachari, A. Rendell, J. C. Burant, S. S. Iyengar, J. Tomasi, 
 M. Cossi, N. Rega, J. M. Millam, M. Klene, J. E. Knox, J. B. Cross, 
 V. Bakken, C. Adamo, J. Jaramillo, R. Gomperts, R. E. Stratmann, 
 O. Yazyev, A. J. Austin, R. Cammi, C. Pomelli, J. W. Ochterski, 
 R. L. Martin, K. Morokuma, V. G. Zakrzewski, G. A. Voth, 
 P. Salvador, J. J. Dannenberg, S. Dapprich, A. D. Daniels, 
 O. Farkas, J. B. Foresman, J. V. Ortiz, J. Cioslowski, 
 and D. J. Fox, Gaussian, Inc., Wallingford CT, 2013.
 
 ******************************************
 Gaussian 09:  ES64L-G09RevD.01 24-Apr-2013
                28-Jul-2021 
 ******************************************
 %mem=2gb
 %nproc=4
 Will use up to    4 processors via shared memory.
 %chk=conf-318.chk
 ----------------------------------------------------------------------
 # B3LYP/6-31+G(d,p) opt=calcfc freq=noraman nosymm integral(ultrafineg
 rid)
 ----------------------------------------------------------------------
 1/10=4,14=-1,18=20,19=15,26=4,38=1/1,3;
 2/9=110,12=2,15=1,17=6,18=5,40=1/2;
 3/5=1,6=6,7=111,11=2,16=1,25=1,30=1,71=2,74=-5,75=-5,140=1/1,2,3;
 4//1;
 5/5=2,38=5/2;
 8/6=4,10=90,11=11/1;
 11/6=1,8=1,9=11,15=111,16=1,31=1/1,2,10;
 10/6=1,13=1,31=1/2;
 6/7=2,8=2,9=2,10=2,28=1/1;
 7/10=1,18=20,25=1,30=1/1,2,3,16;
 1/10=4,14=-1,18=20,19=15,26=4/3(2);
 2/9=110,15=1/2;
 99//99;
 2/9=110,15=1/2;
 3/5=1,6=6,7=111,11=2,16=1,25=1,30=1,71=1,74=-5,75=-5/1,2,3;
 4/5=5,16=3,69=1/1;
 5/5=2,38=5/2;
 7/30=1/1,2,3,16;
 1/14=-1,18=20,19=15,26=4/3(-5);
 2/9=110,15=1/2;
 6/7=2,8=2,9=2,10=2,19=2,28=1/1;
 99/9=1/99;
 ------------------------------------------------------------
 Candidate Structure: Conf:318 OPT and FREQ calc in gas phase
 ------------------------------------------------------------
 Symbolic Z-matrix:
 Charge =  1 Multiplicity = 1
 O                     1.13479   0.36017   1.71301 
 C                     1.16226  -0.2433    0.64574 
 N                     0.11396  -1.00733   0.23996 
 C                    -1.06936  -1.15699   1.0577 
 C                    -1.84054  -2.36383   0.54088 
 O                    -2.80523  -2.83052   1.35604 
 O                    -1.63337  -2.87104  -0.528 
 C                    -1.9416    0.10927   1.09446 
 C                    -2.42059   0.64013  -0.22615 
 C                    -2.81335   0.0844   -1.40888 
 N                    -3.21509   1.05471  -2.30737 
 C                    -3.07245   2.19143  -1.6678 
 N                    -2.59722   2.00042  -0.41027 
 C                     2.34258  -0.20625  -0.31324 
 C                     3.52376   0.56524   0.25722 
 N                     4.66863   0.61098  -0.69028 
 H                     0.14741  -1.55596  -0.606 
 H                    -0.76096  -1.33802   2.09037 
 H                    -2.82173  -2.33987   2.18352 
 H                    -2.80031  -0.07852   1.7472 
 H                    -1.35361   0.88582   1.58118 
 H                    -2.82341  -0.96002  -1.66902 
 H                    -3.29495   3.16978  -2.05629 
 H                    -2.40028   2.71256   0.27365 
 H                     2.02064   0.25342  -1.25462 
 H                     2.64528  -1.23191  -0.54929 
 H                     3.83569   0.10072   1.19197 
 H                     3.20224   1.57712   0.49941 
 H                     5.00063  -0.32667  -0.91571 
 H                     5.45977   1.12826  -0.30455 
 H                     4.40638   1.06602  -1.56461 
 

 GradGradGradGradGradGradGradGradGradGradGradGradGradGradGradGradGradGrad
 Berny optimization.
 Initialization pass.
                           ----------------------------
                           !    Initial Parameters    !
                           ! (Angstroms and Degrees)  !
 --------------------------                            --------------------------
 ! Name  Definition              Value          Derivative Info.                !
 --------------------------------------------------------------------------------
 ! R1    R(1,2)                  1.2264         calculate D2E/DX2 analytically  !
 ! R2    R(2,3)                  1.3592         calculate D2E/DX2 analytically  !
 ! R3    R(2,14)                 1.5212         calculate D2E/DX2 analytically  !
 ! R4    R(3,4)                  1.4461         calculate D2E/DX2 analytically  !
 ! R5    R(3,17)                 1.0088         calculate D2E/DX2 analytically  !
 ! R6    R(4,5)                  1.5226         calculate D2E/DX2 analytically  !
 ! R7    R(4,8)                  1.538          calculate D2E/DX2 analytically  !
 ! R8    R(4,18)                 1.0928         calculate D2E/DX2 analytically  !
 ! R9    R(5,6)                  1.3464         calculate D2E/DX2 analytically  !
 ! R10   R(5,7)                  1.2011         calculate D2E/DX2 analytically  !
 ! R11   R(6,19)                 0.9622         calculate D2E/DX2 analytically  !
 ! R12   R(8,9)                  1.5018         calculate D2E/DX2 analytically  !
 ! R13   R(8,20)                 1.0949         calculate D2E/DX2 analytically  !
 ! R14   R(8,21)                 1.0889         calculate D2E/DX2 analytically  !
 ! R15   R(9,10)                 1.3645         calculate D2E/DX2 analytically  !
 ! R16   R(9,13)                 1.384          calculate D2E/DX2 analytically  !
 ! R17   R(10,11)                1.3821         calculate D2E/DX2 analytically  !
 ! R18   R(10,22)                1.0764         calculate D2E/DX2 analytically  !
 ! R19   R(11,12)                1.3121         calculate D2E/DX2 analytically  !
 ! R20   R(12,13)                1.3578         calculate D2E/DX2 analytically  !
 ! R21   R(12,23)                1.0759         calculate D2E/DX2 analytically  !
 ! R22   R(13,24)                1.0068         calculate D2E/DX2 analytically  !
 ! R23   R(14,15)                1.5218         calculate D2E/DX2 analytically  !
 ! R24   R(14,25)                1.096          calculate D2E/DX2 analytically  !
 ! R25   R(14,26)                1.0951         calculate D2E/DX2 analytically  !
 ! R26   R(15,16)                1.4868         calculate D2E/DX2 analytically  !
 ! R27   R(15,27)                1.0894         calculate D2E/DX2 analytically  !
 ! R28   R(15,28)                1.089          calculate D2E/DX2 analytically  !
 ! R29   R(16,29)                1.0199         calculate D2E/DX2 analytically  !
 ! R30   R(16,30)                1.0209         calculate D2E/DX2 analytically  !
 ! R31   R(16,31)                1.0199         calculate D2E/DX2 analytically  !
 ! A1    A(1,2,3)              121.2758         calculate D2E/DX2 analytically  !
 ! A2    A(1,2,14)             123.6419         calculate D2E/DX2 analytically  !
 ! A3    A(3,2,14)             115.0822         calculate D2E/DX2 analytically  !
 ! A4    A(2,3,4)              121.3636         calculate D2E/DX2 analytically  !
 ! A5    A(2,3,17)             122.0375         calculate D2E/DX2 analytically  !
 ! A6    A(4,3,17)             116.424          calculate D2E/DX2 analytically  !
 ! A7    A(3,4,5)              107.7302         calculate D2E/DX2 analytically  !
 ! A8    A(3,4,8)              113.1007         calculate D2E/DX2 analytically  !
 ! A9    A(3,4,18)             108.6967         calculate D2E/DX2 analytically  !
 ! A10   A(5,4,8)              111.928          calculate D2E/DX2 analytically  !
 ! A11   A(5,4,18)             109.4136         calculate D2E/DX2 analytically  !
 ! A12   A(8,4,18)             105.8923         calculate D2E/DX2 analytically  !
 ! A13   A(4,5,6)              115.6021         calculate D2E/DX2 analytically  !
 ! A14   A(4,5,7)              123.327          calculate D2E/DX2 analytically  !
 ! A15   A(6,5,7)              121.0623         calculate D2E/DX2 analytically  !
 ! A16   A(5,6,19)             110.8675         calculate D2E/DX2 analytically  !
 ! A17   A(4,8,9)              116.8014         calculate D2E/DX2 analytically  !
 ! A18   A(4,8,20)             108.5318         calculate D2E/DX2 analytically  !
 ! A19   A(4,8,21)             106.9537         calculate D2E/DX2 analytically  !
 ! A20   A(9,8,20)             109.5565         calculate D2E/DX2 analytically  !
 ! A21   A(9,8,21)             108.2526         calculate D2E/DX2 analytically  !
 ! A22   A(20,8,21)            106.2217         calculate D2E/DX2 analytically  !
 ! A23   A(8,9,10)             135.2394         calculate D2E/DX2 analytically  !
 ! A24   A(8,9,13)             120.3403         calculate D2E/DX2 analytically  !
 ! A25   A(10,9,13)            104.3734         calculate D2E/DX2 analytically  !
 ! A26   A(9,10,11)            111.1751         calculate D2E/DX2 analytically  !
 ! A27   A(9,10,22)            127.3977         calculate D2E/DX2 analytically  !
 ! A28   A(11,10,22)           121.4253         calculate D2E/DX2 analytically  !
 ! A29   A(10,11,12)           105.055          calculate D2E/DX2 analytically  !
 ! A30   A(11,12,13)           111.5691         calculate D2E/DX2 analytically  !
 ! A31   A(11,12,23)           126.1078         calculate D2E/DX2 analytically  !
 ! A32   A(13,12,23)           122.323          calculate D2E/DX2 analytically  !
 ! A33   A(9,13,12)            107.8264         calculate D2E/DX2 analytically  !
 ! A34   A(9,13,24)            125.441          calculate D2E/DX2 analytically  !
 ! A35   A(12,13,24)           126.7321         calculate D2E/DX2 analytically  !
 ! A36   A(2,14,15)            112.2264         calculate D2E/DX2 analytically  !
 ! A37   A(2,14,25)            108.8913         calculate D2E/DX2 analytically  !
 ! A38   A(2,14,26)            109.1188         calculate D2E/DX2 analytically  !
 ! A39   A(15,14,25)           109.7159         calculate D2E/DX2 analytically  !
 ! A40   A(15,14,26)           109.9419         calculate D2E/DX2 analytically  !
 ! A41   A(25,14,26)           106.7903         calculate D2E/DX2 analytically  !
 ! A42   A(14,15,16)           111.9861         calculate D2E/DX2 analytically  !
 ! A43   A(14,15,27)           109.1305         calculate D2E/DX2 analytically  !
 ! A44   A(14,15,28)           108.9821         calculate D2E/DX2 analytically  !
 ! A45   A(16,15,27)           109.8421         calculate D2E/DX2 analytically  !
 ! A46   A(16,15,28)           109.9065         calculate D2E/DX2 analytically  !
 ! A47   A(27,15,28)           106.8527         calculate D2E/DX2 analytically  !
 ! A48   A(15,16,29)           111.299          calculate D2E/DX2 analytically  !
 ! A49   A(15,16,30)           111.8094         calculate D2E/DX2 analytically  !
 ! A50   A(15,16,31)           111.2249         calculate D2E/DX2 analytically  !
 ! A51   A(29,16,30)           107.2818         calculate D2E/DX2 analytically  !
 ! A52   A(29,16,31)           107.7209         calculate D2E/DX2 analytically  !
 ! A53   A(30,16,31)           107.2822         calculate D2E/DX2 analytically  !
 ! D1    D(1,2,3,4)             -0.927          calculate D2E/DX2 analytically  !
 ! D2    D(1,2,3,17)          -175.9471         calculate D2E/DX2 analytically  !
 ! D3    D(14,2,3,4)           178.9339         calculate D2E/DX2 analytically  !
 ! D4    D(14,2,3,17)            3.9138         calculate D2E/DX2 analytically  !
 ! D5    D(1,2,14,15)            4.8672         calculate D2E/DX2 analytically  !
 ! D6    D(1,2,14,25)         -116.8023         calculate D2E/DX2 analytically  !
 ! D7    D(1,2,14,26)          126.9811         calculate D2E/DX2 analytically  !
 ! D8    D(3,2,14,15)         -174.99           calculate D2E/DX2 analytically  !
 ! D9    D(3,2,14,25)           63.3405         calculate D2E/DX2 analytically  !
 ! D10   D(3,2,14,26)          -52.8761         calculate D2E/DX2 analytically  !
 ! D11   D(2,3,4,5)           -163.3057         calculate D2E/DX2 analytically  !
 ! D12   D(2,3,4,8)             72.4572         calculate D2E/DX2 analytically  !
 ! D13   D(2,3,4,18)           -44.8421         calculate D2E/DX2 analytically  !
 ! D14   D(17,3,4,5)            11.981          calculate D2E/DX2 analytically  !
 ! D15   D(17,3,4,8)          -112.2561         calculate D2E/DX2 analytically  !
 ! D16   D(17,3,4,18)          130.4447         calculate D2E/DX2 analytically  !
 ! D17   D(3,4,5,6)            165.8373         calculate D2E/DX2 analytically  !
 ! D18   D(3,4,5,7)            -15.219          calculate D2E/DX2 analytically  !
 ! D19   D(8,4,5,6)            -69.2207         calculate D2E/DX2 analytically  !
 ! D20   D(8,4,5,7)            109.7231         calculate D2E/DX2 analytically  !
 ! D21   D(18,4,5,6)            47.8348         calculate D2E/DX2 analytically  !
 ! D22   D(18,4,5,7)          -133.2214         calculate D2E/DX2 analytically  !
 ! D23   D(3,4,8,9)             56.7831         calculate D2E/DX2 analytically  !
 ! D24   D(3,4,8,20)          -178.8236         calculate D2E/DX2 analytically  !
 ! D25   D(3,4,8,21)           -64.6058         calculate D2E/DX2 analytically  !
 ! D26   D(5,4,8,9)            -65.1291         calculate D2E/DX2 analytically  !
 ! D27   D(5,4,8,20)            59.2642         calculate D2E/DX2 analytically  !
 ! D28   D(5,4,8,21)           173.4821         calculate D2E/DX2 analytically  !
 ! D29   D(18,4,8,9)           175.7167         calculate D2E/DX2 analytically  !
 ! D30   D(18,4,8,20)          -59.89           calculate D2E/DX2 analytically  !
 ! D31   D(18,4,8,21)           54.3278         calculate D2E/DX2 analytically  !
 ! D32   D(4,5,6,19)            -3.1825         calculate D2E/DX2 analytically  !
 ! D33   D(7,5,6,19)           177.8478         calculate D2E/DX2 analytically  !
 ! D34   D(4,8,9,10)            35.2995         calculate D2E/DX2 analytically  !
 ! D35   D(4,8,9,13)          -147.6284         calculate D2E/DX2 analytically  !
 ! D36   D(20,8,9,10)          -88.572          calculate D2E/DX2 analytically  !
 ! D37   D(20,8,9,13)           88.5001         calculate D2E/DX2 analytically  !
 ! D38   D(21,8,9,10)          156.0038         calculate D2E/DX2 analytically  !
 ! D39   D(21,8,9,13)          -26.9241         calculate D2E/DX2 analytically  !
 ! D40   D(8,9,10,11)          177.7149         calculate D2E/DX2 analytically  !
 ! D41   D(8,9,10,22)           -2.7787         calculate D2E/DX2 analytically  !
 ! D42   D(13,9,10,11)           0.3232         calculate D2E/DX2 analytically  !
 ! D43   D(13,9,10,22)         179.8295         calculate D2E/DX2 analytically  !
 ! D44   D(8,9,13,12)         -178.07           calculate D2E/DX2 analytically  !
 ! D45   D(8,9,13,24)            2.1942         calculate D2E/DX2 analytically  !
 ! D46   D(10,9,13,12)          -0.1978         calculate D2E/DX2 analytically  !
 ! D47   D(10,9,13,24)        -179.9336         calculate D2E/DX2 analytically  !
 ! D48   D(9,10,11,12)          -0.3247         calculate D2E/DX2 analytically  !
 ! D49   D(22,10,11,12)       -179.8651         calculate D2E/DX2 analytically  !
 ! D50   D(10,11,12,13)          0.191          calculate D2E/DX2 analytically  !
 ! D51   D(10,11,12,23)       -179.6929         calculate D2E/DX2 analytically  !
 ! D52   D(11,12,13,9)           0.0032         calculate D2E/DX2 analytically  !
 ! D53   D(11,12,13,24)        179.7346         calculate D2E/DX2 analytically  !
 ! D54   D(23,12,13,9)         179.8922         calculate D2E/DX2 analytically  !
 ! D55   D(23,12,13,24)         -0.3764         calculate D2E/DX2 analytically  !
 ! D56   D(2,14,15,16)        -179.3655         calculate D2E/DX2 analytically  !
 ! D57   D(2,14,15,27)          58.798          calculate D2E/DX2 analytically  !
 ! D58   D(2,14,15,28)         -57.5501         calculate D2E/DX2 analytically  !
 ! D59   D(25,14,15,16)        -58.1686         calculate D2E/DX2 analytically  !
 ! D60   D(25,14,15,27)        179.995          calculate D2E/DX2 analytically  !
 ! D61   D(25,14,15,28)         63.6469         calculate D2E/DX2 analytically  !
 ! D62   D(26,14,15,16)         58.99           calculate D2E/DX2 analytically  !
 ! D63   D(26,14,15,27)        -62.8465         calculate D2E/DX2 analytically  !
 ! D64   D(26,14,15,28)       -179.1945         calculate D2E/DX2 analytically  !
 ! D65   D(14,15,16,29)        -59.978          calculate D2E/DX2 analytically  !
 ! D66   D(14,15,16,30)       -179.9408         calculate D2E/DX2 analytically  !
 ! D67   D(14,15,16,31)         60.1466         calculate D2E/DX2 analytically  !
 ! D68   D(27,15,16,29)         61.4498         calculate D2E/DX2 analytically  !
 ! D69   D(27,15,16,30)        -58.5131         calculate D2E/DX2 analytically  !
 ! D70   D(27,15,16,31)       -178.4257         calculate D2E/DX2 analytically  !
 ! D71   D(28,15,16,29)        178.7381         calculate D2E/DX2 analytically  !
 ! D72   D(28,15,16,30)         58.7752         calculate D2E/DX2 analytically  !
 ! D73   D(28,15,16,31)        -61.1374         calculate D2E/DX2 analytically  !
 --------------------------------------------------------------------------------
 Trust Radius=3.00D-01 FncErr=1.00D-07 GrdErr=1.00D-06
 Number of steps in this run=    167 maximum allowed number of steps=    186.
 GradGradGradGradGradGradGradGradGradGradGradGradGradGradGradGradGradGrad

                          Input orientation:                          
 ---------------------------------------------------------------------
 Center     Atomic      Atomic             Coordinates (Angstroms)
 Number     Number       Type             X           Y           Z
 ---------------------------------------------------------------------
      1          8           0        1.134793    0.360172    1.713014
      2          6           0        1.162257   -0.243302    0.645742
      3          7           0        0.113957   -1.007325    0.239961
      4          6           0       -1.069364   -1.156993    1.057696
      5          6           0       -1.840539   -2.363826    0.540876
      6          8           0       -2.805228   -2.830522    1.356037
      7          8           0       -1.633368   -2.871040   -0.528005
      8          6           0       -1.941597    0.109268    1.094457
      9          6           0       -2.420593    0.640134   -0.226148
     10          6           0       -2.813354    0.084404   -1.408885
     11          7           0       -3.215093    1.054711   -2.307369
     12          6           0       -3.072450    2.191426   -1.667803
     13          7           0       -2.597217    2.000422   -0.410274
     14          6           0        2.342582   -0.206253   -0.313243
     15          6           0        3.523756    0.565241    0.257219
     16          7           0        4.668626    0.610979   -0.690278
     17          1           0        0.147411   -1.555964   -0.605997
     18          1           0       -0.760965   -1.338020    2.090369
     19          1           0       -2.821728   -2.339868    2.183521
     20          1           0       -2.800315   -0.078519    1.747195
     21          1           0       -1.353609    0.885824    1.581179
     22          1           0       -2.823414   -0.960017   -1.669022
     23          1           0       -3.294949    3.169775   -2.056286
     24          1           0       -2.400277    2.712564    0.273645
     25          1           0        2.020644    0.253423   -1.254621
     26          1           0        2.645282   -1.231912   -0.549292
     27          1           0        3.835693    0.100720    1.191966
     28          1           0        3.202235    1.577124    0.499409
     29          1           0        5.000631   -0.326669   -0.915711
     30          1           0        5.459766    1.128265   -0.304546
     31          1           0        4.406382    1.066022   -1.564605
 ---------------------------------------------------------------------
                    Distance matrix (angstroms):
                    1          2          3          4          5
     1  O    0.000000
     2  C    1.226379   0.000000
     3  N    2.254339   1.359162   0.000000
     4  C    2.754913   2.446359   1.446147   0.000000
     5  C    4.200795   3.677554   2.398061   1.522583   0.000000
     6  O    5.082493   4.789485   3.618192   2.429595   1.346447
     7  O    4.808910   4.012257   2.667649   2.402187   1.201121
     8  C    3.147974   3.155877   2.490431   1.538037   2.536308
     9  C    4.059495   3.791763   3.058647   2.589158   3.154134
    10  C    5.040850   4.487133   3.532664   3.265974   3.277463
    11  N    5.963838   5.437544   4.671558   4.562833   4.657068
    12  C    5.699501   5.404917   4.901506   4.759476   5.210200
    13  N    4.596376   4.503677   4.101196   3.802439   4.530331
    14  C    2.425966   1.521247   2.431979   3.797994   4.783633
    15  C    2.805091   2.526138   3.754996   4.970273   6.118461
    16  N    4.280969   3.848295   4.922323   6.253453   7.261848
    17  H    3.166120   2.078424   1.008845   2.099427   2.433085
    18  H    2.572966   2.642751   2.073368   1.092838   2.149113
    19  H    4.813071   4.757362   3.764485   2.395298   1.913528
    20  H    3.959633   4.116106   3.409900   2.152836   2.756628
    21  H    2.546731   2.911967   2.745293   2.127894   3.446673
    22  H    5.371077   4.664481   3.503513   3.248150   2.796492
    23  H    6.459421   6.230308   5.860167   5.776767   6.283414
    24  H    4.483554   4.644055   4.489998   4.166478   5.114142
    25  H    3.098868   2.143581   2.731065   4.109043   4.998253
    26  H    3.151878   2.145884   2.661008   4.048039   4.753135
    27  H    2.762909   2.750268   3.998175   5.065517   6.222341
    28  H    2.688517   2.738042   4.035363   5.102317   6.400186
    29  H    4.725109   4.144660   5.067392   6.436507   7.285140
    30  H    4.833829   4.610079   5.782292   7.050365   8.136577
    31  H    4.684475   4.138153   5.097071   6.465451   7.431078
                    6          7          8          9         10
     6  O    0.000000
     7  O    2.219124   0.000000
     8  C    3.075167   3.407290   0.000000
     9  C    3.833628   3.610981   1.501750   0.000000
    10  C    4.017668   3.301964   2.650905   1.364538   0.000000
    11  N    5.355705   4.591243   3.753408   2.265962   1.382087
    12  C    5.868133   5.385041   3.639271   2.215806   2.138624
    13  N    5.147926   4.967294   2.504100   1.384009   2.171420
    14  C    6.014419   4.791179   4.520549   4.838574   5.279071
    15  C    7.265993   6.246642   5.547879   5.964440   6.570089
    16  N    8.478788   7.201800   6.865278   7.104456   7.534833
    17  H    3.767247   2.215103   3.166779   3.400261   3.478730
    18  H    2.635492   3.157074   2.116689   3.468964   4.298880
    19  H    0.962156   3.007776   2.821163   3.853287   4.333883
    20  H    2.779667   3.786353   1.094864   2.134182   3.160309
    21  H    3.996138   4.317517   1.088884   2.113114   3.422515
    22  H    3.556699   2.523914   3.091567   2.191947   1.076377
    23  H    6.920069   6.448872   4.596243   3.242374   3.189135
    24  H    5.662276   5.692752   2.767900   2.131941   3.147819
    25  H    6.294068   4.862309   4.608502   4.575138   4.839411
    26  H    5.991152   4.581926   5.053724   5.410367   5.680519
    27  H    7.260919   6.457577   5.778119   6.437635   7.139645
    28  H    7.500052   6.650173   5.382164   5.746354   6.485146
    29  H    8.506560   7.115764   7.240535   7.515636   7.840317
    30  H    9.313413   8.145976   7.601035   7.895852   8.411523
    31  H    8.701754   7.283789   6.948584   6.969967   7.287826
                   11         12         13         14         15
    11  N    0.000000
    12  C    1.312064   0.000000
    13  N    2.207964   1.357832   0.000000
    14  C    6.037741   6.075053   5.411140   0.000000
    15  C    7.226948   7.061170   6.322310   1.521776   0.000000
    16  N    8.060081   7.961007   7.402798   2.494094   1.486798
    17  H    4.584400   5.053501   4.496573   2.593492   4.079750
    18  H    5.575661   5.650116   4.557437   4.085370   5.034052
    19  H    5.643225   5.952158   5.061254   6.120151   7.239853
    20  H    4.230336   4.109614   3.002985   5.541760   6.529037
    21  H    4.314446   3.900627   2.598995   4.294566   5.064024
    22  H    2.149425   3.161268   3.224873   5.393868   6.806128
    23  H    2.131411   1.075914   2.136252   6.798347   7.657065
    24  H    3.173961   2.119581   1.006816   5.599879   6.301225
    25  H    5.400303   5.464996   5.008948   1.095964   2.154585
    26  H    6.531728   6.757423   6.160446   1.095135   2.156834
    27  H    7.928999   7.763490   6.896258   2.142259   1.089421
    28  H    7.023746   6.666772   5.885605   2.140056   1.089008
    29  H    8.446481   8.490059   7.962293   2.728130   2.086247
    30  H    8.903363   8.705601   8.104740   3.390848   2.093014
    31  H    7.657591   7.563737   7.159328   2.728344   2.085390
                   16         17         18         19         20
    16  N    0.000000
    17  H    5.014393   0.000000
    18  H    6.403987   2.853600   0.000000
    19  H    8.548194   4.148699   2.293278   0.000000
    20  H    7.886809   4.050857   2.421375   2.303158   0.000000
    21  H    6.442234   3.605431   2.357113   3.594896   1.746561
    22  H    7.717294   3.211071   4.304603   4.092198   3.528188
    23  H    8.475373   6.023769   6.628427   6.968219   5.026187
    24  H    7.437419   5.048249   4.732342   5.417778   3.181435
    25  H    2.730960   2.683952   4.632385   6.480320   5.688825
    26  H    2.740446   2.519442   4.310636   6.211605   6.021519
    27  H    2.120610   4.425009   4.899629   7.159673   6.661607
    28  H    2.121107   4.513327   5.170703   7.380189   6.350491
    29  H    1.019918   5.016058   6.576879   8.651446   8.246660
    30  H    1.020919   5.959620   7.107437   9.316736   8.596214
    31  H    1.019943   5.092404   6.770504   8.825764   8.013393
                   21         22         23         24         25
    21  H    0.000000
    22  H    4.016374   0.000000
    23  H    4.713426   4.174626   0.000000
    24  H    2.478333   4.176224   2.537334   0.000000
    25  H    4.452783   5.010894   6.115824   5.284649   0.000000
    26  H    5.001484   5.588771   7.545345   6.457072   1.758943
    27  H    5.262769   7.324898   8.415243   6.822930   3.050166
    28  H    4.733270   6.888224   7.161112   5.720869   2.494988
    29  H    6.934045   7.885702   9.074288   8.088570   3.054782
    30  H    7.073671   8.650652   9.158679   8.038942   3.673629
    31  H    6.565510   7.509040   7.998627   7.240226   2.539321
                   26         27         28         29         30
    26  H    0.000000
    27  H    2.494989   0.000000
    28  H    3.049697   1.749478   0.000000
    29  H    2.549784   2.445822   2.976780   0.000000
    30  H    3.681257   2.435777   2.438086   1.643521   0.000000
    31  H    3.068034   2.975934   2.443635   1.647357   1.643545
                   31
    31  H    0.000000
 Symmetry turned off by external request.
 Stoichiometry    C9H15N4O3(1+)
 Framework group  C1[X(C9H15N4O3)]
 Deg. of freedom    87
 Full point group                 C1      NOp   1
 Rotational constants (GHZ):      0.6292239      0.3107285      0.2460042
 Standard basis: 6-31+G(d,p) (6D, 7F)
   379 basis functions,   617 primitive gaussians,   379 cartesian basis functions
    60 alpha electrons       60 beta electrons
       nuclear repulsion energy      1133.0540732988 Hartrees.
 NAtoms=   31 NActive=   31 NUniq=   31 SFac= 1.00D+00 NAtFMM=   60 NAOKFM=F Big=F
 Integral buffers will be    131072 words long.
 Raffenetti 2 integral format.
 Two-electron integral symmetry is turned off.
 One-electron integrals computed using PRISM.
 NBasis=   379 RedAO= T EigKep=  5.74D-06  NBF=   379
 NBsUse=   379 1.00D-06 EigRej= -1.00D+00 NBFU=   379
 ExpMin= 4.38D-02 ExpMax= 5.48D+03 ExpMxC= 8.25D+02 IAcc=3 IRadAn=         5 AccDes= 0.00D+00
 Harris functional with IExCor=  402 and IRadAn=       5 diagonalized for initial guess.
 HarFok:  IExCor=  402 AccDes= 0.00D+00 IRadAn=         5 IDoV= 1 UseB2=F ITyADJ=14
 ICtDFT=  3500011 ScaDFX=  1.000000  1.000000  1.000000  1.000000
 FoFCou: FMM=F IPFlag=           0 FMFlag=      100000 FMFlg1=           0
         NFxFlg=           0 DoJE=T BraDBF=F KetDBF=T FulRan=T
         wScrn=  0.000000 ICntrl=     500 IOpCl=  0 I1Cent=   200000004 NGrid=           0
         NMat0=    1 NMatS0=      1 NMatT0=    0 NMatD0=    1 NMtDS0=    0 NMtDT0=    0
 Symmetry not used in FoFCou.
 Requested convergence on RMS density matrix=1.00D-08 within 128 cycles.
 Requested convergence on MAX density matrix=1.00D-06.
 Requested convergence on             energy=1.00D-06.
 No special actions if energy rises.
 EnCoef did     1 forward-backward iterations
 SCF Done:  E(RB3LYP) =  -796.493107064     A.U. after   17 cycles
            NFock= 17  Conv=0.49D-08     -V/T= 2.0090
 DoSCS=F DFT=T ScalE2(SS,OS)=  1.000000  1.000000
 Range of M.O.s used for correlation:     1   379
 NBasis=   379 NAE=    60 NBE=    60 NFC=     0 NFV=     0
 NROrb=    379 NOA=    60 NOB=    60 NVA=   319 NVB=   319

 **** Warning!!: The largest alpha MO coefficient is  0.92498200D+02

 Symmetrizing basis deriv contribution to polar:
 IMax=3 JMax=2 DiffMx= 0.00D+00
 G2DrvN: will do    32 centers at a time, making    1 passes.
 Calling FoFCou, ICntrl=  3107 FMM=F I1Cent=   0 AccDes= 0.00D+00.
 End of G2Drv F.D. properties file   721 does not exist.
 End of G2Drv F.D. properties file   722 does not exist.
 End of G2Drv F.D. properties file   788 does not exist.
          IDoAtm=1111111111111111111111111111111
          Differentiating once with respect to nuclear coordinates.
          There are    96 degrees of freedom in the 1st order CPHF.  IDoFFX=6 NUNeed=     0.
     90 vectors produced by pass  0 Test12= 1.99D-14 1.04D-09 XBig12= 1.81D-01 8.68D-02.
 AX will form    90 AO Fock derivatives at one time.
     90 vectors produced by pass  1 Test12= 1.99D-14 1.04D-09 XBig12= 1.67D-02 1.78D-02.
     90 vectors produced by pass  2 Test12= 1.99D-14 1.04D-09 XBig12= 1.77D-04 2.02D-03.
     90 vectors produced by pass  3 Test12= 1.99D-14 1.04D-09 XBig12= 5.77D-07 8.65D-05.
     90 vectors produced by pass  4 Test12= 1.99D-14 1.04D-09 XBig12= 1.20D-09 4.01D-06.
     82 vectors produced by pass  5 Test12= 1.99D-14 1.04D-09 XBig12= 1.46D-12 1.30D-07.
     23 vectors produced by pass  6 Test12= 1.99D-14 1.04D-09 XBig12= 1.70D-15 3.21D-09.
      3 vectors produced by pass  7 Test12= 1.99D-14 1.04D-09 XBig12= 1.40D-16 1.13D-09.
      3 vectors produced by pass  8 Test12= 1.99D-14 1.04D-09 XBig12= 5.62D-16 2.11D-09.
      2 vectors produced by pass  9 Test12= 1.99D-14 1.04D-09 XBig12= 7.33D-16 2.43D-09.
 InvSVY:  IOpt=1 It=  1 EMax= 5.00D-16
 Solved reduced A of dimension   563 with    96 vectors.
 End of Minotr F.D. properties file   721 does not exist.
 End of Minotr F.D. properties file   722 does not exist.
 End of Minotr F.D. properties file   788 does not exist.

 **********************************************************************

            Population analysis using the SCF density.

 **********************************************************************

 Alpha  occ. eigenvalues --  -19.31548 -19.26777 -19.26022 -14.67864 -14.49931
 Alpha  occ. eigenvalues --  -14.48146 -14.39879 -10.44308 -10.44001 -10.43962
 Alpha  occ. eigenvalues --  -10.38274 -10.37088 -10.32363 -10.31966 -10.31280
 Alpha  occ. eigenvalues --  -10.28095  -1.22585  -1.22511  -1.18807  -1.14599
 Alpha  occ. eigenvalues --   -1.10571  -1.06658  -0.97898  -0.95876  -0.91903
 Alpha  occ. eigenvalues --   -0.86581  -0.83749  -0.80640  -0.80058  -0.78200
 Alpha  occ. eigenvalues --   -0.74149  -0.71908  -0.70746  -0.70287  -0.68671
 Alpha  occ. eigenvalues --   -0.67646  -0.65460  -0.63803  -0.61990  -0.60370
 Alpha  occ. eigenvalues --   -0.58887  -0.57629  -0.57066  -0.55699  -0.55166
 Alpha  occ. eigenvalues --   -0.54062  -0.53991  -0.52143  -0.51028  -0.49991
 Alpha  occ. eigenvalues --   -0.49709  -0.49103  -0.48749  -0.43533  -0.40978
 Alpha  occ. eigenvalues --   -0.39944  -0.39336  -0.36722  -0.35119  -0.31662
 Alpha virt. eigenvalues --   -0.20624  -0.14522  -0.14370  -0.13140  -0.12485
 Alpha virt. eigenvalues --   -0.11430  -0.10342  -0.10122  -0.08872  -0.08257
 Alpha virt. eigenvalues --   -0.07212  -0.06783  -0.06157  -0.05896  -0.05274
 Alpha virt. eigenvalues --   -0.04681  -0.04076  -0.03637  -0.03177  -0.02673
 Alpha virt. eigenvalues --   -0.02257  -0.01696  -0.01398  -0.01342  -0.00357
 Alpha virt. eigenvalues --    0.00306   0.00615   0.01026   0.01342   0.01964
 Alpha virt. eigenvalues --    0.02319   0.02597   0.03327   0.04095   0.04688
 Alpha virt. eigenvalues --    0.05029   0.05185   0.05703   0.06159   0.06671
 Alpha virt. eigenvalues --    0.07551   0.08371   0.08427   0.08778   0.09439
 Alpha virt. eigenvalues --    0.09739   0.10113   0.10142   0.10833   0.10997
 Alpha virt. eigenvalues --    0.11192   0.11433   0.12130   0.12476   0.12910
 Alpha virt. eigenvalues --    0.13183   0.14105   0.14355   0.14902   0.15396
 Alpha virt. eigenvalues --    0.16076   0.16697   0.17043   0.18136   0.18234
 Alpha virt. eigenvalues --    0.18662   0.19222   0.19741   0.19919   0.20255
 Alpha virt. eigenvalues --    0.20271   0.20994   0.21492   0.21652   0.22769
 Alpha virt. eigenvalues --    0.23160   0.24360   0.24699   0.25056   0.25328
 Alpha virt. eigenvalues --    0.25948   0.26326   0.27067   0.27724   0.27969
 Alpha virt. eigenvalues --    0.28300   0.29313   0.30088   0.30820   0.32161
 Alpha virt. eigenvalues --    0.33163   0.34794   0.36358   0.37666   0.39664
 Alpha virt. eigenvalues --    0.40474   0.41895   0.44176   0.45051   0.46283
 Alpha virt. eigenvalues --    0.46612   0.50277   0.51902   0.54806   0.56456
 Alpha virt. eigenvalues --    0.57296   0.58164   0.59826   0.61128   0.61943
 Alpha virt. eigenvalues --    0.62232   0.64000   0.64731   0.66470   0.67696
 Alpha virt. eigenvalues --    0.68833   0.69571   0.69923   0.71241   0.71887
 Alpha virt. eigenvalues --    0.72379   0.73390   0.75412   0.76834   0.77652
 Alpha virt. eigenvalues --    0.78673   0.79761   0.82407   0.82898   0.83796
 Alpha virt. eigenvalues --    0.85118   0.85927   0.86917   0.88026   0.88636
 Alpha virt. eigenvalues --    0.89515   0.90226   0.90852   0.91858   0.92712
 Alpha virt. eigenvalues --    0.93742   0.94423   0.95683   0.97267   0.98243
 Alpha virt. eigenvalues --    0.99211   0.99811   1.01546   1.03083   1.04624
 Alpha virt. eigenvalues --    1.05078   1.06028   1.07165   1.10548   1.12113
 Alpha virt. eigenvalues --    1.12889   1.14317   1.15038   1.17001   1.18011
 Alpha virt. eigenvalues --    1.19214   1.20169   1.21788   1.22454   1.24189
 Alpha virt. eigenvalues --    1.25509   1.26118   1.26564   1.27265   1.27695
 Alpha virt. eigenvalues --    1.30284   1.31366   1.32035   1.32511   1.33899
 Alpha virt. eigenvalues --    1.34789   1.37583   1.39076   1.39836   1.40151
 Alpha virt. eigenvalues --    1.42903   1.43706   1.45175   1.46931   1.48384
 Alpha virt. eigenvalues --    1.49129   1.53620   1.55801   1.57907   1.58527
 Alpha virt. eigenvalues --    1.60965   1.63658   1.65020   1.66254   1.68249
 Alpha virt. eigenvalues --    1.68989   1.70449   1.71120   1.71959   1.73369
 Alpha virt. eigenvalues --    1.74002   1.74785   1.76185   1.77190   1.77985
 Alpha virt. eigenvalues --    1.79281   1.81154   1.81747   1.84215   1.85887
 Alpha virt. eigenvalues --    1.86606   1.89971   1.90200   1.92019   1.92994
 Alpha virt. eigenvalues --    1.95170   1.96468   1.97958   1.99584   1.99940
 Alpha virt. eigenvalues --    2.01046   2.02354   2.03383   2.03518   2.04647
 Alpha virt. eigenvalues --    2.05552   2.07665   2.08631   2.09944   2.11167
 Alpha virt. eigenvalues --    2.11807   2.12941   2.16967   2.19709   2.20085
 Alpha virt. eigenvalues --    2.21349   2.23741   2.26152   2.26749   2.28682
 Alpha virt. eigenvalues --    2.31277   2.31858   2.35346   2.36025   2.37338
 Alpha virt. eigenvalues --    2.37903   2.39870   2.42307   2.42966   2.44411
 Alpha virt. eigenvalues --    2.46047   2.46103   2.47906   2.49376   2.50742
 Alpha virt. eigenvalues --    2.51680   2.52238   2.53237   2.55520   2.56521
 Alpha virt. eigenvalues --    2.57840   2.58750   2.60467   2.61404   2.62701
 Alpha virt. eigenvalues --    2.63734   2.65596   2.66999   2.68567   2.68962
 Alpha virt. eigenvalues --    2.71369   2.71742   2.73230   2.74731   2.75641
 Alpha virt. eigenvalues --    2.78090   2.81316   2.83954   2.87660   2.92641
 Alpha virt. eigenvalues --    2.94975   2.95699   2.97790   2.97892   3.02602
 Alpha virt. eigenvalues --    3.04174   3.08674   3.12113   3.13779   3.14228
 Alpha virt. eigenvalues --    3.17706   3.19046   3.24540   3.25882   3.26541
 Alpha virt. eigenvalues --    3.27738   3.34628   3.37913   3.40682   3.45444
 Alpha virt. eigenvalues --    3.50321   3.52407   3.64097   3.96967   4.14325
 Alpha virt. eigenvalues --    4.17371   4.21246   4.22805   4.25927   4.28824
 Alpha virt. eigenvalues --    4.32233   4.36697   4.45621   4.47398   4.52098
 Alpha virt. eigenvalues --    4.54877   4.61453   4.65822   4.72854
          Condensed to atoms (all electrons):
               1          2          3          4          5          6
     1  O    8.270192   0.299827  -0.146433   0.105374   0.018093   0.000530
     2  C    0.299827   8.162516  -0.104691  -0.309133  -0.080856  -0.002192
     3  N   -0.146433  -0.104691   7.469141  -0.235807  -0.074645   0.007249
     4  C    0.105374  -0.309133  -0.235807   8.575439  -0.894687  -0.158957
     5  C    0.018093  -0.080856  -0.074645  -0.894687   6.039323   0.208737
     6  O    0.000530  -0.002192   0.007249  -0.158957   0.208737   8.172447
     7  O    0.000567   0.076717   0.027818  -0.208362   0.640266  -0.121624
     8  C   -0.195255   0.104733   0.500243  -1.676469   0.494165   0.020592
     9  C    0.097898  -0.447670  -0.327890   1.015792  -0.348064  -0.021269
    10  C    0.009627  -0.126057   0.000953  -0.232906  -0.173792   0.026982
    11  N    0.000361  -0.003749  -0.008474   0.003393  -0.001304  -0.000381
    12  C    0.001521   0.026247  -0.031186   0.035128  -0.033698   0.002452
    13  N   -0.006592   0.089955   0.011948  -0.005908  -0.018828   0.000639
    14  C   -0.003536  -1.818042  -0.072691  -0.205890  -0.023144  -0.006573
    15  C    0.017697  -0.105973   0.000187  -0.029250  -0.002622   0.000149
    16  N    0.000129   0.100116  -0.002713   0.002475  -0.000318   0.000004
    17  H    0.008499  -0.061641   0.276432   0.075040  -0.055588   0.001757
    18  H    0.002482   0.045705  -0.071674   0.459419  -0.098898  -0.003637
    19  H   -0.000078   0.017595   0.001681   0.119096  -0.038525   0.191023
    20  H   -0.000920   0.026920   0.024216  -0.036614  -0.040852   0.005139
    21  H    0.000566  -0.000492  -0.026738  -0.001808   0.001137  -0.001147
    22  H   -0.000043   0.008350   0.000108   0.033146  -0.007320  -0.000113
    23  H   -0.000001   0.000682   0.000049  -0.000814  -0.000238   0.000001
    24  H    0.000236  -0.005740   0.000018  -0.004661  -0.000848  -0.000005
    25  H    0.006781  -0.135973   0.014103   0.001898   0.000840   0.000002
    26  H    0.002152  -0.021657  -0.013266   0.000943  -0.004352   0.000004
    27  H   -0.001672   0.014006   0.002510   0.001825   0.000188   0.000000
    28  H   -0.003289   0.044456  -0.000690  -0.000710  -0.000178   0.000000
    29  H   -0.000108   0.013053  -0.000378  -0.000057   0.000002   0.000000
    30  H    0.000319  -0.014643   0.000168  -0.000041  -0.000005   0.000000
    31  H    0.000047   0.007098   0.000087   0.000200   0.000029   0.000000
               7          8          9         10         11         12
     1  O    0.000567  -0.195255   0.097898   0.009627   0.000361   0.001521
     2  C    0.076717   0.104733  -0.447670  -0.126057  -0.003749   0.026247
     3  N    0.027818   0.500243  -0.327890   0.000953  -0.008474  -0.031186
     4  C   -0.208362  -1.676469   1.015792  -0.232906   0.003393   0.035128
     5  C    0.640266   0.494165  -0.348064  -0.173792  -0.001304  -0.033698
     6  O   -0.121624   0.020592  -0.021269   0.026982  -0.000381   0.002452
     7  O    8.058686  -0.092585   0.040189  -0.038435   0.001750   0.000014
     8  C   -0.092585  13.368402  -5.441813  -1.103791  -0.143409  -0.099279
     9  C    0.040189  -5.441813  11.743544  -0.592623  -0.099652   0.040131
    10  C   -0.038435  -1.103791  -0.592623   8.049977   0.535466  -0.598056
    11  N    0.001750  -0.143409  -0.099652   0.535466   6.772042   0.363824
    12  C    0.000014  -0.099279   0.040131  -0.598056   0.363824   5.530424
    13  N    0.000881  -0.057892   0.153100  -0.078469  -0.020489   0.104736
    14  C   -0.016381   0.111780  -0.077396   0.048856  -0.000405  -0.021083
    15  C    0.001340   0.008172  -0.018719  -0.009679   0.000297   0.003397
    16  N    0.000014  -0.000280   0.000341  -0.000514   0.000006   0.000103
    17  H    0.020566  -0.046311   0.029464   0.003114   0.000493   0.001676
    18  H    0.003185  -0.118108   0.073252  -0.010238   0.000193   0.000816
    19  H    0.007998   0.004384  -0.056544  -0.013627  -0.000039  -0.000909
    20  H   -0.000383   0.609964  -0.297551  -0.000078  -0.001675  -0.008112
    21  H   -0.000056   0.408859  -0.050164  -0.001246  -0.000501   0.006228
    22  H   -0.003058   0.024771  -0.052131   0.326562  -0.056006   0.027279
    23  H   -0.000002   0.026750   0.036790  -0.055022  -0.058955   0.456514
    24  H   -0.000004  -0.096288   0.117646   0.016478   0.010033  -0.018351
    25  H   -0.000008   0.004649   0.002862   0.002791  -0.000141  -0.000970
    26  H   -0.000028  -0.000791   0.000617   0.000357   0.000008   0.000069
    27  H    0.000001   0.000003   0.000014   0.000001   0.000000  -0.000006
    28  H    0.000000  -0.000013   0.000310   0.000061   0.000002   0.000032
    29  H    0.000000   0.000018  -0.000028  -0.000009   0.000000   0.000001
    30  H    0.000000   0.000018   0.000008   0.000009   0.000000  -0.000001
    31  H    0.000000  -0.000052   0.000079   0.000014   0.000000  -0.000005
              13         14         15         16         17         18
     1  O   -0.006592  -0.003536   0.017697   0.000129   0.008499   0.002482
     2  C    0.089955  -1.818042  -0.105973   0.100116  -0.061641   0.045705
     3  N    0.011948  -0.072691   0.000187  -0.002713   0.276432  -0.071674
     4  C   -0.005908  -0.205890  -0.029250   0.002475   0.075040   0.459419
     5  C   -0.018828  -0.023144  -0.002622  -0.000318  -0.055588  -0.098898
     6  O    0.000639  -0.006573   0.000149   0.000004   0.001757  -0.003637
     7  O    0.000881  -0.016381   0.001340   0.000014   0.020566   0.003185
     8  C   -0.057892   0.111780   0.008172  -0.000280  -0.046311  -0.118108
     9  C    0.153100  -0.077396  -0.018719   0.000341   0.029464   0.073252
    10  C   -0.078469   0.048856  -0.009679  -0.000514   0.003114  -0.010238
    11  N   -0.020489  -0.000405   0.000297   0.000006   0.000493   0.000193
    12  C    0.104736  -0.021083   0.003397   0.000103   0.001676   0.000816
    13  N    7.010056  -0.007908   0.002892  -0.000028   0.000197   0.000202
    14  C   -0.007908   7.538209   0.279282  -0.155733   0.043181  -0.004390
    15  C    0.002892   0.279282   5.321578   0.083997   0.003767   0.000017
    16  N   -0.000028  -0.155733   0.083997   6.680214   0.000024   0.000010
    17  H    0.000197   0.043181   0.003767   0.000024   0.357942   0.003266
    18  H    0.000202  -0.004390   0.000017   0.000010   0.003266   0.544833
    19  H    0.000249   0.001573   0.000052   0.000000  -0.000050  -0.000534
    20  H    0.013261  -0.000779  -0.000105   0.000000  -0.000150  -0.000902
    21  H   -0.001956  -0.004094  -0.000994  -0.000002  -0.000177  -0.006880
    22  H    0.005532  -0.001346   0.000010   0.000000  -0.000043  -0.000028
    23  H   -0.099264  -0.000159   0.000017   0.000000   0.000000   0.000000
    24  H    0.260491   0.000915  -0.000108   0.000000   0.000000   0.000002
    25  H   -0.000600   0.479242  -0.053335   0.001659  -0.000153  -0.000023
    26  H    0.000007   0.399032  -0.042110   0.003053   0.000303   0.000016
    27  H   -0.000004  -0.048253   0.397423  -0.031647  -0.000006  -0.000005
    28  H   -0.000017  -0.081729   0.405981  -0.029157  -0.000003   0.000002
    29  H    0.000000  -0.020719  -0.014324   0.323223   0.000000   0.000000
    30  H    0.000000   0.034663  -0.032823   0.311091   0.000000   0.000000
    31  H   -0.000002  -0.012065  -0.016852   0.321465  -0.000001   0.000000
              19         20         21         22         23         24
     1  O   -0.000078  -0.000920   0.000566  -0.000043  -0.000001   0.000236
     2  C    0.017595   0.026920  -0.000492   0.008350   0.000682  -0.005740
     3  N    0.001681   0.024216  -0.026738   0.000108   0.000049   0.000018
     4  C    0.119096  -0.036614  -0.001808   0.033146  -0.000814  -0.004661
     5  C   -0.038525  -0.040852   0.001137  -0.007320  -0.000238  -0.000848
     6  O    0.191023   0.005139  -0.001147  -0.000113   0.000001  -0.000005
     7  O    0.007998  -0.000383  -0.000056  -0.003058  -0.000002  -0.000004
     8  C    0.004384   0.609964   0.408859   0.024771   0.026750  -0.096288
     9  C   -0.056544  -0.297551  -0.050164  -0.052131   0.036790   0.117646
    10  C   -0.013627  -0.000078  -0.001246   0.326562  -0.055022   0.016478
    11  N   -0.000039  -0.001675  -0.000501  -0.056006  -0.058955   0.010033
    12  C   -0.000909  -0.008112   0.006228   0.027279   0.456514  -0.018351
    13  N    0.000249   0.013261  -0.001956   0.005532  -0.099264   0.260491
    14  C    0.001573  -0.000779  -0.004094  -0.001346  -0.000159   0.000915
    15  C    0.000052  -0.000105  -0.000994   0.000010   0.000017  -0.000108
    16  N    0.000000   0.000000  -0.000002   0.000000   0.000000   0.000000
    17  H   -0.000050  -0.000150  -0.000177  -0.000043   0.000000   0.000000
    18  H   -0.000534  -0.000902  -0.006880  -0.000028   0.000000   0.000002
    19  H    0.411181   0.003394  -0.000048   0.000008   0.000000   0.000000
    20  H    0.003394   0.570110  -0.030071   0.000122   0.000005  -0.000131
    21  H   -0.000048  -0.030071   0.528655  -0.000089  -0.000011   0.002277
    22  H    0.000008   0.000122  -0.000089   0.543354  -0.000034  -0.000077
    23  H    0.000000   0.000005  -0.000011  -0.000034   0.546591   0.000215
    24  H    0.000000  -0.000131   0.002277  -0.000077   0.000215   0.421066
    25  H    0.000000  -0.000001  -0.000004   0.000000   0.000000   0.000001
    26  H    0.000000   0.000000  -0.000004   0.000000   0.000000   0.000000
    27  H    0.000000   0.000000   0.000000   0.000000   0.000000   0.000000
    28  H    0.000000   0.000000  -0.000002   0.000000   0.000000   0.000000
    29  H    0.000000   0.000000   0.000000   0.000000   0.000000   0.000000
    30  H    0.000000   0.000000   0.000000   0.000000   0.000000   0.000000
    31  H    0.000000   0.000000   0.000000   0.000000   0.000000   0.000000
              25         26         27         28         29         30
     1  O    0.006781   0.002152  -0.001672  -0.003289  -0.000108   0.000319
     2  C   -0.135973  -0.021657   0.014006   0.044456   0.013053  -0.014643
     3  N    0.014103  -0.013266   0.002510  -0.000690  -0.000378   0.000168
     4  C    0.001898   0.000943   0.001825  -0.000710  -0.000057  -0.000041
     5  C    0.000840  -0.004352   0.000188  -0.000178   0.000002  -0.000005
     6  O    0.000002   0.000004   0.000000   0.000000   0.000000   0.000000
     7  O   -0.000008  -0.000028   0.000001   0.000000   0.000000   0.000000
     8  C    0.004649  -0.000791   0.000003  -0.000013   0.000018   0.000018
     9  C    0.002862   0.000617   0.000014   0.000310  -0.000028   0.000008
    10  C    0.002791   0.000357   0.000001   0.000061  -0.000009   0.000009
    11  N   -0.000141   0.000008   0.000000   0.000002   0.000000   0.000000
    12  C   -0.000970   0.000069  -0.000006   0.000032   0.000001  -0.000001
    13  N   -0.000600   0.000007  -0.000004  -0.000017   0.000000   0.000000
    14  C    0.479242   0.399032  -0.048253  -0.081729  -0.020719   0.034663
    15  C   -0.053335  -0.042110   0.397423   0.405981  -0.014324  -0.032823
    16  N    0.001659   0.003053  -0.031647  -0.029157   0.323223   0.311091
    17  H   -0.000153   0.000303  -0.000006  -0.000003   0.000000   0.000000
    18  H   -0.000023   0.000016  -0.000005   0.000002   0.000000   0.000000
    19  H    0.000000   0.000000   0.000000   0.000000   0.000000   0.000000
    20  H   -0.000001   0.000000   0.000000   0.000000   0.000000   0.000000
    21  H   -0.000004  -0.000004   0.000000  -0.000002   0.000000   0.000000
    22  H    0.000000   0.000000   0.000000   0.000000   0.000000   0.000000
    23  H    0.000000   0.000000   0.000000   0.000000   0.000000   0.000000
    24  H    0.000001   0.000000   0.000000   0.000000   0.000000   0.000000
    25  H    0.511475  -0.031685   0.003969  -0.005291  -0.000911  -0.000052
    26  H   -0.031685   0.520292  -0.005337   0.004083   0.003928  -0.000065
    27  H    0.003969  -0.005337   0.459807  -0.020715  -0.004552  -0.002497
    28  H   -0.005291   0.004083  -0.020715   0.456523   0.003774  -0.002512
    29  H   -0.000911   0.003928  -0.004552   0.003774   0.328482  -0.014922
    30  H   -0.000052  -0.000065  -0.002497  -0.002512  -0.014922   0.324560
    31  H    0.004053  -0.000888   0.003822  -0.004606  -0.021458  -0.014586
              31
     1  O    0.000047
     2  C    0.007098
     3  N    0.000087
     4  C    0.000200
     5  C    0.000029
     6  O    0.000000
     7  O    0.000000
     8  C   -0.000052
     9  C    0.000079
    10  C    0.000014
    11  N    0.000000
    12  C   -0.000005
    13  N   -0.000002
    14  C   -0.012065
    15  C   -0.016852
    16  N    0.321465
    17  H   -0.000001
    18  H    0.000000
    19  H    0.000000
    20  H    0.000000
    21  H    0.000000
    22  H    0.000000
    23  H    0.000000
    24  H    0.000000
    25  H    0.004053
    26  H   -0.000888
    27  H    0.003822
    28  H   -0.004606
    29  H   -0.021458
    30  H   -0.014586
    31  H    0.328444
 Mulliken charges:
               1
     1  O   -0.484972
     2  C    0.200535
     3  N   -0.219636
     4  C   -0.427097
     5  C    0.495980
     6  O   -0.321808
     7  O   -0.399065
     8  C   -0.615167
     9  C    0.479476
    10  C    0.013293
    11  N   -0.292687
    12  C    0.211063
    13  N   -0.356189
    14  C   -0.354417
    15  C   -0.199362
    16  N   -0.607531
    17  H    0.338402
    18  H    0.181915
    19  H    0.352119
    20  H    0.165192
    21  H    0.178762
    22  H    0.151046
    23  H    0.146883
    24  H    0.296834
    25  H    0.194823
    26  H    0.185318
    27  H    0.231127
    28  H    0.233688
    29  H    0.404987
    30  H    0.411311
    31  H    0.405177
 Sum of Mulliken charges =   1.00000
 Mulliken charges with hydrogens summed into heavy atoms:
               1
     1  O   -0.484972
     2  C    0.200535
     3  N    0.118766
     4  C   -0.245182
     5  C    0.495980
     6  O    0.030311
     7  O   -0.399065
     8  C   -0.271213
     9  C    0.479476
    10  C    0.164339
    11  N   -0.292687
    12  C    0.357947
    13  N   -0.059355
    14  C    0.025723
    15  C    0.265453
    16  N    0.613944
 APT charges:
               1
     1  O   -0.423423
     2  C    0.042915
     3  N   -0.338284
     4  C   -0.621565
     5  C   -0.365290
     6  O   -0.162580
     7  O   -0.188827
     8  C   -1.125157
     9  C    0.144744
    10  C   -0.050348
    11  N   -0.430738
    12  C   -0.306835
    13  N   -0.608626
    14  C   -0.716855
    15  C   -0.307950
    16  N   -1.889166
    17  H    0.542623
    18  H    0.489397
    19  H    0.602071
    20  H    0.630156
    21  H    0.269860
    22  H    0.410213
    23  H    0.930995
    24  H    0.570387
    25  H    0.269735
    26  H    0.464374
    27  H    0.490455
    28  H    0.256000
    29  H    0.735151
    30  H    1.221056
    31  H    0.465514
 Sum of APT charges =   1.00000
 APT charges with hydrogens summed into heavy atoms:
               1
     1  O   -0.423423
     2  C    0.042915
     3  N    0.204339
     4  C   -0.132168
     5  C   -0.365290
     6  O    0.439490
     7  O   -0.188827
     8  C   -0.225141
     9  C    0.144744
    10  C    0.359865
    11  N   -0.430738
    12  C    0.624160
    13  N   -0.038239
    14  C    0.017253
    15  C    0.438505
    16  N    0.532555
 Electronic spatial extent (au):  <R**2>=           4674.3533
 Charge=              1.0000 electrons
 Dipole moment (field-independent basis, Debye):
    X=             19.5207    Y=              4.4375    Z=              1.1591  Tot=             20.0522
 Quadrupole moment (field-independent basis, Debye-Ang):
   XX=              0.8363   YY=            -85.6757   ZZ=            -93.8462
   XY=              2.0459   XZ=            -33.9447   YZ=             -7.7196
 Traceless Quadrupole moment (field-independent basis, Debye-Ang):
   XX=             60.3981   YY=            -26.1138   ZZ=            -34.2843
   XY=              2.0459   XZ=            -33.9447   YZ=             -7.7196
 Octapole moment (field-independent basis, Debye-Ang**2):
  XXX=            670.5094  YYY=            124.7853  ZZZ=             41.0485  XYY=             68.0046
  XXY=             92.9247  XXZ=            -14.1568  XZZ=             78.3336  YZZ=             -1.4132
  YYZ=              7.1674  XYZ=             -0.5935
 Hexadecapole moment (field-independent basis, Debye-Ang**3):
 XXXX=          -1549.5823 YYYY=          -1375.7863 ZZZZ=           -887.9422 XXXY=            165.3380
 XXXZ=           -622.4118 YYYX=           -261.7820 YYYZ=            154.8356 ZZZX=           -345.6917
 ZZZY=            176.3896 XXYY=           -724.8530 XXZZ=           -723.1335 YYZZ=           -322.4505
 XXYZ=             15.3099 YYXZ=            -65.3587 ZZXY=             25.4933
 N-N= 1.133054073299D+03 E-N=-4.106997598757D+03  KE= 7.894174362259D+02
  Exact polarizability:   0.000   0.000   0.000   0.000   0.000   0.000
 Approx polarizability: 169.812   6.504 199.006   7.057  16.249 222.145
 Calling FoFJK, ICntrl=    100147 FMM=F ISym2X=0 I1Cent= 0 IOpClX= 0 NMat=1 NMatS=1 NMatT=0.
 -------------------------------------------------------------------
 Center     Atomic                   Forces (Hartrees/Bohr)
 Number     Number              X              Y              Z
 -------------------------------------------------------------------
      1        8           0.012071511    0.008589038    0.003137171
      2        6          -0.020199770   -0.010366232    0.002757089
      3        7           0.013476892    0.004931756    0.000207983
      4        6          -0.000668845    0.002297750    0.000261798
      5        6          -0.005306883   -0.002142814    0.008669521
      6        8           0.001399214   -0.001991895   -0.005899932
      7        8           0.005044054   -0.005492947   -0.010477047
      8        6          -0.006786213    0.007489062   -0.003997743
      9        6           0.004308712    0.002037855    0.009015993
     10        6          -0.003219372   -0.004792815   -0.010889350
     11        7           0.000857014   -0.003867914   -0.000548039
     12        6          -0.002363962    0.001327264   -0.004979783
     13        7           0.004323494    0.000855151    0.007648796
     14        6           0.008648278   -0.001932757   -0.013043241
     15        6          -0.024200377   -0.000983935    0.020745114
     16        7           0.004790745    0.001055758   -0.002187137
     17        1          -0.002284122   -0.002720890   -0.005372643
     18        1           0.002261743   -0.002179620    0.002425009
     19        1          -0.002909424    0.001923100    0.007364390
     20        1          -0.001492872   -0.001035834    0.003295258
     21        1           0.002324764    0.001161561    0.003831099
     22        1          -0.001134079   -0.002014843   -0.002401752
     23        1          -0.001259734    0.003392239   -0.001771280
     24        1          -0.000677683    0.003205190    0.001445574
     25        1          -0.002622074    0.000006343   -0.001506607
     26        1          -0.000875497   -0.002597418   -0.000580763
     27        1           0.006781798    0.000354533   -0.000000530
     28        1           0.004927363    0.004041443   -0.001515944
     29        1           0.002103318   -0.005077245   -0.002338533
     30        1           0.003591771    0.002635548    0.002370740
     31        1          -0.000909764    0.001893567   -0.005665210
 -------------------------------------------------------------------
 Cartesian Forces:  Max     0.024200377 RMS     0.006113539
 FormGI is forming the generalized inverse of G from B-inverse, IUseBI=4.

 GradGradGradGradGradGradGradGradGradGradGradGradGradGradGradGradGradGrad
 Berny optimization.
 Internal  Forces:  Max     0.017140449 RMS     0.003904238
 Search for a local minimum.
 Step number   1 out of a maximum of  167
 All quantities printed in internal units (Hartrees-Bohrs-Radians)
 Mixed Optimization -- RFO/linear search
 Second derivative matrix not updated -- analytic derivatives used.
 ITU=  0
     Eigenvalues ---   -0.00062   0.00003   0.00157   0.00189   0.00210
     Eigenvalues ---    0.00347   0.00504   0.00522   0.00831   0.00897
     Eigenvalues ---    0.00972   0.02104   0.02151   0.02638   0.03375
     Eigenvalues ---    0.03852   0.03873   0.03918   0.04182   0.04304
     Eigenvalues ---    0.04357   0.04747   0.04973   0.05055   0.05142
     Eigenvalues ---    0.05365   0.05420   0.05941   0.06099   0.07517
     Eigenvalues ---    0.08323   0.08653   0.10489   0.10615   0.11249
     Eigenvalues ---    0.11750   0.11981   0.12160   0.13137   0.13291
     Eigenvalues ---    0.13805   0.15958   0.16217   0.16393   0.16638
     Eigenvalues ---    0.17686   0.19359   0.19630   0.20604   0.22430
     Eigenvalues ---    0.23243   0.23431   0.24269   0.24563   0.24640
     Eigenvalues ---    0.25719   0.29690   0.29953   0.31726   0.33228
     Eigenvalues ---    0.33305   0.33618   0.33786   0.34185   0.34556
     Eigenvalues ---    0.34840   0.35089   0.35244   0.35772   0.35955
     Eigenvalues ---    0.38368   0.38531   0.39313   0.42321   0.44143
     Eigenvalues ---    0.44297   0.44338   0.44861   0.45125   0.46962
     Eigenvalues ---    0.47608   0.48522   0.49154   0.54485   0.59145
     Eigenvalues ---    0.82547   0.93374
 RFO step:  Lambda=-1.02787493D-02 EMin=-6.22129310D-04
 Linear search not attempted -- first point.
 Iteration  1 RMS(Cart)=  0.13602403 RMS(Int)=  0.01957933
 Iteration  2 RMS(Cart)=  0.04268542 RMS(Int)=  0.00113691
 Iteration  3 RMS(Cart)=  0.00164185 RMS(Int)=  0.00040777
 Iteration  4 RMS(Cart)=  0.00000282 RMS(Int)=  0.00040777
 Iteration  5 RMS(Cart)=  0.00000000 RMS(Int)=  0.00040777
 Variable       Old X    -DE/DX   Delta X   Delta X   Delta X     New X
                                 (Linear)    (Quad)   (Total)
    R1        2.31752   0.00669   0.00000   0.00968   0.00968   2.32721
    R2        2.56844  -0.00524   0.00000  -0.03020  -0.03020   2.53825
    R3        2.87474   0.00407   0.00000   0.03212   0.03212   2.90686
    R4        2.73282   0.00601   0.00000   0.01604   0.01604   2.74886
    R5        1.90644   0.00591   0.00000   0.01374   0.01374   1.92018
    R6        2.87726   0.00712   0.00000   0.02771   0.02771   2.90498
    R7        2.90647   0.00930   0.00000   0.02617   0.02617   2.93264
    R8        2.06516   0.00329   0.00000   0.00910   0.00910   2.07426
    R9        2.54442   0.00199   0.00000  -0.00856  -0.00856   2.53585
   R10        2.26979   0.01251   0.00000   0.01516   0.01516   2.28495
   R11        1.81821   0.00737   0.00000   0.01336   0.01336   1.83157
   R12        2.83790   0.00196   0.00000  -0.00204  -0.00204   2.83586
   R13        2.06899   0.00331   0.00000   0.00970   0.00970   2.07870
   R14        2.05769   0.00380   0.00000   0.01170   0.01170   2.06939
   R15        2.57860   0.01438   0.00000   0.02701   0.02700   2.60560
   R16        2.61540   0.00474   0.00000   0.00597   0.00598   2.62138
   R17        2.61177  -0.00095   0.00000  -0.00710  -0.00712   2.60464
   R18        2.03406   0.00255   0.00000   0.00724   0.00724   2.04129
   R19        2.47944   0.00412   0.00000   0.00452   0.00451   2.48395
   R20        2.56593   0.00914   0.00000   0.01909   0.01910   2.58503
   R21        2.03318   0.00398   0.00000   0.00952   0.00952   2.04270
   R22        1.90261   0.00312   0.00000   0.00631   0.00631   1.90892
   R23        2.87574   0.00400   0.00000   0.00355   0.00355   2.87929
   R24        2.07107   0.00207   0.00000   0.00609   0.00609   2.07716
   R25        2.06951   0.00232   0.00000   0.00167   0.00167   2.07118
   R26        2.80964   0.01237   0.00000   0.06221   0.06221   2.87185
   R27        2.05871   0.00179   0.00000   0.00271   0.00271   2.06142
   R28        2.05793   0.00196   0.00000   0.00299   0.00299   2.06091
   R29        1.92737   0.00587   0.00000   0.01122   0.01122   1.93859
   R30        1.92926   0.00501   0.00000   0.00950   0.00950   1.93875
   R31        1.92741   0.00594   0.00000   0.01158   0.01158   1.93899
    A1        2.11666   0.01714   0.00000   0.05768   0.05756   2.17422
    A2        2.15796  -0.01432   0.00000  -0.06214  -0.06222   2.09573
    A3        2.00856  -0.00282   0.00000   0.00452   0.00442   2.01299
    A4        2.11819   0.00741   0.00000   0.03591   0.03551   2.15370
    A5        2.12996  -0.00181   0.00000   0.00081   0.00042   2.13037
    A6        2.03198  -0.00556   0.00000  -0.03292  -0.03332   1.99866
    A7        1.88025  -0.00540   0.00000  -0.03191  -0.03206   1.84819
    A8        1.97398   0.00125   0.00000   0.00472   0.00494   1.97892
    A9        1.89711   0.00128   0.00000   0.00288   0.00244   1.89956
   A10        1.95351   0.00459   0.00000   0.02877   0.02883   1.98234
   A11        1.90963  -0.00100   0.00000  -0.01728  -0.01766   1.89197
   A12        1.84817  -0.00068   0.00000   0.01242   0.01246   1.86063
   A13        2.01764   0.00457   0.00000   0.02151   0.02146   2.03910
   A14        2.15246  -0.00435   0.00000  -0.01962  -0.01967   2.13280
   A15        2.11294  -0.00021   0.00000  -0.00160  -0.00165   2.11129
   A16        1.93500   0.00633   0.00000   0.03270   0.03270   1.96770
   A17        2.03857  -0.00124   0.00000  -0.01793  -0.01785   2.02071
   A18        1.89424  -0.00079   0.00000  -0.00775  -0.00765   1.88659
   A19        1.86669  -0.00086   0.00000  -0.01244  -0.01238   1.85431
   A20        1.91212   0.00219   0.00000   0.02596   0.02585   1.93797
   A21        1.88936   0.00133   0.00000   0.01867   0.01845   1.90782
   A22        1.85392  -0.00067   0.00000  -0.00664  -0.00700   1.84692
   A23        2.36037   0.00085   0.00000  -0.00674  -0.00677   2.35360
   A24        2.10033  -0.00053   0.00000   0.00707   0.00705   2.10738
   A25        1.82166  -0.00032   0.00000   0.00002   0.00003   1.82169
   A26        1.94037  -0.00119   0.00000  -0.00362  -0.00363   1.93675
   A27        2.22351   0.00275   0.00000   0.01416   0.01416   2.23767
   A28        2.11927  -0.00155   0.00000  -0.01051  -0.01051   2.10876
   A29        1.83356   0.00265   0.00000   0.00838   0.00837   1.84192
   A30        1.94725   0.00042   0.00000  -0.00159  -0.00156   1.94568
   A31        2.20100  -0.00073   0.00000  -0.00120  -0.00121   2.19979
   A32        2.13494   0.00031   0.00000   0.00278   0.00277   2.13771
   A33        1.88193  -0.00156   0.00000  -0.00321  -0.00324   1.87868
   A34        2.18936   0.00222   0.00000   0.01340   0.01329   2.20264
   A35        2.21189  -0.00066   0.00000  -0.01009  -0.01020   2.20169
   A36        1.95872  -0.01269   0.00000  -0.07440  -0.07460   1.88412
   A37        1.90051   0.00238   0.00000  -0.01715  -0.01774   1.88277
   A38        1.90448   0.00323   0.00000   0.03655   0.03730   1.94178
   A39        1.91490   0.00506   0.00000   0.01903   0.01721   1.93211
   A40        1.91885   0.00455   0.00000   0.02951   0.02985   1.94870
   A41        1.86384  -0.00203   0.00000   0.01033   0.00986   1.87370
   A42        1.95453  -0.00353   0.00000  -0.01603  -0.01553   1.93899
   A43        1.90469   0.00476   0.00000   0.05337   0.05242   1.95711
   A44        1.90210   0.00453   0.00000   0.03284   0.03182   1.93391
   A45        1.91711  -0.00287   0.00000  -0.05102  -0.05074   1.86637
   A46        1.91823  -0.00273   0.00000  -0.03722  -0.03713   1.88110
   A47        1.86493   0.00012   0.00000   0.02100   0.01808   1.88301
   A48        1.94253   0.00106   0.00000   0.00713   0.00714   1.94967
   A49        1.95144  -0.00104   0.00000  -0.00873  -0.00872   1.94273
   A50        1.94124   0.00106   0.00000   0.00140   0.00140   1.94264
   A51        1.87242   0.00004   0.00000   0.00365   0.00367   1.87609
   A52        1.88008  -0.00125   0.00000  -0.00697  -0.00697   1.87311
   A53        1.87243   0.00005   0.00000   0.00347   0.00347   1.87590
    D1       -0.01618   0.00005   0.00000   0.03319   0.03287   0.01669
    D2       -3.07086  -0.00043   0.00000  -0.01911  -0.01995  -3.09081
    D3        3.12299   0.00043   0.00000   0.05841   0.05925  -3.10095
    D4        0.06831  -0.00005   0.00000   0.00611   0.00642   0.07473
    D5        0.08495   0.00028   0.00000   0.26130   0.26171   0.34666
    D6       -2.03859   0.00054   0.00000   0.29779   0.29669  -1.74190
    D7        2.21624  -0.00013   0.00000   0.27479   0.27428   2.49051
    D8       -3.05415  -0.00016   0.00000   0.23522   0.23643  -2.81772
    D9        1.10550   0.00010   0.00000   0.27171   0.27141   1.37691
   D10       -0.92286  -0.00057   0.00000   0.24871   0.24900  -0.67386
   D11       -2.85022   0.00232   0.00000  -0.00974  -0.00956  -2.85978
   D12        1.26462  -0.00044   0.00000  -0.02637  -0.02616   1.23846
   D13       -0.78264  -0.00118   0.00000  -0.04652  -0.04636  -0.82900
   D14        0.20911   0.00291   0.00000   0.04114   0.04095   0.25006
   D15       -1.95924   0.00015   0.00000   0.02451   0.02435  -1.93489
   D16        2.27669  -0.00059   0.00000   0.00435   0.00415   2.28084
   D17        2.89441  -0.00045   0.00000   0.04219   0.04253   2.93693
   D18       -0.26562   0.00044   0.00000   0.06004   0.06033  -0.20530
   D19       -1.20813   0.00036   0.00000   0.04470   0.04471  -1.16342
   D20        1.91503   0.00125   0.00000   0.06255   0.06251   1.97754
   D21        0.83488   0.00164   0.00000   0.06642   0.06615   0.90103
   D22       -2.32515   0.00253   0.00000   0.08427   0.08395  -2.24120
   D23        0.99105  -0.00258   0.00000  -0.05079  -0.05072   0.94033
   D24       -3.12106  -0.00123   0.00000  -0.03577  -0.03572   3.12640
   D25       -1.12758  -0.00282   0.00000  -0.05352  -0.05350  -1.18108
   D26       -1.13672   0.00014   0.00000  -0.03399  -0.03390  -1.17062
   D27        1.03436   0.00149   0.00000  -0.01896  -0.01890   1.01546
   D28        3.02783  -0.00010   0.00000  -0.03671  -0.03668   2.99116
   D29        3.06684  -0.00076   0.00000  -0.03661  -0.03669   3.03015
   D30       -1.04528   0.00060   0.00000  -0.02159  -0.02169  -1.06697
   D31        0.94820  -0.00100   0.00000  -0.03934  -0.03946   0.90873
   D32       -0.05555   0.00059   0.00000   0.02832   0.02839  -0.02715
   D33        3.10403  -0.00023   0.00000   0.01112   0.01104   3.11507
   D34        0.61609  -0.00003   0.00000  -0.02831  -0.02829   0.58780
   D35       -2.57660   0.00001   0.00000  -0.01738  -0.01739  -2.59399
   D36       -1.54587   0.00014   0.00000  -0.02602  -0.02582  -1.57169
   D37        1.54462   0.00018   0.00000  -0.01509  -0.01491   1.52971
   D38        2.72278  -0.00097   0.00000  -0.04226  -0.04244   2.68034
   D39       -0.46991  -0.00093   0.00000  -0.03133  -0.03154  -0.50145
   D40        3.10171   0.00011   0.00000   0.00995   0.00985   3.11156
   D41       -0.04850   0.00017   0.00000   0.01385   0.01382  -0.03468
   D42        0.00564   0.00009   0.00000   0.00003  -0.00002   0.00562
   D43        3.13862   0.00014   0.00000   0.00392   0.00396  -3.14061
   D44       -3.10791   0.00007   0.00000  -0.00406  -0.00407  -3.11198
   D45        0.03830  -0.00048   0.00000  -0.02727  -0.02747   0.01083
   D46       -0.00345   0.00013   0.00000   0.00363   0.00365   0.00020
   D47       -3.14043  -0.00042   0.00000  -0.01958  -0.01974   3.12301
   D48       -0.00567  -0.00027   0.00000  -0.00375  -0.00373  -0.00939
   D49       -3.13924  -0.00035   0.00000  -0.00751  -0.00750   3.13644
   D50        0.00333   0.00036   0.00000   0.00615   0.00615   0.00949
   D51       -3.13623   0.00040   0.00000   0.00887   0.00880  -3.12743
   D52        0.00006  -0.00031   0.00000  -0.00633  -0.00632  -0.00627
   D53        3.13696   0.00026   0.00000   0.01735   0.01714  -3.12909
   D54        3.13971  -0.00034   0.00000  -0.00894  -0.00886   3.13085
   D55       -0.00657   0.00022   0.00000   0.01474   0.01460   0.00803
   D56       -3.13052   0.00027   0.00000   0.14353   0.14336  -2.98716
   D57        1.02622   0.00294   0.00000   0.18172   0.18236   1.20858
   D58       -1.00444  -0.00238   0.00000   0.10866   0.10787  -0.89657
   D59       -1.01523  -0.00165   0.00000   0.08541   0.08517  -0.93006
   D60        3.14150   0.00102   0.00000   0.12360   0.12417  -3.01751
   D61        1.11085  -0.00430   0.00000   0.05054   0.04968   1.16053
   D62        1.02957   0.00155   0.00000   0.12661   0.12683   1.15640
   D63       -1.09688   0.00422   0.00000   0.16480   0.16583  -0.93105
   D64       -3.12753  -0.00110   0.00000   0.09174   0.09134  -3.03619
   D65       -1.04681   0.00000   0.00000  -0.00177  -0.00179  -1.04861
   D66       -3.14056  -0.00007   0.00000  -0.00538  -0.00540   3.13723
   D67        1.04976  -0.00015   0.00000  -0.00484  -0.00486   1.04489
   D68        1.07250   0.00168   0.00000   0.01985   0.01967   1.09217
   D69       -1.02125   0.00162   0.00000   0.01624   0.01607  -1.00518
   D70       -3.11412   0.00153   0.00000   0.01678   0.01661  -3.09751
   D71        3.11957  -0.00150   0.00000  -0.00694  -0.00675   3.11282
   D72        1.02582  -0.00156   0.00000  -0.01055  -0.01035   1.01547
   D73       -1.06705  -0.00164   0.00000  -0.01001  -0.00982  -1.07686
         Item               Value     Threshold  Converged?
 Maximum Force            0.017140     0.000450     NO 
 RMS     Force            0.003904     0.000300     NO 
 Maximum Displacement     0.803000     0.001800     NO 
 RMS     Displacement     0.163194     0.001200     NO 
 Predicted change in Energy=-5.980611D-03
 GradGradGradGradGradGradGradGradGradGradGradGradGradGradGradGradGradGrad

                          Input orientation:                          
 ---------------------------------------------------------------------
 Center     Atomic      Atomic             Coordinates (Angstroms)
 Number     Number       Type             X           Y           Z
 ---------------------------------------------------------------------
      1          8           0        1.210797    0.485206    1.654311
      2          6           0        1.141256   -0.194657    0.629834
      3          7           0        0.103703   -0.984769    0.308362
      4          6           0       -1.086750   -1.118429    1.133537
      5          6           0       -1.803802   -2.383972    0.636177
      6          8           0       -2.802580   -2.853755    1.399383
      7          8           0       -1.492769   -2.938712   -0.392195
      8          6           0       -1.985243    0.146887    1.128031
      9          6           0       -2.401883    0.645584   -0.224643
     10          6           0       -2.699622    0.049212   -1.431644
     11          7           0       -3.070689    0.989832   -2.368287
     12          6           0       -3.014619    2.146697   -1.746757
     13          7           0       -2.610943    1.998579   -0.448154
     14          6           0        2.279883   -0.150432   -0.403492
     15          6           0        3.525525    0.383438    0.292844
     16          7           0        4.634754    0.661852   -0.707973
     17          1           0        0.104878   -1.563418   -0.526897
     18          1           0       -0.779796   -1.280681    2.174833
     19          1           0       -2.934953   -2.332542    2.205742
     20          1           0       -2.861471   -0.053559    1.762101
     21          1           0       -1.416737    0.928529    1.642832
     22          1           0       -2.665666   -1.000390   -1.684677
     23          1           0       -3.253896    3.110388   -2.173954
     24          1           0       -2.502147    2.739157    0.230171
     25          1           0        1.971374    0.521398   -1.216930
     26          1           0        2.455086   -1.138518   -0.844228
     27          1           0        3.924615   -0.324209    1.020805
     28          1           0        3.307523    1.315145    0.816084
     29          1           0        4.907447   -0.185629   -1.217673
     30          1           0        5.473871    1.025459   -0.242962
     31          1           0        4.342806    1.356550   -1.404382
 ---------------------------------------------------------------------
                    Distance matrix (angstroms):
                    1          2          3          4          5
     1  O    0.000000
     2  C    1.231504   0.000000
     3  N    2.279926   1.343182   0.000000
     4  C    2.849837   2.463956   1.454632   0.000000
     5  C    4.284459   3.669674   2.388265   1.537248   0.000000
     6  O    5.226935   4.818387   3.623523   2.454813   1.341915
     7  O    4.818783   3.938587   2.618663   2.409593   1.209143
     8  C    3.256702   3.184313   2.513204   1.551884   2.584587
     9  C    4.075248   3.740316   3.036462   2.585724   3.205764
    10  C    5.000458   4.365949   3.457653   3.247290   3.316438
    11  N    5.896361   5.303983   4.597855   4.543517   4.691947
    12  C    5.672914   5.329298   4.873758   4.761702   5.260362
    13  N    4.616964   4.477872   4.103898   3.813220   4.586284
    14  C    2.404482   1.538243   2.436928   3.825401   4.769287
    15  C    2.687362   2.476388   3.685254   4.922951   6.014829
    16  N    4.163540   3.837690   4.926938   6.268665   7.248365
    17  H    3.190233   2.070172   1.016117   2.091658   2.380990
    18  H    2.711413   2.693865   2.086108   1.097654   2.152511
    19  H    5.042919   4.865133   3.827528   2.457550   1.935376
    20  H    4.109167   4.162182   3.431146   2.163025   2.795924
    21  H    2.664696   2.971706   2.784467   2.135020   3.483653
    22  H    5.327551   4.527562   3.412016   3.232528   2.836102
    23  H    6.440550   6.172675   5.848562   5.789552   6.339369
    24  H    4.571042   4.694825   4.545788   4.207183   5.186423
    25  H    2.970490   2.147643   2.843106   4.191163   5.111471
    26  H    3.229154   2.188580   2.623186   4.056668   4.677701
    27  H    2.901946   2.813668   3.942497   5.075162   6.099617
    28  H    2.405761   2.647056   3.976412   5.033159   6.312011
    29  H    4.729009   4.194944   5.103270   6.506051   7.301393
    30  H    4.697373   4.584976   5.760528   7.037950   8.084654
    31  H    4.463667   4.098073   5.136659   6.484337   7.479050
                    6          7          8          9         10
     6  O    0.000000
     7  O    2.220939   0.000000
     8  C    3.121782   3.474843   0.000000
     9  C    3.878581   3.701586   1.500670   0.000000
    10  C    4.056172   3.385947   2.659287   1.378825   0.000000
    11  N    5.388913   4.672069   3.756726   2.271788   1.378317
    12  C    5.911656   5.478343   3.650103   2.223874   2.144285
    13  N    5.195697   5.062636   2.510900   1.387176   2.185210
    14  C    6.032392   4.691220   4.541505   4.752322   5.088460
    15  C    7.193661   6.057164   5.578715   5.955726   6.468232
    16  N    8.492019   7.114093   6.889155   7.053235   7.395410
    17  H    3.718714   2.112358   3.167418   3.354832   3.359220
    18  H    2.677226   3.137997   2.141693   3.478382   4.296629
    19  H    0.969227   3.032591   2.865480   3.880743   4.354160
    20  H    2.824204   3.852069   1.099999   2.155730   3.199494
    21  H    4.035530   4.370660   1.095073   2.130266   3.445489
    22  H    3.600713   2.608311   3.112963   2.215967   1.080205
    23  H    6.967311   6.547354   4.614642   3.255918   3.198287
    24  H    5.721712   5.800377   2.791631   2.144751   3.168032
    25  H    6.405263   4.965162   4.614534   4.486138   4.699709
    26  H    5.968156   4.362407   5.025793   5.211243   5.322290
    27  H    7.197019   6.179017   5.929575   6.520446   7.073504
[...]
 -0.00001824,-0.00000979,0.00002788,0.00000244,0.00003677,-0.00004210,-
 0.00009444,0.00000015,-0.05719719,0.11779996,-0.18533116,-0.00327196,0
 .00881732,-0.01085245,0.00103892,-0.00036242,0.00166745,-0.00000058,0.
 00023578,-0.00015636,-0.00015761,-0.00005676,0.00004985,-0.00000441,-0
 .00000282,-0.00000195,0.00004762,-0.00003106,0.00003209,-0.00003442,0.
 00005632,0.00000129,-0.00000746,-0.00000408,0.00000360,0.00000908,-0.0
 0000069,0.00000277,0.00003695,0.00001089,-0.00001525,0.05958388,-0.127
 54583,0.19969869,-0.00304711,-0.00106260,0.00562583,0.00233574,0.02469
 237,0.00449545,-0.00025745,-0.00178170,-0.00024583,0.00017885,0.000003
 94,-0.00018547,-0.00011563,0.00018979,0.00030712,0.00008605,-0.0000208
 2,-0.00011878,0.00012013,-0.00017500,-0.00022685,0.00004831,0.00000709
 ,-0.00003653,-0.00002626,0.00001144,0.00004309,-0.00000242,0.00005515,
 0.00003201,-0.00000054,-0.00000669,-0.00004523,0.00000931,0.00000104,0
 .00001045,-0.00000197,-0.00008098,-0.00003638,-0.05751405,0.03472732,0
 .01321909,0.00323658,-0.02957483,-0.01311909,0.00155811,0.00010067,-0.
 00038063,-0.00179009,-0.00028705,0.00074696,0.00007342,0.00001836,-0.0
 0007630,0.00001384,0.00002219,-0.00000212,-0.00000800,-0.00001944,-0.0
 0000474,0.00007620,-0.00004663,-0.00001411,-0.00003342,-0.00000768,0.0
 0000212,0.00000159,-0.00000348,-0.00000264,0.00002570,-0.00000657,0.00
 000461,-0.00120420,0.00744520,0.00375315,0.06080570,0.00023166,0.00109
 933,0.00118136,-0.00126425,0.00106084,0.00017268,-0.00063537,0.0002361
 6,0.00063055,0.00018226,0.00050963,-0.00022883,0.00003940,-0.00004094,
 -0.00005391,0.00000529,0.00001516,0.00000295,0.00001668,-0.00000951,0.
 00005256,-0.00011001,-0.00006571,0.00005912,0.00001872,-0.00003813,-0.
 00001452,-0.00001631,-0.00002624,-0.00000876,-0.00000645,0.00000318,0.
 00003076,-0.00000569,0.00000031,-0.00001759,0.00001223,0.00006705,0.00
 002658,0.03365086,-0.26939380,-0.09250846,0.00151664,-0.00776622,-0.00
 352446,-0.00014474,0.00030310,0.00046553,0.00006613,0.00044166,0.00036
 123,0.00000670,-0.00001725,0.00002523,-0.00000798,0.00000380,-0.000002
 79,-0.00000650,0.00004258,0.00000776,-0.00001958,0.00001552,0.00001733
 ,0.00002719,0.00001966,-0.00001035,-0.00000438,0.00000180,-0.00000048,
 -0.00002044,-0.00000333,-0.00000104,0.00263292,-0.01678627,-0.00794170
 ,-0.03351671,0.28905666,0.00412374,0.00050394,-0.00409751,-0.00039384,
 -0.02146508,-0.00820193,-0.00152059,0.00118270,0.00087569,0.00000990,0
 .00034919,-0.00040745,0.00008799,-0.00001351,-0.00003430,-0.00005740,-
 0.00002922,0.00003141,-0.00008904,0.00004948,-0.00000997,-0.00014389,-
 0.00006460,0.00010516,-0.00000945,0.00001231,0.00000761,0.00001056,0.0
 0001569,0.00001565,-0.00000549,-0.00000099,-0.00001232,0.00000819,0.00
 000460,-0.00000092,-0.00000915,-0.00003317,-0.00001422,0.01257862,-0.0
 9123208,-0.08427339,0.00276976,-0.01202395,-0.00629957,-0.00013766,0.0
 0056225,0.00063638,0.00083789,-0.00000537,0.00079646,0.00003867,-0.000
 03906,0.00003787,0.00001499,-0.00000742,-0.00000482,-0.00003473,0.0000
 6186,-0.00000298,-0.00004738,0.00002587,-0.00001479,-0.00001420,-0.000
 00743,0.00001591,0.00000412,-0.00000072,-0.00000017,0.00000051,-0.0000
 0327,-0.00000577,-0.00297856,0.02216472,0.01065503,-0.01330401,0.10136
 129,0.09027932,0.00016892,0.00010574,0.00133105,0.00113284,-0.00020478
 ,-0.00239191,-0.00038695,-0.00032593,0.00044564,0.00003435,0.00000182,
 -0.00010369,0.00001456,0.00005212,-0.00000110,-0.00003643,-0.00003669,
 0.00002151,-0.00000767,-0.00004036,0.00002472,-0.00001790,0.00000143,-
 0.00000653,-0.00001399,-0.00001741,-0.00003969,-0.00003077,0.00000291,
 0.00002096,-0.00001722,-0.00001622,0.00001858,0.00001240,-0.00000955,0
 .00000526,-0.00001041,0.00001027,0.00001174,-0.01011402,0.01836292,-0.
 01658553,-0.09862015,0.08480376,-0.07512656,0.00557185,-0.02299916,0.0
 2418394,0.00001271,0.00017336,-0.00008415,-0.00004594,0.00000257,0.000
 03865,0.00000202,0.00001329,-0.00001514,-0.00001411,0.00000198,0.00001
 380,0.00000339,0.00000274,-0.00000656,0.00002183,0.00001652,-0.0000033
 9,0.00000417,0.00000099,0.00000198,0.00001250,-0.00000245,-0.00000936,
 -0.00412892,-0.00259726,-0.00147386,0.00129510,-0.00025914,0.00059068,
 0.10793768,-0.00030012,0.00034335,-0.00064382,0.00057990,0.00076048,0.
 00020899,0.00010057,-0.00043289,0.00001730,0.00000375,-0.00000057,0.00
 000824,-0.00002946,0.00003344,0.00002945,0.00001906,-0.00000417,-0.000
 01245,0.00002139,-0.00003785,-0.00001460,0.00000354,0.00001728,-0.0000
 1002,-0.00000641,-0.00001087,-0.00001287,-0.00001044,0.00000522,0.0000
 0732,-0.00000280,-0.00000810,0.00000639,0.00000338,-0.00000360,-0.0000
 0209,0.00000357,0.00000524,0.00000645,-0.00505267,0.01025537,-0.009275
 60,0.07652760,-0.18057445,0.11566926,0.00068945,-0.00376496,0.00295521
 ,-0.00004579,0.00004561,-0.00003793,-0.00001600,0.00000727,0.00000317,
 -0.00000314,0.00000620,0.00000054,0.00000276,-0.00000478,0.00000401,0.
 00000048,-0.00000658,0.00000140,0.00000621,0.00000547,-0.00000211,-0.0
 0000051,0.00000005,0.00000046,-0.00000255,-0.00000067,0.00000059,-0.00
 302287,-0.00008137,-0.00128649,0.00059605,0.00097174,-0.00019111,-0.07
 882690,0.18668570,0.00001483,0.00038903,-0.00025153,-0.00010882,-0.000
 26306,0.00032103,0.00014529,0.00000991,0.00002114,-0.00002144,-0.00002
 998,0.00006842,-0.00004143,0.00000850,0.00004219,0.00003277,0.00001208
 ,-0.00002646,0.00003193,-0.00001560,-0.00002598,0.00000390,-0.00000052
 ,-0.00001225,-0.00000141,-0.00000256,-0.00000372,-0.00000156,0.0000044
 3,-0.00000036,0.00000129,-0.00000330,0.00000370,-0.00000077,-0.0000024
 9,-0.00000597,0.00000687,0.00000436,0.00000370,-0.00674414,0.00786965,
 -0.00709435,-0.06653558,0.10968436,-0.15056130,-0.00386947,0.01790097,
 -0.01927316,-0.00006778,0.00004240,-0.00004108,0.00000546,-0.00000185,
 -0.00000173,-0.00000164,-0.00000146,0.00000751,0.00000586,-0.00000293,
 0.00000097,-0.00000524,-0.00000674,0.00000640,-0.00000032,0.00000115,-
 0.00000085,-0.00000105,-0.00000017,-0.00000019,-0.00000764,-0.00000018
 ,0.00000220,-0.00191940,-0.00097234,0.00001415,0.00075082,0.00028107,0
 .00023584,0.07050210,-0.12479365,0.16547481,-0.00076895,0.00276549,0.0
 0194015,-0.00028753,-0.00380596,-0.00372910,0.00100347,0.00154789,0.00
 122685,-0.00023863,0.00000069,0.00022820,-0.00008389,-0.00021333,-0.00
 008797,0.00006055,0.00007660,0.00000241,0.00003832,0.00017381,0.000088
 57,-0.00000902,-0.00001728,-0.00003325,0.00001979,-0.00001359,-0.00004
 693,-0.00000083,-0.00001517,-0.00002396,0.00000839,-0.00000514,0.00005
 887,-0.00000494,-0.00002077,-0.00003014,0.00002847,0.00006847,0.000045
 54,0.00616865,-0.02456768,-0.01291403,-0.05447812,0.03912737,0.0190428
 0,-0.01068485,0.01987980,0.01685512,0.00053645,0.00003072,-0.00021162,
 -0.00003867,-0.00004665,-0.00001849,-0.00002950,-0.00002664,0.00001979
 ,0.00003482,0.00000602,0.00001328,-0.00006739,0.00003172,0.00004033,0.
 00000539,-0.00000189,-0.00001246,-0.00000382,0.00000079,0.00000045,-0.
 00004535,0.00000841,-0.00000235,0.00094733,0.00047321,-0.00010680,-0.0
 0546707,-0.00134616,-0.00196345,-0.00096261,0.01000607,0.00556716,0.06
 599852,0.00233740,0.00093219,0.00097843,0.00020341,-0.00166168,-0.0027
 2861,0.00006562,0.00045716,0.00023452,-0.00003815,-0.00002914,0.000016
 20,-0.00000128,-0.00003937,-0.00001956,-0.00000152,0.00000444,0.000008
 77,-0.00000015,0.00003549,0.00002497,0.00001192,0.00000814,-0.00001157
 ,-0.00000391,0.00001847,-0.00001888,-0.00000233,-0.00000392,-0.0000039
 6,0.00000037,-0.00001499,0.00000410,0.00000327,-0.00000386,0.00002265,
 -0.00001254,-0.00000471,-0.00000332,-0.00087070,-0.00872016,-0.0038495
 0,0.04733592,-0.25966674,-0.12013374,-0.00563054,0.01218655,0.01063663
 ,0.00005988,0.00007781,0.00001849,-0.00001162,-0.00001588,0.00000911,-
 0.00000381,-0.00000128,-0.00000111,0.00000753,0.00000070,0.00000728,-0
 .00001824,0.00002314,0.00000505,0.00000451,0.00000046,-0.00000303,0.00
 000415,0.00000045,0.00000193,0.00001421,0.00000942,-0.00000228,-0.0002
 0789,0.00075722,0.00012385,-0.00152057,0.00102157,-0.00104867,0.003002
 44,-0.01532960,-0.01076073,-0.04338339,0.26868731,0.00160676,0.0005113
 0,-0.00153168,0.00076848,0.00040712,0.00089220,-0.00025355,-0.00078095
 ,-0.00062853,0.00009474,0.00007159,-0.00001237,0.00003678,0.00002319,0
 .00000080,-0.00001123,-0.00000258,-0.00000462,-0.00002921,-0.00003757,
 -0.00001419,-0.00000388,0.00000251,0.00002852,0.00000607,-0.00001139,0
 .00002504,0.00001114,-0.00000621,-0.00000219,0.00000772,0.00001346,-0.
 00002454,-0.00000762,0.00001662,-0.00000443,0.00001243,0.00000393,-0.0
 0001068,-0.00075446,-0.01351381,-0.00635625,0.02072720,-0.11122859,-0.
 11531378,0.00936848,-0.01777187,-0.01630520,-0.00007490,-0.00001765,0.
 00013139,-0.00000920,0.00001745,0.00000875,0.00000641,0.00000165,0.000
 00482,-0.00000111,0.00001201,-0.00000859,0.00000395,-0.00000894,0.0000
 0536,-0.00000324,-0.00000058,0.00000620,-0.00000754,0.00000004,-0.0000
 0017,-0.00000986,-0.00000473,0.00001397,0.00067034,0.00004202,0.000242
 81,-0.00156801,-0.00029776,-0.00067872,-0.00438901,0.01727565,0.012780
 78,-0.02830474,0.12478145,0.12831433,-0.00026700,-0.00080482,-0.001142
 25,-0.00125454,0.00038990,0.00204310,0.00053437,0.00004512,-0.00037801
 ,-0.00015748,0.00005134,0.00016554,-0.00017281,-0.00013778,0.00004274,
 0.00016759,0.00009425,-0.00007334,0.00011059,0.00006371,-0.00004270,0.
 00002305,0.00002960,-0.00001373,0.00001448,0.00003563,0.00000146,0.000
 02938,0.00000821,-0.00002421,0.00003594,-0.00001475,0.00000211,-0.0000
 0595,-0.00000590,0.00001061,0.00001283,-0.00001844,-0.00000167,0.00180
 323,0.00160460,-0.00074868,-0.00495329,0.02054484,0.01214530,-0.081526
 73,0.07392524,0.04273740,-0.00014702,-0.00012774,-0.00003136,0.0000354
 3,-0.00000166,-0.00002985,-0.00003786,-0.00001665,0.00002946,0.0000346
 8,-0.00001559,-0.00000005,-0.00002308,0.00000765,0.00001575,-0.0000279
 9,-0.00002054,-0.00000551,-0.00000444,-0.00000211,-0.00000024,-0.00001
 687,0.00001635,0.00000728,-0.00040920,0.00018772,-0.00010033,-0.000397
 31,-0.00106307,-0.00012341,0.00121517,-0.00023229,-0.00087947,-0.00270
 086,-0.00270045,0.00271607,0.07960437,-0.00063940,-0.00040529,-0.00020
 632,0.00028113,0.00016494,0.00028324,-0.00037625,-0.00032870,-0.000004
 04,0.00006443,-0.00002779,-0.00009161,0.00000168,0.00015333,0.00010379
 ,-0.00001672,-0.00005188,-0.00001672,0.00000878,-0.00011972,-0.0000648
 6,-0.00001036,0.00000099,0.00000937,-0.00000567,0.00000181,0.00001002,
 -0.00000979,0.00001570,0.00001050,-0.00001215,-0.00001280,-0.00001171,
 0.00000322,0.00000256,0.00001010,-0.00001106,-0.00002574,-0.00001566,0
 .00048658,0.00185717,0.00129954,0.00054687,0.01271539,0.00308533,0.066
 48438,-0.28921774,-0.14490934,-0.00006896,0.00009663,0.00004425,-0.000
 00975,0.00001020,0.00001288,0.00001183,0.00001896,-0.00001104,-0.00001
 616,0.00000155,0.00000041,0.00001880,-0.00001453,-0.00001126,0.0000047
 4,0.00000561,0.00000392,0.00000682,0.00000011,-0.00000036,0.00001793,0
 .00000203,-0.00000169,0.00021563,-0.00019590,-0.00002043,-0.00000074,-
 0.00068478,-0.00024196,-0.00021979,0.00050388,0.00051415,-0.00216142,-
 0.00019047,0.00179287,-0.07324011,0.30367082,0.00028260,0.00026336,0.0
 0027155,0.00016728,-0.00035683,-0.00117458,-0.00037723,-0.00000178,0.0
 0020069,0.00007378,-0.00007186,-0.00006679,0.00003411,0.00008501,0.000
 06896,-0.00004521,-0.00003578,-0.00000737,-0.00003014,-0.00004778,-0.0
 0004815,0.00000289,-0.00001798,0.00001126,-0.00001156,0.00000536,0.000
 01725,0.00000391,0.00000184,0.00001795,0.00000349,-0.00000056,-0.00003
 594,-0.00000062,0.00002711,0.00002005,-0.00000840,-0.00002964,-0.00003
 538,-0.00116416,0.00061396,0.00169092,0.00613897,-0.01815080,-0.012101
 87,0.03994814,-0.15275847,-0.15696044,0.00002403,0.00004694,0.00008938
 ,-0.00001156,-0.00000380,0.00000735,0.00002023,0.00000102,-0.00000243,
 -0.00001027,0.00001274,-0.00000723,0.00000724,-0.00000194,-0.00000826,
 -0.00000136,0.00000081,0.00001402,0.00000095,0.00000012,0.00000161,0.0
 0001072,-0.00000254,0.00000257,-0.00004186,0.00028571,0.00004829,0.000
 61454,-0.00002421,0.00041473,-0.00083813,-0.00019989,-0.00016650,0.002
 76421,0.00275666,-0.00201419,-0.04736524,0.15859434,0.16108313,0.00076
 426,0.00058553,0.00039553,-0.00046030,-0.00166275,-0.00206131,-0.00021
 467,0.00030554,0.00050385,-0.00006239,-0.00009798,-0.00004997,-0.00012
 649,-0.00003392,0.00009244,0.00006153,0.00002210,-0.00004447,0.0000612
 5,0.00002590,-0.00003138,-0.00000326,-0.00000186,0.00000604,0.00001355
 ,0.00000793,0.00000471,0.00001717,-0.00000003,-0.00001032,0.00002378,0
 .00000091,0.00000130,-0.00000652,0.00000474,-0.00000788,0.00001793,0.0
 0000246,0.00000312,-0.00264969,-0.00014272,0.00458808,-0.01673910,-0.0
 0658244,-0.00816280,-0.29501771,-0.09737447,-0.13472740,-0.00002248,-0
 .00001288,0.00000478,0.00000249,-0.00000520,-0.00000769,-0.00001458,-0
 .00001176,0.00001072,0.00001379,0.00000528,-0.00000435,-0.00001963,0.0
 0000788,0.00000886,-0.00001437,-0.00000989,-0.00000026,-0.00000783,-0.
 00000115,-0.00000064,-0.00002441,0.00000344,0.00000579,0.00049064,0.00
 016348,0.00017984,0.00013521,-0.00017283,0.00003919,0.00139910,-0.0001
 3461,-0.00044918,0.00024571,0.00102589,-0.00034810,0.01178327,0.003799
 42,0.00582385,0.30867460,0.00024970,0.00002663,0.00012846,-0.00017142,
 0.00004152,-0.00072402,-0.00004137,-0.00000011,0.00009285,-0.00002296,
 -0.00005138,0.00000295,-0.00005459,0.00001810,0.00005699,0.00003329,-0
 .00000002,-0.00002185,0.00003588,-0.00002167,-0.00002592,0.00001189,0.
 00001615,-0.00000231,0.00000149,0.00001727,0.00000100,0.00000635,0.000
 00287,-0.00000708,0.00000943,-0.00001573,-0.00000477,-0.00000142,0.000
 00283,0.00001834,-0.00000332,-0.00001736,-0.00001080,-0.00081965,0.000
 12767,0.00166964,-0.00479684,-0.00239495,-0.00168173,-0.09685337,-0.10
 456834,-0.05591575,-0.00004104,0.00000620,-0.00001413,-0.00000517,0.00
 000144,-0.00000014,-0.00000803,0.00000465,0.00000107,0.00000626,-0.000
 00395,0.00000213,-0.00000612,0.00000361,0.00000230,-0.00000593,-0.0000
 0483,-0.00000159,0.00000370,0.00000022,0.00000079,0.00000591,0.0000125
 8,0.00000130,-0.00005394,0.00015621,-0.00021344,0.00030028,0.00020557,
 -0.00004890,-0.00027768,-0.00048480,0.00012141,0.00110581,0.00050495,-
 0.00023726,-0.02830962,-0.00860962,-0.01299644,0.10484849,0.10197409,-
 0.00018557,-0.00023608,-0.00045929,0.00068099,0.00101747,0.00202822,0.
 00065995,-0.00005658,-0.00062226,-0.00008973,0.00014893,0.00013053,-0.
 00006013,-0.00009436,-0.00002004,0.00009922,0.00006709,-0.00003499,0.0
 0004733,0.00004169,-0.00001709,0.00000626,0.00002707,0.00000087,0.0000
 0320,0.00001734,-0.00000616,0.00001065,0.00000134,-0.00001147,0.000016
 00,-0.00000874,-0.00000663,-0.00000044,-0.00000333,0.00001792,0.000004
 23,-0.00001014,-0.00000526,0.00275494,0.00034506,-0.00530085,0.0193118
 6,0.00840518,0.01631433,-0.12504563,-0.05203507,-0.12813739,-0.0000681
 2,-0.00012121,-0.00002852,0.00003692,0.00000694,-0.00002139,-0.0000206
 5,-0.00000797,0.00002267,0.00001948,-0.00001046,-0.00000121,-0.0000118
 9,-0.00000210,0.00000986,-0.00001037,-0.00000853,-0.00000311,-0.000002
 44,-0.00000090,0.00000168,-0.00000314,0.00000940,0.00000734,-0.0002717
 7,-0.00034895,-0.00002930,-0.00014006,0.00009100,-0.00003909,-0.000072
 17,0.00069178,0.00033769,0.00020276,-0.00043785,0.00054035,-0.01696360
 ,-0.00438798,-0.00839310,0.13781019,0.05779658,0.13344088,0.00001092,-
 0.00019104,-0.00072834,-0.00096286,0.00062626,0.00081084,0.00038589,0.
 00010828,-0.00019584,-0.00008758,-0.00003369,0.00016556,-0.00012894,-0
 .00014242,0.00001734,0.00011663,0.00008300,-0.00005299,0.00006902,0.00
 008338,-0.00001650,0.00002971,0.00001743,-0.00000204,0.00002046,0.0000
 1601,0.00001394,0.00003813,-0.00001189,-0.00002267,0.00004814,0.000008
 11,-0.00000992,-0.00001699,0.00001712,-0.00000538,0.00003279,0.0000045
 3,0.00000235,0.00248216,-0.00091969,0.00122514,0.01247755,-0.01915779,
 0.01485596,-0.09646398,0.07597734,-0.07041592,-0.00004729,-0.00012462,
 -0.00002002,0.00002415,-0.00000217,-0.00002687,-0.00002727,-0.00002484
 ,0.00002868,0.00003302,-0.00000527,-0.00000940,-0.00002334,0.00000784,
 0.00001978,-0.00002625,-0.00001945,-0.00000125,-0.00001558,-0.00000114
 ,-0.00000106,-0.00003747,0.00000850,0.00001637,-0.00106897,0.00056254,
 -0.00114572,-0.00013433,0.00019294,-0.00028257,-0.00443151,-0.00087721
 ,0.00358805,0.00077619,0.00033060,-0.00026092,-0.00330193,0.00484610,-
 0.00601519,-0.00832086,0.02485397,-0.01871825,0.09855036,0.00040156,-0
 .00041134,-0.00049200,-0.00084033,0.00045956,0.00092571,0.00053843,0.0
 0008560,-0.00027810,-0.00015979,0.00005424,0.00015288,-0.00013479,-0.0
 0008653,0.00003400,0.00014125,0.00006410,-0.00005373,0.00009982,0.0000
 2802,-0.00003377,0.00002533,0.00004757,-0.00002919,0.00000457,0.000047
 83,-0.00001598,0.00001299,0.00001898,-0.00002495,0.00001071,-0.0000441
 0,0.00001531,0.00000090,-0.00002126,0.00003613,-0.00001382,-0.00003813
 ,-0.00001081,0.00068417,-0.00025011,-0.00140743,-0.00102646,-0.0029697
 4,0.00491264,0.08251095,-0.23184376,0.14944034,-0.00010388,-0.00007767
 ,-0.00004013,0.00002663,-0.00000503,-0.00002040,-0.00003395,0.00000068
 ,0.00001555,0.00002849,-0.00002199,0.00001384,-0.00002368,0.00001356,0
 .00001296,-0.00001880,-0.00001616,-0.00000830,0.00001680,-0.00000063,0
 .00000094,0.00001675,0.00003064,-0.00000653,-0.00061528,0.00018636,-0.
 00006223,-0.00005939,-0.00024313,0.00016262,-0.00072154,0.00109897,0.0
 0001407,0.00032220,0.00095630,-0.00105297,0.00970738,-0.01933673,0.022
 00530,-0.00456450,0.01305020,-0.01089660,-0.08623270,0.23922368,-0.000
 24089,-0.00032474,-0.00005766,0.00000530,0.00001472,-0.00023606,-0.000
 46551,-0.00015104,0.00011687,0.00010595,-0.00006239,-0.00011931,0.0000
 6053,0.00010279,0.00005102,-0.00007268,-0.00004865,0.00000860,-0.00005
 114,-0.00005550,-0.00003522,-0.00000016,-0.00002425,0.00003356,-0.0000
 1556,0.00001091,0.00002434,0.00001136,-0.00001338,0.00002326,0.0000165
 4,0.00000893,-0.00006022,-0.00000014,0.00004513,0.00003793,-0.00001225
 ,-0.00003837,-0.00004776,-0.00024944,-0.00088901,0.00223671,-0.0059731
 3,0.01607857,-0.01559628,-0.07847405,0.15299701,-0.19788036,0.00004369
 ,0.00004267,0.00007655,-0.00001510,0.00000657,0.00001234,0.00002385,0.
 00000267,-0.00000595,-0.00001679,0.00001656,-0.00001426,0.00001784,-0.
 00000410,-0.00001734,-0.00000113,0.00000059,0.00001623,-0.00000570,0.0
 0000036,0.00000350,0.00001540,-0.00000399,0.00000779,0.00044555,0.0005
 0945,0.00039169,-0.00009843,-0.00013210,-0.00000912,0.00393619,-0.0004
 0358,-0.00185508,-0.00061122,-0.00060726,-0.00008520,0.00800682,-0.015
 77974,0.01706253,-0.00357255,0.01201032,-0.00971519,0.07718684,-0.1633
 0914,0.20563209\\-0.00000013,-0.00000003,-0.00000046,0.00000155,0.0000
 0154,-0.00000141,-0.00000122,-0.00000389,0.00000231,0.00000021,0.00000
 009,0.00000157,0.00000130,0.00000093,-0.00000008,0.00000142,0.00000150
 ,0.00000089,-0.00000011,-0.00000059,0.00000055,0.00000065,0.00000167,-
 0.00000006,-0.00000185,0.00000103,0.00000102,0.00000103,0.00000054,-0.
 00000013,0.00000011,-0.00000186,-0.00000068,-0.00000041,-0.00000045,-0
 .00000017,-0.00000037,-0.00000103,-0.00000049,-0.00000054,0.00000036,0
 .00000019,-0.00000271,0.00000059,0.00000335,-0.00000009,-0.00000041,-0
 .00000106,-0.00000031,-0.00000006,-0.00000033,0.00000068,0.00000064,0.
 00000094,-0.00000065,0.00000066,0.00000211,-0.00000056,0.00000133,-0.0
 0000093,0.00000018,0.00000065,-0.00000044,-0.00000102,-0.00000147,0.00
 000021,-0.00000007,-0.00000080,-0.00000108,-0.00000004,0.00000022,-0.0
 0000092,-0.00000015,-0.00000065,-0.00000093,-0.00000076,-0.00000052,0.
 00000028,0.00000150,0.00000113,-0.00000053,0.00000258,0.00000022,-0.00
 000135,-0.00000007,-0.00000064,-0.00000055,0.00000003,-0.00000015,-0.0
 0000072,-0.00000019,-0.00000055,-0.00000108\\\@


 GROWING OLD ISN'T SO BAD -- WHEN YOU CONSIDER THE ALTERNATIVE.

                     -- MAURICE CHEVALIER
 Job cpu time:       0 days  2 hours 50 minutes 12.9 seconds.
 File lengths (MBytes):  RWF=    460 Int=      0 D2E=      0 Chk=     13 Scr=      1
 Normal termination of Gaussian 09 at Thu Jul 29 00:15:59 2021.
