 Entering Gaussian System, Link 0=g09
 Input=opt_freq-conf-342.com
 Output=opt_freq-conf-342.log
 Initial command:
 /aerosol/software/g09/l1.exe "/scratch/nicole/10653/Gau-86580.inp" -scrdir="/scratch/nicole/10653/"
 Entering Link 1 = /aerosol/software/g09/l1.exe PID=     86585.
  
 Copyright (c) 1988,1990,1992,1993,1995,1998,2003,2009,2013,
            Gaussian, Inc.  All Rights Reserved.
  
 This is part of the Gaussian(R) 09 program.  It is based on
 the Gaussian(R) 03 system (copyright 2003, Gaussian, Inc.),
 the Gaussian(R) 98 system (copyright 1998, Gaussian, Inc.),
 the Gaussian(R) 94 system (copyright 1995, Gaussian, Inc.),
 the Gaussian 92(TM) system (copyright 1992, Gaussian, Inc.),
 the Gaussian 90(TM) system (copyright 1990, Gaussian, Inc.),
 the Gaussian 88(TM) system (copyright 1988, Gaussian, Inc.),
 the Gaussian 86(TM) system (copyright 1986, Carnegie Mellon
 University), and the Gaussian 82(TM) system (copyright 1983,
 Carnegie Mellon University). Gaussian is a federally registered
 trademark of Gaussian, Inc.
  
 This software contains proprietary and confidential information,
 including trade secrets, belonging to Gaussian, Inc.
  
 This software is provided under written license and may be
 used, copied, transmitted, or stored only in accord with that
 written license.
  
 The following legend is applicable only to US Government
 contracts under FAR:
  
                    RESTRICTED RIGHTS LEGEND
  
 Use, reproduction and disclosure by the US Government is
 subject to restrictions as set forth in subparagraphs (a)
 and (c) of the Commercial Computer Software - Restricted
 Rights clause in FAR 52.227-19.
  
 Gaussian, Inc.
 340 Quinnipiac St., Bldg. 40, Wallingford CT 06492
  
  
 ---------------------------------------------------------------
 Warning -- This program may not be used in any manner that
 competes with the business of Gaussian, Inc. or will provide
 assistance to any competitor of Gaussian, Inc.  The licensee
 of this program is prohibited from giving any competitor of
 Gaussian, Inc. access to this program.  By using this program,
 the user acknowledges that Gaussian, Inc. is engaged in the
 business of creating and licensing software in the field of
 computational chemistry and represents and warrants to the
 licensee that it is not a competitor of Gaussian, Inc. and that
 it will not use this program in any manner prohibited above.
 ---------------------------------------------------------------
  

 Cite this work as:
 Gaussian 09, Revision D.01,
 M. J. Frisch, G. W. Trucks, H. B. Schlegel, G. E. Scuseria, 
 M. A. Robb, J. R. Cheeseman, G. Scalmani, V. Barone, B. Mennucci, 
 G. A. Petersson, H. Nakatsuji, M. Caricato, X. Li, H. P. Hratchian, 
 A. F. Izmaylov, J. Bloino, G. Zheng, J. L. Sonnenberg, M. Hada, 
 M. Ehara, K. Toyota, R. Fukuda, J. Hasegawa, M. Ishida, T. Nakajima, 
 Y. Honda, O. Kitao, H. Nakai, T. Vreven, J. A. Montgomery, Jr., 
 J. E. Peralta, F. Ogliaro, M. Bearpark, J. J. Heyd, E. Brothers, 
 K. N. Kudin, V. N. Staroverov, T. Keith, R. Kobayashi, J. Normand, 
 K. Raghavachari, A. Rendell, J. C. Burant, S. S. Iyengar, J. Tomasi, 
 M. Cossi, N. Rega, J. M. Millam, M. Klene, J. E. Knox, J. B. Cross, 
 V. Bakken, C. Adamo, J. Jaramillo, R. Gomperts, R. E. Stratmann, 
 O. Yazyev, A. J. Austin, R. Cammi, C. Pomelli, J. W. Ochterski, 
 R. L. Martin, K. Morokuma, V. G. Zakrzewski, G. A. Voth, 
 P. Salvador, J. J. Dannenberg, S. Dapprich, A. D. Daniels, 
 O. Farkas, J. B. Foresman, J. V. Ortiz, J. Cioslowski, 
 and D. J. Fox, Gaussian, Inc., Wallingford CT, 2013.
 
 ******************************************
 Gaussian 09:  ES64L-G09RevD.01 24-Apr-2013
                28-Jul-2021 
 ******************************************
 %mem=2gb
 %nproc=4
 Will use up to    4 processors via shared memory.
 %chk=conf-342.chk
 ----------------------------------------------------------------------
 # B3LYP/6-31+G(d,p) opt=calcfc freq=noraman nosymm integral(ultrafineg
 rid)
 ----------------------------------------------------------------------
 1/10=4,14=-1,18=20,19=15,26=4,38=1/1,3;
 2/9=110,12=2,15=1,17=6,18=5,40=1/2;
 3/5=1,6=6,7=111,11=2,16=1,25=1,30=1,71=2,74=-5,75=-5,140=1/1,2,3;
 4//1;
 5/5=2,38=5/2;
 8/6=4,10=90,11=11/1;
 11/6=1,8=1,9=11,15=111,16=1,31=1/1,2,10;
 10/6=1,13=1,31=1/2;
 6/7=2,8=2,9=2,10=2,28=1/1;
 7/10=1,18=20,25=1,30=1/1,2,3,16;
 1/10=4,14=-1,18=20,19=15,26=4/3(2);
 2/9=110,15=1/2;
 99//99;
 2/9=110,15=1/2;
 3/5=1,6=6,7=111,11=2,16=1,25=1,30=1,71=1,74=-5,75=-5/1,2,3;
 4/5=5,16=3,69=1/1;
 5/5=2,38=5/2;
 7/30=1/1,2,3,16;
 1/14=-1,18=20,19=15,26=4/3(-5);
 2/9=110,15=1/2;
 6/7=2,8=2,9=2,10=2,19=2,28=1/1;
 99/9=1/99;
 ------------------------------------------------------------
 Candidate Structure: Conf:342 OPT and FREQ calc in gas phase
 ------------------------------------------------------------
 Symbolic Z-matrix:
 Charge =  1 Multiplicity = 1
 O                     0.48802  -1.04421  -0.1281 
 C                     1.12385  -0.01749  -0.37361 
 N                     0.49047   1.13594  -0.6784 
 C                    -0.95233   1.1798   -0.7779 
 C                    -1.31346   2.46054  -1.51699 
 O                    -2.62801   2.61896  -1.77297 
 O                    -0.51      3.28466  -1.8519 
 C                    -1.63884   1.09438   0.62074 
 C                    -2.6427   -0.01018   0.70235 
 C                    -3.98987  -0.02168   0.90501 
 N                    -4.47679  -1.31734   0.86655 
 C                    -3.42519  -2.06674   0.63906 
 N                    -2.29364  -1.32744   0.53059 
 C                     2.63954   0.02136  -0.38261 
 C                     3.23439  -0.9979    0.57318 
 N                     4.72017  -1.02743   0.50222 
 H                     0.98137   1.94095  -1.03734 
 H                    -1.27896   0.34084  -1.40351 
 H                    -3.11555   1.84612  -1.4643 
 H                    -2.13152   2.03418   0.87054 
 H                    -0.86367   0.94257   1.36936 
 H                    -4.64492   0.82058   1.07669 
 H                    -3.41306  -3.13835   0.54534 
 H                    -1.35254  -1.64532   0.35214 
 H                     2.98248   1.02797  -0.1359 
 H                     2.97543  -0.20079  -1.39969 
 H                     2.83034  -1.97896   0.32785 
 H                     2.92493  -0.76764   1.59206 
 H                     5.03857  -1.26512  -0.43712 
 H                     5.12401  -0.12292   0.74615 
 H                     5.11721  -1.71841   1.14051 
 

 GradGradGradGradGradGradGradGradGradGradGradGradGradGradGradGradGradGrad
 Berny optimization.
 Initialization pass.
                           ----------------------------
                           !    Initial Parameters    !
                           ! (Angstroms and Degrees)  !
 --------------------------                            --------------------------
 ! Name  Definition              Value          Derivative Info.                !
 --------------------------------------------------------------------------------
 ! R1    R(1,2)                  1.2324         calculate D2E/DX2 analytically  !
 ! R2    R(2,3)                  1.3507         calculate D2E/DX2 analytically  !
 ! R3    R(2,14)                 1.5162         calculate D2E/DX2 analytically  !
 ! R4    R(3,4)                  1.4469         calculate D2E/DX2 analytically  !
 ! R5    R(3,17)                 1.0089         calculate D2E/DX2 analytically  !
 ! R6    R(4,5)                  1.5222         calculate D2E/DX2 analytically  !
 ! R7    R(4,8)                  1.5604         calculate D2E/DX2 analytically  !
 ! R8    R(4,18)                 1.0963         calculate D2E/DX2 analytically  !
 ! R9    R(5,6)                  1.3486         calculate D2E/DX2 analytically  !
 ! R10   R(5,7)                  1.1987         calculate D2E/DX2 analytically  !
 ! R11   R(6,19)                 0.9645         calculate D2E/DX2 analytically  !
 ! R12   R(8,9)                  1.4948         calculate D2E/DX2 analytically  !
 ! R13   R(8,20)                 1.0901         calculate D2E/DX2 analytically  !
 ! R14   R(8,21)                 1.0883         calculate D2E/DX2 analytically  !
 ! R15   R(9,10)                 1.3624         calculate D2E/DX2 analytically  !
 ! R16   R(9,13)                 1.3735         calculate D2E/DX2 analytically  !
 ! R17   R(10,11)                1.3847         calculate D2E/DX2 analytically  !
 ! R18   R(10,22)                1.0807         calculate D2E/DX2 analytically  !
 ! R19   R(11,12)                1.3112         calculate D2E/DX2 analytically  !
 ! R20   R(12,13)                1.356          calculate D2E/DX2 analytically  !
 ! R21   R(12,23)                1.0758         calculate D2E/DX2 analytically  !
 ! R22   R(13,24)                1.0092         calculate D2E/DX2 analytically  !
 ! R23   R(14,15)                1.5186         calculate D2E/DX2 analytically  !
 ! R24   R(14,25)                1.0917         calculate D2E/DX2 analytically  !
 ! R25   R(14,26)                1.0939         calculate D2E/DX2 analytically  !
 ! R26   R(15,16)                1.4878         calculate D2E/DX2 analytically  !
 ! R27   R(15,27)                1.089          calculate D2E/DX2 analytically  !
 ! R28   R(15,28)                1.0895         calculate D2E/DX2 analytically  !
 ! R29   R(16,29)                1.0199         calculate D2E/DX2 analytically  !
 ! R30   R(16,30)                1.0202         calculate D2E/DX2 analytically  !
 ! R31   R(16,31)                1.021          calculate D2E/DX2 analytically  !
 ! A1    A(1,2,3)              120.9619         calculate D2E/DX2 analytically  !
 ! A2    A(1,2,14)             122.5677         calculate D2E/DX2 analytically  !
 ! A3    A(3,2,14)             116.457          calculate D2E/DX2 analytically  !
 ! A4    A(2,3,4)              120.5963         calculate D2E/DX2 analytically  !
 ! A5    A(2,3,17)             122.2413         calculate D2E/DX2 analytically  !
 ! A6    A(4,3,17)             115.884          calculate D2E/DX2 analytically  !
 ! A7    A(3,4,5)              107.1857         calculate D2E/DX2 analytically  !
 ! A8    A(3,4,8)              112.0505         calculate D2E/DX2 analytically  !
 ! A9    A(3,4,18)             108.2482         calculate D2E/DX2 analytically  !
 ! A10   A(5,4,8)              112.142          calculate D2E/DX2 analytically  !
 ! A11   A(5,4,18)             107.2244         calculate D2E/DX2 analytically  !
 ! A12   A(8,4,18)             109.7869         calculate D2E/DX2 analytically  !
 ! A13   A(4,5,6)              114.9777         calculate D2E/DX2 analytically  !
 ! A14   A(4,5,7)              123.7188         calculate D2E/DX2 analytically  !
 ! A15   A(6,5,7)              121.3027         calculate D2E/DX2 analytically  !
 ! A16   A(5,6,19)             109.7462         calculate D2E/DX2 analytically  !
 ! A17   A(4,8,9)              112.6345         calculate D2E/DX2 analytically  !
 ! A18   A(4,8,20)             110.9184         calculate D2E/DX2 analytically  !
 ! A19   A(4,8,21)             108.1098         calculate D2E/DX2 analytically  !
 ! A20   A(9,8,20)             108.7249         calculate D2E/DX2 analytically  !
 ! A21   A(9,8,21)             109.7374         calculate D2E/DX2 analytically  !
 ! A22   A(20,8,21)            106.5321         calculate D2E/DX2 analytically  !
 ! A23   A(8,9,10)             132.7209         calculate D2E/DX2 analytically  !
 ! A24   A(8,9,13)             122.0847         calculate D2E/DX2 analytically  !
 ! A25   A(10,9,13)            105.1775         calculate D2E/DX2 analytically  !
 ! A26   A(9,10,11)            110.5788         calculate D2E/DX2 analytically  !
 ! A27   A(9,10,22)            128.0541         calculate D2E/DX2 analytically  !
 ! A28   A(11,10,22)           121.3671         calculate D2E/DX2 analytically  !
 ! A29   A(10,11,12)           104.9269         calculate D2E/DX2 analytically  !
 ! A30   A(11,12,13)           111.8108         calculate D2E/DX2 analytically  !
 ! A31   A(11,12,23)           126.4054         calculate D2E/DX2 analytically  !
 ! A32   A(13,12,23)           121.7836         calculate D2E/DX2 analytically  !
 ! A33   A(9,13,12)            107.5055         calculate D2E/DX2 analytically  !
 ! A34   A(9,13,24)            124.1364         calculate D2E/DX2 analytically  !
 ! A35   A(12,13,24)           128.3572         calculate D2E/DX2 analytically  !
 ! A36   A(2,14,15)            111.7542         calculate D2E/DX2 analytically  !
 ! A37   A(2,14,25)            109.6529         calculate D2E/DX2 analytically  !
 ! A38   A(2,14,26)            107.8944         calculate D2E/DX2 analytically  !
 ! A39   A(15,14,25)           110.7074         calculate D2E/DX2 analytically  !
 ! A40   A(15,14,26)           109.1835         calculate D2E/DX2 analytically  !
 ! A41   A(25,14,26)           107.513          calculate D2E/DX2 analytically  !
 ! A42   A(14,15,16)           111.9921         calculate D2E/DX2 analytically  !
 ! A43   A(14,15,27)           108.5138         calculate D2E/DX2 analytically  !
 ! A44   A(14,15,28)           109.6021         calculate D2E/DX2 analytically  !
 ! A45   A(16,15,27)           109.9929         calculate D2E/DX2 analytically  !
 ! A46   A(16,15,28)           109.4185         calculate D2E/DX2 analytically  !
 ! A47   A(27,15,28)           107.1997         calculate D2E/DX2 analytically  !
 ! A48   A(15,16,29)           111.1194         calculate D2E/DX2 analytically  !
 ! A49   A(15,16,30)           111.4892         calculate D2E/DX2 analytically  !
 ! A50   A(15,16,31)           111.8363         calculate D2E/DX2 analytically  !
 ! A51   A(29,16,30)           107.6538         calculate D2E/DX2 analytically  !
 ! A52   A(29,16,31)           107.2566         calculate D2E/DX2 analytically  !
 ! A53   A(30,16,31)           107.2547         calculate D2E/DX2 analytically  !
 ! D1    D(1,2,3,4)             -2.5603         calculate D2E/DX2 analytically  !
 ! D2    D(1,2,3,17)          -169.1118         calculate D2E/DX2 analytically  !
 ! D3    D(14,2,3,4)           176.1388         calculate D2E/DX2 analytically  !
 ! D4    D(14,2,3,17)            9.5873         calculate D2E/DX2 analytically  !
 ! D5    D(1,2,14,15)          -29.3941         calculate D2E/DX2 analytically  !
 ! D6    D(1,2,14,25)         -152.5395         calculate D2E/DX2 analytically  !
 ! D7    D(1,2,14,26)           90.647          calculate D2E/DX2 analytically  !
 ! D8    D(3,2,14,15)          151.9296         calculate D2E/DX2 analytically  !
 ! D9    D(3,2,14,25)           28.7842         calculate D2E/DX2 analytically  !
 ! D10   D(3,2,14,26)          -88.0293         calculate D2E/DX2 analytically  !
 ! D11   D(2,3,4,5)           -163.6093         calculate D2E/DX2 analytically  !
 ! D12   D(2,3,4,8)             72.96           calculate D2E/DX2 analytically  !
 ! D13   D(2,3,4,18)           -48.247          calculate D2E/DX2 analytically  !
 ! D14   D(17,3,4,5)             3.7612         calculate D2E/DX2 analytically  !
 ! D15   D(17,3,4,8)          -119.6694         calculate D2E/DX2 analytically  !
 ! D16   D(17,3,4,18)          119.1235         calculate D2E/DX2 analytically  !
 ! D17   D(3,4,5,6)            175.9687         calculate D2E/DX2 analytically  !
 ! D18   D(3,4,5,7)             -4.3549         calculate D2E/DX2 analytically  !
 ! D19   D(8,4,5,6)            -60.6569         calculate D2E/DX2 analytically  !
 ! D20   D(8,4,5,7)            119.0194         calculate D2E/DX2 analytically  !
 ! D21   D(18,4,5,6)            59.9261         calculate D2E/DX2 analytically  !
 ! D22   D(18,4,5,7)          -120.3976         calculate D2E/DX2 analytically  !
 ! D23   D(3,4,8,9)           -125.686          calculate D2E/DX2 analytically  !
 ! D24   D(3,4,8,20)           112.1914         calculate D2E/DX2 analytically  !
 ! D25   D(3,4,8,21)            -4.2648         calculate D2E/DX2 analytically  !
 ! D26   D(5,4,8,9)            113.7174         calculate D2E/DX2 analytically  !
 ! D27   D(5,4,8,20)            -8.4053         calculate D2E/DX2 analytically  !
 ! D28   D(5,4,8,21)          -124.8614         calculate D2E/DX2 analytically  !
 ! D29   D(18,4,8,9)            -5.37           calculate D2E/DX2 analytically  !
 ! D30   D(18,4,8,20)         -127.4926         calculate D2E/DX2 analytically  !
 ! D31   D(18,4,8,21)          116.0512         calculate D2E/DX2 analytically  !
 ! D32   D(4,5,6,19)            -2.5335         calculate D2E/DX2 analytically  !
 ! D33   D(7,5,6,19)           177.7816         calculate D2E/DX2 analytically  !
 ! D34   D(4,8,9,10)          -116.9921         calculate D2E/DX2 analytically  !
 ! D35   D(4,8,9,13)            61.2759         calculate D2E/DX2 analytically  !
 ! D36   D(20,8,9,10)            6.3605         calculate D2E/DX2 analytically  !
 ! D37   D(20,8,9,13)         -175.3716         calculate D2E/DX2 analytically  !
 ! D38   D(21,8,9,10)          122.517          calculate D2E/DX2 analytically  !
 ! D39   D(21,8,9,13)          -59.215          calculate D2E/DX2 analytically  !
 ! D40   D(8,9,10,11)          178.6945         calculate D2E/DX2 analytically  !
 ! D41   D(8,9,10,22)           -1.2916         calculate D2E/DX2 analytically  !
 ! D42   D(13,9,10,11)           0.2149         calculate D2E/DX2 analytically  !
 ! D43   D(13,9,10,22)        -179.7711         calculate D2E/DX2 analytically  !
 ! D44   D(8,9,13,12)         -178.8625         calculate D2E/DX2 analytically  !
 ! D45   D(8,9,13,24)            0.8159         calculate D2E/DX2 analytically  !
 ! D46   D(10,9,13,12)          -0.1809         calculate D2E/DX2 analytically  !
 ! D47   D(10,9,13,24)         179.4975         calculate D2E/DX2 analytically  !
 ! D48   D(9,10,11,12)          -0.1645         calculate D2E/DX2 analytically  !
 ! D49   D(22,10,11,12)        179.8226         calculate D2E/DX2 analytically  !
 ! D50   D(10,11,12,13)          0.0452         calculate D2E/DX2 analytically  !
 ! D51   D(10,11,12,23)        179.8721         calculate D2E/DX2 analytically  !
 ! D52   D(11,12,13,9)           0.0867         calculate D2E/DX2 analytically  !
 ! D53   D(11,12,13,24)       -179.5738         calculate D2E/DX2 analytically  !
 ! D54   D(23,12,13,9)        -179.7494         calculate D2E/DX2 analytically  !
 ! D55   D(23,12,13,24)          0.5901         calculate D2E/DX2 analytically  !
 ! D56   D(2,14,15,16)         176.1956         calculate D2E/DX2 analytically  !
 ! D57   D(2,14,15,27)          54.588          calculate D2E/DX2 analytically  !
 ! D58   D(2,14,15,28)         -62.1737         calculate D2E/DX2 analytically  !
 ! D59   D(25,14,15,16)        -61.2594         calculate D2E/DX2 analytically  !
 ! D60   D(25,14,15,27)        177.133          calculate D2E/DX2 analytically  !
 ! D61   D(25,14,15,28)         60.3713         calculate D2E/DX2 analytically  !
 ! D62   D(26,14,15,16)         56.9136         calculate D2E/DX2 analytically  !
 ! D63   D(26,14,15,27)        -64.694          calculate D2E/DX2 analytically  !
 ! D64   D(26,14,15,28)        178.5443         calculate D2E/DX2 analytically  !
 ! D65   D(14,15,16,29)        -59.739          calculate D2E/DX2 analytically  !
 ! D66   D(14,15,16,30)         60.3573         calculate D2E/DX2 analytically  !
 ! D67   D(14,15,16,31)       -179.565          calculate D2E/DX2 analytically  !
 ! D68   D(27,15,16,29)         61.0149         calculate D2E/DX2 analytically  !
 ! D69   D(27,15,16,30)       -178.8888         calculate D2E/DX2 analytically  !
 ! D70   D(27,15,16,31)        -58.8111         calculate D2E/DX2 analytically  !
 ! D71   D(28,15,16,29)        178.5249         calculate D2E/DX2 analytically  !
 ! D72   D(28,15,16,30)        -61.3788         calculate D2E/DX2 analytically  !
 ! D73   D(28,15,16,31)         58.6989         calculate D2E/DX2 analytically  !
 --------------------------------------------------------------------------------
 Trust Radius=3.00D-01 FncErr=1.00D-07 GrdErr=1.00D-06
 Number of steps in this run=    167 maximum allowed number of steps=    186.
 GradGradGradGradGradGradGradGradGradGradGradGradGradGradGradGradGradGrad

                          Input orientation:                          
 ---------------------------------------------------------------------
 Center     Atomic      Atomic             Coordinates (Angstroms)
 Number     Number       Type             X           Y           Z
 ---------------------------------------------------------------------
      1          8           0        0.488024   -1.044212   -0.128100
      2          6           0        1.123845   -0.017492   -0.373609
      3          7           0        0.490472    1.135943   -0.678403
      4          6           0       -0.952331    1.179802   -0.777899
      5          6           0       -1.313456    2.460537   -1.516985
      6          8           0       -2.628012    2.618957   -1.772967
      7          8           0       -0.510003    3.284664   -1.851898
      8          6           0       -1.638845    1.094382    0.620743
      9          6           0       -2.642701   -0.010178    0.702351
     10          6           0       -3.989868   -0.021681    0.905013
     11          7           0       -4.476793   -1.317343    0.866546
     12          6           0       -3.425194   -2.066739    0.639055
     13          7           0       -2.293636   -1.327439    0.530588
     14          6           0        2.639540    0.021364   -0.382610
     15          6           0        3.234388   -0.997902    0.573178
     16          7           0        4.720173   -1.027433    0.502220
     17          1           0        0.981373    1.940946   -1.037338
     18          1           0       -1.278962    0.340841   -1.403513
     19          1           0       -3.115548    1.846115   -1.464303
     20          1           0       -2.131516    2.034185    0.870539
     21          1           0       -0.863674    0.942566    1.369359
     22          1           0       -4.644919    0.820583    1.076687
     23          1           0       -3.413057   -3.138350    0.545338
     24          1           0       -1.352539   -1.645316    0.352137
     25          1           0        2.982476    1.027973   -0.135904
     26          1           0        2.975428   -0.200789   -1.399690
     27          1           0        2.830344   -1.978956    0.327855
     28          1           0        2.924933   -0.767636    1.592065
     29          1           0        5.038567   -1.265120   -0.437119
     30          1           0        5.124010   -0.122922    0.746146
     31          1           0        5.117207   -1.718407    1.140508
 ---------------------------------------------------------------------
                    Distance matrix (angstroms):
                    1          2          3          4          5
     1  O    0.000000
     2  C    1.232354   0.000000
     3  N    2.248537   1.350731   0.000000
     4  C    2.728204   2.430528   1.446894   0.000000
     5  C    4.178230   3.659013   2.389964   1.522151   0.000000
     6  O    5.082723   4.794319   3.622478   2.422651   1.348584
     7  O    4.765156   3.969765   2.644815   2.404075   1.198704
     8  C    3.107719   3.139658   2.494694   1.560384   2.557761
     9  C    3.400046   3.917220   3.610658   2.542547   3.577259
    10  C    4.707909   5.271143   4.890884   3.674559   4.380715
    11  N    5.070831   5.881729   5.751453   4.621879   5.473600
    12  C    4.116718   5.091037   5.227362   4.320050   5.440972
    13  N    2.872580   3.769975   3.909114   3.130095   4.416115
    14  C    2.414384   1.516220   2.438908   3.794702   4.781480
    15  C    2.834863   2.512369   3.694431   4.908809   6.083787
    16  N    4.278863   3.836747   4.895348   6.219959   7.255881
    17  H    3.159316   2.072755   1.008884   2.094244   2.401308
    18  H    2.582110   2.638672   2.070959   1.096328   2.123011
    19  H    4.808863   4.757636   3.758373   2.365298   1.904685
    20  H    4.163628   4.044089   3.175040   2.199499   2.559545
    21  H    2.831388   2.812451   2.462608   2.162142   3.292040
    22  H    5.592502   6.007027   5.436179   4.147739   4.529374
    23  H    4.478545   5.582804   5.916475   5.143206   6.325270
    24  H    1.994900   3.051065   3.492006   3.068947   4.511449
    25  H    3.242885   2.145696   2.552655   3.989726   4.734413
    26  H    2.918130   2.124806   2.912407   4.209506   5.048856
    27  H    2.562831   2.692866   4.023699   5.050650   6.346938
    28  H    2.995661   2.769568   3.834741   4.943927   6.168569
    29  H    4.566370   4.109216   5.148639   6.479555   7.442771
    30  H    4.806813   4.155272   5.008368   6.398572   7.296369
    31  H    4.846983   4.597021   5.732576   6.994225   8.116605
                    6          7          8          9         10
     6  O    0.000000
     7  O    2.221567   0.000000
     8  C    3.005433   3.490785   0.000000
     9  C    3.611062   4.682796   1.494804   0.000000
    10  C    3.999900   5.535516   2.617960   1.362374   0.000000
    11  N    5.087188   6.656113   3.732397   2.258215   1.384672
    12  C    5.330018   6.583366   3.630986   2.201305   2.138189
    13  N    4.581727   5.488997   2.510398   1.373509   2.173109
    14  C    6.035535   4.767343   4.523567   5.392607   6.753434
    15  C    7.276935   6.183997   5.303612   5.960910   7.297465
    16  N    8.512841   7.175709   6.704718   7.435508   8.777163
    17  H    3.745465   2.166400   3.214256   4.468480   5.686639
    18  H    2.673246   3.075458   2.189737   2.533310   3.579067
    19  H    0.964495   3.001420   2.663301   2.892023   3.141139
    20  H    2.752561   3.406562   1.090116   2.114005   2.771506
    21  H    3.974593   3.998376   1.088285   2.125455   3.304312
    22  H    3.927161   5.634345   3.052759   2.199811   1.080728
    23  H    6.255991   7.445105   4.590156   3.225455   3.189938
    24  H    4.932232   5.465559   2.767681   2.112070   3.146007
    25  H    6.057127   4.498300   4.683325   5.781267   7.127332
    26  H    6.284015   4.949859   5.201070   6.001524   7.338875
    27  H    7.439617   6.604161   5.431835   5.828426   7.118941
    28  H    7.323090   6.330940   5.023807   5.688926   6.988774
    29  H    8.697527   7.313601   7.160597   7.866076   9.211954
    30  H    8.599865   7.078388   6.872682   7.767653   9.115825
    31  H    9.342884   8.102513   7.336632   7.957776   9.266777
                   11         12         13         14         15
    11  N    0.000000
    12  C    1.311184   0.000000
    13  N    2.208878   1.356006   0.000000
    14  C    7.348110   6.494996   5.195135   0.000000
    15  C    7.723368   6.745130   5.538001   1.518643   0.000000
    16  N    9.208744   8.212544   7.020279   2.492375   1.487772
    17  H    6.635721   6.187864   4.885327   2.619729   4.038151
    18  H    4.257800   3.817700   2.748357   4.061892   5.105866
    19  H    4.158523   4.453136   3.837522   6.133581   7.249927
    20  H    4.090609   4.306363   3.382657   5.327739   6.170486
    21  H    4.291228   4.018786   2.810917   4.023744   4.603632
    22  H    2.154798   3.164787   3.231216   7.472058   8.102091
    23  H    2.133254   1.075771   2.129019   6.890487   6.983611
    24  H    3.183259   2.134436   1.009234   4.387980   4.637662
    25  H    7.883280   7.157936   5.816316   1.091664   2.161117
    26  H    7.868807   6.971816   5.723491   1.093903   2.143515
    27  H    7.356776   6.263889   5.169211   2.131302   1.088992
    28  H    7.457486   6.551336   5.354771   2.145533   1.089456
    29  H    9.604392   8.569481   7.396049   2.722746   2.084987
    30  H    9.675565   8.768055   7.517899   2.732673   2.089541
    31  H    9.606287   8.564194   7.446170   3.389031   2.094278
                   16         17         18         19         20
    16  N    0.000000
    17  H    5.015988   0.000000
    18  H    6.441554   2.793480   0.000000
    19  H    8.574556   4.120201   2.375414   0.000000
    20  H    7.513641   3.652227   2.960670   2.540704   0.000000
    21  H    5.984327   3.192671   2.867639   3.730547   1.745817
    22  H    9.562956   6.113876   4.208469   3.138044   2.798664
    23  H    8.402813   6.900372   4.522959   5.382570   5.338841
    24  H    6.105910   4.498784   2.651893   4.312510   3.796613
    25  H    2.766132   2.377082   4.498760   6.294434   5.308324
    26  H    2.710118   2.948658   4.288731   6.426040   6.019130
    27  H    2.123030   4.544015   5.026479   7.293602   6.404675
    28  H    2.116163   4.245892   5.279672   7.256755   5.825674
    29  H    1.019915   5.205761   6.589705   8.787746   8.000342
    30  H    1.020159   4.960021   6.770093   8.755199   7.570419
    31  H    1.021026   5.936245   7.184952   9.341794   8.166934
                   21         22         23         24         25
    21  H    0.000000
    22  H    3.794517   0.000000
    23  H    4.881828   4.180068   0.000000
    24  H    2.823271   4.176768   2.551904   0.000000
    25  H    4.131099   7.725966   7.663236   5.116348   0.000000
    26  H    4.869661   8.077459   7.295557   4.887418   1.762686
    27  H    4.823462   8.017339   6.353861   4.196238   3.046283
    28  H    4.162683   7.751820   6.847338   4.539219   2.492670
    29  H    6.555432  10.020563   8.712300   6.450869   3.094595
    30  H    6.113593   9.819951   9.056194   6.664730   2.586260
    31  H    6.550121  10.087104   8.668095   6.518013   3.705254
                   26         27         28         29         30
    26  H    0.000000
    27  H    2.483413   0.000000
    28  H    3.045401   1.753416   0.000000
    29  H    2.513143   2.443562   2.971957   0.000000
    30  H    3.037611   2.980057   2.442781   1.646825   0.000000
    31  H    3.652806   2.440909   2.431858   1.643339   1.643515
                   31
    31  H    0.000000
 Symmetry turned off by external request.
 Stoichiometry    C9H15N4O3(1+)
 Framework group  C1[X(C9H15N4O3)]
 Deg. of freedom    87
 Full point group                 C1      NOp   1
 Rotational constants (GHZ):      0.6579548      0.3092405      0.2195217
 Standard basis: 6-31+G(d,p) (6D, 7F)
   379 basis functions,   617 primitive gaussians,   379 cartesian basis functions
    60 alpha electrons       60 beta electrons
       nuclear repulsion energy      1130.0178159133 Hartrees.
 NAtoms=   31 NActive=   31 NUniq=   31 SFac= 1.00D+00 NAtFMM=   60 NAOKFM=F Big=F
 Integral buffers will be    131072 words long.
 Raffenetti 2 integral format.
 Two-electron integral symmetry is turned off.
 One-electron integrals computed using PRISM.
 NBasis=   379 RedAO= T EigKep=  6.52D-06  NBF=   379
 NBsUse=   379 1.00D-06 EigRej= -1.00D+00 NBFU=   379
 ExpMin= 4.38D-02 ExpMax= 5.48D+03 ExpMxC= 8.25D+02 IAcc=3 IRadAn=         5 AccDes= 0.00D+00
 Harris functional with IExCor=  402 and IRadAn=       5 diagonalized for initial guess.
 HarFok:  IExCor=  402 AccDes= 0.00D+00 IRadAn=         5 IDoV= 1 UseB2=F ITyADJ=14
 ICtDFT=  3500011 ScaDFX=  1.000000  1.000000  1.000000  1.000000
 FoFCou: FMM=F IPFlag=           0 FMFlag=      100000 FMFlg1=           0
         NFxFlg=           0 DoJE=T BraDBF=F KetDBF=T FulRan=T
         wScrn=  0.000000 ICntrl=     500 IOpCl=  0 I1Cent=   200000004 NGrid=           0
         NMat0=    1 NMatS0=      1 NMatT0=    0 NMatD0=    1 NMtDS0=    0 NMtDT0=    0
 Symmetry not used in FoFCou.
 Requested convergence on RMS density matrix=1.00D-08 within 128 cycles.
 Requested convergence on MAX density matrix=1.00D-06.
 Requested convergence on             energy=1.00D-06.
 No special actions if energy rises.
 EnCoef did     2 forward-backward iterations
 SCF Done:  E(RB3LYP) =  -796.496261500     A.U. after   17 cycles
            NFock= 17  Conv=0.43D-08     -V/T= 2.0089
 DoSCS=F DFT=T ScalE2(SS,OS)=  1.000000  1.000000
 Range of M.O.s used for correlation:     1   379
 NBasis=   379 NAE=    60 NBE=    60 NFC=     0 NFV=     0
 NROrb=    379 NOA=    60 NOB=    60 NVA=   319 NVB=   319

 **** Warning!!: The largest alpha MO coefficient is  0.98970563D+02

 Symmetrizing basis deriv contribution to polar:
 IMax=3 JMax=2 DiffMx= 0.00D+00
 G2DrvN: will do    32 centers at a time, making    1 passes.
 Calling FoFCou, ICntrl=  3107 FMM=F I1Cent=   0 AccDes= 0.00D+00.
 End of G2Drv F.D. properties file   721 does not exist.
 End of G2Drv F.D. properties file   722 does not exist.
 End of G2Drv F.D. properties file   788 does not exist.
          IDoAtm=1111111111111111111111111111111
          Differentiating once with respect to nuclear coordinates.
          There are    96 degrees of freedom in the 1st order CPHF.  IDoFFX=6 NUNeed=     0.
     90 vectors produced by pass  0 Test12= 1.99D-14 1.04D-09 XBig12= 1.97D-01 7.38D-02.
 AX will form    90 AO Fock derivatives at one time.
     90 vectors produced by pass  1 Test12= 1.99D-14 1.04D-09 XBig12= 3.21D-02 5.14D-02.
     90 vectors produced by pass  2 Test12= 1.99D-14 1.04D-09 XBig12= 2.93D-04 1.70D-03.
     90 vectors produced by pass  3 Test12= 1.99D-14 1.04D-09 XBig12= 1.61D-06 1.15D-04.
     90 vectors produced by pass  4 Test12= 1.99D-14 1.04D-09 XBig12= 2.84D-09 4.28D-06.
     79 vectors produced by pass  5 Test12= 1.99D-14 1.04D-09 XBig12= 3.16D-12 1.59D-07.
     22 vectors produced by pass  6 Test12= 1.99D-14 1.04D-09 XBig12= 3.08D-15 6.58D-09.
      9 vectors produced by pass  7 Test12= 1.99D-14 1.04D-09 XBig12= 9.85D-16 2.86D-09.
      5 vectors produced by pass  8 Test12= 1.99D-14 1.04D-09 XBig12= 1.92D-15 4.28D-09.
      4 vectors produced by pass  9 Test12= 1.99D-14 1.04D-09 XBig12= 1.83D-15 3.42D-09.
      4 vectors produced by pass 10 Test12= 1.99D-14 1.04D-09 XBig12= 4.60D-15 6.45D-09.
      2 vectors produced by pass 11 Test12= 1.99D-14 1.04D-09 XBig12= 2.79D-15 5.71D-09.
 InvSVY:  IOpt=1 It=  1 EMax= 5.55D-16
 Solved reduced A of dimension   575 with    96 vectors.
 End of Minotr F.D. properties file   721 does not exist.
 End of Minotr F.D. properties file   722 does not exist.
 End of Minotr F.D. properties file   788 does not exist.

 **********************************************************************

            Population analysis using the SCF density.

 **********************************************************************

 Alpha  occ. eigenvalues --  -19.31408 -19.28326 -19.26455 -14.68597 -14.51381
 Alpha  occ. eigenvalues --  -14.47071 -14.39582 -10.45728 -10.44929 -10.44241
 Alpha  occ. eigenvalues --  -10.39298 -10.37324 -10.32102 -10.32061 -10.30984
 Alpha  occ. eigenvalues --  -10.28395  -1.23324  -1.22591  -1.20289  -1.14876
 Alpha  occ. eigenvalues --   -1.10364  -1.08005  -0.99037  -0.95627  -0.91988
 Alpha  occ. eigenvalues --   -0.87432  -0.84199  -0.81366  -0.80691  -0.78282
 Alpha  occ. eigenvalues --   -0.74428  -0.72510  -0.71851  -0.70305  -0.68845
 Alpha  occ. eigenvalues --   -0.67788  -0.66480  -0.64731  -0.62422  -0.60930
 Alpha  occ. eigenvalues --   -0.59499  -0.58917  -0.57810  -0.56644  -0.55712
 Alpha  occ. eigenvalues --   -0.55058  -0.53535  -0.51780  -0.50991  -0.50186
 Alpha  occ. eigenvalues --   -0.49831  -0.49289  -0.48866  -0.43846  -0.42680
 Alpha  occ. eigenvalues --   -0.41262  -0.40109  -0.36345  -0.34822  -0.31790
 Alpha virt. eigenvalues --   -0.21238  -0.15732  -0.14897  -0.14296  -0.13117
 Alpha virt. eigenvalues --   -0.11421  -0.10898  -0.09672  -0.08917  -0.08637
 Alpha virt. eigenvalues --   -0.07838  -0.07317  -0.06547  -0.05737  -0.05473
 Alpha virt. eigenvalues --   -0.05250  -0.04689  -0.04111  -0.03650  -0.02636
 Alpha virt. eigenvalues --   -0.02166  -0.01756  -0.01599  -0.01335  -0.00557
 Alpha virt. eigenvalues --   -0.00354   0.00023   0.00745   0.01033   0.01500
 Alpha virt. eigenvalues --    0.02195   0.02344   0.02991   0.03382   0.03497
 Alpha virt. eigenvalues --    0.04787   0.05260   0.05781   0.05879   0.06409
 Alpha virt. eigenvalues --    0.07214   0.07351   0.07774   0.08394   0.09078
 Alpha virt. eigenvalues --    0.09512   0.09650   0.10009   0.10571   0.10993
 Alpha virt. eigenvalues --    0.11371   0.12017   0.12348   0.12937   0.13188
 Alpha virt. eigenvalues --    0.13332   0.13849   0.14298   0.14602   0.15644
 Alpha virt. eigenvalues --    0.16312   0.16858   0.17155   0.17560   0.18017
 Alpha virt. eigenvalues --    0.18314   0.18842   0.19010   0.20187   0.20441
 Alpha virt. eigenvalues --    0.20857   0.21129   0.21661   0.22213   0.22314
 Alpha virt. eigenvalues --    0.23395   0.23707   0.23900   0.24697   0.24769
 Alpha virt. eigenvalues --    0.25417   0.25562   0.26870   0.27242   0.28074
 Alpha virt. eigenvalues --    0.28630   0.29768   0.29985   0.30428   0.31940
 Alpha virt. eigenvalues --    0.33074   0.34011   0.35880   0.36804   0.38164
 Alpha virt. eigenvalues --    0.39689   0.40983   0.43017   0.44212   0.45044
 Alpha virt. eigenvalues --    0.45417   0.47554   0.50319   0.53760   0.55974
 Alpha virt. eigenvalues --    0.56857   0.58748   0.59051   0.60344   0.61541
 Alpha virt. eigenvalues --    0.63130   0.64208   0.65395   0.66613   0.67342
 Alpha virt. eigenvalues --    0.67787   0.68301   0.69723   0.70690   0.72051
 Alpha virt. eigenvalues --    0.72872   0.74142   0.74460   0.75022   0.76191
 Alpha virt. eigenvalues --    0.78172   0.78877   0.79198   0.80566   0.82445
 Alpha virt. eigenvalues --    0.82971   0.84846   0.85301   0.86523   0.87811
 Alpha virt. eigenvalues --    0.88703   0.89391   0.91241   0.91553   0.93616
 Alpha virt. eigenvalues --    0.94148   0.95734   0.95927   0.97201   0.97338
 Alpha virt. eigenvalues --    0.99186   1.00529   1.01803   1.02583   1.04757
 Alpha virt. eigenvalues --    1.05325   1.06175   1.08640   1.09171   1.10589
 Alpha virt. eigenvalues --    1.12571   1.13561   1.15084   1.16511   1.17339
 Alpha virt. eigenvalues --    1.18089   1.19854   1.21699   1.22476   1.23368
 Alpha virt. eigenvalues --    1.24169   1.25124   1.26422   1.27424   1.28025
 Alpha virt. eigenvalues --    1.29118   1.31105   1.31545   1.31923   1.34176
 Alpha virt. eigenvalues --    1.36169   1.37106   1.37586   1.38975   1.39827
 Alpha virt. eigenvalues --    1.41162   1.41685   1.44897   1.45907   1.47963
 Alpha virt. eigenvalues --    1.49754   1.52060   1.52887   1.56869   1.57536
 Alpha virt. eigenvalues --    1.60803   1.61797   1.63227   1.66241   1.66667
 Alpha virt. eigenvalues --    1.67582   1.70619   1.70821   1.71884   1.72387
 Alpha virt. eigenvalues --    1.73566   1.74182   1.75755   1.76975   1.77709
 Alpha virt. eigenvalues --    1.78385   1.80432   1.81850   1.84032   1.84520
 Alpha virt. eigenvalues --    1.86468   1.89314   1.89809   1.90547   1.92547
 Alpha virt. eigenvalues --    1.95531   1.96925   1.98505   1.98890   2.00790
 Alpha virt. eigenvalues --    2.01325   2.02058   2.02400   2.04676   2.05192
 Alpha virt. eigenvalues --    2.06051   2.07703   2.09451   2.10910   2.11978
 Alpha virt. eigenvalues --    2.12737   2.16236   2.16645   2.19053   2.19969
 Alpha virt. eigenvalues --    2.20809   2.23013   2.25401   2.26801   2.29748
 Alpha virt. eigenvalues --    2.29939   2.32471   2.34959   2.35785   2.36709
 Alpha virt. eigenvalues --    2.37807   2.39022   2.41854   2.43142   2.44192
 Alpha virt. eigenvalues --    2.46713   2.47329   2.48745   2.49360   2.49930
 Alpha virt. eigenvalues --    2.51844   2.52305   2.53057   2.54433   2.56375
 Alpha virt. eigenvalues --    2.56983   2.57771   2.59136   2.59778   2.62646
 Alpha virt. eigenvalues --    2.64101   2.64907   2.67508   2.67650   2.68417
 Alpha virt. eigenvalues --    2.71084   2.71880   2.72404   2.74013   2.75699
 Alpha virt. eigenvalues --    2.77644   2.81104   2.81397   2.87453   2.91116
 Alpha virt. eigenvalues --    2.93811   2.94191   2.97728   2.98800   3.01623
 Alpha virt. eigenvalues --    3.03341   3.05601   3.11565   3.12887   3.16435
 Alpha virt. eigenvalues --    3.17723   3.18553   3.23021   3.24784   3.27239
 Alpha virt. eigenvalues --    3.29314   3.32802   3.37878   3.41597   3.46003
 Alpha virt. eigenvalues --    3.48495   3.52333   3.69745   3.95855   4.14123
 Alpha virt. eigenvalues --    4.15974   4.18787   4.22236   4.25640   4.25908
 Alpha virt. eigenvalues --    4.31158   4.32893   4.44744   4.47973   4.51649
 Alpha virt. eigenvalues --    4.53186   4.56984   4.68365   4.72787
          Condensed to atoms (all electrons):
               1          2          3          4          5          6
     1  O    8.325544   0.222882  -0.172494   0.085008  -0.009571  -0.000141
     2  C    0.222882   8.148669  -0.091858   0.046582  -0.026243  -0.026856
     3  N   -0.172494  -0.091858   7.313600  -0.279012   0.106985   0.007807
     4  C    0.085008   0.046582  -0.279012  10.477729  -2.182707  -0.405763
     5  C   -0.009571  -0.026243   0.106985  -2.182707   6.972210   0.425897
     6  O   -0.000141  -0.026856   0.007807  -0.405763   0.425897   8.226704
     7  O    0.000397   0.039933   0.024235  -0.195513   0.515167  -0.119875
     8  C   -0.038162  -0.187617  -0.107384  -0.368958   0.678214   0.041937
     9  C   -0.068770  -0.096135   0.212288  -1.236950  -0.057842   0.072196
    10  C    0.002526   0.022167   0.015977   0.232432  -0.182380  -0.045352
    11  N   -0.001141  -0.003623   0.001379  -0.013835   0.002837   0.000572
    12  C    0.001775  -0.004820   0.004337  -0.006523   0.002588   0.000120
    13  N    0.019225   0.015813  -0.005398   0.067883  -0.043165  -0.004143
    14  C    0.134113  -2.335735   0.034977  -0.202417  -0.409879  -0.006727
    15  C    0.009736  -0.251907  -0.006802  -0.040625  -0.011289  -0.000104
    16  N   -0.001877   0.099064  -0.003440   0.000810   0.000949   0.000003
    17  H    0.009549  -0.040420   0.278499   0.059182  -0.025837   0.001975
    18  H    0.005479   0.035508  -0.073606   0.498302  -0.177097   0.001036
    19  H    0.000047   0.016077   0.000285   0.131734  -0.110880   0.194144
    20  H    0.000354   0.003298   0.002489  -0.037119  -0.043796   0.004196
    21  H   -0.003230   0.023826   0.001670  -0.096300  -0.035285  -0.001005
    22  H   -0.000017  -0.000978   0.000010   0.003947   0.006478   0.000091
    23  H   -0.000551  -0.001786  -0.000086   0.004029   0.000687   0.000004
    24  H    0.014502  -0.009557   0.002759   0.004752   0.000043   0.000037
    25  H    0.003771   0.009671  -0.007724   0.003509   0.002631   0.000008
    26  H    0.004979  -0.198690  -0.000469  -0.004435  -0.006515  -0.000001
    27  H   -0.004152   0.089753   0.000083   0.003369   0.000163   0.000000
    28  H    0.001941  -0.054534   0.003243  -0.003115  -0.000662   0.000000
    29  H    0.000364  -0.011648   0.000152  -0.000116  -0.000034   0.000000
    30  H   -0.000263   0.029942  -0.000359   0.000369   0.000047   0.000000
    31  H    0.000280  -0.016549   0.000090  -0.000091  -0.000005   0.000000
               7          8          9         10         11         12
     1  O    0.000397  -0.038162  -0.068770   0.002526  -0.001141   0.001775
     2  C    0.039933  -0.187617  -0.096135   0.022167  -0.003623  -0.004820
     3  N    0.024235  -0.107384   0.212288   0.015977   0.001379   0.004337
     4  C   -0.195513  -0.368958  -1.236950   0.232432  -0.013835  -0.006523
     5  C    0.515167   0.678214  -0.057842  -0.182380   0.002837   0.002588
     6  O   -0.119875   0.041937   0.072196  -0.045352   0.000572   0.000120
     7  O    8.156696  -0.019021  -0.005800   0.001971  -0.000047   0.000422
     8  C   -0.019021   8.577016  -1.814073  -0.707307  -0.049914   0.007575
     9  C   -0.005800  -1.814073   9.955994  -1.051398  -0.201404  -0.048670
    10  C    0.001971  -0.707307  -1.051398   7.487314   0.522711  -0.405034
    11  N   -0.000047  -0.049914  -0.201404   0.522711   6.735787   0.404764
    12  C    0.000422   0.007575  -0.048670  -0.405034   0.404764   5.229281
    13  N    0.000076  -0.203054   0.166464  -0.018838  -0.018161   0.079816
    14  C   -0.012424  -0.162349   0.101977  -0.010135  -0.000602   0.002911
    15  C    0.000073  -0.014241  -0.014552   0.000850  -0.000136   0.000830
    16  N    0.000017   0.000657  -0.000046  -0.000013   0.000000   0.000023
    17  H    0.023437   0.007039  -0.017566  -0.001962  -0.000003  -0.000209
    18  H    0.004437  -0.004157  -0.052007  -0.013187  -0.000928  -0.002359
    19  H    0.010186  -0.047024   0.016751   0.029030  -0.000499   0.001529
    20  H    0.003532   0.482542  -0.106612   0.000461  -0.000568  -0.002173
    21  H   -0.000085   0.515601  -0.087537  -0.024044  -0.001965  -0.005852
    22  H   -0.000008   0.031755  -0.105992   0.402552  -0.059309   0.025575
    23  H    0.000000   0.019923   0.049909  -0.039841  -0.050051   0.439709
    24  H    0.000035  -0.064061   0.094078  -0.008745   0.007638  -0.024949
    25  H   -0.000062   0.000923  -0.000033  -0.000256   0.000001  -0.000033
    26  H    0.000033   0.000370  -0.001411  -0.000065   0.000000   0.000020
    27  H   -0.000001  -0.000049   0.000131  -0.000096   0.000000  -0.000083
    28  H    0.000003  -0.000128  -0.000507  -0.000007   0.000000   0.000069
    29  H    0.000000  -0.000028  -0.000005   0.000000   0.000000   0.000001
    30  H    0.000000  -0.000016   0.000013   0.000000   0.000000   0.000000
    31  H    0.000000   0.000012   0.000000   0.000000   0.000000  -0.000001
              13         14         15         16         17         18
     1  O    0.019225   0.134113   0.009736  -0.001877   0.009549   0.005479
     2  C    0.015813  -2.335735  -0.251907   0.099064  -0.040420   0.035508
     3  N   -0.005398   0.034977  -0.006802  -0.003440   0.278499  -0.073606
     4  C    0.067883  -0.202417  -0.040625   0.000810   0.059182   0.498302
     5  C   -0.043165  -0.409879  -0.011289   0.000949  -0.025837  -0.177097
     6  O   -0.004143  -0.006727  -0.000104   0.000003   0.001975   0.001036
     7  O    0.000076  -0.012424   0.000073   0.000017   0.023437   0.004437
     8  C   -0.203054  -0.162349  -0.014241   0.000657   0.007039  -0.004157
     9  C    0.166464   0.101977  -0.014552  -0.000046  -0.017566  -0.052007
    10  C   -0.018838  -0.010135   0.000850  -0.000013  -0.001962  -0.013187
    11  N   -0.018161  -0.000602  -0.000136   0.000000  -0.000003  -0.000928
    12  C    0.079816   0.002911   0.000830   0.000023  -0.000209  -0.002359
    13  N    7.076828   0.005244   0.000766   0.000034   0.000044   0.017998
    14  C    0.005244   8.177971   0.418694  -0.177790   0.001317   0.024514
    15  C    0.000766   0.418694   5.318271   0.114977   0.004905   0.001624
    16  N    0.000034  -0.177790   0.114977   6.674622   0.000097  -0.000017
    17  H    0.000044   0.001317   0.004905   0.000097   0.357902   0.003004
    18  H    0.017998   0.024514   0.001624  -0.000017   0.003004   0.525806
    19  H    0.000182   0.000976   0.000063   0.000000  -0.000062  -0.001078
    20  H    0.008901  -0.000496   0.000105   0.000000  -0.000116   0.003680
    21  H   -0.002069   0.026907  -0.000282  -0.000028   0.000165   0.002057
    22  H   -0.000063  -0.000166   0.000004   0.000000   0.000000   0.000010
    23  H   -0.118054  -0.000339   0.000037   0.000000   0.000000   0.000005
    24  H    0.258445   0.004619  -0.000913  -0.000003  -0.000005   0.000623
    25  H    0.000038   0.358027  -0.051151   0.005993   0.001046  -0.000009
    26  H    0.000080   0.574745  -0.043297  -0.005124   0.000104   0.000075
    27  H    0.000013  -0.122802   0.394160  -0.023892  -0.000006  -0.000003
    28  H    0.000146   0.020805   0.401737  -0.038112  -0.000014   0.000002
    29  H    0.000001   0.011399  -0.019026   0.317903  -0.000001   0.000000
    30  H    0.000000  -0.037641  -0.016408   0.325848   0.000000   0.000000
    31  H   -0.000001   0.034386  -0.028898   0.310304   0.000000   0.000000
              19         20         21         22         23         24
     1  O    0.000047   0.000354  -0.003230  -0.000017  -0.000551   0.014502
     2  C    0.016077   0.003298   0.023826  -0.000978  -0.001786  -0.009557
     3  N    0.000285   0.002489   0.001670   0.000010  -0.000086   0.002759
     4  C    0.131734  -0.037119  -0.096300   0.003947   0.004029   0.004752
     5  C   -0.110880  -0.043796  -0.035285   0.006478   0.000687   0.000043
     6  O    0.194144   0.004196  -0.001005   0.000091   0.000004   0.000037
     7  O    0.010186   0.003532  -0.000085  -0.000008   0.000000   0.000035
     8  C   -0.047024   0.482542   0.515601   0.031755   0.019923  -0.064061
     9  C    0.016751  -0.106612  -0.087537  -0.105992   0.049909   0.094078
    10  C    0.029030   0.000461  -0.024044   0.402552  -0.039841  -0.008745
    11  N   -0.000499  -0.000568  -0.001965  -0.059309  -0.050051   0.007638
    12  C    0.001529  -0.002173  -0.005852   0.025575   0.439709  -0.024949
    13  N    0.000182   0.008901  -0.002069  -0.000063  -0.118054   0.258445
    14  C    0.000976  -0.000496   0.026907  -0.000166  -0.000339   0.004619
    15  C    0.000063   0.000105  -0.000282   0.000004   0.000037  -0.000913
    16  N    0.000000   0.000000  -0.000028   0.000000   0.000000  -0.000003
    17  H   -0.000062  -0.000116   0.000165   0.000000   0.000000  -0.000005
    18  H   -0.001078   0.003680   0.002057   0.000010   0.000005   0.000623
    19  H    0.390477  -0.001604   0.000217  -0.000110   0.000000   0.000001
    20  H   -0.001604   0.512440  -0.022655   0.001737   0.000004  -0.000013
    21  H    0.000217  -0.022655   0.535127  -0.000094  -0.000006   0.000898
    22  H   -0.000110   0.001737  -0.000094   0.552756  -0.000032  -0.000082
    23  H    0.000000   0.000004  -0.000006  -0.000032   0.552740   0.000437
    24  H    0.000001  -0.000013   0.000898  -0.000082   0.000437   0.375341
    25  H    0.000000  -0.000001   0.000008   0.000000   0.000000  -0.000002
    26  H    0.000000   0.000000  -0.000003   0.000000   0.000000  -0.000002
    27  H    0.000000   0.000000   0.000003   0.000000   0.000000  -0.000011
    28  H    0.000000   0.000000  -0.000006   0.000000   0.000000   0.000003
    29  H    0.000000   0.000000   0.000000   0.000000   0.000000   0.000000
    30  H    0.000000   0.000000   0.000000   0.000000   0.000000   0.000000
    31  H    0.000000   0.000000   0.000000   0.000000   0.000000   0.000000
              25         26         27         28         29         30
     1  O    0.003771   0.004979  -0.004152   0.001941   0.000364  -0.000263
     2  C    0.009671  -0.198690   0.089753  -0.054534  -0.011648   0.029942
     3  N   -0.007724  -0.000469   0.000083   0.003243   0.000152  -0.000359
     4  C    0.003509  -0.004435   0.003369  -0.003115  -0.000116   0.000369
     5  C    0.002631  -0.006515   0.000163  -0.000662  -0.000034   0.000047
     6  O    0.000008  -0.000001   0.000000   0.000000   0.000000   0.000000
     7  O   -0.000062   0.000033  -0.000001   0.000003   0.000000   0.000000
     8  C    0.000923   0.000370  -0.000049  -0.000128  -0.000028  -0.000016
     9  C   -0.000033  -0.001411   0.000131  -0.000507  -0.000005   0.000013
    10  C   -0.000256  -0.000065  -0.000096  -0.000007   0.000000   0.000000
    11  N    0.000001   0.000000   0.000000   0.000000   0.000000   0.000000
    12  C   -0.000033   0.000020  -0.000083   0.000069   0.000001   0.000000
    13  N    0.000038   0.000080   0.000013   0.000146   0.000001   0.000000
    14  C    0.358027   0.574745  -0.122802   0.020805   0.011399  -0.037641
    15  C   -0.051151  -0.043297   0.394160   0.401737  -0.019026  -0.016408
    16  N    0.005993  -0.005124  -0.023892  -0.038112   0.317903   0.325848
    17  H    0.001046   0.000104  -0.000006  -0.000014  -0.000001   0.000000
    18  H   -0.000009   0.000075  -0.000003   0.000002   0.000000   0.000000
    19  H    0.000000   0.000000   0.000000   0.000000   0.000000   0.000000
    20  H   -0.000001   0.000000   0.000000   0.000000   0.000000   0.000000
    21  H    0.000008  -0.000003   0.000003  -0.000006   0.000000   0.000000
    22  H    0.000000   0.000000   0.000000   0.000000   0.000000   0.000000
    23  H    0.000000   0.000000   0.000000   0.000000   0.000000   0.000000
    24  H   -0.000002  -0.000002  -0.000011   0.000003   0.000000   0.000000
    25  H    0.523778  -0.029294   0.004034  -0.005083  -0.000771   0.003304
    26  H   -0.029294   0.505674  -0.004874   0.004103   0.004370  -0.000792
    27  H    0.004034  -0.004874   0.444803  -0.021253  -0.004452   0.003522
    28  H   -0.005083   0.004103  -0.021253   0.472963   0.003927  -0.004407
    29  H   -0.000771   0.004370  -0.004452   0.003927   0.326802  -0.020903
    30  H    0.003304  -0.000792   0.003522  -0.004407  -0.020903   0.326068
    31  H   -0.000053  -0.000036  -0.002388  -0.002191  -0.013827  -0.015355
              31
     1  O    0.000280
     2  C   -0.016549
     3  N    0.000090
     4  C   -0.000091
     5  C   -0.000005
     6  O    0.000000
     7  O    0.000000
     8  C    0.000012
     9  C    0.000000
    10  C    0.000000
    11  N    0.000000
    12  C   -0.000001
    13  N   -0.000001
    14  C    0.034386
    15  C   -0.028898
    16  N    0.310304
    17  H    0.000000
    18  H    0.000000
    19  H    0.000000
    20  H    0.000000
    21  H    0.000000
    22  H    0.000000
    23  H    0.000000
    24  H    0.000000
    25  H   -0.000053
    26  H   -0.000036
    27  H   -0.002388
    28  H   -0.002191
    29  H   -0.013827
    30  H   -0.015355
    31  H    0.322736
 Mulliken charges:
               1
     1  O   -0.542103
     2  C    0.555770
     3  N   -0.262236
     4  C   -0.546155
     5  C    0.608289
     6  O   -0.366758
     7  O   -0.427814
     8  C   -0.576022
     9  C    0.297509
    10  C   -0.209333
    11  N   -0.273503
    12  C    0.299361
    13  N   -0.305052
    14  C   -0.454080
    15  C   -0.167202
    16  N   -0.600961
    17  H    0.337934
    18  H    0.200290
    19  H    0.369559
    20  H    0.191414
    21  H    0.173965
    22  H    0.141937
    23  H    0.143263
    24  H    0.344133
    25  H    0.177726
    26  H    0.200455
    27  H    0.244028
    28  H    0.221076
    29  H    0.405891
    30  H    0.407034
    31  H    0.411586
 Sum of Mulliken charges =   1.00000
 Mulliken charges with hydrogens summed into heavy atoms:
               1
     1  O   -0.542103
     2  C    0.555770
     3  N    0.075698
     4  C   -0.345865
     5  C    0.608289
     6  O    0.002801
     7  O   -0.427814
     8  C   -0.210642
     9  C    0.297509
    10  C   -0.067397
    11  N   -0.273503
    12  C    0.442624
    13  N    0.039081
    14  C   -0.075899
    15  C    0.297901
    16  N    0.623550
 APT charges:
               1
     1  O   -0.633475
     2  C    0.598957
     3  N   -0.557820
     4  C   -0.423315
     5  C   -0.157169
     6  O   -0.098696
     7  O   -0.027615
     8  C   -1.214506
     9  C    0.034722
    10  C   -0.427549
    11  N   -0.049189
    12  C   -0.324381
    13  N   -0.440994
    14  C   -1.208962
    15  C   -0.001510
    16  N   -2.047440
    17  H    0.727417
    18  H    0.347942
    19  H    0.384569
    20  H    0.641078
    21  H    0.219611
    22  H    0.813859
    23  H    0.725301
    24  H    0.113867
    25  H    0.433297
    26  H    0.518168
    27  H    0.265298
    28  H    0.232076
    29  H    0.762067
    30  H    0.727767
    31  H    1.066626
 Sum of APT charges =   1.00000
 APT charges with hydrogens summed into heavy atoms:
               1
     1  O   -0.633475
     2  C    0.598957
     3  N    0.169597
     4  C   -0.075373
     5  C   -0.157169
     6  O    0.285873
     7  O   -0.027615
     8  C   -0.353817
     9  C    0.034722
    10  C    0.386309
    11  N   -0.049189
    12  C    0.400920
    13  N   -0.327127
    14  C   -0.257498
    15  C    0.495863
    16  N    0.509021
 Electronic spatial extent (au):  <R**2>=           4912.0275
 Charge=              1.0000 electrons
 Dipole moment (field-independent basis, Debye):
    X=             22.6065    Y=             -4.2527    Z=              2.0207  Tot=             23.0916
 Quadrupole moment (field-independent basis, Debye-Ang):
   XX=             -4.9586   YY=            -94.5196   ZZ=            -93.0600
   XY=            -24.9539   XZ=             13.0567   YZ=              6.2567
 Traceless Quadrupole moment (field-independent basis, Debye-Ang):
   XX=             59.2208   YY=            -30.3402   ZZ=            -28.8806
   XY=            -24.9539   XZ=             13.0567   YZ=              6.2567
 Octapole moment (field-independent basis, Debye-Ang**2):
  XXX=            772.5702  YYY=           -143.6829  ZZZ=             37.8084  XYY=             97.5940
  XXY=            -77.2956  XXZ=             35.1026  XZZ=             90.8860  YZZ=            -39.0566
  YYZ=             49.4782  XYZ=            -27.8040
 Hexadecapole moment (field-independent basis, Debye-Ang**3):
 XXXX=          -2376.2583 YYYY=          -1584.7678 ZZZZ=           -623.2681 XXXY=           -638.1561
 XXXZ=            415.5373 YYYX=            168.8553 YYYZ=            439.3553 ZZZX=             79.1416
 ZZZY=            368.7780 XXYY=           -793.8098 XXZZ=           -754.8844 YYZZ=           -414.6063
 XXYZ=            117.0970 YYXZ=              0.8988 ZZXY=             20.6561
 N-N= 1.130017815913D+03 E-N=-4.100445179106D+03  KE= 7.894913808946D+02
  Exact polarizability:   0.000   0.000   0.000   0.000   0.000   0.000
 Approx polarizability: 225.666  11.833 220.318  -9.285 -12.197 148.585
 Calling FoFJK, ICntrl=    100147 FMM=F ISym2X=0 I1Cent= 0 IOpClX= 0 NMat=1 NMatS=1 NMatT=0.
 -------------------------------------------------------------------
 Center     Atomic                   Forces (Hartrees/Bohr)
 Number     Number              X              Y              Z
 -------------------------------------------------------------------
      1        8           0.010959697   -0.010873386    0.005099380
      2        6          -0.018189306    0.008294980   -0.005079899
      3        7           0.011279081   -0.007262367    0.001102542
      4        6           0.001206041    0.000337908   -0.002202792
      5        6          -0.017448070   -0.003705564   -0.000392863
      6        8           0.008705762    0.001336119    0.000105779
      7        8           0.014571976    0.010857577   -0.003573410
      8        6          -0.007611061   -0.006195020    0.001422626
      9        6           0.010088054    0.009636003   -0.002295544
     10        6          -0.016784543   -0.003819595    0.000955623
     11        7          -0.004973527    0.006272884    0.001036606
     12        6          -0.002588340   -0.003464892    0.000749299
     13        7           0.007821426   -0.003087913   -0.000516009
     14        6           0.012084477    0.004961317   -0.003788297
     15        6          -0.028467312   -0.000756695    0.002703734
     16        7           0.005012179   -0.001267234    0.000954817
     17        1           0.002851769    0.007694159   -0.001033313
     18        1          -0.000828081   -0.001578872    0.001596540
     19        1          -0.009053643   -0.004515885    0.001442979
     20        1          -0.000532165    0.002494102    0.000653751
     21        1           0.004485340    0.001033014    0.002322949
     22        1          -0.000827383    0.000383394    0.001088349
     23        1          -0.001670974   -0.004227996   -0.000143127
     24        1           0.002342252   -0.001593633   -0.000861363
     25        1           0.001162260    0.003421692   -0.000181628
     26        1          -0.000537538    0.000709084   -0.004435675
     27        1           0.004345662   -0.004447845    0.000578768
     28        1           0.005452535   -0.000978530    0.004145549
     29        1           0.002751423   -0.000924857   -0.005524796
     30        1           0.002930238    0.004926923    0.000747140
     31        1           0.001461771   -0.003658874    0.003322287
 -------------------------------------------------------------------
 Cartesian Forces:  Max     0.028467312 RMS     0.006443296
 FormGI is forming the generalized inverse of G from B-inverse, IUseBI=4.

 GradGradGradGradGradGradGradGradGradGradGradGradGradGradGradGradGradGrad
 Berny optimization.
 Internal  Forces:  Max     0.021131053 RMS     0.005028577
 Search for a local minimum.
 Step number   1 out of a maximum of  167
 All quantities printed in internal units (Hartrees-Bohrs-Radians)
 Mixed Optimization -- RFO/linear search
 Second derivative matrix not updated -- analytic derivatives used.
 ITU=  0
     Eigenvalues ---    0.00069   0.00183   0.00189   0.00214   0.00391
     Eigenvalues ---    0.00518   0.00569   0.00859   0.01022   0.01299
     Eigenvalues ---    0.01511   0.02146   0.02470   0.02847   0.03476
     Eigenvalues ---    0.03851   0.04011   0.04151   0.04306   0.04369
     Eigenvalues ---    0.04419   0.04537   0.04979   0.05051   0.05332
     Eigenvalues ---    0.05419   0.06070   0.06155   0.06278   0.07540
     Eigenvalues ---    0.07882   0.08354   0.10585   0.10648   0.11054
     Eigenvalues ---    0.11534   0.11862   0.12504   0.13153   0.13358
     Eigenvalues ---    0.13822   0.15837   0.16005   0.17304   0.17443
     Eigenvalues ---    0.17801   0.19510   0.20191   0.20687   0.22291
     Eigenvalues ---    0.23137   0.23317   0.24076   0.24461   0.25282
     Eigenvalues ---    0.27286   0.29812   0.30275   0.31979   0.32718
     Eigenvalues ---    0.33405   0.33977   0.34590   0.34644   0.34935
     Eigenvalues ---    0.35047   0.35372   0.35726   0.35784   0.37353
     Eigenvalues ---    0.37637   0.38542   0.42681   0.44119   0.44309
     Eigenvalues ---    0.44577   0.44839   0.45142   0.47269   0.47398
     Eigenvalues ---    0.48074   0.49534   0.53168   0.59819   0.70963
     Eigenvalues ---    0.81316   0.94821
 RFO step:  Lambda=-1.09299039D-02 EMin= 6.92146571D-04
 Linear search not attempted -- first point.
 Iteration  1 RMS(Cart)=  0.07139380 RMS(Int)=  0.00141156
 Iteration  2 RMS(Cart)=  0.00202011 RMS(Int)=  0.00028724
 Iteration  3 RMS(Cart)=  0.00000338 RMS(Int)=  0.00028724
 Iteration  4 RMS(Cart)=  0.00000000 RMS(Int)=  0.00028724
 Variable       Old X    -DE/DX   Delta X   Delta X   Delta X     New X
                                 (Linear)    (Quad)   (Total)
    R1        2.32881   0.00442   0.00000   0.00780   0.00780   2.33661
    R2        2.55251  -0.00031   0.00000  -0.01680  -0.01680   2.53571
    R3        2.86524   0.00625   0.00000   0.03730   0.03730   2.90254
    R4        2.73423   0.01297   0.00000   0.01987   0.01987   2.75411
    R5        1.90651   0.00789   0.00000   0.01702   0.01702   1.92354
    R6        2.87645   0.00528   0.00000   0.01676   0.01676   2.89320
    R7        2.94870   0.00861   0.00000   0.02106   0.02106   2.96976
    R8        2.07176   0.00054   0.00000   0.00054   0.00054   2.07230
    R9        2.54845  -0.00033   0.00000  -0.01709  -0.01709   2.53136
   R10        2.26522   0.01823   0.00000   0.02151   0.02151   2.28673
   R11        1.82263   0.00866   0.00000   0.01557   0.01557   1.83820
   R12        2.82477   0.00436   0.00000  -0.00527  -0.00527   2.81950
   R13        2.06002   0.00254   0.00000   0.00744   0.00744   2.06746
   R14        2.05656   0.00465   0.00000   0.01299   0.01299   2.06955
   R15        2.57451   0.01710   0.00000   0.02990   0.02991   2.60442
   R16        2.59556   0.00925   0.00000   0.01976   0.01979   2.61534
   R17        2.61665  -0.00349   0.00000  -0.01443  -0.01445   2.60220
   R18        2.04228   0.00097   0.00000   0.00282   0.00282   2.04510
   R19        2.47778   0.00626   0.00000   0.00919   0.00917   2.48695
   R20        2.56248   0.01104   0.00000   0.02157   0.02158   2.58406
   R21        2.03291   0.00421   0.00000   0.00985   0.00985   2.04276
   R22        1.90717   0.00284   0.00000   0.00915   0.00915   1.91633
   R23        2.86982   0.00658   0.00000   0.01120   0.01120   2.88102
   R24        2.06295   0.00348   0.00000   0.00769   0.00769   2.07064
   R25        2.06718   0.00382   0.00000   0.00871   0.00871   2.07589
   R26        2.81148   0.01218   0.00000   0.05936   0.05936   2.87084
   R27        2.05790   0.00226   0.00000   0.00342   0.00342   2.06132
   R28        2.05877   0.00212   0.00000   0.00422   0.00422   2.06299
   R29        1.92736   0.00616   0.00000   0.01206   0.01206   1.93942
   R30        1.92782   0.00571   0.00000   0.01106   0.01106   1.93888
   R31        1.92946   0.00512   0.00000   0.00986   0.00986   1.93931
    A1        2.11118   0.02113   0.00000   0.05638   0.05635   2.16754
    A2        2.13921  -0.01494   0.00000  -0.05108  -0.05111   2.08810
    A3        2.03256  -0.00618   0.00000  -0.00501  -0.00504   2.02752
    A4        2.10480   0.01711   0.00000   0.02091   0.02085   2.12565
    A5        2.13351  -0.00722   0.00000   0.00458   0.00454   2.13805
    A6        2.02256  -0.00961   0.00000  -0.02158  -0.02166   2.00089
    A7        1.87074  -0.00751   0.00000  -0.01050  -0.01052   1.86022
    A8        1.95565   0.00996   0.00000   0.02149   0.02154   1.97719
    A9        1.88929   0.00053   0.00000   0.00076   0.00088   1.89017
   A10        1.95725  -0.00303   0.00000  -0.00198  -0.00198   1.95527
   A11        1.87142   0.00258   0.00000   0.01165   0.01160   1.88302
   A12        1.91614  -0.00276   0.00000  -0.02131  -0.02129   1.89485
   A13        2.00674   0.00301   0.00000   0.01733   0.01733   2.02407
   A14        2.15930  -0.00519   0.00000  -0.02359  -0.02359   2.13571
   A15        2.11713   0.00218   0.00000   0.00624   0.00624   2.12337
   A16        1.91543   0.00987   0.00000   0.04731   0.04731   1.96275
   A17        1.96584   0.00865   0.00000  -0.00420  -0.00420   1.96165
   A18        1.93589  -0.00284   0.00000  -0.00751  -0.00755   1.92834
   A19        1.88687  -0.00350   0.00000  -0.00879  -0.00882   1.87805
   A20        1.89761  -0.00543   0.00000   0.00158   0.00153   1.89913
   A21        1.91528   0.00191   0.00000   0.02408   0.02408   1.93936
   A22        1.85934   0.00090   0.00000  -0.00475  -0.00488   1.85445
   A23        2.31642  -0.00529   0.00000   0.00492   0.00490   2.32132
   A24        2.13078   0.00789   0.00000  -0.00018  -0.00020   2.13058
   A25        1.83569  -0.00260   0.00000  -0.00466  -0.00463   1.83107
   A26        1.92996   0.00186   0.00000   0.00297   0.00292   1.93289
   A27        2.23497  -0.00044   0.00000  -0.00253  -0.00257   2.23239
   A28        2.11826  -0.00142   0.00000  -0.00044  -0.00048   2.11777
   A29        1.83132   0.00165   0.00000   0.00756   0.00753   1.83885
   A30        1.95147   0.00155   0.00000   0.00040   0.00040   1.95187
   A31        2.20619  -0.00254   0.00000  -0.01192  -0.01192   2.19427
   A32        2.12552   0.00098   0.00000   0.01153   0.01152   2.13705
   A33        1.87633  -0.00247   0.00000  -0.00626  -0.00623   1.87010
   A34        2.16659   0.00197   0.00000   0.00722   0.00720   2.17379
   A35        2.24026   0.00050   0.00000  -0.00093  -0.00095   2.23930
   A36        1.95048  -0.01091   0.00000  -0.06120  -0.06117   1.88930
   A37        1.91380   0.00399   0.00000   0.02631   0.02658   1.94039
   A38        1.88311   0.00125   0.00000  -0.00715  -0.00717   1.87595
   A39        1.93221   0.00349   0.00000   0.01880   0.01889   1.95110
   A40        1.90561   0.00452   0.00000   0.02149   0.02071   1.92633
   A41        1.87646  -0.00206   0.00000   0.00350   0.00313   1.87958
   A42        1.95463  -0.00242   0.00000  -0.01128  -0.01084   1.94379
   A43        1.89392   0.00394   0.00000   0.03610   0.03529   1.92921
   A44        1.91292   0.00436   0.00000   0.04234   0.04158   1.95450
   A45        1.91974  -0.00295   0.00000  -0.04185  -0.04178   1.87796
   A46        1.90971  -0.00308   0.00000  -0.04393  -0.04381   1.86590
   A47        1.87099   0.00034   0.00000   0.02093   0.01831   1.88930
   A48        1.93940   0.00108   0.00000   0.00379   0.00379   1.94319
   A49        1.94585   0.00093   0.00000   0.00519   0.00519   1.95105
   A50        1.95191  -0.00107   0.00000  -0.00979  -0.00978   1.94213
   A51        1.87891  -0.00108   0.00000  -0.00501  -0.00502   1.87390
   A52        1.87198  -0.00002   0.00000   0.00247   0.00248   1.87446
   A53        1.87195   0.00009   0.00000   0.00335   0.00336   1.87531
    D1       -0.04469  -0.00117   0.00000  -0.04715  -0.04733  -0.09202
    D2       -2.95156  -0.00139   0.00000  -0.06463  -0.06500  -3.01656
    D3        3.07420  -0.00084   0.00000  -0.03405  -0.03368   3.04052
    D4        0.16733  -0.00106   0.00000  -0.05153  -0.05135   0.11598
    D5       -0.51302   0.00060   0.00000   0.02201   0.02144  -0.49159
    D6       -2.66232   0.00081   0.00000   0.02138   0.02127  -2.64104
    D7        1.58209   0.00041   0.00000   0.00696   0.00707   1.58916
    D8        2.65167  -0.00025   0.00000   0.00715   0.00695   2.65862
    D9        0.50238  -0.00004   0.00000   0.00651   0.00679   0.50917
   D10       -1.53640  -0.00044   0.00000  -0.00790  -0.00741  -1.54381
   D11       -2.85552   0.00001   0.00000  -0.00548  -0.00543  -2.86095
   D12        1.27339   0.00263   0.00000  -0.00946  -0.00935   1.26404
   D13       -0.84207  -0.00057   0.00000   0.00310   0.00312  -0.83895
   D14        0.06565   0.00024   0.00000   0.01389   0.01382   0.07947
   D15       -2.08863   0.00286   0.00000   0.00991   0.00990  -2.07873
   D16        2.07910  -0.00034   0.00000   0.02247   0.02237   2.10147
   D17        3.07123  -0.00231   0.00000  -0.00363  -0.00363   3.06760
   D18       -0.07601  -0.00243   0.00000  -0.00751  -0.00750  -0.08350
   D19       -1.05866   0.00306   0.00000   0.01481   0.01482  -1.04385
   D20        2.07728   0.00294   0.00000   0.01093   0.01095   2.08823
   D21        1.04591  -0.00047   0.00000  -0.00507  -0.00510   1.04081
   D22       -2.10133  -0.00059   0.00000  -0.00895  -0.00897  -2.11030
   D23       -2.19363  -0.00844   0.00000  -0.03611  -0.03604  -2.22967
   D24        1.95811  -0.00548   0.00000  -0.02966  -0.02959   1.92852
   D25       -0.07443  -0.00293   0.00000  -0.01457  -0.01454  -0.08898
   D26        1.98474  -0.00367   0.00000  -0.03642  -0.03640   1.94834
   D27       -0.14670  -0.00071   0.00000  -0.02997  -0.02995  -0.17665
   D28       -2.17924   0.00184   0.00000  -0.01488  -0.01490  -2.19414
   D29       -0.09372  -0.00313   0.00000  -0.03558  -0.03562  -0.12935
   D30       -2.22517  -0.00018   0.00000  -0.02913  -0.02918  -2.25434
   D31        2.02548   0.00238   0.00000  -0.01404  -0.01413   2.01135
   D32       -0.04422   0.00030   0.00000   0.01408   0.01405  -0.03017
   D33        3.10287   0.00044   0.00000   0.01797   0.01799   3.12087
   D34       -2.04190   0.00134   0.00000   0.01422   0.01423  -2.02767
   D35        1.06947   0.00166   0.00000   0.01855   0.01856   1.08803
   D36        0.11101  -0.00033   0.00000   0.00289   0.00286   0.11387
   D37       -3.06081  -0.00002   0.00000   0.00722   0.00720  -3.05362
   D38        2.13833  -0.00127   0.00000   0.01143   0.01145   2.14977
   D39       -1.03350  -0.00095   0.00000   0.01576   0.01578  -1.01771
   D40        3.11881   0.00041   0.00000   0.00274   0.00275   3.12155
   D41       -0.02254  -0.00022   0.00000  -0.01492  -0.01491  -0.03745
   D42        0.00375  -0.00001   0.00000  -0.00109  -0.00108   0.00267
   D43       -3.13760  -0.00065   0.00000  -0.01875  -0.01874   3.12685
   D44       -3.12174  -0.00019   0.00000  -0.00343  -0.00342  -3.12516
   D45        0.01424  -0.00024   0.00000   0.00216   0.00218   0.01642
   D46       -0.00316  -0.00004   0.00000   0.00001   0.00000  -0.00316
   D47        3.13282  -0.00010   0.00000   0.00559   0.00559   3.13841
   D48       -0.00287   0.00008   0.00000   0.00179   0.00179  -0.00109
   D49        3.13850   0.00066   0.00000   0.01807   0.01809  -3.12659
   D50        0.00079  -0.00012   0.00000  -0.00181  -0.00181  -0.00102
   D51        3.13936   0.00005   0.00000  -0.00063  -0.00064   3.13872
   D52        0.00151   0.00012   0.00000   0.00120   0.00119   0.00271
   D53       -3.13415   0.00017   0.00000  -0.00472  -0.00471  -3.13886
   D54       -3.13722  -0.00003   0.00000   0.00013   0.00012  -3.13710
   D55        0.01030   0.00002   0.00000  -0.00579  -0.00579   0.00451
   D56        3.07519  -0.00103   0.00000  -0.03231  -0.03235   3.04285
   D57        0.95274   0.00154   0.00000   0.00288   0.00343   0.95617
   D58       -1.08514  -0.00352   0.00000  -0.06617  -0.06682  -1.15196
   D59       -1.06918  -0.00108   0.00000  -0.02808  -0.02821  -1.09739
   D60        3.09155   0.00149   0.00000   0.00712   0.00757   3.09913
   D61        1.05368  -0.00357   0.00000  -0.06193  -0.06268   0.99100
   D62        0.99333   0.00126   0.00000   0.00066   0.00086   0.99419
   D63       -1.12912   0.00383   0.00000   0.03585   0.03664  -1.09249
   D64        3.11619  -0.00124   0.00000  -0.03320  -0.03362   3.08257
   D65       -1.04264   0.00014   0.00000   0.00193   0.00192  -1.04072
   D66        1.05343   0.00013   0.00000   0.00165   0.00166   1.05509
   D67       -3.13400   0.00015   0.00000   0.00280   0.00279  -3.13121
   D68        1.06491   0.00150   0.00000   0.01143   0.01121   1.07612
   D69       -3.12220   0.00149   0.00000   0.01116   0.01095  -3.11125
   D70       -1.02645   0.00151   0.00000   0.01230   0.01209  -1.01436
   D71        3.11585  -0.00164   0.00000  -0.01377  -0.01356   3.10229
   D72       -1.07126  -0.00165   0.00000  -0.01405  -0.01383  -1.08509
   D73        1.02449  -0.00163   0.00000  -0.01290  -0.01269   1.01180
         Item               Value     Threshold  Converged?
 Maximum Force            0.021131     0.000450     NO 
 RMS     Force            0.005029     0.000300     NO 
 Maximum Displacement     0.289555     0.001800     NO 
 RMS     Displacement     0.071602     0.001200     NO 
 Predicted change in Energy=-5.857447D-03
 GradGradGradGradGradGradGradGradGradGradGradGradGradGradGradGradGradGrad

                          Input orientation:                          
 ---------------------------------------------------------------------
 Center     Atomic      Atomic             Coordinates (Angstroms)
 Number     Number       Type             X           Y           Z
 ---------------------------------------------------------------------
      1          8           0        0.619541   -1.069920   -0.015229
      2          6           0        1.165263   -0.008479   -0.338364
      3          7           0        0.502381    1.115233   -0.652033
      4          6           0       -0.951571    1.147891   -0.746911
      5          6           0       -1.311578    2.431114   -1.500403
      6          8           0       -2.611496    2.606908   -1.771841
      7          8           0       -0.478899    3.246791   -1.825407
      8          6           0       -1.667288    1.063892    0.649656
      9          6           0       -2.697420   -0.014416    0.696506
     10          6           0       -4.065614   -0.000766    0.861726
     11          7           0       -4.576444   -1.278319    0.805989
     12          6           0       -3.537058   -2.060998    0.608381
     13          7           0       -2.371882   -1.349425    0.531669
     14          6           0        2.697751    0.067081   -0.408599
     15          6           0        3.271314   -0.945238    0.576569
     16          7           0        4.784197   -1.028876    0.466531
     17          1           0        0.970171    1.942565   -1.016445
     18          1           0       -1.275985    0.296565   -1.357293
     19          1           0       -3.158623    1.862423   -1.467525
     20          1           0       -2.143900    2.017966    0.893648
     21          1           0       -0.894330    0.904386    1.408911
     22          1           0       -4.706290    0.854680    1.031854
     23          1           0       -3.566283   -3.137583    0.515463
     24          1           0       -1.431177   -1.697919    0.383422
     25          1           0        3.053866    1.082518   -0.201948
     26          1           0        2.994068   -0.188165   -1.435134
     27          1           0        2.870757   -1.940464    0.379269
     28          1           0        3.042217   -0.683487    1.611357
     29          1           0        5.075043   -1.309289   -0.476899
     30          1           0        5.231174   -0.127967    0.669697
     31          1           0        5.167824   -1.717760    1.123371
 ---------------------------------------------------------------------
                    Distance matrix (angstroms):
                    1          2          3          4          5
     1  O    0.000000
     2  C    1.236481   0.000000
     3  N    2.279066   1.341838   0.000000
     4  C    2.814682   2.446444   1.457411   0.000000
     5  C    4.265231   3.665609   2.396189   1.531018   0.000000
     6  O    5.200418   4.812381   3.629779   2.436096   1.339540
     7  O    4.808046   3.938445   2.623596   2.406648   1.210087
     8  C    3.197626   3.185829   2.530711   1.571530   2.572660
     9  C    3.552871   3.998914   3.651492   2.546056   3.567574
    10  C    4.884958   5.366782   4.939990   3.688412   4.367883
    11  N    5.264607   5.990763   5.800809   4.630086   5.453319
    12  C    4.318384   5.217373   5.290951   4.338033   5.438640
    13  N    3.053822   3.881557   3.966999   3.144620   4.421090
    14  C    2.401347   1.535956   2.444899   3.821015   4.780733
    15  C    2.719866   2.479934   3.663604   4.895462   6.059411
    16  N    4.192629   3.845224   4.917554   6.253783   7.280030
    17  H    3.193813   2.074712   1.017891   2.096962   2.383123
    18  H    2.694705   2.662886   2.080913   1.096616   2.139637
    19  H    4.998232   4.844715   3.824431   2.429180   1.932890
    20  H    4.242370   4.071227   3.194818   2.206833   2.568060
    21  H    2.866682   2.851003   2.498549   2.170285   3.311963
    22  H    5.758901   6.090786   5.480293   4.165080   4.519019
    23  H    4.698722   5.736535   6.000293   5.176446   6.337017
    24  H    2.181456   3.180674   3.567162   3.099405   4.540046
    25  H    3.254810   2.185338   2.591085   4.042868   4.749926
    26  H    2.903791   2.140028   2.919006   4.222175   5.040185
    27  H    2.445701   2.675121   4.001259   5.041469   6.335281
    28  H    2.943548   2.789266   3.848259   4.986554   6.191876
    29  H    4.485748   4.122824   5.178630   6.513886   7.471753
    30  H    4.756423   4.190716   5.064978   6.470002   7.352947
    31  H    4.733179   4.591166   5.739710   7.011199   8.128960
                    6          7          8          9         10
     6  O    0.000000
     7  O    2.227171   0.000000
     8  C    3.022594   3.507600   0.000000
     9  C    3.601591   4.681597   1.492017   0.000000
    10  C    3.981218   5.534603   2.632572   1.378201   0.000000
    11  N    5.059764   6.647612   3.738125   2.267194   1.377024
    12  C    5.320852   6.591531   3.641796   2.213878   2.141988
    13  N    4.584337   5.501308   2.516838   1.383979   2.190102
    14  C    6.041296   4.712643   4.600772   5.507792   6.881964
    15  C    7.262247   6.116101   5.332142   6.042070   7.402962
    16  N    8.539644   7.157827   6.784900   7.553583   8.918091
    17  H    3.720257   2.110741   3.241011   4.496132   5.715172
    18  H    2.700578   3.091652   2.183977   2.516998   3.576937
    19  H    0.972735   3.037347   2.710017   2.901425   3.117614
    20  H    2.769536   3.416943   1.094052   2.115615   2.787344
    21  H    3.995550   4.015004   1.095159   2.145425   3.343015
    22  H    3.913971   5.635332   3.070077   2.214349   1.082218
    23  H    6.256401   7.468055   4.612654   3.246825   3.195129
    24  H    4.956798   5.498720   2.784641   2.129690   3.170072
    25  H    6.073274   4.449733   4.797381   5.923493   7.279553
    26  H    6.272810   4.900278   5.257588   6.080059   7.426290
[...]
 62,0.02212269,0.00482926,0.00072558,-0.00038525,0.00031420,-0.00083838
 ,-0.00000900,0.00029822,-0.00000931,0.00001989,-0.00002233,0.00000840,
 -0.00002029,0.00002523,0.00001168,-0.00001119,0.00000859,0.00001147,0.
 00002683,-0.00002663,0.00000214,-0.00000131,0.00000430,-0.00000054,0.0
 0000055,-0.00000015,0.00001295,0.00000873,-0.00000104,0.01512800,0.066
 87170,0.06842572,-0.00140313,-0.00140089,-0.00397113,-0.00902309,0.004
 42178,0.03314850,-0.00110081,-0.00038170,-0.00150683,-0.00005569,-0.00
 026146,-0.00143903,-0.00019395,-0.00051054,0.00019522,-0.00013043,0.00
 018540,-0.00006623,0.00007087,0.00019694,-0.00023595,0.00026716,0.0000
 6680,-0.00012597,0.00002009,0.00001392,0.00000795,0.00003078,-0.000012
 41,-0.00000707,-0.00004705,-0.00003526,-0.00000884,-0.00001426,0.00000
 055,0.00000189,-0.00001711,0.00002589,0.00000497,-0.06330240,0.0109293
 5,0.07074346,0.00278951,-0.00184168,-0.02013970,0.00194533,-0.00103533
 ,-0.00064772,-0.00045796,0.00034692,0.00065685,-0.00036129,0.00015192,
 -0.00001251,0.00005966,0.00000294,0.00000247,-0.00000260,-0.00000508,0
 .00001960,0.00004145,0.00000711,-0.00001864,0.00000456,-0.00000269,0.0
 0000051,-0.00000264,-0.00000002,0.00000146,0.00002315,0.00002402,-0.00
 000251,0.00153703,-0.00067618,-0.00578944,0.07078142,-0.00102516,-0.00
 057422,-0.00157685,-0.00290259,-0.00030380,0.00720495,0.00113628,0.000
 27786,0.00009762,-0.00023022,0.00002206,0.00005389,0.00006394,0.000256
 75,-0.00015977,0.00000729,-0.00007942,0.00004033,-0.00006842,-0.000135
 79,0.00015996,0.00004350,-0.00005934,0.00006799,-0.00000264,-0.0000020
 9,-0.00002654,-0.00001999,0.00000669,0.00000680,0.00002636,0.00002359,
 0.00000689,0.00001289,0.00000641,0.00000073,0.00001600,-0.00001516,-0.
 00001093,0.01120470,-0.05382694,-0.03327426,-0.00602101,0.00285894,0.0
 2228210,-0.00098718,0.00101380,-0.00043600,0.00018936,-0.00004144,-0.0
 0057156,0.00011246,0.00000865,0.00004168,-0.00002298,0.00000823,-0.000
 01173,-0.00001040,0.00000634,-0.00001726,0.00000022,-0.00001876,0.0000
 1153,-0.00000330,0.00000175,-0.00000189,0.00000052,-0.00000062,0.00000
 111,0.00000123,-0.00001077,0.00000991,0.00913426,-0.00247666,-0.029387
 96,-0.01302838,0.05405975,0.00006866,-0.00026454,0.00066090,0.00247017
 ,-0.00005906,-0.00110317,-0.00032127,0.00063964,0.00047510,0.00029761,
 0.00003478,0.00012627,0.00000675,-0.00001561,0.00000709,-0.00000611,0.
 00000690,-0.00000353,-0.00000787,0.00000545,-0.00001912,-0.00009662,-0
 .00003470,-0.00002816,-0.00000202,0.00001277,0.00002843,-0.00000075,-0
 .00000604,-0.00000206,-0.00000563,-0.00000359,-0.00000145,-0.00000633,
 -0.00000040,0.,0.00000228,0.00000585,-0.00000039,0.06362412,-0.0336099
 0,-0.28067136,0.00458797,-0.00210883,-0.01980435,0.00066210,-0.0010227
 6,0.00192707,-0.00000521,-0.00012561,-0.00021301,0.00000043,-0.0000560
 8,-0.00002704,-0.00000028,-0.00000078,0.00000435,0.00000059,0.00001139
 ,-0.00000958,0.00000736,-0.00000253,-0.00002777,-0.00000036,0.00000019
 ,-0.00000069,-0.00000043,-0.00000003,-0.00000071,-0.00000002,0.0000004
 8,-0.00000284,0.00197049,-0.00080320,-0.00631903,-0.06968830,0.0339741
 4,0.30524786,-0.00191562,-0.00294859,0.00016653,0.00105297,0.00520997,
 -0.00121031,0.00038503,-0.00237747,0.00044461,-0.00032158,-0.00002815,
 -0.00001107,-0.00005645,0.00016815,-0.00012302,0.00004454,-0.00005528,
 0.00003327,0.00002025,-0.00016349,0.00010637,-0.00001519,0.00000459,-0
 .00000435,-0.00001047,0.00003615,-0.00000860,-0.00000428,0.00000367,0.
 00000963,0.00005823,-0.00000770,-0.00000427,-0.00005368,-0.00000331,-0
 .00000055,0.00004544,-0.00002687,-0.00001225,0.00620117,0.01564306,0.0
 0440167,-0.06288704,-0.06333578,-0.01004126,-0.02079070,-0.03397148,-0
 .00474066,0.00050911,0.00003197,0.00010808,-0.00003801,0.00005374,-0.0
 0002181,-0.00001832,0.00001350,-0.00001131,0.00002340,-0.00002220,0.00
 001121,-0.00002232,0.00002208,0.00007588,-0.00000109,0.00000091,0.0000
 0077,-0.00000150,-0.00000135,0.00000166,-0.00006165,-0.00000649,0.0000
 0680,-0.00258438,0.00191802,-0.00276435,0.00050356,-0.00039558,-0.0001
 6357,0.08069625,-0.00226352,0.00181349,-0.00099934,-0.00142273,-0.0026
 7086,0.00049156,-0.00006673,0.00026691,0.00008374,0.00001357,0.0000317
 9,-0.00001589,-0.00000382,-0.00003992,0.00004270,-0.00000568,0.0000075
 9,-0.00000907,0.00001284,0.00003781,-0.00001911,0.00001320,0.00000578,
 -0.00000321,0.00000841,0.00000965,-0.00000009,0.00000634,-0.00000419,-
 0.00000156,-0.00000528,-0.00001174,-0.00000106,-0.00000965,0.00000309,
 0.00000110,-0.00000167,-0.00000185,0.00000322,-0.00128218,-0.01925724,
 -0.00264701,-0.07456361,-0.30464532,-0.04652387,0.00264440,0.00551420,
 0.00074190,-0.00005411,0.00006454,-0.00009229,0.00002087,0.00001226,0.
 00000708,0.00000578,0.00000197,-0.00000081,-0.00000570,0.00000239,-0.0
 0000062,0.00001532,-0.00000357,-0.00001916,0.00000081,-0.00000076,-0.0
 0000026,-0.00000224,0.00000042,-0.00000088,0.00000199,0.00001881,-0.00
 000352,0.00144913,-0.00068110,0.00286007,-0.00025332,0.00077966,0.0000
 4519,0.07595275,0.32106201,0.00011970,-0.00096721,-0.00125914,0.000119
 26,0.00092709,0.00058625,0.00020399,-0.00022799,0.00019307,-0.00006046
 ,-0.00007784,0.00000073,-0.00000720,0.00006161,-0.00003972,0.00003484,
 -0.00001766,0.00001048,0.00001009,-0.00004331,0.00001391,-0.00000598,-
 0.00002446,0.00001313,-0.00000363,0.00000456,-0.00000892,-0.00001005,0
 .00000279,-0.00000293,0.00001165,0.00000906,-0.00000246,0.00000344,0.0
 0000153,-0.00000003,0.00000663,-0.00000381,-0.00001929,0.00474975,0.02
 012916,0.00408075,-0.01396634,-0.04921508,-0.06203353,0.00539834,0.009
 24202,0.00040681,0.00018781,0.00004496,0.00012343,-0.00002351,-0.00001
 080,0.00000420,-0.00001690,-0.00000560,0.00001303,0.00000346,-0.000000
 11,-0.00000317,-0.00000450,-0.00000714,0.00002118,-0.00000140,0.000000
 68,0.00000270,0.00000036,-0.00000074,0.00000463,-0.00000610,-0.0000112
 9,0.00003167,-0.00244004,0.00220130,-0.00185220,0.00085999,-0.00010890
 ,0.00066539,0.01276832,0.04622179,0.06140986,-0.00056670,-0.00048699,0
 .00082009,0.00208333,0.00070989,-0.00088638,-0.00059472,0.00021275,0.0
 0024418,0.00015501,0.00001950,-0.00004872,0.00008302,0.00003052,-0.000
 01259,-0.00008897,-0.00000042,0.00000155,-0.00007904,-0.00003026,0.000
 03063,-0.00004754,0.00002391,-0.00005619,-0.00000967,-0.00000879,0.000
 04332,0.00000043,-0.00000414,0.00001580,0.00000421,0.00000352,-0.00000
 056,-0.00000193,-0.00000267,-0.00000098,0.00000444,-0.00000159,0.00001
 431,0.00361380,-0.00444917,-0.01694186,-0.05102678,0.00249171,0.017560
 85,-0.01587923,0.00919692,0.03898619,0.00009187,-0.00010048,-0.0000549
 2,-0.00001793,-0.00000622,-0.00001017,0.00002153,0.00001572,-0.0000314
 4,-0.00001026,0.00001418,-0.00000519,-0.00002024,-0.00003118,-0.000012
 17,-0.00000083,0.00000077,-0.00000516,0.00000027,0.00000025,-0.0000028
 8,-0.00000131,0.00000014,-0.00002517,0.00041368,-0.00010105,0.00072801
 ,-0.00188130,0.00252165,-0.00183097,0.00328172,-0.00086736,-0.00913729
 ,0.06492973,-0.00016978,0.00016736,0.00070112,-0.00060773,0.00051033,-
 0.00009994,0.00004983,-0.00033215,-0.00034903,-0.00001638,-0.00000927,
 -0.00000361,0.00000902,0.00000276,0.00001060,-0.00001788,-0.00000214,-
 0.00000330,-0.00000632,-0.00001764,-0.00001934,0.00001175,0.00002715,-
 0.00000151,0.00000268,0.00001090,-0.00000075,0.00001064,0.00000080,0.0
 0000201,-0.00000117,-0.00001675,-0.00000152,-0.00001897,-0.00000138,-0
 .00000012,0.00000406,-0.00000458,0.00000548,-0.00243261,0.00508139,0.0
 2182176,0.00734212,-0.06702102,-0.06403190,-0.00176887,0.00017283,0.00
 362360,-0.00000460,0.00005042,0.00012101,-0.00001215,0.00000464,0.0000
 0090,0.00000654,0.00000755,-0.00000335,0.00001137,-0.00001364,0.000005
 77,0.00000161,0.00002262,-0.00000006,0.00000223,-0.00000072,-0.0000006
 6,-0.00000131,0.00000003,-0.00000173,-0.00000533,0.00000851,-0.0000141
 4,-0.00101815,0.00097474,-0.00015470,0.00286953,-0.00202299,0.00276274
 ,0.00480693,-0.00384705,-0.02881810,-0.00889244,0.06547777,-0.00024742
 ,-0.00057947,0.00063385,0.00073517,0.00105861,-0.00032362,-0.00024439,
 -0.00009837,0.00008447,0.00000001,0.00001085,-0.00000388,0.00001723,-0
 .00000222,-0.00000702,-0.00002313,0.00000216,-0.00000087,-0.00001864,-
 0.00000241,0.00001691,-0.00000979,0.00000690,-0.00002152,-0.00000257,-
 0.00000238,0.00000989,0.00000142,-0.00000084,0.00000306,0.00000251,-0.
 00000079,-0.00000156,-0.00000271,-0.00000093,0.00000021,0.00000217,0.0
 0000054,0.00000184,0.00044470,-0.00326839,-0.01572222,0.02988532,-0.06
 210730,-0.31169513,0.00111871,-0.00065577,-0.00179088,0.00003347,-0.00
 007340,-0.00008353,-0.00001525,0.00001640,-0.00000896,0.00000519,0.000
 00322,-0.00000705,-0.00000102,0.00000065,0.00000172,-0.00001317,-0.000
 00594,0.00001279,0.00000005,-0.00000030,-0.00000042,0.00000010,0.00000
 013,-0.00000022,-0.00000431,0.00000091,-0.00000264,0.00039974,-0.00006
 508,0.00109892,-0.00199967,0.00214319,-0.00032015,0.00004801,-0.000230
 46,-0.00290285,-0.03070453,0.06358643,0.32972249,0.00051028,0.00030514
 ,-0.00030759,-0.00117238,-0.00078575,-0.00014455,0.00073591,-0.0001446
 9,0.00001726,-0.00023436,-0.00008624,0.00007689,-0.00017981,0.00012615
 ,-0.00010744,0.00019793,-0.00004949,0.00004824,0.00012234,-0.00007079,
 0.00005642,0.00000722,-0.00001268,0.00005859,0.00000076,0.00000833,-0.
 00004740,-0.00003048,0.00001293,0.00000035,0.00005541,0.00002345,0.000
 00207,-0.00001107,0.00000493,0.00000219,0.00003087,-0.00002881,-0.0000
 1821,0.00206287,0.00015407,0.00110701,-0.00471748,0.00914078,0.0339942
 2,-0.06903571,0.01808637,0.06595066,-0.00005293,0.00016565,-0.00003702
 ,0.00003793,0.00000500,0.00000484,-0.00005179,-0.00001614,0.00002020,0
 .00000666,-0.00000487,-0.00000327,-0.00000587,0.00000450,0.00003119,-0
 .00000622,0.00000296,0.00000411,-0.00000063,-0.00000148,0.00000271,-0.
 00002775,-0.00002010,0.00001800,0.00008047,-0.00004382,-0.00026410,-0.
 00033881,0.00056095,-0.00157675,0.00116374,-0.00063066,-0.00003628,-0.
 00705946,-0.00080289,-0.00032350,0.07064813,-0.00039849,-0.00070335,-0
 .00000896,0.00104476,0.00069985,0.00015573,-0.00036098,-0.00005132,0.0
 0001872,0.00012003,0.00004912,-0.00001763,0.00015560,0.00000492,0.0000
 2906,-0.00014294,0.00000241,-0.00002312,-0.00010571,-0.00002066,-0.000
 00605,-0.00000275,0.00000141,-0.00002821,0.00000094,0.00001734,0.00002
 751,0.00002423,-0.00000956,0.00000256,-0.00002497,-0.00003184,-0.00000
 424,-0.00001853,0.00000125,-0.00000046,-0.00000612,0.00000510,0.000003
 50,-0.00052438,-0.00051796,-0.00084935,0.00059099,0.00127099,0.0031422
 5,0.01551142,-0.08513091,-0.08090477,0.00007264,-0.00006345,0.00002198
 ,-0.00002744,-0.00000467,-0.00000028,0.00003174,0.00002256,-0.00001592
 ,0.00000044,-0.00000174,0.00000032,0.00000327,0.00000491,-0.00001059,0
 .00000461,-0.00000251,-0.00000301,-0.00000261,0.00000079,-0.00000041,0
 .00000613,0.00002601,-0.00000034,0.00018693,-0.00018456,-0.00011505,0.
 00029158,0.00033387,0.00049679,-0.00070917,0.00003764,0.00090660,-0.00
 086246,0.00045013,0.00020055,-0.01649959,0.08097153,-0.00020111,0.0002
 3861,-0.00025585,-0.00000674,0.00004201,-0.00025168,-0.00035421,0.0000
 5629,-0.00007906,0.00008309,0.00010253,0.00003555,-0.00000342,-0.00008
 932,0.00008396,-0.00002788,0.00002794,-0.00003801,0.00000044,0.0000487
 0,-0.00007302,-0.00001287,-0.00000953,0.00000331,0.00000555,0.00000243
 ,0.00000186,0.00000906,-0.00000043,-0.00000807,-0.00001952,-0.00001030
 ,-0.00000611,0.00000162,0.00000068,0.00000081,-0.00000981,0.00000863,-
 0.00000854,-0.00098206,-0.00068171,0.00289926,0.00560970,0.00024217,-0
 .00257038,0.05531753,-0.08160293,-0.37205692,0.00001127,-0.00003813,0.
 00008670,-0.00000602,-0.00001864,0.00000865,0.00000581,-0.00000241,0.0
 0001989,0.00000321,-0.00000257,-0.00000021,0.00000514,0.00000689,-0.00
 001291,0.00000189,-0.00000161,0.00000357,-0.00000046,-0.00000030,0.000
 00348,0.00001083,0.00000571,0.00001598,0.00005503,0.00002438,-0.000288
 68,0.00028315,-0.00032939,-0.00048211,-0.00040259,0.00047082,0.0004659
 2,-0.00006395,0.00067619,0.00142656,-0.06475447,0.08765431,0.39172223,
 0.00007789,0.00136300,-0.00060436,-0.00204507,-0.00147820,0.00077039,0
 .00070297,0.00013892,0.00000267,-0.00019955,-0.00011130,-0.00000308,-0
 .00017259,0.00009581,-0.00009069,0.00018320,-0.00003739,0.00004686,0.0
 0011804,-0.00004178,0.00004965,0.00001487,-0.00000331,0.00003889,-0.00
 000144,-0.00000267,-0.00003696,-0.00003279,0.00001268,0.00000175,0.000
 05182,0.00002936,0.00000334,-0.00000121,0.00000520,0.00000200,0.000027
 59,-0.00002574,-0.00001147,0.00271994,-0.00077703,-0.00034576,-0.01039
 241,-0.03211580,-0.00608260,-0.10010177,-0.11750652,-0.02219547,-0.000
 10104,0.00014908,-0.00009249,0.00003897,0.00001388,0.00000671,-0.00004
 472,-0.00001650,0.00001284,-0.00000244,0.00000246,-0.00000346,-0.00000
 345,-0.00001013,0.00002142,-0.00000662,0.00000345,0.00000277,0.0000000
 9,-0.00000112,0.00000150,-0.00002018,-0.00002187,0.00000763,-0.0005180
 3,0.00109514,-0.00014641,-0.00017205,0.00012268,-0.00020367,-0.0059510
 7,0.00203223,0.00207504,0.00145749,0.00006508,0.00039021,0.00275109,0.
 00848421,0.00050550,0.10310850,0.00030833,-0.00046299,0.00022319,-0.00
 013308,0.00003493,-0.00001237,0.00042016,-0.00029132,0.00002258,-0.000
 08395,-0.00007640,0.00000291,0.00004304,0.00015432,-0.00008187,0.00000
 028,-0.00005035,0.00002505,-0.00002769,-0.00012089,0.00004912,0.000007
 04,0.00001113,0.00001684,0.00000114,0.00001351,-0.00000926,-0.00000252
 ,0.00000513,0.00000748,0.00002233,-0.00000688,-0.00000083,-0.00002035,
 0.00000109,0.00000024,0.00001717,-0.00001868,-0.00000530,0.00052178,0.
 00271786,-0.00030003,-0.00389490,0.00408229,0.00196618,-0.10679806,-0.
 35505157,-0.05134029,0.00007636,0.00011459,0.00002931,-0.00000469,0.00
 000450,-0.00000287,-0.00000756,0.00001412,-0.00000829,0.00000930,-0.00
 000660,-0.00000209,-0.00000798,0.00000342,0.00002076,0.00000024,0.0000
 0034,-0.00000107,-0.00000153,-0.00000043,0.00000018,-0.00001790,0.0000
 0261,0.00000125,-0.00006620,-0.00062654,-0.00046796,-0.00009120,0.0000
 1385,-0.00004999,0.00114433,0.00101316,0.00020958,0.00041915,0.0003096
 2,0.00021144,-0.00210475,-0.00584053,0.00025523,0.11931006,0.37332290,
 0.00046448,0.00016028,-0.00000093,-0.00070206,0.00012521,-0.00021377,0
 .00026688,-0.00016359,-0.00004447,-0.00011314,-0.00001805,0.00003335,-
 0.00011799,0.00000464,-0.00001609,0.00011070,-0.00000733,0.00000708,0.
 00008562,0.00000071,-0.00001348,0.00000037,-0.00000045,0.00003456,0.00
 000414,0.00000497,-0.00003029,-0.00001225,0.00000889,-0.00000503,0.000
 02090,0.00000745,-0.00000341,-0.00000405,0.00000150,0.00000192,0.00001
 015,-0.00001190,-0.00001361,-0.00004272,-0.00040140,-0.00012971,0.0014
 8052,0.00768585,0.00202338,-0.01983678,-0.04934784,-0.07253870,-0.0000
 5214,0.00006234,0.00002851,0.00001470,0.00000273,-0.00000241,-0.000026
 36,-0.00001339,0.00002427,0.00000980,-0.00000916,0.00000315,-0.0000035
 1,0.00001129,0.00001877,-0.00000151,0.00000053,0.00000577,-0.00000010,
 -0.00000089,0.00000341,-0.00001286,-0.00000955,0.00001524,-0.00005599,
 0.00003473,0.00046170,-0.00022135,-0.00027715,-0.00038646,0.00170018,-
 0.00028127,0.00002450,0.00053027,0.00082224,-0.00023322,-0.01464408,-0
 .03586602,-0.00244364,0.02043030,0.05495771,0.06785204,0.00042075,-0.0
 0091557,0.00051344,0.00055369,0.00316644,-0.00146391,-0.00078297,-0.00
 056175,0.00006754,0.00002745,0.00019450,0.00001302,-0.00010941,-0.0000
 4983,0.00001854,0.00001387,0.00001861,-0.00001010,0.00003568,0.0000070
 2,0.00000055,-0.00003302,0.00000016,-0.00002721,-0.00000775,0.00001991
 ,0.00001754,-0.00000046,-0.00000321,0.00000635,0.00002002,-0.00000688,
 -0.00000391,-0.00002734,0.00000208,0.00000070,0.00002042,-0.00001135,0
 .00000222,-0.00683934,-0.00258396,0.00281632,-0.01393001,0.02023751,-0
 .01956250,-0.14237936,0.11254361,-0.10675081,0.00001247,-0.00005360,0.
 00000299,0.00000056,0.00000071,-0.00000188,0.00000283,0.00000430,-0.00
 000606,-0.00000293,0.00000219,0.00000179,-0.00000454,-0.00000144,0.000
 00601,-0.00000183,0.00000079,-0.00000111,-0.00000202,-0.00000032,-0.00
 000078,-0.00001725,0.00000385,-0.00000612,0.00014063,0.00007606,0.0002
 3490,0.00043000,-0.00043644,0.00021766,0.00074794,-0.00073938,-0.00083
 298,0.00114540,0.00058318,0.00052611,0.00451314,-0.00684336,0.00493628
 ,0.00851396,-0.00903834,0.01071790,0.14753941,-0.00022796,-0.00000892,
 -0.00007993,-0.00008518,0.00031543,0.00002130,-0.00030597,-0.00002510,
 -0.00000873,0.00008342,0.00003864,0.00000462,0.00012675,-0.00000345,0.
 00003135,-0.00011436,0.00000311,-0.00001930,-0.00008142,-0.00000847,-0
 .00001439,-0.00000246,0.00000985,-0.00002678,0.00000239,0.00001395,0.0
 0002342,0.00002345,-0.00000752,0.00000136,-0.00002234,-0.00003100,-0.0
 0000299,-0.00001867,0.00000094,-0.00000014,-0.00000600,0.00000428,0.00
 000593,-0.00054834,0.00001819,0.00030007,0.00032379,0.00393300,-0.0046
 9201,0.10546326,-0.20142686,0.12919093,0.00005366,-0.00007227,0.000040
 22,-0.00001685,-0.00000265,-0.00000485,0.00002702,0.00001857,-0.000013
 89,0.00000315,-0.00000459,0.00000264,0.00000639,0.00000748,-0.00000872
 ,0.00000440,-0.00000238,-0.00000230,-0.00000237,0.00000099,-0.00000175
 ,0.00000418,0.00002434,-0.00000700,-0.00023127,0.00016929,0.00001787,0
 .00000147,-0.00011019,0.00016735,-0.00095692,0.00048043,-0.00042270,0.
 00018461,0.00000977,-0.00014793,-0.00729847,0.00866323,-0.00707623,0.0
 1922612,-0.01926619,0.02251690,-0.11561549,0.20725809,0.00025796,-0.00
 006961,-0.00009374,-0.00013283,-0.00015416,0.00070570,0.00042851,-0.00
 007353,-0.00002434,-0.00009942,-0.00007371,-0.00005192,-0.00011017,0.0
 0003059,-0.00004179,0.00011084,-0.00001366,0.00001674,0.00007630,-0.00
 001697,0.00001133,0.00002031,-0.00000717,0.00004483,0.00000448,0.00000
 130,-0.00003289,-0.00001779,0.00000931,-0.00000467,0.00002540,0.000014
 92,-0.00000194,0.00000200,0.00000296,0.00000129,0.00001209,-0.00001343
 ,-0.00001692,0.00178795,0.00073168,-0.00090314,0.00180630,-0.00747781,
 0.00711418,-0.09924988,0.12788369,-0.18359752,-0.00004219,0.00010070,-
 0.00000182,0.00000314,0.00000911,0.00000118,-0.00002845,-0.00001352,0.
 00002073,0.00000533,-0.00000565,0.00000006,-0.00000758,0.00000480,0.00
 002073,-0.00000256,0.00000086,0.00000535,0.00000021,-0.00000097,0.0000
 0453,-0.00001210,-0.00001210,0.00002070,-0.00016988,0.00012746,-0.0000
 1391,-0.00004512,0.00008739,0.00028054,-0.00036302,-0.00011968,0.00005
 260,0.00085595,-0.00063609,0.00011303,-0.01913028,0.02519448,-0.018202
 55,0.00544695,-0.00571686,0.00553758,0.10856753,-0.13979431,0.18903605
 \\-0.00000037,0.00000169,-0.00000058,0.00000324,-0.00000018,0.00000051
 ,-0.00000071,0.00000019,-0.00000122,0.00000101,-0.00000145,0.00000299,
 -0.00000146,0.00000169,-0.00000159,0.00000171,0.00000420,-0.00000150,0
 .00000115,-0.00000024,0.00000028,-0.00000093,-0.00000021,-0.00000085,0
 .00000158,-0.00000200,0.00000108,0.00000025,0.00000040,-0.00000078,-0.
 00000009,-0.00000074,-0.00000085,-0.00000129,0.00000047,-0.00000014,0.
 00000039,0.00000110,0.00000051,-0.00000174,0.00000084,-0.00000101,-0.0
 0000633,-0.00000150,0.00000131,0.00000427,0.00000052,-0.00000095,0.000
 00050,-0.00000135,0.00000036,0.00000045,-0.00000059,0.00000036,-0.0000
 0168,-0.00000365,0.00000117,-0.00000128,0.00000011,-0.00000036,-0.0000
 0005,0.00000072,0.00000008,0.00000006,0.00000016,0.00000008,0.00000002
 ,0.00000017,-0.00000034,-0.00000076,0.00000053,-0.00000132,-0.00000013
 ,-0.00000015,0.00000029,0.00000096,-0.00000007,0.00000047,0.00000067,0
 .00000005,0.00000094,0.00000046,-0.00000058,0.00000006,0.00000021,0.00
 000003,0.00000052,-0.00000003,-0.00000025,0.00000030,-0.00000010,0.000
 00010,0.00000021\\\@


 THE 2ND LAW OF THERMODYNAMICS HAS THE SAME
 DEGREE OF TRUTH AS THE STATEMENT THAT IF YOU THROW
 A TUMBLERFULL OF WATER INTO THE SEA, YOU CANNOT GET
 THE SAME TUMBLERFULL OF WATER OUT AGAIN.
          - J.C. MAXWELL, LETTER TO LORD RAYLEIGH, DECEMBER 6,1870
 Job cpu time:       0 days  2 hours 20 minutes 26.4 seconds.
 File lengths (MBytes):  RWF=    460 Int=      0 D2E=      0 Chk=     13 Scr=      1
 Normal termination of Gaussian 09 at Wed Jul 28 23:58:02 2021.
