 Entering Gaussian System, Link 0=g09
 Input=opt_freq-conf-801.com
 Output=opt_freq-conf-801.log
 Initial command:
 /aerosol/software/g09/l1.exe "/scratch/nicole/10735/Gau-87262.inp" -scrdir="/scratch/nicole/10735/"
 Entering Link 1 = /aerosol/software/g09/l1.exe PID=     87265.
  
 Copyright (c) 1988,1990,1992,1993,1995,1998,2003,2009,2013,
            Gaussian, Inc.  All Rights Reserved.
  
 This is part of the Gaussian(R) 09 program.  It is based on
 the Gaussian(R) 03 system (copyright 2003, Gaussian, Inc.),
 the Gaussian(R) 98 system (copyright 1998, Gaussian, Inc.),
 the Gaussian(R) 94 system (copyright 1995, Gaussian, Inc.),
 the Gaussian 92(TM) system (copyright 1992, Gaussian, Inc.),
 the Gaussian 90(TM) system (copyright 1990, Gaussian, Inc.),
 the Gaussian 88(TM) system (copyright 1988, Gaussian, Inc.),
 the Gaussian 86(TM) system (copyright 1986, Carnegie Mellon
 University), and the Gaussian 82(TM) system (copyright 1983,
 Carnegie Mellon University). Gaussian is a federally registered
 trademark of Gaussian, Inc.
  
 This software contains proprietary and confidential information,
 including trade secrets, belonging to Gaussian, Inc.
  
 This software is provided under written license and may be
 used, copied, transmitted, or stored only in accord with that
 written license.
  
 The following legend is applicable only to US Government
 contracts under FAR:
  
                    RESTRICTED RIGHTS LEGEND
  
 Use, reproduction and disclosure by the US Government is
 subject to restrictions as set forth in subparagraphs (a)
 and (c) of the Commercial Computer Software - Restricted
 Rights clause in FAR 52.227-19.
  
 Gaussian, Inc.
 340 Quinnipiac St., Bldg. 40, Wallingford CT 06492
  
  
 ---------------------------------------------------------------
 Warning -- This program may not be used in any manner that
 competes with the business of Gaussian, Inc. or will provide
 assistance to any competitor of Gaussian, Inc.  The licensee
 of this program is prohibited from giving any competitor of
 Gaussian, Inc. access to this program.  By using this program,
 the user acknowledges that Gaussian, Inc. is engaged in the
 business of creating and licensing software in the field of
 computational chemistry and represents and warrants to the
 licensee that it is not a competitor of Gaussian, Inc. and that
 it will not use this program in any manner prohibited above.
 ---------------------------------------------------------------
  

 Cite this work as:
 Gaussian 09, Revision D.01,
 M. J. Frisch, G. W. Trucks, H. B. Schlegel, G. E. Scuseria, 
 M. A. Robb, J. R. Cheeseman, G. Scalmani, V. Barone, B. Mennucci, 
 G. A. Petersson, H. Nakatsuji, M. Caricato, X. Li, H. P. Hratchian, 
 A. F. Izmaylov, J. Bloino, G. Zheng, J. L. Sonnenberg, M. Hada, 
 M. Ehara, K. Toyota, R. Fukuda, J. Hasegawa, M. Ishida, T. Nakajima, 
 Y. Honda, O. Kitao, H. Nakai, T. Vreven, J. A. Montgomery, Jr., 
 J. E. Peralta, F. Ogliaro, M. Bearpark, J. J. Heyd, E. Brothers, 
 K. N. Kudin, V. N. Staroverov, T. Keith, R. Kobayashi, J. Normand, 
 K. Raghavachari, A. Rendell, J. C. Burant, S. S. Iyengar, J. Tomasi, 
 M. Cossi, N. Rega, J. M. Millam, M. Klene, J. E. Knox, J. B. Cross, 
 V. Bakken, C. Adamo, J. Jaramillo, R. Gomperts, R. E. Stratmann, 
 O. Yazyev, A. J. Austin, R. Cammi, C. Pomelli, J. W. Ochterski, 
 R. L. Martin, K. Morokuma, V. G. Zakrzewski, G. A. Voth, 
 P. Salvador, J. J. Dannenberg, S. Dapprich, A. D. Daniels, 
 O. Farkas, J. B. Foresman, J. V. Ortiz, J. Cioslowski, 
 and D. J. Fox, Gaussian, Inc., Wallingford CT, 2013.
 
 ******************************************
 Gaussian 09:  ES64L-G09RevD.01 24-Apr-2013
                29-Jul-2021 
 ******************************************
 %mem=2gb
 %nproc=4
 Will use up to    4 processors via shared memory.
 %chk=conf-801.chk
 ----------------------------------------------------------------------
 # B3LYP/6-311++G(2df,2pd) guess=read geom=checkpoint opt=readfc freq=n
 oraman nosymm integral(ultrafinegrid)
 ----------------------------------------------------------------------
 1/10=3,14=-1,18=20,19=15,26=4,29=2,38=1/1,3;
 2/9=110,12=2,15=1,40=1/2;
 3/5=4,6=6,7=1414,11=2,14=-4,16=1,25=1,30=1,71=1,74=-5,75=-5,116=-2/1,2,3;
 4/5=1/1;
 5/5=2,38=6/2;
 6/7=2,8=2,9=2,10=2,28=1/1;
 7/30=1/1,2,3,16;
 1/14=-1,18=20,19=15,26=4/3(2);
 2/9=110,15=1/2;
 99//99;
 2/9=110,15=1/2;
 3/5=4,6=6,7=1414,11=2,14=-2,16=1,25=1,30=1,71=1,74=-5,75=-5/1,2,3;
 4/5=5,16=3,69=1/1;
 5/5=2,38=5/2;
 7/30=1/1,2,3,16;
 1/14=-1,18=20,19=15,26=4/3(-5);
 2/9=110,15=1/2;
 6/7=2,8=2,9=2,10=2,19=2,28=1/1;
 99/9=1/99;
 ------------------------------------------------------------
 Candidate Structure: Conf:801 OPT and FREQ calc in gas phase
 ------------------------------------------------------------
 Structure from the checkpoint file:  "conf-801.chk"
 Charge =  0 Multiplicity = 1
 Redundant internal coordinates found in file.
 O,0,1.4785303723,0.8478845337,-1.0789120098
 C,0,1.7583834938,0.2282665425,-0.0548963672
 N,0,0.8042626955,-0.1028870249,0.8652187752
 C,0,-0.5475259833,0.3996066887,0.7596498621
 C,0,-1.1849848782,0.3081028672,2.1527347262
 O,0,-2.3969377236,0.8692409396,2.2909542801
 O,0,-0.6416272006,-0.2436448543,3.0833733737
 C,0,-1.3581669343,-0.3792409548,-0.3221272852
 C,0,-2.7397485614,0.1537085571,-0.5567501809
 C,0,-3.2128308686,1.39436858,-0.9405440275
 N,0,-4.5902310182,1.4044434092,-1.0069735692
 C,0,-4.9588812194,0.1889220446,-0.6711358144
 N,0,-3.8833256122,-0.6052455826,-0.3848131149
 C,0,3.1774008259,-0.2081003181,0.2837675229
 C,0,3.9985544583,-0.5195867843,-0.969120038
 N,0,5.4003401747,-0.7469627478,-0.6071906934
 H,0,1.0447215578,-0.5120721827,1.7602081297
 H,0,-0.5156299156,1.4523679173,0.4484833901
 H,0,-2.7086760562,1.2241998573,1.4365951165
 H,0,-1.3989491181,-1.4355521545,-0.0337571239
 H,0,-0.7625289318,-0.3127529801,-1.2369384813
 H,0,-2.6317125199,2.2691480874,-1.2006023642
 H,0,-5.9761307361,-0.1726742624,-0.6126856113
 H,0,-3.9115071364,-1.5696614447,-0.0884833747
 H,0,3.1609508739,-1.0679488355,0.9657151896
 H,0,3.6693775787,0.6110248386,0.8234228614
 H,0,3.9432341645,0.3476131144,-1.6324081843
 H,0,3.5261342375,-1.3569993513,-1.5116935045
 H,0,5.4944796169,-1.6354959483,-0.1190737938
 H,0,5.9627928642,-0.8301725913,-1.450305589
 Recover connectivity data from disk.

 GradGradGradGradGradGradGradGradGradGradGradGradGradGradGradGradGradGrad
 Berny optimization.
 Initialization pass.
 Force constant matrix read from checkpoint file:
 "conf-801.chk"
                           ----------------------------
                           !    Initial Parameters    !
                           ! (Angstroms and Degrees)  !
 --------------------------                            --------------------------
 ! Name  Definition              Value          Derivative Info.                !
 --------------------------------------------------------------------------------
 ! R1    R(1,2)                  1.2292         D2E/DX2 =    0.7847             !
 ! R2    R(2,3)                  1.3662         D2E/DX2 =    0.4447             !
 ! R3    R(2,14)                 1.5227         D2E/DX2 =    0.273              !
 ! R4    R(3,4)                  1.446          D2E/DX2 =    0.3548             !
 ! R5    R(3,17)                 1.013          D2E/DX2 =    0.4598             !
 ! R6    R(4,5)                  1.5347         D2E/DX2 =    0.2703             !
 ! R7    R(4,8)                  1.5601         D2E/DX2 =    0.2491             !
 ! R8    R(4,18)                 1.0982         D2E/DX2 =    0.3279             !
 ! R9    R(5,6)                  1.3427         D2E/DX2 =    0.4362             !
 ! R10   R(5,7)                  1.2107         D2E/DX2 =    0.8651             !
 ! R11   R(6,19)                 0.9763         D2E/DX2 =    0.474              !
 ! R12   R(8,9)                  1.4993         D2E/DX2 =    0.3096             !
 ! R13   R(8,20)                 1.0957         D2E/DX2 =    0.3347             !
 ! R14   R(8,21)                 1.0937         D2E/DX2 =    0.3403             !
 ! R15   R(9,10)                 1.3822         D2E/DX2 =    0.3956             !
 ! R16   R(9,13)                 1.3832         D2E/DX2 =    0.3618             !
 ! R17   R(10,11)                1.379          D2E/DX2 =    0.3329             !
 ! R18   R(10,22)                1.0819         D2E/DX2 =    0.3715             !
 ! R19   R(11,12)                1.3138         D2E/DX2 =    0.466              !
 ! R20   R(12,13)                1.3673         D2E/DX2 =    0.3592             !
 ! R21   R(12,23)                1.0812         D2E/DX2 =    0.3746             !
 ! R22   R(13,24)                1.0093         D2E/DX2 =    0.4754             !
 ! R23   R(14,15)                1.53           D2E/DX2 =    0.2812             !
 ! R24   R(14,25)                1.0976         D2E/DX2 =    0.3303             !
 ! R25   R(14,26)                1.0974         D2E/DX2 =    0.3332             !
 ! R26   R(15,16)                1.4655         D2E/DX2 =    0.3305             !
 ! R27   R(15,27)                1.0932         D2E/DX2 =    0.3419             !
 ! R28   R(15,28)                1.104          D2E/DX2 =    0.3114             !
 ! R29   R(16,29)                1.0181         D2E/DX2 =    0.4422             !
 ! R30   R(16,30)                1.0169         D2E/DX2 =    0.4472             !
 ! A1    A(1,2,3)              121.6175         D2E/DX2 =    0.2055             !
 ! A2    A(1,2,14)             122.8139         D2E/DX2 =    0.1702             !
 ! A3    A(3,2,14)             115.5657         D2E/DX2 =    0.1671             !
 ! A4    A(2,3,4)              121.2953         D2E/DX2 =    0.1407             !
 ! A5    A(2,3,17)             121.8111         D2E/DX2 =    0.0901             !
 ! A6    A(4,3,17)             115.2618         D2E/DX2 =    0.0963             !
 ! A7    A(3,4,5)              107.5357         D2E/DX2 =    0.0991             !
 ! A8    A(3,4,8)              111.2773         D2E/DX2 =    0.0951             !
 ! A9    A(3,4,18)             109.0652         D2E/DX2 =    0.0299             !
 ! A10   A(5,4,8)              112.57           D2E/DX2 =    0.1006             !
 ! A11   A(5,4,18)             109.0501         D2E/DX2 =    0.0246             !
 ! A12   A(8,4,18)             107.2881         D2E/DX2 =    0.0325             !
 ! A13   A(4,5,6)              116.3233         D2E/DX2 =    0.199              !
 ! A14   A(4,5,7)              122.5817         D2E/DX2 =    0.1993             !
 ! A15   A(6,5,7)              121.0933         D2E/DX2 =    0.2054             !
 ! A16   A(5,6,19)             110.4926         D2E/DX2 =    0.2018             !
 ! A17   A(4,8,9)              114.196          D2E/DX2 =    0.1762             !
 ! A18   A(4,8,20)             108.5492         D2E/DX2 =    0.0636             !
 ! A19   A(4,8,21)             105.4657         D2E/DX2 =    0.061              !
 ! A20   A(9,8,20)             110.461          D2E/DX2 =    0.0538             !
 ! A21   A(9,8,21)             110.4484         D2E/DX2 =    0.0538             !
 ! A22   A(20,8,21)            107.3986         D2E/DX2 =    0.0205             !
 ! A23   A(8,9,10)             132.6831         D2E/DX2 =    0.096              !
 ! A24   A(8,9,13)             123.1851         D2E/DX2 =    0.1056             !
 ! A25   A(10,9,13)            104.1257         D2E/DX2 =    0.1022             !
 ! A26   A(9,10,11)            111.2112         D2E/DX2 =    0.1141             !
 ! A27   A(9,10,22)            127.4933         D2E/DX2 =    0.0821             !
 ! A28   A(11,10,22)           121.2645         D2E/DX2 =    0.0898             !
 ! A29   A(10,11,12)           105.1403         D2E/DX2 =    0.131              !
 ! A30   A(11,12,13)           111.7262         D2E/DX2 =    0.1184             !
 ! A31   A(11,12,23)           125.9608         D2E/DX2 =    0.0894             !
 ! A32   A(13,12,23)           122.3124         D2E/DX2 =    0.0902             !
 ! A33   A(9,13,12)            107.7954         D2E/DX2 =    0.103              !
 ! A34   A(9,13,24)            125.7221         D2E/DX2 =    0.0783             !
 ! A35   A(12,13,24)           126.4779         D2E/DX2 =    0.079              !
 ! A36   A(2,14,15)            112.1079         D2E/DX2 =    0.1395             !
 ! A37   A(2,14,25)            110.409          D2E/DX2 =    0.0541             !
 ! A38   A(2,14,26)            108.2553         D2E/DX2 =    0.043              !
 ! A39   A(15,14,25)           110.9364         D2E/DX2 =    0.0573             !
 ! A40   A(15,14,26)           108.3029         D2E/DX2 =    0.0519             !
 ! A41   A(25,14,26)           106.615          D2E/DX2 =    0.0208             !
 ! A42   A(14,15,16)           110.0419         D2E/DX2 =    0.1516             !
 ! A43   A(14,15,27)           107.9499         D2E/DX2 =    0.0559             !
 ! A44   A(14,15,28)           109.0988         D2E/DX2 =    0.0631             !
 ! A45   A(16,15,27)           108.7434         D2E/DX2 =    0.0492             !
 ! A46   A(16,15,28)           114.3933         D2E/DX2 =    0.0575             !
 ! A47   A(27,15,28)           106.3721         D2E/DX2 =    0.0219             !
 ! A48   A(15,16,29)           110.0137         D2E/DX2 =    0.1477             !
 ! A49   A(15,16,30)           109.6934         D2E/DX2 =    0.1431             !
 ! A50   A(29,16,30)           105.958          D2E/DX2 =    0.0564             !
 ! D1    D(1,2,3,4)             -7.6709         D2E/DX2 =    0.012              !
 ! D2    D(1,2,3,17)          -172.4176         D2E/DX2 =    0.0107             !
 ! D3    D(14,2,3,4)           171.7253         D2E/DX2 =    0.0101             !
 ! D4    D(14,2,3,17)            6.9786         D2E/DX2 =    0.0073             !
 ! D5    D(1,2,14,15)          -31.8617         D2E/DX2 =    0.0135             !
 ! D6    D(1,2,14,25)         -156.102          D2E/DX2 =    0.0153             !
 ! D7    D(1,2,14,26)           87.5392         D2E/DX2 =    0.0154             !
 ! D8    D(3,2,14,15)          148.7502         D2E/DX2 =    0.0134             !
 ! D9    D(3,2,14,25)           24.5099         D2E/DX2 =    0.0157             !
 ! D10   D(3,2,14,26)          -91.8489         D2E/DX2 =    0.014              !
 ! D11   D(2,3,4,5)           -158.7341         D2E/DX2 =    0.0149             !
 ! D12   D(2,3,4,8)             77.5542         D2E/DX2 =    0.0161             !
 ! D13   D(2,3,4,18)           -40.6107         D2E/DX2 =    0.0086             !
 ! D14   D(17,3,4,5)             6.9534         D2E/DX2 =    0.0155             !
 ! D15   D(17,3,4,8)          -116.7583         D2E/DX2 =    0.0155             !
 ! D16   D(17,3,4,18)          125.0768         D2E/DX2 =    0.0099             !
 ! D17   D(3,4,5,6)            172.8004         D2E/DX2 =    0.0227             !
 ! D18   D(3,4,5,7)             -7.6621         D2E/DX2 =    0.0217             !
 ! D19   D(8,4,5,6)            -64.2795         D2E/DX2 =    0.0263             !
 ! D20   D(8,4,5,7)            115.258          D2E/DX2 =    0.0224             !
 ! D21   D(18,4,5,6)            54.6673         D2E/DX2 =    0.0165             !
 ! D22   D(18,4,5,7)          -125.7952         D2E/DX2 =    0.0154             !
 ! D23   D(3,4,8,9)           -175.7765         D2E/DX2 =    0.0199             !
 ! D24   D(3,4,8,20)            60.5119         D2E/DX2 =    0.0192             !
 ! D25   D(3,4,8,21)           -54.3285         D2E/DX2 =    0.0203             !
 ! D26   D(5,4,8,9)             63.4249         D2E/DX2 =    0.0253             !
 ! D27   D(5,4,8,20)           -60.2867         D2E/DX2 =    0.0204             !
 ! D28   D(5,4,8,21)          -175.1272         D2E/DX2 =    0.023              !
 ! D29   D(18,4,8,9)           -56.5458         D2E/DX2 =    0.0129             !
 ! D30   D(18,4,8,20)          179.7427         D2E/DX2 =    0.0143             !
 ! D31   D(18,4,8,21)           64.9022         D2E/DX2 =    0.0137             !
 ! D32   D(4,5,6,19)             2.7136         D2E/DX2 =    0.0136             !
 ! D33   D(7,5,6,19)          -176.8313         D2E/DX2 =    0.0207             !
 ! D34   D(4,8,9,10)            57.9738         D2E/DX2 =    0.0117             !
 ! D35   D(4,8,9,13)          -120.9818         D2E/DX2 =    0.0115             !
 ! D36   D(20,8,9,10)         -179.3499         D2E/DX2 =    0.0139             !
 ! D37   D(20,8,9,13)            1.6945         D2E/DX2 =    0.013              !
 ! D38   D(21,8,9,10)          -60.6818         D2E/DX2 =    0.0137             !
 ! D39   D(21,8,9,13)          120.3626         D2E/DX2 =    0.0138             !
 ! D40   D(8,9,10,11)         -179.2301         D2E/DX2 =    0.0092             !
 ! D41   D(8,9,10,22)            2.7937         D2E/DX2 =    0.0071             !
 ! D42   D(13,9,10,11)          -0.1315         D2E/DX2 =    0.0139             !
 ! D43   D(13,9,10,22)        -178.1077         D2E/DX2 =    0.0099             !
 ! D44   D(8,9,13,12)          179.4937         D2E/DX2 =    0.0079             !
 ! D45   D(8,9,13,24)            0.2379         D2E/DX2 =    0.0026             !
 ! D46   D(10,9,13,12)           0.2854         D2E/DX2 =    0.0123             !
 ! D47   D(10,9,13,24)        -178.9704         D2E/DX2 =    0.0045             !
 ! D48   D(9,10,11,12)          -0.079          D2E/DX2 =    0.0173             !
 ! D49   D(22,10,11,12)        178.0426         D2E/DX2 =    0.0101             !
 ! D50   D(10,11,12,13)          0.2687         D2E/DX2 =    0.0184             !
 ! D51   D(10,11,12,23)        179.9756         D2E/DX2 =    0.0103             !
 ! D52   D(11,12,13,9)          -0.3614         D2E/DX2 =    0.0173             !
 ! D53   D(11,12,13,24)        178.8872         D2E/DX2 =    0.0078             !
 ! D54   D(23,12,13,9)         179.9193         D2E/DX2 =    0.0103             !
 ! D55   D(23,12,13,24)         -0.8321         D2E/DX2 =    0.0061             !
 ! D56   D(2,14,15,16)         171.9436         D2E/DX2 =    0.0148             !
 ! D57   D(2,14,15,27)          53.4068         D2E/DX2 =    0.0142             !
 ! D58   D(2,14,15,28)         -61.7898         D2E/DX2 =    0.0141             !
 ! D59   D(25,14,15,16)        -64.1101         D2E/DX2 =    0.0153             !
 ! D60   D(25,14,15,27)        177.3531         D2E/DX2 =    0.0146             !
 ! D61   D(25,14,15,28)         62.1565         D2E/DX2 =    0.0157             !
 ! D62   D(26,14,15,16)         52.5706         D2E/DX2 =    0.0155             !
 ! D63   D(26,14,15,27)        -65.9662         D2E/DX2 =    0.0162             !
 ! D64   D(26,14,15,28)        178.8372         D2E/DX2 =    0.0147             !
 ! D65   D(14,15,16,29)         71.3295         D2E/DX2 =    0.0154             !
 ! D66   D(14,15,16,30)       -172.4933         D2E/DX2 =    0.0153             !
 ! D67   D(27,15,16,29)       -170.6226         D2E/DX2 =    0.0183             !
 ! D68   D(27,15,16,30)        -54.4453         D2E/DX2 =    0.0175             !
 ! D69   D(28,15,16,29)        -51.8906         D2E/DX2 =    0.0184             !
 ! D70   D(28,15,16,30)         64.2866         D2E/DX2 =    0.0182             !
 --------------------------------------------------------------------------------
 Trust Radius=3.00D-01 FncErr=1.00D-07 GrdErr=1.00D-06
 Number of steps in this run=    160 maximum allowed number of steps=    180.
 GradGradGradGradGradGradGradGradGradGradGradGradGradGradGradGradGradGrad

                          Input orientation:                          
 ---------------------------------------------------------------------
 Center     Atomic      Atomic             Coordinates (Angstroms)
 Number     Number       Type             X           Y           Z
 ---------------------------------------------------------------------
      1          8           0        1.478530    0.847885   -1.078912
      2          6           0        1.758383    0.228267   -0.054896
      3          7           0        0.804263   -0.102887    0.865219
      4          6           0       -0.547526    0.399607    0.759650
      5          6           0       -1.184985    0.308103    2.152735
      6          8           0       -2.396938    0.869241    2.290954
      7          8           0       -0.641627   -0.243645    3.083373
      8          6           0       -1.358167   -0.379241   -0.322127
      9          6           0       -2.739749    0.153709   -0.556750
     10          6           0       -3.212831    1.394369   -0.940544
     11          7           0       -4.590231    1.404443   -1.006974
     12          6           0       -4.958881    0.188922   -0.671136
     13          7           0       -3.883326   -0.605246   -0.384813
     14          6           0        3.177401   -0.208100    0.283768
     15          6           0        3.998554   -0.519587   -0.969120
     16          7           0        5.400340   -0.746963   -0.607191
     17          1           0        1.044722   -0.512072    1.760208
     18          1           0       -0.515630    1.452368    0.448483
     19          1           0       -2.708676    1.224200    1.436595
     20          1           0       -1.398949   -1.435552   -0.033757
     21          1           0       -0.762529   -0.312753   -1.236938
     22          1           0       -2.631713    2.269148   -1.200602
     23          1           0       -5.976131   -0.172674   -0.612686
     24          1           0       -3.911507   -1.569661   -0.088483
     25          1           0        3.160951   -1.067949    0.965715
     26          1           0        3.669378    0.611025    0.823423
     27          1           0        3.943234    0.347613   -1.632408
     28          1           0        3.526134   -1.356999   -1.511694
     29          1           0        5.494480   -1.635496   -0.119074
     30          1           0        5.962793   -0.830173   -1.450306
 ---------------------------------------------------------------------
                    Distance matrix (angstroms):
                    1          2          3          4          5
     1  O    0.000000
     2  C    1.229167   0.000000
     3  N    2.266770   1.366243   0.000000
     4  C    2.772394   2.451543   1.446021   0.000000
     5  C    4.222466   3.680139   2.404936   1.534735   0.000000
     6  O    5.135729   4.814619   3.636680   2.446584   1.342688
     7  O    4.796991   3.978880   2.651532   2.412948   1.210682
     8  C    3.182045   3.186434   2.482391   1.560123   2.574369
     9  C    4.306787   4.526655   3.827251   2.568894   3.127689
    10  C    4.725110   5.182387   4.651838   3.314221   3.854933
    11  N    6.094653   6.526465   5.905735   4.524834   4.772989
    12  C    6.483886   6.745587   5.971546   4.642369   4.714949
    13  N    5.598469   5.712484   4.877338   3.667026   3.815023
    14  C    2.420364   1.522734   2.445596   3.804057   4.773878
    15  C    2.869243   2.532480   3.707012   4.949789   6.107383
    16  N    4.259889   3.810505   4.868958   6.209669   7.217815
    17  H    3.177778   2.086149   1.013044   2.089863   2.407977
    18  H    2.583604   2.631150   2.081971   1.098248   2.159132
    19  H    4.899192   4.813632   3.798469   2.410141   1.916696
    20  H    3.819204   3.568962   2.727324   2.173068   2.804792
    21  H    2.528715   2.836358   2.630199   2.130739   3.471861
    22  H    4.350735   4.975016   4.658336   3.417837   4.145309
    23  H    7.538626   7.764959   6.939943   5.628549   5.552817
    24  H    5.989823   5.948221   5.029857   3.989200   3.997872
    25  H    3.268250   2.165414   2.548612   3.993618   4.710594
    26  H    2.911150   2.137720   2.953015   4.222682   5.042189
    27  H    2.575149   2.697473   4.036612   5.088376   6.373970
    28  H    3.039983   2.785726   3.825061   4.983911   6.196390
    29  H    4.818331   4.175661   5.031487   6.435808   7.318055
    30  H    4.802335   4.554615   5.700968   6.984305   8.085066
                    6          7          8          9         10
     6  O    0.000000
     7  O    2.224311   0.000000
     8  C    3.076678   3.482707   0.000000
     9  C    2.956168   4.220249   1.499283   0.000000
    10  C    3.374022   5.048375   2.639680   1.382151   0.000000
    11  N    3.996662   5.919342   3.754568   2.278448   1.379038
    12  C    3.974967   5.737781   3.661934   2.222358   2.138779
    13  N    3.397527   4.761059   2.536027   1.383236   2.181022
    14  C    6.021853   4.735402   4.579058   5.987490   6.700888
    15  C    7.311583   6.166858   5.397477   6.784401   7.461107
    16  N    8.474013   7.097814   6.774504   8.189920   8.881618
    17  H    3.746296   2.160230   3.182395   4.487067   5.390300
    18  H    2.697046   3.136077   2.158356   2.764727   3.034412
    19  H    0.976272   3.023101   2.736421   2.262817   2.435964
    20  H    3.422329   3.422087   1.095725   2.144065   3.481506
    21  H    4.063795   4.322556   1.093657   2.142344   3.001015
    22  H    3.769062   5.350422   3.067181   2.213888   1.081928
    23  H    4.725181   6.490209   4.631704   3.253279   3.193578
    24  H    3.728792   4.744587   2.826878   2.135953   3.162219
    25  H    6.033166   4.429848   4.749240   6.215191   7.093795
    26  H    6.246640   4.941923   5.250630   6.571979   7.147727
    27  H    7.474132   6.603721   5.509084   6.771772   7.265235
    28  H    7.382348   6.302732   5.121277   6.515784   7.301362
    29  H    8.623016   7.060080   6.969804   8.437732   9.255925
    30  H    9.315048   8.032224   7.421090   8.803448   9.455184
                   11         12         13         14         15
    11  N    0.000000
    12  C    1.313843   0.000000
    13  N    2.219380   1.367298   0.000000
    14  C    8.037563   8.201741   7.103420   0.000000
    15  C    8.801736   8.990352   7.903973   1.530047   0.000000
    16  N   10.227409  10.401607   9.287410   2.454718   1.465502
    17  H    6.563765   6.515065   5.375448   2.611627   4.021743
    18  H    4.327011   4.753138   4.033551   4.052501   5.126018
    19  H    3.089298   3.252346   2.836230   6.166555   7.335884
    20  H    4.381439   3.964629   2.642873   4.748730   5.554002
    21  H    4.201541   4.263940   3.248237   4.224517   4.773094
    22  H    2.149651   3.165974   3.239473   6.487366   7.196601
    23  H    2.136231   1.081187   2.149157   9.197392   9.987079
    24  H    3.185842   2.128166   1.009308   7.228073   8.027905
    25  H    8.371681   8.377988   7.187479   1.097571   2.178501
    26  H    8.497117   8.766911   7.744835   1.097376   2.144726
    27  H    8.621374   8.955271   7.982448   2.137065   1.093182
    28  H    8.588113   8.665558   7.532270   2.159922   1.104005
    29  H   10.570288  10.625725   9.437969   2.751108   2.050762
    30  H   10.796127  10.996755   9.906155   3.339520   2.046029
                   16         17         18         19         20
    16  N    0.000000
    17  H    4.962979   0.000000
    18  H    6.399235   2.830962   0.000000
    19  H    8.591780   4.148175   2.416170   0.000000
    20  H    6.858084   3.169015   3.058250   3.309320   0.000000
    21  H    6.210159   3.505534   2.453010   3.646573   1.764470
    22  H    8.600170   5.478846   2.804357   2.837719   4.075051
    23  H   11.390958   7.418772   5.795163   4.102081   4.783368
    24  H    9.362499   5.394475   4.577442   3.402694   2.516730
    25  H    2.755346   2.327798   4.487401   6.318876   4.682602
    26  H    2.624313   3.004619   4.285175   6.436733   5.532736
    27  H    2.091011   4.544258   5.043021   7.378014   5.854424
    28  H    2.168621   4.192452   5.298178   7.363956   5.142656
    29  H    1.018141   4.959247   6.780740   8.825516   6.896856
    30  H    1.016917   5.881837   7.126384   9.367444   7.521193
                   21         22         23         24         25
    21  H    0.000000
    22  H    3.187692   0.000000
    23  H    5.252710   4.182496   0.000000
    24  H    3.579781   4.196563   2.547358   0.000000
    25  H    4.562422   7.027382   9.315531   7.168174   0.000000
    26  H    4.973957   6.822740   9.783273   7.940830   1.760028
    27  H    4.768300   6.863576   9.985206   8.231440   3.060397
    28  H    4.422507   7.152957   9.617894   7.575570   2.520806
    29  H    6.492259   9.080250  11.574040   9.406267   2.635191
    30  H    6.748570   9.139675  11.986318   9.995159   3.707292
                   26         27         28         29         30
    26  H    0.000000
    27  H    2.485053   0.000000
    28  H    3.057189   1.759047   0.000000
    29  H    3.044036   2.937561   2.427207   0.000000
    30  H    3.536473   2.344986   2.493716   1.624820   0.000000
 Symmetry turned off by external request.
 Stoichiometry    C9H14N4O3
 Framework group  C1[X(C9H14N4O3)]
 Deg. of freedom    84
 Full point group                 C1      NOp   1
 Rotational constants (GHZ):      1.0622752      0.2289324      0.2012366
 Standard basis: 6-311++G(2df,2pd) (5D, 7F)
   754 basis functions,  1084 primitive gaussians,   848 cartesian basis functions
    60 alpha electrons       60 beta electrons
       nuclear repulsion energy      1098.4650411127 Hartrees.
 NAtoms=   30 NActive=   30 NUniq=   30 SFac= 1.00D+00 NAtFMM=   60 NAOKFM=F Big=F
 Integral buffers will be    131072 words long.
 Raffenetti 2 integral format.
 Two-electron integral symmetry is turned off.
 One-electron integrals computed using PRISM.
 NBasis=   754 RedAO= T EigKep=  1.33D-06  NBF=   754
 NBsUse=   754 1.00D-06 EigRej= -1.00D+00 NBFU=   754
 Initial guess from the checkpoint file:  "conf-801.chk"
 B after Tr=     0.000000    0.000000    0.000000
         Rot=    1.000000    0.000000    0.000000    0.000000 Ang=   0.00 deg.
 Requested convergence on RMS density matrix=1.00D-08 within 128 cycles.
 Requested convergence on MAX density matrix=1.00D-06.
 Requested convergence on             energy=1.00D-06.
 No special actions if energy rises.
 SCF Done:  E(RB3LYP) =  -796.377599640     A.U. after   12 cycles
            NFock= 12  Conv=0.61D-08     -V/T= 2.0043

 **********************************************************************

            Population analysis using the SCF density.

 **********************************************************************

 Alpha  occ. eigenvalues --  -19.19021 -19.13490 -19.10233 -14.39457 -14.35433
 Alpha  occ. eigenvalues --  -14.31604 -14.30373 -10.32851 -10.28651 -10.25479
 Alpha  occ. eigenvalues --  -10.24635 -10.23440 -10.21655 -10.20636 -10.20141
 Alpha  occ. eigenvalues --  -10.18786  -1.12772  -1.05313  -1.04604  -1.04005
 Alpha  occ. eigenvalues --   -0.94636  -0.89712  -0.89319  -0.82571  -0.77752
 Alpha  occ. eigenvalues --   -0.74902  -0.69667  -0.64835  -0.64049  -0.62852
 Alpha  occ. eigenvalues --   -0.61748  -0.59943  -0.57430  -0.55388  -0.51372
 Alpha  occ. eigenvalues --   -0.51017  -0.49537  -0.49276  -0.47777  -0.47011
 Alpha  occ. eigenvalues --   -0.46526  -0.45505  -0.44265  -0.43590  -0.43169
 Alpha  occ. eigenvalues --   -0.43106  -0.42382  -0.40595  -0.39974  -0.39825
 Alpha  occ. eigenvalues --   -0.36461  -0.35648  -0.34811  -0.31263  -0.30725
 Alpha  occ. eigenvalues --   -0.29547  -0.28509  -0.27370  -0.25662  -0.25380
 Alpha virt. eigenvalues --   -0.03170  -0.02442  -0.01623  -0.00906  -0.00319
 Alpha virt. eigenvalues --   -0.00143   0.00012   0.00880   0.01232   0.01821
 Alpha virt. eigenvalues --    0.02394   0.02808   0.03014   0.03748   0.04072
 Alpha virt. eigenvalues --    0.04573   0.05516   0.05834   0.06397   0.07030
 Alpha virt. eigenvalues --    0.07413   0.07567   0.08426   0.08957   0.09182
 Alpha virt. eigenvalues --    0.09692   0.09905   0.10123   0.10405   0.10866
 Alpha virt. eigenvalues --    0.11173   0.11365   0.11515   0.11890   0.12594
 Alpha virt. eigenvalues --    0.13034   0.13262   0.13422   0.13793   0.14103
 Alpha virt. eigenvalues --    0.14226   0.14473   0.14981   0.15163   0.15392
 Alpha virt. eigenvalues --    0.15936   0.16256   0.16511   0.16905   0.17106
 Alpha virt. eigenvalues --    0.17896   0.18228   0.18561   0.19254   0.19516
 Alpha virt. eigenvalues --    0.19541   0.20000   0.20141   0.20516   0.21069
 Alpha virt. eigenvalues --    0.21433   0.21960   0.22511   0.22665   0.22902
 Alpha virt. eigenvalues --    0.23610   0.23799   0.24076   0.24618   0.24992
 Alpha virt. eigenvalues --    0.25383   0.25923   0.26525   0.26712   0.27088
 Alpha virt. eigenvalues --    0.27234   0.28158   0.28380   0.28567   0.29131
 Alpha virt. eigenvalues --    0.29318   0.29476   0.30095   0.30508   0.31088
 Alpha virt. eigenvalues --    0.31188   0.31373   0.31897   0.32295   0.33069
 Alpha virt. eigenvalues --    0.33344   0.33631   0.33856   0.34223   0.34714
 Alpha virt. eigenvalues --    0.35435   0.35953   0.37037   0.37251   0.37435
 Alpha virt. eigenvalues --    0.38550   0.38781   0.39477   0.40879   0.41925
 Alpha virt. eigenvalues --    0.42770   0.43046   0.44276   0.44857   0.45501
 Alpha virt. eigenvalues --    0.45836   0.46219   0.46997   0.48022   0.49592
 Alpha virt. eigenvalues --    0.50233   0.50464   0.51742   0.52095   0.52576
 Alpha virt. eigenvalues --    0.54111   0.54519   0.54746   0.55197   0.55739
 Alpha virt. eigenvalues --    0.56460   0.56913   0.57737   0.57968   0.58084
 Alpha virt. eigenvalues --    0.59497   0.60527   0.60782   0.61020   0.61466
 Alpha virt. eigenvalues --    0.62210   0.62983   0.63457   0.64170   0.64536
 Alpha virt. eigenvalues --    0.64892   0.65486   0.65734   0.66243   0.67113
 Alpha virt. eigenvalues --    0.67288   0.68047   0.68739   0.69078   0.70193
 Alpha virt. eigenvalues --    0.70802   0.71703   0.72092   0.72121   0.73006
 Alpha virt. eigenvalues --    0.73862   0.74168   0.74944   0.75596   0.76538
 Alpha virt. eigenvalues --    0.77166   0.78154   0.78485   0.79229   0.79801
 Alpha virt. eigenvalues --    0.80246   0.81462   0.82061   0.82245   0.82556
 Alpha virt. eigenvalues --    0.84200   0.84446   0.85880   0.86633   0.86876
 Alpha virt. eigenvalues --    0.87653   0.88567   0.89466   0.90571   0.91061
 Alpha virt. eigenvalues --    0.91825   0.92501   0.94405   0.94589   0.95807
 Alpha virt. eigenvalues --    0.96707   0.97530   0.98735   0.99027   1.00031
 Alpha virt. eigenvalues --    1.01123   1.01698   1.02241   1.02716   1.04374
 Alpha virt. eigenvalues --    1.04524   1.06475   1.06852   1.07165   1.08339
 Alpha virt. eigenvalues --    1.08623   1.09207   1.10562   1.11549   1.11918
 Alpha virt. eigenvalues --    1.12842   1.13296   1.14102   1.15370   1.15544
 Alpha virt. eigenvalues --    1.16728   1.16951   1.17470   1.18570   1.18898
 Alpha virt. eigenvalues --    1.20165   1.20774   1.21109   1.21463   1.22941
 Alpha virt. eigenvalues --    1.23453   1.23875   1.25215   1.25634   1.26035
 Alpha virt. eigenvalues --    1.27540   1.28101   1.28571   1.28875   1.29628
 Alpha virt. eigenvalues --    1.31233   1.32238   1.32706   1.34622   1.34911
 Alpha virt. eigenvalues --    1.35871   1.36479   1.37153   1.38151   1.38692
 Alpha virt. eigenvalues --    1.39544   1.39568   1.40776   1.41940   1.42894
 Alpha virt. eigenvalues --    1.43544   1.43766   1.44902   1.45533   1.46808
 Alpha virt. eigenvalues --    1.47904   1.48825   1.49544   1.50641   1.51258
 Alpha virt. eigenvalues --    1.52716   1.53132   1.54191   1.54404   1.56013
 Alpha virt. eigenvalues --    1.56473   1.56839   1.57302   1.58171   1.59578
 Alpha virt. eigenvalues --    1.60842   1.61814   1.62474   1.63625   1.65486
 Alpha virt. eigenvalues --    1.67019   1.67616   1.68006   1.68845   1.71209
 Alpha virt. eigenvalues --    1.71341   1.72692   1.73921   1.75479   1.76951
 Alpha virt. eigenvalues --    1.77434   1.77821   1.79472   1.79880   1.80450
 Alpha virt. eigenvalues --    1.82197   1.83404   1.86686   1.88258   1.89835
 Alpha virt. eigenvalues --    1.91255   1.93409   1.94153   1.95893   1.96733
 Alpha virt. eigenvalues --    2.00673   2.02101   2.05722   2.10113   2.11968
 Alpha virt. eigenvalues --    2.12213   2.14432   2.15686   2.16043   2.22085
 Alpha virt. eigenvalues --    2.26558   2.33288   2.35283   2.40807   2.45573
 Alpha virt. eigenvalues --    2.47803   2.49046   2.50249   2.52355   2.52849
 Alpha virt. eigenvalues --    2.56386   2.57604   2.58684   2.60471   2.62115
 Alpha virt. eigenvalues --    2.63326   2.64794   2.65188   2.67048   2.69644
 Alpha virt. eigenvalues --    2.70246   2.71711   2.72616   2.73003   2.74187
 Alpha virt. eigenvalues --    2.74720   2.74885   2.75759   2.77808   2.79143
 Alpha virt. eigenvalues --    2.80222   2.81633   2.82619   2.82796   2.83170
 Alpha virt. eigenvalues --    2.83889   2.84801   2.86380   2.87804   2.88043
 Alpha virt. eigenvalues --    2.88978   2.89617   2.90314   2.92058   2.93431
 Alpha virt. eigenvalues --    2.93849   2.94490   2.94950   2.96188   2.96469
 Alpha virt. eigenvalues --    2.96801   2.97736   2.98372   3.00192   3.01121
 Alpha virt. eigenvalues --    3.01686   3.02039   3.02540   3.03631   3.04713
 Alpha virt. eigenvalues --    3.05173   3.06394   3.06947   3.07301   3.07810
 Alpha virt. eigenvalues --    3.09465   3.10011   3.11808   3.11967   3.12743
 Alpha virt. eigenvalues --    3.12979   3.13363   3.14154   3.15184   3.15484
 Alpha virt. eigenvalues --    3.17581   3.17977   3.19098   3.20338   3.21426
 Alpha virt. eigenvalues --    3.21815   3.22736   3.24547   3.25204   3.25400
 Alpha virt. eigenvalues --    3.26028   3.26698   3.27250   3.28262   3.29055
 Alpha virt. eigenvalues --    3.29810   3.30571   3.31624   3.32486   3.32951
 Alpha virt. eigenvalues --    3.33535   3.34058   3.34549   3.35116   3.35544
 Alpha virt. eigenvalues --    3.36441   3.36804   3.38675   3.38948   3.39151
 Alpha virt. eigenvalues --    3.39799   3.40898   3.41510   3.42192   3.42651
 Alpha virt. eigenvalues --    3.43674   3.43878   3.45332   3.46232   3.47176
 Alpha virt. eigenvalues --    3.47922   3.49026   3.49259   3.50207   3.50771
 Alpha virt. eigenvalues --    3.51581   3.52448   3.52902   3.54130   3.55251
 Alpha virt. eigenvalues --    3.56332   3.57371   3.58970   3.59080   3.59937
 Alpha virt. eigenvalues --    3.60715   3.61079   3.61468   3.64121   3.64699
 Alpha virt. eigenvalues --    3.65375   3.65643   3.66353   3.67179   3.67771
 Alpha virt. eigenvalues --    3.69002   3.69632   3.69907   3.70410   3.71263
 Alpha virt. eigenvalues --    3.71890   3.72468   3.74164   3.75963   3.77321
 Alpha virt. eigenvalues --    3.77676   3.78456   3.78649   3.80840   3.81370
 Alpha virt. eigenvalues --    3.82488   3.83531   3.84524   3.84776   3.85265
 Alpha virt. eigenvalues --    3.86457   3.87221   3.87738   3.88605   3.89290
 Alpha virt. eigenvalues --    3.89339   3.90386   3.91459   3.92368   3.93268
 Alpha virt. eigenvalues --    3.93779   3.94582   3.95208   3.95590   3.96477
 Alpha virt. eigenvalues --    3.96653   3.98977   3.99002   3.99496   4.00899
 Alpha virt. eigenvalues --    4.02715   4.03395   4.04145   4.04721   4.05477
 Alpha virt. eigenvalues --    4.06399   4.06716   4.08097   4.09764   4.10428
 Alpha virt. eigenvalues --    4.10865   4.11808   4.12648   4.13466   4.14951
 Alpha virt. eigenvalues --    4.16753   4.18743   4.19349   4.20955   4.21907
 Alpha virt. eigenvalues --    4.22565   4.24110   4.25330   4.26818   4.27625
 Alpha virt. eigenvalues --    4.28576   4.30412   4.30597   4.31789   4.32833
 Alpha virt. eigenvalues --    4.33266   4.33982   4.35288   4.37185   4.39846
 Alpha virt. eigenvalues --    4.41119   4.41842   4.44181   4.44779   4.45731
 Alpha virt. eigenvalues --    4.48788   4.49557   4.51515   4.52236   4.53135
 Alpha virt. eigenvalues --    4.55037   4.56024   4.57629   4.59334   4.59543
 Alpha virt. eigenvalues --    4.60771   4.61723   4.64593   4.65532   4.66841
 Alpha virt. eigenvalues --    4.68994   4.69900   4.72553   4.74644   4.74912
 Alpha virt. eigenvalues --    4.75135   4.78830   4.80278   4.82845   4.84127
 Alpha virt. eigenvalues --    4.85746   4.87469   4.87768   4.89582   4.90053
 Alpha virt. eigenvalues --    4.91139   4.91688   4.94312   4.95072   4.95951
 Alpha virt. eigenvalues --    4.96830   4.99236   5.00202   5.00408   5.01532
 Alpha virt. eigenvalues --    5.02554   5.03423   5.04681   5.05606   5.06700
 Alpha virt. eigenvalues --    5.06941   5.08396   5.08989   5.10140   5.11704
 Alpha virt. eigenvalues --    5.12301   5.12938   5.14572   5.15263   5.16703
 Alpha virt. eigenvalues --    5.16894   5.18052   5.19312   5.19843   5.20587
 Alpha virt. eigenvalues --    5.21053   5.22959   5.23204   5.23611   5.24877
 Alpha virt. eigenvalues --    5.25426   5.25842   5.27530   5.29396   5.30173
 Alpha virt. eigenvalues --    5.32582   5.34001   5.35530   5.35828   5.38786
 Alpha virt. eigenvalues --    5.39805   5.40850   5.43538   5.44950   5.47399
 Alpha virt. eigenvalues --    5.48476   5.49546   5.50697   5.53262   5.54586
 Alpha virt. eigenvalues --    5.55581   5.56443   5.57596   5.58671   5.59408
 Alpha virt. eigenvalues --    5.61007   5.64773   5.65688   5.66450   5.68182
 Alpha virt. eigenvalues --    5.68857   5.76072   5.77641   5.78195   5.80454
 Alpha virt. eigenvalues --    5.83030   5.85034   5.86118   5.86680   5.88993
 Alpha virt. eigenvalues --    5.92295   5.95058   5.96010   6.01670   6.03545
 Alpha virt. eigenvalues --    6.10849   6.12380   6.14693   6.17397   6.22582
 Alpha virt. eigenvalues --    6.27270   6.29082   6.31700   6.33432   6.35681
 Alpha virt. eigenvalues --    6.38553   6.41541   6.43121   6.43772   6.44800
 Alpha virt. eigenvalues --    6.52882   6.53381   6.54771   6.67747   6.69976
 Alpha virt. eigenvalues --    6.82874   6.87878   6.91266   6.94079   6.99908
 Alpha virt. eigenvalues --    7.00571   7.02730   7.08428   7.13210   7.20126
 Alpha virt. eigenvalues --    7.20243   7.26263   7.27284   7.28832   7.29880
 Alpha virt. eigenvalues --    7.43475   7.46795   7.58389   7.60264   7.70014
 Alpha virt. eigenvalues --    7.72427   7.77769   7.95878  24.50167  24.72033
 Alpha virt. eigenvalues --   24.80944  24.86798  24.99031  25.04353  25.06057
 Alpha virt. eigenvalues --   25.09667  25.11181  35.97591  36.23509  36.26188
 Alpha virt. eigenvalues --   36.44948  50.17542  50.21336  50.28531
          Condensed to atoms (all electrons):
               1          2          3          4          5          6
     1  O    8.167151   0.308498  -0.080131   0.025863   0.005712  -0.000071
     2  C    0.308498   7.219439   0.007382  -0.509286   0.067806   0.000318
     3  N   -0.080131   0.007382   6.618148   0.142531  -0.114021   0.006104
     4  C    0.025863  -0.509286   0.142531   7.943462  -0.723953  -0.087428
     5  C    0.005712   0.067806  -0.114021  -0.723953   6.397816   0.345859
     6  O   -0.000071   0.000318   0.006104  -0.087428   0.345859   7.792970
     7  O    0.000060   0.024203  -0.003341   0.017720   0.328719  -0.051686
     8  C    0.013891   0.309274  -0.050878  -0.459797   0.008689   0.104847
     9  C   -0.057459  -0.425855   0.161339  -0.466673  -0.236896  -0.000195
    10  C    0.002330  -0.004096   0.000404  -0.426325   0.061746  -0.081538
    11  N   -0.000089   0.001281   0.000540   0.007749   0.005920  -0.004384
    12  C   -0.000395  -0.001427   0.000152   0.014645   0.024577  -0.010099
    13  N   -0.000527   0.004867  -0.001948   0.022784   0.060446  -0.005310
    14  C    0.051397  -1.037991  -0.010512  -0.059080   0.007832  -0.000720
    15  C   -0.024560   0.152667  -0.032009  -0.011688  -0.004431  -0.000312
    16  N    0.000612   0.006495  -0.002219   0.002704  -0.000105   0.000002
    17  H    0.002193   0.040724   0.321583  -0.038689   0.024290   0.004720
    18  H   -0.001318   0.039837  -0.060272   0.495190  -0.109216  -0.006020
    19  H    0.000293   0.013793  -0.001917   0.092076  -0.141522   0.191761
    20  H    0.011920   0.037810  -0.006579   0.025955  -0.039842  -0.002587
    21  H   -0.021394  -0.032571   0.014694  -0.117833  -0.002203  -0.001568
    22  H   -0.002053   0.003746   0.000215   0.000563  -0.001206   0.000490
    23  H   -0.000018  -0.000413  -0.000044  -0.003794  -0.000237   0.000940
    24  H   -0.000273   0.001071   0.001190   0.000314  -0.000586  -0.002619
    25  H    0.008109  -0.098672   0.010371   0.022615  -0.016224  -0.000139
    26  H   -0.002072  -0.079892   0.009376  -0.001490  -0.001161   0.000038
    27  H    0.007521   0.007310  -0.001936   0.002178  -0.000416   0.000008
    28  H   -0.009158  -0.048191   0.005962  -0.008593   0.003168  -0.000018
    29  H   -0.000380  -0.000976  -0.000257  -0.000231   0.000186   0.000000
    30  H    0.000847  -0.001611   0.000508  -0.000114  -0.000088  -0.000001
               7          8          9         10         11         12
     1  O    0.000060   0.013891  -0.057459   0.002330  -0.000089  -0.000395
     2  C    0.024203   0.309274  -0.425855  -0.004096   0.001281  -0.001427
     3  N   -0.003341  -0.050878   0.161339   0.000404   0.000540   0.000152
     4  C    0.017720  -0.459797  -0.466673  -0.426325   0.007749   0.014645
     5  C    0.328719   0.008689  -0.236896   0.061746   0.005920   0.024577
     6  O   -0.051686   0.104847  -0.000195  -0.081538  -0.004384  -0.010099
     7  O    8.077050  -0.013491  -0.025463  -0.016691   0.000023  -0.002099
     8  C   -0.013491  13.762790  -6.946720  -0.683164  -0.226097  -0.257025
     9  C   -0.025463  -6.946720  14.895319  -0.538863  -0.012690  -0.254659
    10  C   -0.016691  -0.683164  -0.538863   7.297651   0.424467  -0.170449
    11  N    0.000023  -0.226097  -0.012690   0.424467   6.876334   0.294315
    12  C   -0.002099  -0.257025  -0.254659  -0.170449   0.294315   5.391520
    13  N   -0.001471  -0.203293   0.033601  -0.062421   0.055450   0.449938
    14  C   -0.017108  -0.128475   0.131965  -0.014178   0.000265   0.000398
    15  C   -0.003168   0.000076  -0.015792   0.003974   0.000018  -0.000046
    16  N   -0.000023   0.000050  -0.001753  -0.000022   0.000000  -0.000003
    17  H    0.035865   0.007960  -0.048586  -0.008904   0.000035  -0.000917
    18  H   -0.003690   0.112288  -0.156482  -0.017569  -0.000008  -0.006535
    19  H    0.014905  -0.129004   0.135748  -0.007084   0.004584   0.008513
    20  H   -0.001828   0.540463  -0.262000  -0.008627   0.000500  -0.012148
    21  H   -0.000196   0.269971   0.219596  -0.021155  -0.001026  -0.003092
    22  H   -0.000211   0.000136  -0.115762   0.481795  -0.091981   0.033520
    23  H   -0.000076   0.018824   0.031242   0.016254  -0.077275   0.432627
    24  H    0.000624  -0.044930  -0.057194   0.051391  -0.001205  -0.024329
    25  H   -0.004268   0.003756   0.004670   0.000975  -0.000017   0.000008
    26  H    0.000668   0.004681  -0.002947   0.000083   0.000003   0.000015
    27  H    0.000076   0.001514  -0.001613   0.000056  -0.000009  -0.000046
    28  H   -0.000017   0.002161  -0.001689  -0.000463   0.000006   0.000040
    29  H    0.000029   0.000064  -0.000206  -0.000018   0.000000  -0.000002
    30  H   -0.000014   0.000046   0.000017   0.000024   0.000000   0.000001
              13         14         15         16         17         18
     1  O   -0.000527   0.051397  -0.024560   0.000612   0.002193  -0.001318
     2  C    0.004867  -1.037991   0.152667   0.006495   0.040724   0.039837
     3  N   -0.001948  -0.010512  -0.032009  -0.002219   0.321583  -0.060272
     4  C    0.022784  -0.059080  -0.011688   0.002704  -0.038689   0.495190
     5  C    0.060446   0.007832  -0.004431  -0.000105   0.024290  -0.109216
     6  O   -0.005310  -0.000720  -0.000312   0.000002   0.004720  -0.006020
     7  O   -0.001471  -0.017108  -0.003168  -0.000023   0.035865  -0.003690
     8  C   -0.203293  -0.128475   0.000076   0.000050   0.007960   0.112288
     9  C    0.033601   0.131965  -0.015792  -0.001753  -0.048586  -0.156482
    10  C   -0.062421  -0.014178   0.003974  -0.000022  -0.008904  -0.017569
    11  N    0.055450   0.000265   0.000018   0.000000   0.000035  -0.000008
    12  C    0.449938   0.000398  -0.000046  -0.000003  -0.000917  -0.006535
    13  N    6.296554  -0.001439   0.000251   0.000004   0.000600  -0.003634
    14  C   -0.001439   6.195923   0.040724  -0.020194  -0.031382  -0.025777
    15  C    0.000251   0.040724   5.195255   0.237015  -0.011603   0.003714
    16  N    0.000004  -0.020194   0.237015   6.309358  -0.000004   0.000206
    17  H    0.000600  -0.031382  -0.011603  -0.000004   0.568345   0.005985
    18  H   -0.003634  -0.025777   0.003714   0.000206   0.005985   0.621667
    19  H   -0.011211   0.005626   0.000058   0.000001  -0.007108  -0.005660
    20  H   -0.013695  -0.004225   0.007158   0.000234   0.000257   0.015359
    21  H   -0.004776   0.011387  -0.006899  -0.000346   0.000401  -0.012819
    22  H    0.014639  -0.002518   0.000224  -0.000008  -0.000016  -0.003230
    23  H   -0.079758   0.000008  -0.000007   0.000000  -0.000052   0.000424
    24  H    0.400175  -0.000181  -0.000097  -0.000001   0.000393  -0.001648
    25  H   -0.000066   0.406351   0.005919  -0.014896  -0.015731   0.000798
    26  H    0.000050   0.435260  -0.053552   0.008202   0.000551   0.000845
    27  H   -0.000026  -0.045651   0.437295  -0.054871  -0.000368  -0.000283
    28  H    0.000101   0.048144   0.343399  -0.073594   0.003162  -0.000583
    29  H    0.000001   0.003412  -0.059988   0.382686   0.001044   0.000009
    30  H    0.000001  -0.013978  -0.026732   0.389574  -0.000398  -0.000025
              19         20         21         22         23         24
     1  O    0.000293   0.011920  -0.021394  -0.002053  -0.000018  -0.000273
     2  C    0.013793   0.037810  -0.032571   0.003746  -0.000413   0.001071
     3  N   -0.001917  -0.006579   0.014694   0.000215  -0.000044   0.001190
     4  C    0.092076   0.025955  -0.117833   0.000563  -0.003794   0.000314
     5  C   -0.141522  -0.039842  -0.002203  -0.001206  -0.000237  -0.000586
     6  O    0.191761  -0.002587  -0.001568   0.000490   0.000940  -0.002619
     7  O    0.014905  -0.001828  -0.000196  -0.000211  -0.000076   0.000624
     8  C   -0.129004   0.540463   0.269971   0.000136   0.018824  -0.044930
     9  C    0.135748  -0.262000   0.219596  -0.115762   0.031242  -0.057194
    10  C   -0.007084  -0.008627  -0.021155   0.481795   0.016254   0.051391
    11  N    0.004584   0.000500  -0.001026  -0.091981  -0.077275  -0.001205
    12  C    0.008513  -0.012148  -0.003092   0.033520   0.432627  -0.024329
    13  N   -0.011211  -0.013695  -0.004776   0.014639  -0.079758   0.400175
    14  C    0.005626  -0.004225   0.011387  -0.002518   0.000008  -0.000181
    15  C    0.000058   0.007158  -0.006899   0.000224  -0.000007  -0.000097
    16  N    0.000001   0.000234  -0.000346  -0.000008   0.000000  -0.000001
    17  H   -0.007108   0.000257   0.000401  -0.000016  -0.000052   0.000393
    18  H   -0.005660   0.015359  -0.012819  -0.003230   0.000424  -0.001648
    19  H    0.562012   0.003856  -0.001735  -0.002070  -0.001195  -0.000388
    20  H    0.003856   0.759494  -0.074841  -0.003161   0.000369  -0.005100
    21  H   -0.001735  -0.074841   0.657480   0.004555  -0.000714   0.002586
    22  H   -0.002070  -0.003161   0.004555   0.582130   0.000933   0.002177
    23  H   -0.001195   0.000369  -0.000714   0.000933   0.565145  -0.005441
    24  H   -0.000388  -0.005100   0.002586   0.002177  -0.005441   0.547053
    25  H    0.000534   0.000875   0.000550  -0.000015   0.000002  -0.000059
    26  H   -0.000017   0.000322  -0.000902  -0.000076   0.000001   0.000000
    27  H   -0.000010  -0.000006   0.000206   0.000033  -0.000001   0.000001
    28  H    0.000037  -0.000522  -0.000830   0.000012   0.000001   0.000019
    29  H   -0.000003   0.000008  -0.000027  -0.000002   0.000000   0.000001
    30  H    0.000001   0.000027  -0.000063   0.000003   0.000000   0.000000
              25         26         27         28         29         30
     1  O    0.008109  -0.002072   0.007521  -0.009158  -0.000380   0.000847
     2  C   -0.098672  -0.079892   0.007310  -0.048191  -0.000976  -0.001611
     3  N    0.010371   0.009376  -0.001936   0.005962  -0.000257   0.000508
     4  C    0.022615  -0.001490   0.002178  -0.008593  -0.000231  -0.000114
     5  C   -0.016224  -0.001161  -0.000416   0.003168   0.000186  -0.000088
     6  O   -0.000139   0.000038   0.000008  -0.000018   0.000000  -0.000001
     7  O   -0.004268   0.000668   0.000076  -0.000017   0.000029  -0.000014
     8  C    0.003756   0.004681   0.001514   0.002161   0.000064   0.000046
     9  C    0.004670  -0.002947  -0.001613  -0.001689  -0.000206   0.000017
    10  C    0.000975   0.000083   0.000056  -0.000463  -0.000018   0.000024
    11  N   -0.000017   0.000003  -0.000009   0.000006   0.000000   0.000000
    12  C    0.000008   0.000015  -0.000046   0.000040  -0.000002   0.000001
    13  N   -0.000066   0.000050  -0.000026   0.000101   0.000001   0.000001
    14  C    0.406351   0.435260  -0.045651   0.048144   0.003412  -0.013978
    15  C    0.005919  -0.053552   0.437295   0.343399  -0.059988  -0.026732
    16  N   -0.014896   0.008202  -0.054871  -0.073594   0.382686   0.389574
    17  H   -0.015731   0.000551  -0.000368   0.003162   0.001044  -0.000398
    18  H    0.000798   0.000845  -0.000283  -0.000583   0.000009  -0.000025
    19  H    0.000534  -0.000017  -0.000010   0.000037  -0.000003   0.000001
    20  H    0.000875   0.000322  -0.000006  -0.000522   0.000008   0.000027
    21  H    0.000550  -0.000902   0.000206  -0.000830  -0.000027  -0.000063
    22  H   -0.000015  -0.000076   0.000033   0.000012  -0.000002   0.000003
    23  H    0.000002   0.000001  -0.000001   0.000001   0.000000   0.000000
    24  H   -0.000059   0.000000   0.000001   0.000019   0.000001   0.000000
    25  H    0.757320  -0.060601   0.015472  -0.043946   0.005114   0.003836
    26  H   -0.060601   0.663427  -0.012765   0.018960  -0.001548   0.000942
    27  H    0.015472  -0.012765   0.646041  -0.066317   0.012255  -0.008646
    28  H   -0.043946   0.018960  -0.066317   0.801971  -0.010178  -0.001825
    29  H    0.005114  -0.001548   0.012255  -0.010178   0.630365  -0.055701
    30  H    0.003836   0.000942  -0.008646  -0.001825  -0.055701   0.606238
 Mulliken charges:
               1
     1  O   -0.406498
     2  C   -0.005540
     3  N    0.065565
     4  C    0.098627
     5  C    0.049341
     6  O   -0.193363
     7  O   -0.355101
     8  C   -0.018606
     9  C    0.016001
    10  C   -0.279583
    11  N   -0.256711
    12  C    0.093004
    13  N    0.050113
    14  C    0.074715
    15  C   -0.176864
    16  N   -0.169102
    17  H    0.145648
    18  H    0.118445
    19  H    0.275128
    20  H    0.030556
    21  H    0.123564
    22  H    0.097140
    23  H    0.102254
    24  H    0.137057
    25  H    0.007358
    26  H    0.073599
    27  H    0.062999
    28  H    0.038780
    29  H    0.094344
    30  H    0.107131
 Sum of Mulliken charges =   0.00000
 Mulliken charges with hydrogens summed into heavy atoms:
               1
     1  O   -0.406498
     2  C   -0.005540
     3  N    0.211214
     4  C    0.217071
     5  C    0.049341
     6  O    0.081765
     7  O   -0.355101
     8  C    0.135513
     9  C    0.016001
    10  C   -0.182444
    11  N   -0.256711
    12  C    0.195257
    13  N    0.187170
    14  C    0.155672
    15  C   -0.075085
    16  N    0.032373
 Electronic spatial extent (au):  <R**2>=           5378.2089
 Charge=              0.0000 electrons
 Dipole moment (field-independent basis, Debye):
    X=             -0.0471    Y=             -4.5789    Z=             -1.0045  Tot=              4.6880
 Quadrupole moment (field-independent basis, Debye-Ang):
   XX=            -93.3964   YY=            -91.9638   ZZ=           -112.5178
   XY=              6.7250   XZ=             -1.5684   YZ=              5.0850
 Traceless Quadrupole moment (field-independent basis, Debye-Ang):
   XX=              5.8963   YY=              7.3288   ZZ=            -13.2251
   XY=              6.7250   XZ=             -1.5684   YZ=              5.0850
 Octapole moment (field-independent basis, Debye-Ang**2):
  XXX=            117.7552  YYY=            -55.5683  ZZZ=            -90.2383  XYY=             54.9770
  XXY=           -133.1503  XXZ=            -21.4985  XZZ=             81.8106  YZZ=            -18.5697
  YYZ=             -7.0734  XYZ=             -5.8215
 Hexadecapole moment (field-independent basis, Debye-Ang**3):
 XXXX=          -5642.4638 YYYY=           -406.2592 ZZZZ=          -1224.1149 XXXY=            516.1375
 XXXZ=           -208.3558 YYYX=            357.4212 YYYZ=             10.5810 ZZZX=            103.3765
 ZZZY=             20.6130 XXYY=          -1015.8004 XXZZ=          -1152.2059 YYZZ=           -248.8945
 XXYZ=             80.2570 YYXZ=              8.3617 ZZXY=            116.9432
 N-N= 1.098465041113D+03 E-N=-4.056882359690D+03  KE= 7.929474664768D+02
 Calling FoFJK, ICntrl=      2127 FMM=F ISym2X=0 I1Cent= 0 IOpClX= 0 NMat=1 NMatS=1 NMatT=0.
 -------------------------------------------------------------------
 Center     Atomic                   Forces (Hartrees/Bohr)
 Number     Number              X              Y              Z
 -------------------------------------------------------------------
      1        8           0.002240330   -0.004961520    0.009307291
      2        6          -0.001620105    0.002634957   -0.003848677
      3        7           0.001163470    0.001641307   -0.001571789
      4        6          -0.000835108    0.000492411    0.000195823
      5        6           0.004229302   -0.004368146    0.007802172
      6        8           0.003155266   -0.000102922   -0.002901632
      7        8          -0.006683467    0.006124557   -0.009668400
      8        6          -0.000151474   -0.000107548   -0.000209162
      9        6          -0.002876312    0.002802671   -0.001366119
     10        6           0.002002588   -0.001804167    0.000180242
     11        7           0.002767172   -0.007456732    0.002221719
     12        6          -0.000044564    0.001422822   -0.000220731
     13        7           0.000012314    0.002284531   -0.001033078
     14        6           0.000325210   -0.000253702   -0.000230557
     15        6          -0.004244814    0.002575243   -0.000894690
     16        7           0.000119072   -0.006452757   -0.003586858
     17        1           0.000321390    0.001061707   -0.002993059
     18        1          -0.000225437   -0.002735371    0.001394961
     19        1           0.000210998   -0.001095207    0.003151487
     20        1          -0.000213561    0.002633671   -0.000737570
     21        1          -0.001927717   -0.000495277    0.002107097
     22        1          -0.001557194   -0.002456499    0.000813830
     23        1           0.002668211    0.000970229   -0.000182888
     24        1          -0.000290608    0.002796977   -0.000844134
     25        1          -0.000177584    0.002271226   -0.001876668
     26        1          -0.001912570   -0.001520688   -0.001155149
     27        1           0.000838105   -0.002444183    0.001546396
     28        1           0.002567672    0.002111880    0.001955594
     29        1           0.000913568    0.003415510   -0.000603597
     30        1          -0.000774152    0.001015020    0.003248145
 -------------------------------------------------------------------
 Cartesian Forces:  Max     0.009668400 RMS     0.002905465

 GradGradGradGradGradGradGradGradGradGradGradGradGradGradGradGradGradGrad
 Berny optimization.
 FormGI is forming the generalized inverse of G from B-inverse, IUseBI=4.
 GSVD:  received Info=                   1 from GESDD.
 Internal  Forces:  Max     0.013222536 RMS     0.002068638
 Search for a local minimum.
 Step number   1 out of a maximum of  160
 All quantities printed in internal units (Hartrees-Bohrs-Radians)
 Mixed Optimization -- RFO/linear search
 Second derivative matrix not updated -- first step.
 ITU=  0
     Eigenvalues ---    0.00076   0.00079   0.00243   0.00266   0.00306
     Eigenvalues ---    0.00469   0.00551   0.00686   0.00795   0.00895
     Eigenvalues ---    0.01918   0.02003   0.02275   0.02551   0.03174
     Eigenvalues ---    0.03448   0.04027   0.04075   0.04179   0.04399
     Eigenvalues ---    0.04429   0.04599   0.05079   0.05124   0.05149
     Eigenvalues ---    0.05454   0.06102   0.06147   0.07551   0.07900
     Eigenvalues ---    0.08358   0.10225   0.10653   0.11079   0.11340
     Eigenvalues ---    0.11740   0.12061   0.13480   0.15009   0.15030
     Eigenvalues ---    0.16680   0.17213   0.17814   0.18762   0.19300
     Eigenvalues ---    0.20363   0.21599   0.21999   0.22912   0.23086
     Eigenvalues ---    0.23144   0.24286   0.24374   0.25236   0.29152
     Eigenvalues ---    0.30865   0.31413   0.32524   0.32894   0.33176
     Eigenvalues ---    0.33461   0.33782   0.34221   0.34400   0.34648
     Eigenvalues ---    0.35410   0.36989   0.37209   0.37375   0.37674
     Eigenvalues ---    0.39955   0.40538   0.44313   0.44714   0.44906
     Eigenvalues ---    0.44970   0.45258   0.46310   0.46789   0.47834
     Eigenvalues ---    0.48678   0.57697   0.81729   0.88846
 RFO step:  Lambda=-1.58586491D-03 EMin= 7.60676944D-04
 Linear search not attempted -- first point.
 Iteration  1 RMS(Cart)=  0.02773485 RMS(Int)=  0.00028711
 Iteration  2 RMS(Cart)=  0.00072714 RMS(Int)=  0.00009984
 Iteration  3 RMS(Cart)=  0.00000024 RMS(Int)=  0.00009984
 Variable       Old X    -DE/DX   Delta X   Delta X   Delta X     New X
                                 (Linear)    (Quad)   (Total)
    R1        2.32279  -0.01076   0.00000  -0.01299  -0.01299   2.30980
    R2        2.58183  -0.00419   0.00000  -0.00589  -0.00589   2.57594
    R3        2.87755  -0.00275   0.00000  -0.00808  -0.00808   2.86947
    R4        2.73258  -0.00066   0.00000  -0.00296  -0.00296   2.72962
    R5        1.91438  -0.00300   0.00000  -0.00714  -0.00714   1.90723
    R6        2.90023  -0.00188   0.00000  -0.00783  -0.00783   2.89240
    R7        2.94821  -0.00100   0.00000  -0.00684  -0.00684   2.94137
    R8        2.07539  -0.00302   0.00000  -0.00932  -0.00932   2.06606
    R9        2.53731  -0.00351   0.00000  -0.00365  -0.00365   2.53366
   R10        2.28786  -0.01322   0.00000  -0.01537  -0.01537   2.27248
   R11        1.84489  -0.00322   0.00000  -0.00819  -0.00819   1.83670
   R12        2.83324  -0.00292   0.00000  -0.00760  -0.00760   2.82563
   R13        2.07062  -0.00273   0.00000  -0.00751  -0.00751   2.06311
   R14        2.06671  -0.00284   0.00000  -0.00749  -0.00749   2.05922
   R15        2.61189  -0.00670   0.00000  -0.01260  -0.01259   2.59929
   R16        2.61394  -0.00285   0.00000  -0.00641  -0.00641   2.60753
   R17        2.60600  -0.00280   0.00000  -0.00573  -0.00573   2.60028
   R18        2.04455  -0.00302   0.00000  -0.00814  -0.00814   2.03641
   R19        2.48280  -0.00593   0.00000  -0.01023  -0.01024   2.47257
   R20        2.58382  -0.00440   0.00000  -0.00680  -0.00681   2.57701
   R21        2.04315  -0.00284   0.00000  -0.00743  -0.00743   2.03571
   R22        1.90732  -0.00291   0.00000  -0.00600  -0.00600   1.90132
   R23        2.89137  -0.00172   0.00000  -0.00766  -0.00766   2.88371
   R24        2.07411  -0.00294   0.00000  -0.00854  -0.00854   2.06557
   R25        2.07374  -0.00256   0.00000  -0.00736  -0.00736   2.06639
   R26        2.76940   0.00033   0.00000  -0.00281  -0.00281   2.76659
   R27        2.06581  -0.00292   0.00000  -0.00857  -0.00857   2.05724
   R28        2.08627  -0.00366   0.00000  -0.01085  -0.01085   2.07541
   R29        1.92401  -0.00319   0.00000  -0.00984  -0.00984   1.91417
   R30        1.92169  -0.00320   0.00000  -0.00982  -0.00982   1.91187
    A1        2.12263  -0.00049   0.00000  -0.00035  -0.00035   2.12228
    A2        2.14351   0.00022   0.00000   0.00049   0.00049   2.14400
    A3        2.01700   0.00026   0.00000  -0.00020  -0.00020   2.01680
    A4        2.11700   0.00164   0.00000   0.00611   0.00611   2.12311
    A5        2.12601  -0.00191   0.00000  -0.01288  -0.01289   2.11312
    A6        2.01170   0.00030   0.00000   0.00785   0.00785   2.01955
    A7        1.87685   0.00003   0.00000   0.00506   0.00506   1.88191
    A8        1.94216  -0.00040   0.00000   0.00071   0.00071   1.94286
    A9        1.90355  -0.00009   0.00000  -0.00446  -0.00446   1.89909
   A10        1.96472   0.00061   0.00000  -0.00161  -0.00161   1.96310
   A11        1.90328  -0.00050   0.00000  -0.00452  -0.00451   1.89877
   A12        1.87253   0.00033   0.00000   0.00443   0.00443   1.87696
   A13        2.03022   0.00124   0.00000  -0.00204  -0.00204   2.02818
   A14        2.13945   0.00041   0.00000   0.00589   0.00589   2.14534
   A15        2.11348  -0.00165   0.00000  -0.00383  -0.00383   2.10965
   A16        1.92846   0.00159   0.00000   0.01140   0.01140   1.93986
   A17        1.99310   0.00178   0.00000   0.00521   0.00521   1.99831
   A18        1.89454  -0.00044   0.00000   0.00109   0.00109   1.89563
   A19        1.84072  -0.00004   0.00000   0.00431   0.00432   1.84504
   A20        1.92791  -0.00050   0.00000  -0.00186  -0.00187   1.92604
   A21        1.92769  -0.00101   0.00000  -0.00587  -0.00589   1.92180
   A22        1.87446   0.00016   0.00000  -0.00305  -0.00307   1.87139
   A23        2.31576  -0.00033   0.00000  -0.00214  -0.00216   2.31359
   A24        2.14999   0.00001   0.00000  -0.00048  -0.00051   2.14948
   A25        1.81734   0.00032   0.00000   0.00278   0.00277   1.82011
   A26        1.94100  -0.00129   0.00000  -0.00488  -0.00487   1.93613
   A27        2.22518   0.00056   0.00000   0.00283   0.00283   2.22800
   A28        2.11647   0.00072   0.00000   0.00213   0.00212   2.11859
   A29        1.83504   0.00201   0.00000   0.00638   0.00638   1.84142
   A30        1.94999  -0.00156   0.00000  -0.00504  -0.00504   1.94495
   A31        2.19843   0.00075   0.00000   0.00243   0.00243   2.20086
   A32        2.13475   0.00081   0.00000   0.00261   0.00261   2.13737
   A33        1.88138   0.00051   0.00000   0.00077   0.00077   1.88216
   A34        2.19426   0.00010   0.00000   0.00178   0.00178   2.19604
   A35        2.20746  -0.00061   0.00000  -0.00256  -0.00256   2.20489
   A36        1.95665   0.00172   0.00000   0.00811   0.00811   1.96476
   A37        1.92700  -0.00066   0.00000  -0.00143  -0.00143   1.92558
   A38        1.88941  -0.00106   0.00000  -0.00907  -0.00910   1.88031
   A39        1.93621  -0.00057   0.00000  -0.00469  -0.00469   1.93152
   A40        1.89024   0.00021   0.00000   0.00595   0.00597   1.89621
   A41        1.86078   0.00029   0.00000   0.00078   0.00077   1.86156
   A42        1.92059   0.00057   0.00000   0.00133   0.00132   1.92192
   A43        1.88408   0.00042   0.00000   0.01023   0.01022   1.89430
   A44        1.90413   0.00029   0.00000   0.00162   0.00160   1.90573
   A45        1.89793  -0.00036   0.00000  -0.00458  -0.00460   1.89333
   A46        1.99654  -0.00111   0.00000  -0.01174  -0.01175   1.98479
   A47        1.85654   0.00025   0.00000   0.00447   0.00440   1.86095
   A48        1.92010   0.00230   0.00000   0.02456   0.02411   1.94422
   A49        1.91451   0.00168   0.00000   0.02129   0.02084   1.93535
   A50        1.84932  -0.00069   0.00000   0.01757   0.01670   1.86602
    D1       -0.13388   0.00038   0.00000   0.00775   0.00773  -0.12615
    D2       -3.00925   0.00017   0.00000   0.00162   0.00164  -3.00761
    D3        2.99717   0.00018   0.00000   0.00246   0.00244   2.99962
    D4        0.12180  -0.00002   0.00000  -0.00366  -0.00364   0.11816
    D5       -0.55609  -0.00036   0.00000  -0.02503  -0.02502  -0.58111
    D6       -2.72449  -0.00038   0.00000  -0.02375  -0.02375  -2.74824
    D7        1.52785   0.00025   0.00000  -0.01865  -0.01867   1.50917
    D8        2.59618  -0.00016   0.00000  -0.01967  -0.01966   2.57652
    D9        0.42778  -0.00018   0.00000  -0.01839  -0.01838   0.40939
   D10       -1.60307   0.00045   0.00000  -0.01329  -0.01331  -1.61638
   D11       -2.77043   0.00069   0.00000   0.03344   0.03343  -2.73700
   D12        1.35358   0.00016   0.00000   0.03157   0.03155   1.38512
   D13       -0.70879   0.00006   0.00000   0.02849   0.02847  -0.68032
   D14        0.12136   0.00054   0.00000   0.03619   0.03621   0.15757
   D15       -2.03782   0.00001   0.00000   0.03432   0.03433  -2.00349
   D16        2.18300  -0.00009   0.00000   0.03124   0.03125   2.21426
   D17        3.01594  -0.00040   0.00000  -0.02439  -0.02439   2.99155
   D18       -0.13373  -0.00014   0.00000  -0.02280  -0.02280  -0.15653
   D19       -1.12189  -0.00049   0.00000  -0.02099  -0.02099  -1.14288
   D20        2.01163  -0.00024   0.00000  -0.01940  -0.01940   1.99223
   D21        0.95412  -0.00003   0.00000  -0.01946  -0.01946   0.93466
   D22       -2.19554   0.00022   0.00000  -0.01788  -0.01787  -2.21341
   D23       -3.06788   0.00050   0.00000   0.03384   0.03384  -3.03404
   D24        1.05613   0.00024   0.00000   0.03177   0.03176   1.08789
   D25       -0.94821   0.00028   0.00000   0.03263   0.03264  -0.91557
   D26        1.10697   0.00033   0.00000   0.02794   0.02793   1.13491
   D27       -1.05220   0.00006   0.00000   0.02586   0.02586  -1.02635
   D28       -3.05655   0.00011   0.00000   0.02673   0.02673  -3.02981
   D29       -0.98691   0.00036   0.00000   0.03157   0.03157  -0.95534
   D30        3.13710   0.00009   0.00000   0.02949   0.02949  -3.11659
   D31        1.13276   0.00014   0.00000   0.03036   0.03037   1.16312
   D32        0.04736   0.00032   0.00000   0.01118   0.01118   0.05854
   D33       -3.08629   0.00006   0.00000   0.00957   0.00957  -3.07671
   D34        1.01183   0.00009   0.00000  -0.01317  -0.01318   0.99865
   D35       -2.11153  -0.00007   0.00000  -0.02732  -0.02732  -2.13885
   D36       -3.13025   0.00043   0.00000  -0.00936  -0.00938  -3.13962
   D37        0.02958   0.00027   0.00000  -0.02351  -0.02352   0.00606
   D38       -1.05910  -0.00032   0.00000  -0.01801  -0.01800  -1.07710
   D39        2.10072  -0.00049   0.00000  -0.03216  -0.03214   2.06858
   D40       -3.12816  -0.00007   0.00000  -0.01055  -0.01055  -3.13871
   D41        0.04876  -0.00011   0.00000  -0.01309  -0.01309   0.03567
   D42       -0.00229   0.00006   0.00000   0.00165   0.00165  -0.00065
   D43       -3.10857   0.00002   0.00000  -0.00089  -0.00089  -3.10946
   D44        3.13276   0.00003   0.00000   0.00868   0.00869   3.14145
   D45        0.00415   0.00009   0.00000   0.00980   0.00981   0.01396
   D46        0.00498  -0.00008   0.00000  -0.00201  -0.00202   0.00297
   D47       -3.12362  -0.00003   0.00000  -0.00089  -0.00090  -3.12452
   D48       -0.00138  -0.00001   0.00000  -0.00062  -0.00062  -0.00200
   D49        3.10743   0.00002   0.00000   0.00177   0.00177   3.10919
   D50        0.00469  -0.00004   0.00000  -0.00073  -0.00074   0.00395
   D51        3.14117   0.00003   0.00000   0.00098   0.00098  -3.14104
   D52       -0.00631   0.00009   0.00000   0.00181   0.00181  -0.00450
   D53        3.12217   0.00004   0.00000   0.00073   0.00073   3.12290
   D54        3.14018   0.00002   0.00000   0.00017   0.00017   3.14035
   D55       -0.01452  -0.00003   0.00000  -0.00091  -0.00091  -0.01543
   D56        3.00098   0.00035   0.00000   0.02053   0.02055   3.02154
   D57        0.93212   0.00020   0.00000   0.01926   0.01928   0.95140
   D58       -1.07844  -0.00046   0.00000   0.00767   0.00767  -1.07076
   D59       -1.11893   0.00032   0.00000   0.02112   0.02113  -1.09780
   D60        3.09540   0.00018   0.00000   0.01984   0.01985   3.11525
   D61        1.08484  -0.00049   0.00000   0.00826   0.00825   1.09308
   D62        0.91753   0.00048   0.00000   0.02296   0.02296   0.94049
   D63       -1.15133   0.00034   0.00000   0.02169   0.02168  -1.12965
   D64        3.12130  -0.00033   0.00000   0.01010   0.01008   3.13137
   D65        1.24493  -0.00095   0.00000  -0.02158  -0.02180   1.22314
   D66       -3.01058   0.00053   0.00000   0.02628   0.02652  -2.98406
   D67       -2.97793  -0.00032   0.00000  -0.01114  -0.01139  -2.98931
   D68       -0.95025   0.00116   0.00000   0.03672   0.03693  -0.91332
   D69       -0.90566  -0.00096   0.00000  -0.01616  -0.01638  -0.92204
   D70        1.12201   0.00052   0.00000   0.03170   0.03194   1.15395
         Item               Value     Threshold  Converged?
 Maximum Force            0.013223     0.000450     NO 
 RMS     Force            0.002069     0.000300     NO 
 Maximum Displacement     0.108330     0.001800     NO 
 RMS     Displacement     0.027761     0.001200     NO 
 Predicted change in Energy=-8.205515D-04
 GradGradGradGradGradGradGradGradGradGradGradGradGradGradGradGradGradGrad

                          Input orientation:                          
 ---------------------------------------------------------------------
 Center     Atomic      Atomic             Coordinates (Angstroms)
 Number     Number       Type             X           Y           Z
 ---------------------------------------------------------------------
      1          8           0        1.474487    0.888867   -1.056604
      2          6           0        1.754443    0.245298   -0.055881
      3          7           0        0.803928   -0.108388    0.854913
      4          6           0       -0.550514    0.385880    0.767553
      5          6           0       -1.169480    0.306036    2.165130
      6          8           0       -2.367374    0.888971    2.316338
      7          8           0       -0.632415   -0.248761    3.087019
      8          6           0       -1.373001   -0.401851   -0.293439
      9          6           0       -2.741946    0.143700   -0.546746
     10          6           0       -3.190899    1.379755   -0.949947
     11          7           0       -4.563815    1.398710   -1.040159
     12          6           0       -4.953250    0.196391   -0.701418
     13          7           0       -3.892380   -0.601903   -0.390053
     14          6           0        3.170603   -0.194437    0.270973
     15          6           0        3.990913   -0.503732   -0.978061
     16          7           0        5.385114   -0.762085   -0.613642
     17          1           0        1.057442   -0.538247    1.732163
     18          1           0       -0.524166    1.432733    0.453323
     19          1           0       -2.694518    1.242160    1.472005
     20          1           0       -1.432142   -1.446837    0.017092
     21          1           0       -0.781805   -0.370079   -1.208267
     22          1           0       -2.599694    2.243754   -1.205388
     23          1           0       -5.971519   -0.152648   -0.659294
     24          1           0       -3.936293   -1.560221   -0.086736
     25          1           0        3.155023   -1.054707    0.945106
     26          1           0        3.655491    0.621081    0.814592
     27          1           0        3.961077    0.363654   -1.635253
     28          1           0        3.517161   -1.329393   -1.525803
     29          1           0        5.481107   -1.641135   -0.119581
     30          1           0        5.968190   -0.822667   -1.438221
 ---------------------------------------------------------------------
                    Distance matrix (angstroms):
                    1          2          3          4          5
     1  O    0.000000
     2  C    1.222294   0.000000
     3  N    2.257889   1.363128   0.000000
     4  C    2.771493   2.451659   1.444454   0.000000
     5  C    4.208304   3.672316   2.404736   1.530593   0.000000
     6  O    5.112400   4.799074   3.631480   2.439839   1.340756
     7  O    4.785692   3.977312   2.658023   2.406118   1.202546
     8  C    3.218161   3.202521   2.478680   1.556506   2.566532
     9  C    4.312022   4.524243   3.821180   2.566789   3.138993
    10  C    4.692352   5.151965   4.629334   3.302912   3.865581
    11  N    6.059810   6.497657   5.888574   4.516662   4.794719
    12  C    6.474680   6.738861   5.971613   4.645198   4.748267
    13  N    5.609808   5.719793   4.883524   3.672034   3.842850
    14  C    2.410979   1.518457   2.439168   3.798694   4.761788
    15  C    2.877134   2.532442   3.697697   4.946023   6.096313
    16  N    4.267888   3.808897   4.855022   6.201388   7.198970
    17  H    3.160348   2.072886   1.009265   2.090456   2.420631
    18  H    2.563257   2.619418   2.073684   1.093314   2.148525
    19  H    4.888689   4.808474   3.800514   2.413756   1.918982
    20  H    3.880312   3.608734   2.737407   2.167789   2.784891
    21  H    2.588203   2.852934   2.615290   2.128106   3.462258
    22  H    4.296139   4.926834   4.621910   3.397547   4.142542
    23  H    7.528985   7.759700   6.942727   5.631447   5.589932
    24  H    6.017907   5.970370   5.046208   3.997576   4.026049
    25  H    3.257073   2.157224   2.536001   3.979676   4.694827
    26  H    2.886150   2.124364   2.943665   4.212839   5.020314
    27  H    2.606495   2.716185   4.048622   5.111598   6.385049
    28  H    3.051777   2.783433   3.810551   4.974699   6.185647
    29  H    4.830313   4.177405   5.017465   6.424659   7.296690
    30  H    4.823727   4.561477   5.695459   6.987097   8.074926
                    6          7          8          9         10
     6  O    0.000000
     7  O    2.213247   0.000000
     8  C    3.076676   3.464016   0.000000
     9  C    2.982111   4.220000   1.495259   0.000000
    10  C    3.404068   5.049258   2.628664   1.375486   0.000000
    11  N    4.043546   5.933268   3.739105   2.266653   1.376007
    12  C    4.034015   5.763682   3.652742   2.217333   2.137288
    13  N    3.445708   4.779342   2.529156   1.379846   2.175437
    14  C    6.002206   4.732443   4.583222   5.978398   6.666141
    15  C    7.295238   6.161579   5.408388   6.777654   7.424738
    16  N    8.450553   7.083012   6.775280   8.177654   8.845823
    17  H    3.756005   2.185190   3.166815   4.482613   5.377810
    18  H    2.676549   3.126579   2.154965   2.753233   3.013874
    19  H    0.971938   3.013865   2.750631   2.298743   2.476122
    20  H    3.408399   3.391077   1.091752   2.136190   3.466700
    21  H    4.064736   4.299595   1.089693   2.131603   2.988709
    22  H    3.780471   5.339248   3.055430   2.205509   1.077620
    23  H    4.788446   6.523046   4.619775   3.245094   3.188195
    24  H    3.772905   4.765318   2.820463   2.131061   3.153443
    25  H    6.012905   4.425159   4.739537   6.199681   7.056100
    26  H    6.213043   4.930182   5.249748   6.558073   7.110713
    27  H    7.479326   6.616274   5.553274   6.794391   7.256230
    28  H    7.369596   6.298007   5.127645   6.504227   7.257352
    29  H    8.598476   7.042453   6.967413   8.425360   9.220573
    30  H    9.300969   8.023413   7.441820   8.808805   9.432813
                   11         12         13         14         15
    11  N    0.000000
    12  C    1.308426   0.000000
    13  N    2.208148   1.363696   0.000000
    14  C    8.004899   8.191171   7.105542   0.000000
    15  C    8.763933   8.975788   7.905802   1.525994   0.000000
    16  N   10.189806  10.383071   9.281571   2.451291   1.464016
    17  H    6.560191   6.526134   5.385962   2.592052   3.993965
    18  H    4.307018   4.741176   4.024412   4.041319   5.117099
    19  H    3.135243   3.304432   2.881441   6.156780   7.331163
    20  H    4.361456   3.951539   2.632955   4.776842   5.593684
    21  H    4.178573   4.240134   3.224732   4.223805   4.780136
    22  H    2.144567   3.159890   3.230103   6.435895   7.143981
    23  H    2.129179   1.077253   2.144094   9.189426   9.973712
    24  H    3.171447   2.120783   1.006133   7.245778   8.046814
    25  H    8.339124   8.367818   7.187042   1.093052   2.168146
    26  H    8.461784   8.751518   7.740621   1.093484   2.142736
[...]
 2003815,-0.41971832,0.12159526,0.00003513,0.00000820,-0.00002495,-0.00
 002248,0.00002868,0.00004499,0.00003498,-0.00001721,-0.00001831,-0.000
 00088,0.00004034,0.00002103,-0.00000713,-0.00003358,0.00000532,-0.0002
 2808,-0.00028134,-0.00008176,-0.00039536,0.00015871,0.00009261,0.00024
 000,0.00006021,0.00007871,0.00020911,0.00008238,0.00046539,0.00022007,
 0.00019106,-0.00041789,0.02004382,0.43472901,0.00000428,0.00003694,-0.
 00013553,-0.00006503,-0.00006353,0.00015539,-0.00004576,0.00005671,-0.
 00024332,-0.00010789,-0.00007308,0.00015402,-0.00107090,-0.00009279,0.
 00048472,0.00078637,0.00030293,-0.00024953,0.00030138,0.00012092,-0.00
 016921,0.00030400,-0.00097962,-0.00181146,0.00001765,-0.00181059,-0.00
 611843,-0.00087805,0.00026426,0.00203854,-0.00113983,0.00250038,0.0057
 5293,0.00388589,0.00145001,-0.00803101,-0.00003588,0.12258024,-0.04221
 518,0.00000547,-0.00000065,0.00000189,0.00001074,0.00002250,0.00002363
 ,-0.00000678,-0.00001007,-0.00002064,-0.00009033,-0.00002820,0.0000822
 5,0.00000035,-0.00002963,-0.00004997,-0.00011159,-0.00035599,0.0005376
 8,-0.00000873,0.00019558,0.00039785,0.00030692,0.00025831,0.00007354,-
 0.00001876,0.00041401,0.00183551,0.00000398,-0.00048184,-0.00116011,-0
 .00204738,-0.12427603,0.04866889,-0.00817986,0.00192407,-0.00337398,0.
 00548141,0.02485015,-0.02107622,-0.00026646,-0.00148140,0.00064270,0.0
 0046869,-0.00016305,-0.00014934,-0.00004936,0.00003935,-0.00005170,0.0
 0012530,-0.00005689,-0.00001935,0.00008836,-0.00008536,0.00008292,0.00
 001969,-0.00003351,-0.00003030,0.00001941,0.00002081,0.00002670,0.0000
 1480,0.00003050,-0.00000219,-0.00000603,-0.00001521,0.00001036,-0.0000
 1178,0.00000247,-0.00000822,-0.00000882,-0.00001641,0.00001465,-0.0495
 2434,-0.00067988,0.00309193,-0.00088895,-0.01402974,0.01228507,0.00150
 118,-0.00056613,-0.00058844,-0.00144532,0.00063839,0.00047739,0.000151
 43,0.00002526,-0.00013472,-0.00001332,0.00001290,-0.00003181,-0.000039
 62,-0.00002208,0.00003830,0.00007107,0.00011034,0.00004094,0.00000947,
 -0.00001436,-0.00000246,-0.00000023,-0.00000239,-0.00000245,-0.0000035
 0,0.00000453,-0.00000361,0.05385270,0.00309499,0.00125146,0.00049088,-
 0.00576242,-0.00836279,0.00574856,-0.00011663,0.00117835,-0.00076095,0
 .00018259,0.00030875,-0.00028367,0.00021319,-0.00017624,0.00035401,-0.
 00011124,0.00008248,-0.00008289,-0.00016528,0.00010758,-0.00026783,0.0
 0001701,0.00002566,0.00003326,-0.00002492,-0.00000587,-0.00002964,-0.0
 0001651,-0.00002300,-0.00000772,0.00002456,0.00001146,-0.00001200,0.00
 001703,-0.00000705,0.00000981,0.00001021,0.00000625,-0.00001480,0.0031
 1161,-0.19461870,0.12463909,0.00043470,0.00735055,-0.00648753,-0.00115
 523,0.00077469,-0.00027125,0.00107252,0.00007253,-0.00057340,-0.000168
 08,0.00006691,0.00001272,-0.00000343,-0.00000020,0.00004382,0.00001997
 ,0.00001412,-0.00001501,-0.00006352,-0.00006923,-0.00004974,-0.0000095
 5,0.00001151,0.00000686,0.00000117,0.00000161,0.00000383,-0.00000365,-
 0.00000508,0.00000990,-0.00173566,0.20929064,-0.00231008,0.00101617,0.
 00136673,0.00131298,0.00491648,-0.00793817,0.00149097,-0.00117189,0.00
 012483,-0.00046701,-0.00041035,0.00012677,-0.00009869,0.00003784,0.000
 00734,0.00005780,-0.00001928,-0.00001083,0.00002716,-0.00004976,-0.000
 00811,-0.00002429,0.00004276,-0.00003985,-0.00001263,-0.00000123,0.000
 01513,0.00001082,0.00001798,-0.00000239,0.00001247,-0.00001386,0.00001
 326,-0.00000122,0.00000448,-0.00000462,-0.00000719,-0.00001909,0.00000
 750,0.00030735,0.12477200,-0.15321895,0.00032681,0.02226588,-0.0195813
 2,-0.00133348,-0.00056078,0.00165947,0.00019407,0.00025593,0.00104230,
 0.00020206,-0.00009339,-0.00001124,-0.00001593,0.00000827,-0.00000861,
 -0.00002965,-0.00000899,0.00002118,0.00001535,0.00004157,0.00000982,0.
 00000436,-0.00000254,-0.00000744,-0.00000010,-0.00000115,-0.00000190,-
 0.00000879,0.00000392,-0.00000230,-0.00336623,-0.13797236,0.16941417,0
 .00075142,0.00341672,0.00188441,-0.01611317,-0.02653033,-0.01434677,-0
 .00178907,0.00235652,0.00053018,-0.00011695,0.00105693,0.00111997,-0.0
 0019773,0.00024845,-0.00048792,-0.00019626,-0.00000471,0.00020255,0.00
 005480,-0.00000820,0.00023319,0.00024496,-0.00002195,0.00008056,0.0000
 4630,-0.00001317,0.00000320,0.00000234,-0.00001320,0.00000895,-0.00002
 670,0.00000527,-0.00000714,-0.00001613,0.00000321,-0.00000104,0.000005
 14,0.00001786,-0.00000503,-0.10047221,-0.09593260,-0.05501268,0.007319
 14,0.01397537,0.00828101,0.00148080,-0.00015572,-0.00045409,-0.0003986
 0,-0.00060854,-0.00030891,-0.00028513,-0.00003718,0.00006876,0.0000573
 1,-0.00003145,0.00001334,-0.00000055,-0.00001125,-0.00001475,0.0000165
 8,-0.00001369,-0.00000147,0.00000209,-0.00000697,0.00000187,-0.0000009
 1,0.00000094,0.00000049,0.00000856,0.00000488,-0.00000079,0.00036811,0
 .00067337,0.00064174,0.11006018,0.00042819,-0.00166897,-0.00003931,0.0
 0293030,0.00900256,0.00558524,0.00016160,0.00023920,-0.00049353,-0.000
 13230,-0.00013976,-0.00033072,-0.00001983,-0.00003874,0.00005076,0.000
 09432,-0.00001655,-0.00003767,0.00004552,0.00002635,-0.00000197,-0.000
 02165,-0.00003521,0.00000788,-0.00001292,0.00001765,0.00000447,-0.0000
 0732,0.00000379,0.00000209,0.00001106,0.00000459,0.00000281,0.00001303
 ,-0.00000347,0.00000130,0.00000181,-0.00000339,0.00000410,-0.09044758,
 -0.19993167,-0.08347698,-0.00391787,-0.00751728,-0.00565795,-0.0003052
 7,0.00057749,0.00152903,0.00011639,-0.00037782,-0.00027731,-0.00002777
 ,0.00001119,-0.00000034,-0.00002086,0.00000425,-0.00001851,0.00001474,
 0.00000796,-0.00001708,-0.00002571,-0.00002711,-0.00001045,-0.00000309
 ,0.00000411,-0.00000335,0.00000082,-0.00000068,-0.00000102,-0.00000070
 ,-0.00000723,-0.00000347,-0.01139945,-0.01916855,-0.01017885,0.1009584
 5,0.21688738,-0.00037081,0.00203044,0.00057253,-0.00337553,-0.00511287
 ,-0.00410405,0.00079002,-0.00004912,-0.00019586,-0.00030430,-0.0003065
 8,-0.00009248,-0.00000240,-0.00001461,0.00012593,0.00003451,0.00000537
 ,-0.00004170,-0.00001291,-0.00001650,-0.00008916,0.00002756,0.00000319
 ,-0.00003182,-0.00001110,0.00000927,0.00001493,-0.00000109,0.00000105,
 -0.00000038,0.00001324,0.00000062,0.00000301,0.00000822,-0.00000272,-0
 .00000061,0.00000459,-0.00000231,0.00000384,-0.05215636,-0.08405538,-0
 .09009699,-0.01177115,-0.02489772,-0.01697732,-0.00125373,0.00162296,0
 .00248311,0.00008192,0.00040968,0.00026658,0.00011951,-0.00007196,-0.0
 0000047,-0.00001643,0.00000365,0.00000184,-0.00001042,0.00000208,-0.00
 000292,0.00000050,-0.00000847,-0.00000954,0.00000049,0.00000107,-0.000
 00298,0.00000099,-0.00000064,-0.00000092,-0.00000370,-0.00000342,-0.00
 000206,0.01044135,0.01623713,0.00942141,0.05540001,0.09466009,0.101718
 95,-0.00045563,0.00095484,-0.00154206,0.00047011,-0.00217963,0.0024355
 9,0.00038081,0.00068065,-0.00090291,-0.00012277,0.00005564,-0.00009223
 ,0.00002106,-0.00002849,0.00012862,-0.00000478,0.00001297,-0.00003450,
 -0.00001940,0.00003558,-0.00010757,-0.00000919,0.00000022,0.00001866,-
 0.00001808,-0.00000063,-0.00000433,-0.00001225,-0.00001120,-0.00000369
 ,0.00001556,0.00000821,-0.00000596,0.00001313,-0.00000410,0.00000487,0
 .00000470,0.00000532,-0.00000449,-0.00023762,-0.01346959,0.01156909,-0
 .04770156,-0.00285990,0.00112626,-0.00705637,0.02904927,-0.02589377,0.
 00035857,-0.00007470,-0.00010212,-0.00005230,0.00000283,0.00003821,-0.
 00000849,0.00000055,0.00001364,0.00001791,0.00000885,-0.00001548,-0.00
 003326,-0.00004155,-0.00000719,-0.00000603,0.00000978,0.00000343,0.000
 00070,0.00000085,0.00000092,-0.00000170,-0.00000648,0.00000307,-0.0019
 9668,0.00156683,0.00300391,0.00077600,0.00031266,-0.00076817,0.0596242
 3,0.00095834,-0.00039628,-0.00138014,0.00081239,-0.00033068,0.00142491
 ,-0.00015606,0.00009469,0.00008395,0.00002792,-0.00007048,0.00004246,0
 .00000301,0.00000550,-0.00001135,-0.00001918,0.00000573,0.00000645,-0.
 00000579,0.00000344,-0.00000130,-0.00000769,-0.00001351,0.00000998,0.0
 0000493,-0.00000145,-0.00000243,-0.00000009,-0.00000358,-0.00000214,-0
 .00000757,0.00000343,-0.00000615,-0.00000116,-0.00000110,0.00000163,0.
 00000024,0.00000569,-0.00000314,-0.00145374,0.00760070,-0.00608210,0.0
 0097345,-0.20925265,0.12975963,0.00340387,-0.00323224,0.00350990,-0.00
 016972,0.00008179,-0.00004069,0.00000405,0.00000865,0.00000670,0.00000
 647,-0.00000125,0.00000668,0.00000833,0.00000311,-0.00000762,-0.000002
 73,-0.00000924,0.00001311,0.00000002,0.00000143,0.00000429,-0.00000020
 ,0.00000040,0.00000105,0.00000323,-0.00000091,0.00000244,0.00167042,0.
 00071824,-0.00212514,-0.00045861,0.00110435,0.00024012,-0.00544756,0.2
 2268270,-0.00114389,-0.00105591,0.00178430,-0.00120397,0.00189032,-0.0
 0175269,0.00005149,-0.00017774,0.00032741,0.00000160,0.00001146,0.0000
 8935,-0.00006545,0.00004135,-0.00008696,0.00003911,-0.00002719,0.00001
 543,0.00004798,-0.00003922,0.00007200,0.00002219,-0.00002114,-0.000005
 35,0.00001065,0.00000989,0.00001122,0.00000488,0.00000810,-0.00000165,
 -0.00000349,-0.00000509,0.00000222,-0.00000292,0.00000204,-0.00000205,
 -0.00000216,-0.00000689,0.00000572,0.00284835,0.02100380,-0.02085400,-
 0.00356885,0.12658012,-0.15412510,-0.00179396,0.00534278,-0.00451517,-
 0.00024446,0.00000963,0.00016785,0.00004308,-0.00002352,0.00000229,0.0
 0000137,0.00000407,-0.00000943,-0.00000672,-0.00000341,-0.00000026,0.0
 0001934,0.00001472,0.00001252,0.00000292,-0.00000153,0.00000053,-0.000
 00014,-0.00000070,-0.00000082,0.,0.00000114,-0.00000215,0.00284084,-0.
 00188021,-0.00373129,-0.00077291,0.00027742,0.00106242,0.00404359,-0.1
 4019083,0.16968527,0.00002228,-0.00004709,-0.00025477,0.00165388,0.000
 24505,0.00028067,-0.00015097,-0.00026378,-0.00001448,0.00011394,-0.000
 00211,0.00004048,0.00005889,-0.00001430,-0.00003891,-0.00004442,0.0000
 1755,0.00001967,-0.00003051,0.00000503,0.00002658,-0.00001314,-0.00000
 101,-0.00001405,0.00000988,-0.00000711,0.00000072,0.00000072,-0.000002
 84,0.00000377,-0.00001747,0.00000806,-0.00000175,-0.00000224,-0.000004
 94,0.00000022,-0.00000189,0.00001359,0.00000001,0.00702678,0.01383323,
 0.00831420,-0.08782402,-0.07833260,-0.04163154,-0.03073948,-0.02050048
 ,-0.01808191,0.00002503,0.00001504,-0.00003555,-0.00000071,0.00001838,
 -0.00000638,0.00000987,-0.00000582,-0.00000206,0.00000674,0.00000328,-
 0.00000481,-0.00000035,0.00000195,0.00000913,0.00000184,-0.00000444,-0
 .00000026,-0.00000014,-0.00000031,-0.00000092,0.00000763,0.00000030,-0
 .00000419,0.00043906,-0.00046005,-0.00077867,-0.00175139,0.00136695,0.
 00340766,0.00090044,-0.00160429,-0.00000513,0.10844001,0.00090541,0.00
 027167,0.00126779,-0.00160381,0.00036319,-0.00175473,0.00074908,-0.000
 03137,0.00007193,-0.00008903,-0.00000373,-0.00006261,-0.00003853,0.000
 03602,-0.00003272,0.00007177,-0.00002184,0.00000615,0.00005797,-0.0000
 1474,0.00005132,0.00004520,-0.00002465,-0.00006655,0.00000866,0.000016
 35,0.00004929,-0.00000559,-0.00000345,0.00001814,-0.00001476,0.0000141
 0,0.00000411,0.00000703,-0.00000455,-0.00000501,0.00000631,0.00002247,
 0.00001444,-0.00247779,-0.00710551,-0.00336267,-0.07638689,-0.20119567
 ,-0.07848564,0.00338666,0.01187735,0.00395268,-0.00011827,-0.00010900,
 0.00000930,0.00003015,-0.00000292,-0.00000860,-0.00002089,-0.00000792,
 -0.00003785,0.00002344,0.00001270,-0.00002824,0.00002493,-0.00005373,0
 .00001213,-0.00000018,-0.00000346,-0.00001035,0.00000108,-0.00000139,-
 0.00000584,0.00000942,-0.00000697,-0.00001523,0.00036044,0.00104053,-0
 .00022325,0.00112100,0.00103243,-0.00122688,-0.01069201,-0.02043848,-0
 .01136313,0.08605362,0.21189312,0.00037733,-0.00033726,0.00088369,-0.0
 0220388,0.00024993,-0.00098622,0.00073289,0.00040243,0.00008926,-0.000
 08474,0.00001354,-0.00008505,-0.00001952,-0.00000337,-0.00000483,0.000
 04158,-0.00000723,-0.00000287,0.00004044,0.00002026,0.00002430,0.00003
 129,-0.00004279,-0.00001458,0.00000847,0.00001408,0.00002780,-0.000006
 04,-0.00000193,0.00001021,-0.00000925,0.00001301,-0.00000165,0.0000084
 4,-0.00000627,-0.00000081,0.00000448,0.00001491,0.00000685,-0.00804487
 ,-0.02450574,-0.01418731,-0.04054099,-0.07796366,-0.09604066,-0.008844
 25,-0.00322250,-0.00063246,-0.00006680,-0.00019635,-0.00004161,0.00000
 865,-0.00000263,-0.00000592,-0.00001456,-0.00000645,-0.00002134,0.0000
 2425,0.00001321,-0.00002532,0.00001155,-0.00003651,0.00001666,-0.00000
 018,0.00000004,-0.00000505,0.00000069,-0.00000069,-0.00000244,0.000007
 78,-0.00000790,-0.00000621,-0.00099718,0.00062009,0.00107306,0.0029212
 9,-0.00157154,-0.00403591,0.00857668,0.01551977,0.01015374,0.04808812,
 0.09086656,0.10362686,-0.00003963,-0.00025542,0.00082406,-0.00077074,0
 .00016998,-0.00072403,0.00006124,-0.00014837,0.00009216,-0.00006130,0.
 00002568,-0.00000093,-0.00007421,0.00003360,0.00002445,0.00006178,-0.0
 0002770,-0.00001496,0.00003961,-0.00002646,-0.00001001,0.00001417,0.00
 000371,-0.00000560,-0.00001126,0.00001038,0.00000249,-0.00000054,0.000
 00660,-0.00000340,0.00001972,-0.00000781,0.00000532,0.00000358,0.00000
 311,-0.00000128,0.00000095,-0.00001486,0.00000403,0.00157859,0.0005475
 3,-0.00124160,-0.00466281,0.03457610,-0.02234760,-0.05682812,0.0258005
 5,0.00410462,-0.00006087,0.00004728,0.00007705,0.00001911,-0.00001370,
 0.00000206,-0.00001158,0.00000706,-0.00000378,-0.00000991,-0.00000322,
 0.00000695,-0.00000015,0.00000687,-0.00000807,-0.00000067,0.00000291,-
 0.00000167,0.00000038,-0.00000034,-0.00000009,-0.00000873,-0.00000038,
 0.00000064,-0.00031658,-0.00036758,0.00100907,-0.00007876,-0.00017614,
 0.00000720,-0.00659175,0.00098470,-0.00105945,0.00152688,-0.00044212,-
 0.00027328,0.06388636,-0.00027563,0.00029984,-0.00050573,0.00067408,-0
 .00005404,0.00031889,-0.00009058,-0.00004052,-0.00004912,0.00003015,-0
 .00000154,-0.00000395,0.00004118,-0.00002823,0.00004111,-0.00003176,0.
 00001333,-0.00001157,-0.00003310,0.00001119,-0.00003836,-0.00000671,0.
 00001181,0.00000731,0.00000027,-0.00000644,-0.00000950,0.00000112,-0.0
 0000385,-0.00000408,-0.00000003,-0.00000302,-0.00000303,-0.00000441,0.
 00000245,0.00000059,-0.00000062,-0.00000172,-0.00000483,-0.00021925,-0
 .00006619,0.00019303,-0.00518921,-0.00670421,-0.00087557,0.04207922,-0
 .31229524,0.20183158,0.00004512,0.00001670,0.00000602,-0.00000553,0.00
 000309,-0.00000400,0.00000629,0.00000164,0.00001403,-0.00000470,-0.000
 00265,0.00000640,-0.00000150,0.00000787,0.00000022,-0.00000046,0.00000
 027,0.00000395,-0.00000048,0.00000073,0.00000165,-0.00000124,0.0000036
 6,0.00000501,0.00064624,-0.00001339,-0.00039976,0.00006593,-0.00030847
 ,0.00010667,0.00178291,0.00144286,-0.00037047,-0.00000814,0.00220823,-
 0.00048496,-0.03924194,0.31508865,-0.00013353,0.00012848,-0.00031360,0
 .00022129,0.00004256,0.00012825,-0.00006790,-0.00003726,-0.00006742,0.
 00004640,0.00000649,0.00000156,0.00006960,-0.00005425,0.00007388,-0.00
 005714,0.00002642,-0.00002022,-0.00005445,0.00002845,-0.00006679,-0.00
 000471,0.00001652,0.00000887,0.00000054,-0.00000806,-0.00001419,0.0000
 0285,-0.00000445,-0.00000704,-0.00000076,-0.00000468,-0.00000495,-0.00
 000606,0.00000307,0.00000147,-0.00000100,-0.00000437,-0.00000835,-0.00
 027483,-0.00114016,0.00167579,-0.00338142,0.00781547,-0.00612969,-0.00
 160047,0.15520456,-0.13140238,0.00008481,0.00000388,0.00002175,-0.0000
 0752,0.00000307,-0.00000338,0.00000997,0.00000189,0.00002316,-0.000006
 57,-0.00000326,0.00001111,-0.00000303,0.00001311,-0.00000272,-0.000000
 04,0.00000019,0.00000562,-0.00000063,0.00000087,0.00000285,-0.00000145
 ,0.00000552,0.00000926,0.00012783,0.00065046,0.00005152,0.00003151,-0.
 00027893,-0.00005537,-0.00170943,-0.00075087,0.00092314,0.00138720,0.0
 0004969,-0.00003513,0.00869212,-0.19229560,0.15352195,-0.00000882,0.00
 003772,-0.00060473,0.00037199,-0.00000925,0.00248630,-0.00067240,0.000
 15649,-0.00019754,0.00000438,-0.00016046,0.00007206,-0.00000987,0.0000
 1068,-0.00007845,-0.00003792,0.00001079,0.00002793,-0.00001167,-0.0000
 1310,0.00003432,-0.00004163,0.00003094,0.00002205,0.00000105,-0.000016
 55,-0.00002010,0.00000336,-0.00000360,-0.00000255,-0.00000558,-0.00000
 663,-0.00000303,-0.00001205,0.00000689,-0.00000013,-0.00000170,-0.0000
 0178,-0.00000690,-0.00602649,0.00128084,-0.00378485,-0.02113235,0.0043
 9431,0.03142192,-0.15385814,0.02917702,0.16094699,0.00001024,0.0000884
 7,-0.00003576,0.00000004,0.00000363,-0.00000478,0.00001361,-0.00000140
 ,0.00001086,-0.00000691,-0.00000595,0.00000828,0.00000300,0.00001510,0
 .00000686,0.00000017,-0.00000037,0.00000435,-0.00000119,0.00000132,0.0
 0000216,-0.00000125,0.00000578,0.00000475,0.00014017,-0.00027600,-0.00
 016294,0.00024983,0.00006262,-0.00027969,0.00174465,0.00047303,-0.0001
 0390,0.00033285,-0.00097230,0.00022161,0.00231525,-0.00025724,-0.00336
 316,0.17663735,0.00006159,-0.00032776,0.00038149,-0.00001282,0.0007931
 6,-0.00143810,0.00075891,-0.00017890,0.00012466,-0.00005152,0.00012317
 ,-0.00012893,-0.00008297,0.00002638,0.00012583,0.00011677,-0.00004847,
 -0.00005591,0.00005641,-0.00001380,-0.00005983,0.00003177,-0.00001627,
 -0.00001320,-0.00001894,0.00002668,0.00001391,-0.00000308,0.00001226,-
 0.00000681,0.00003398,-0.00001133,0.00000927,0.00001341,0.00000347,-0.
 00000138,0.00000006,-0.00002760,0.00001002,0.00368751,-0.00100703,0.00
 072533,-0.00146885,-0.00291964,-0.00884147,0.05257466,-0.03452425,-0.0
 3338999,-0.00004166,-0.00004620,0.00008783,0.00001358,-0.00001505,0.00
 000693,-0.00002755,0.00001517,-0.00000921,-0.00000368,-0.00000041,0.00
 000480,-0.00000724,-0.00000075,-0.00001403,-0.00000215,0.00000742,-0.0
 0000415,0.00000088,-0.00000103,-0.00000094,-0.00001157,-0.00000326,0.0
 0000057,-0.00003433,0.00013674,-0.00013164,-0.00005732,0.00032163,0.00
 043580,0.00032789,-0.00001083,-0.00002987,-0.00032273,0.00024122,0.000
 64993,-0.02150002,0.00041718,0.03058121,-0.03403101,0.03702808,0.00010
 410,-0.00012609,0.00015286,-0.00031995,0.00035997,0.00015411,0.0000473
 7,-0.00006077,-0.00002827,-0.00005425,-0.00001976,-0.00004783,-0.00001
 916,0.00000318,0.00002058,0.00002489,-0.00000793,-0.00001081,0.0000144
 2,-0.00000318,-0.00001044,-0.00000672,0.00000168,0.00000582,-0.0000058
 9,0.00000113,-0.00000264,-0.00000166,0.00000013,-0.00000133,0.00000681
 ,-0.00000062,-0.00000029,0.00000219,0.00000028,0.00000058,0.00000097,-
 0.00000192,0.00000052,-0.00050005,-0.00006617,0.00052238,-0.01243485,-
 0.00122226,0.00785111,0.18970137,-0.00278429,-0.31357355,-0.00000779,0
 .00002746,0.00000682,0.00000394,-0.00000326,0.00000553,-0.00000557,0.0
 0000225,-0.00000029,0.00000075,0.00000081,-0.00000072,-0.00000133,-0.0
 0000231,-0.00000113,-0.00000083,0.00000227,0.00000053,0.00000007,0.000
 00023,0.00000039,-0.00000243,-0.00000167,0.00000100,-0.00028279,-0.000
 15144,0.00021254,-0.00000953,0.00027378,0.00006598,0.00022738,-0.00002
 919,0.00077155,-0.00070306,0.00031574,0.00022296,0.01084351,-0.0074759
 7,-0.01832895,-0.18662190,0.01096791,0.32201099\\0.00000022,-0.0000000
 2,-0.00000263,-0.00000062,0.00000126,0.00000339,0.00000050,-0.00000003
 ,-0.00000079,0.00000089,-0.00000021,0.00000021,0.00000009,0.00000013,-
 0.00000038,0.00000018,0.00000098,0.00000080,0.00000106,-0.00000004,0.0
 0000134,-0.00000115,0.00000079,-0.00000146,-0.00000017,-0.00000167,0.0
 0000228,-0.00000079,0.00000037,-0.00000092,-0.00000041,0.00000052,-0.0
 0000019,0.00000018,-0.00000019,0.00000039,-0.00000028,0.00000014,-0.00
 000054,0.00000046,-0.00000102,-0.00000158,-0.00000049,0.00000104,0.000
 00026,-0.00000074,-0.00000211,-0.00000162,0.00000042,-0.00000009,0.000
 00061,-0.00000007,0.00000036,-0.00000031,-0.00000055,0.00000070,-0.000
 00002,-0.00000006,-0.00000006,0.00000037,0.00000055,-0.00000114,0.0000
 0026,0.00000014,0.00000014,-0.00000028,-0.00000038,-0.00000018,0.00000
 053,0.00000003,-0.00000036,0.00000069,-0.00000061,0.00000006,0.0000000
 3,0.00000030,0.00000054,-0.00000002,-0.00000001,-0.00000006,-0.0000007
 9,-0.00000021,-0.00000031,-0.00000014,0.00000044,-0.00000027,0.0000015
 0,0.00000111,0.00000071,-0.00000101\\\@


 NOTHING MAKES A PERSON MORE PRODUCTIVE THAN THE LAST MINUTE.
 Job cpu time:       1 days  0 hours 53 minutes 33.2 seconds.
 File lengths (MBytes):  RWF=   1142 Int=      0 D2E=      0 Chk=     44 Scr=      1
 Normal termination of Gaussian 09 at Thu Jul 29 10:18:14 2021.
