 Entering Gaussian System, Link 0=g09
 Input=opt_freq-conf-640.com
 Output=opt_freq-conf-640.log
 Initial command:
 /aerosol/software/g09/l1.exe "/scratch/nicole/10727/Gau-84944.inp" -scrdir="/scratch/nicole/10727/"
 Entering Link 1 = /aerosol/software/g09/l1.exe PID=     84948.
  
 Copyright (c) 1988,1990,1992,1993,1995,1998,2003,2009,2013,
            Gaussian, Inc.  All Rights Reserved.
  
 This is part of the Gaussian(R) 09 program.  It is based on
 the Gaussian(R) 03 system (copyright 2003, Gaussian, Inc.),
 the Gaussian(R) 98 system (copyright 1998, Gaussian, Inc.),
 the Gaussian(R) 94 system (copyright 1995, Gaussian, Inc.),
 the Gaussian 92(TM) system (copyright 1992, Gaussian, Inc.),
 the Gaussian 90(TM) system (copyright 1990, Gaussian, Inc.),
 the Gaussian 88(TM) system (copyright 1988, Gaussian, Inc.),
 the Gaussian 86(TM) system (copyright 1986, Carnegie Mellon
 University), and the Gaussian 82(TM) system (copyright 1983,
 Carnegie Mellon University). Gaussian is a federally registered
 trademark of Gaussian, Inc.
  
 This software contains proprietary and confidential information,
 including trade secrets, belonging to Gaussian, Inc.
  
 This software is provided under written license and may be
 used, copied, transmitted, or stored only in accord with that
 written license.
  
 The following legend is applicable only to US Government
 contracts under FAR:
  
                    RESTRICTED RIGHTS LEGEND
  
 Use, reproduction and disclosure by the US Government is
 subject to restrictions as set forth in subparagraphs (a)
 and (c) of the Commercial Computer Software - Restricted
 Rights clause in FAR 52.227-19.
  
 Gaussian, Inc.
 340 Quinnipiac St., Bldg. 40, Wallingford CT 06492
  
  
 ---------------------------------------------------------------
 Warning -- This program may not be used in any manner that
 competes with the business of Gaussian, Inc. or will provide
 assistance to any competitor of Gaussian, Inc.  The licensee
 of this program is prohibited from giving any competitor of
 Gaussian, Inc. access to this program.  By using this program,
 the user acknowledges that Gaussian, Inc. is engaged in the
 business of creating and licensing software in the field of
 computational chemistry and represents and warrants to the
 licensee that it is not a competitor of Gaussian, Inc. and that
 it will not use this program in any manner prohibited above.
 ---------------------------------------------------------------
  

 Cite this work as:
 Gaussian 09, Revision D.01,
 M. J. Frisch, G. W. Trucks, H. B. Schlegel, G. E. Scuseria, 
 M. A. Robb, J. R. Cheeseman, G. Scalmani, V. Barone, B. Mennucci, 
 G. A. Petersson, H. Nakatsuji, M. Caricato, X. Li, H. P. Hratchian, 
 A. F. Izmaylov, J. Bloino, G. Zheng, J. L. Sonnenberg, M. Hada, 
 M. Ehara, K. Toyota, R. Fukuda, J. Hasegawa, M. Ishida, T. Nakajima, 
 Y. Honda, O. Kitao, H. Nakai, T. Vreven, J. A. Montgomery, Jr., 
 J. E. Peralta, F. Ogliaro, M. Bearpark, J. J. Heyd, E. Brothers, 
 K. N. Kudin, V. N. Staroverov, T. Keith, R. Kobayashi, J. Normand, 
 K. Raghavachari, A. Rendell, J. C. Burant, S. S. Iyengar, J. Tomasi, 
 M. Cossi, N. Rega, J. M. Millam, M. Klene, J. E. Knox, J. B. Cross, 
 V. Bakken, C. Adamo, J. Jaramillo, R. Gomperts, R. E. Stratmann, 
 O. Yazyev, A. J. Austin, R. Cammi, C. Pomelli, J. W. Ochterski, 
 R. L. Martin, K. Morokuma, V. G. Zakrzewski, G. A. Voth, 
 P. Salvador, J. J. Dannenberg, S. Dapprich, A. D. Daniels, 
 O. Farkas, J. B. Foresman, J. V. Ortiz, J. Cioslowski, 
 and D. J. Fox, Gaussian, Inc., Wallingford CT, 2013.
 
 ******************************************
 Gaussian 09:  ES64L-G09RevD.01 24-Apr-2013
                29-Jul-2021 
 ******************************************
 %mem=2gb
 %nproc=4
 Will use up to    4 processors via shared memory.
 %chk=conf-640.chk
 ----------------------------------------------------------------------
 # B3LYP/6-311++G(2df,2pd) guess=read geom=checkpoint opt=readfc freq=n
 oraman nosymm integral(ultrafinegrid)
 ----------------------------------------------------------------------
 1/10=3,14=-1,18=20,19=15,26=4,29=2,38=1/1,3;
 2/9=110,12=2,15=1,40=1/2;
 3/5=4,6=6,7=1414,11=2,14=-4,16=1,25=1,30=1,71=1,74=-5,75=-5,116=-2/1,2,3;
 4/5=1/1;
 5/5=2,38=6/2;
 6/7=2,8=2,9=2,10=2,28=1/1;
 7/30=1/1,2,3,16;
 1/14=-1,18=20,19=15,26=4/3(2);
 2/9=110,15=1/2;
 99//99;
 2/9=110,15=1/2;
 3/5=4,6=6,7=1414,11=2,14=-2,16=1,25=1,30=1,71=1,74=-5,75=-5/1,2,3;
 4/5=5,16=3,69=1/1;
 5/5=2,38=5/2;
 7/30=1/1,2,3,16;
 1/14=-1,18=20,19=15,26=4/3(-5);
 2/9=110,15=1/2;
 6/7=2,8=2,9=2,10=2,19=2,28=1/1;
 99/9=1/99;
 ------------------------------------------------------------
 Candidate Structure: Conf:640 OPT and FREQ calc in gas phase
 ------------------------------------------------------------
 Structure from the checkpoint file:  "conf-640.chk"
 Charge =  0 Multiplicity = 1
 Redundant internal coordinates found in file.
 O,0,0.9200937908,-1.280408106,-0.901395456
 C,0,1.1712772179,-0.1247122382,-0.5425206328
 N,0,0.2561921621,0.8805112335,-0.6353353963
 C,0,-0.984153093,0.7285268888,-1.3739451054
 C,0,-1.1176643921,1.9200621808,-2.3157070265
 O,0,-2.07897227,1.7260282267,-3.2379648685
 O,0,-0.4671247028,2.9396306389,-2.2308152221
 C,0,-2.2628794928,0.6350641305,-0.4945844931
 C,0,-2.2536129965,-0.4290126273,0.5620133296
 C,0,-2.9686100153,-0.5235167424,1.7353313237
 N,0,-2.7273635785,-1.7205741618,2.3697206533
 C,0,-1.8678335095,-2.3450886655,1.5916711712
 N,0,-1.5604993363,-1.6221003375,0.474631497
 C,0,2.5174331415,0.2417466307,0.0570860775
 C,0,2.9243469315,-0.7301429878,1.1900456239
 N,0,4.250945901,-0.5171419868,1.7567922319
 H,0,0.5540474271,1.8341821504,-0.4743473524
 H,0,-0.8974239825,-0.1836770795,-1.9724446837
 H,0,-2.1292264723,2.5392941599,-3.7694289481
 H,0,-3.1022487035,0.4892658505,-1.1865966377
 H,0,-2.4297544578,1.6023351637,-0.0060095438
 H,0,-3.6528118975,0.2057194493,2.1490930958
 H,0,-1.4298592123,-3.31485855,1.784575665
 H,0,-0.7973094692,-1.8113975526,-0.1744162709
 H,0,2.5225500964,1.2762823887,0.4209004083
 H,0,3.2580520797,0.1764218359,-0.750559676
 H,0,2.1908466073,-0.663006659,2.0017844744
 H,0,2.8655951266,-1.7502882159,0.8007179563
 H,0,4.332395954,0.4234107535,2.1359478831
 H,0,4.9636499459,-0.6026836015,1.0357102025
 Recover connectivity data from disk.

 GradGradGradGradGradGradGradGradGradGradGradGradGradGradGradGradGradGrad
 Berny optimization.
 Initialization pass.
 Force constant matrix read from checkpoint file:
 "conf-640.chk"
                           ----------------------------
                           !    Initial Parameters    !
                           ! (Angstroms and Degrees)  !
 --------------------------                            --------------------------
 ! Name  Definition              Value          Derivative Info.                !
 --------------------------------------------------------------------------------
 ! R1    R(1,2)                  1.2359         D2E/DX2 =    0.7504             !
 ! R2    R(2,3)                  1.3625         D2E/DX2 =    0.4578             !
 ! R3    R(2,14)                 1.5185         D2E/DX2 =    0.2743             !
 ! R4    R(3,4)                  1.4516         D2E/DX2 =    0.3492             !
 ! R5    R(3,17)                 1.012          D2E/DX2 =    0.4647             !
 ! R6    R(4,5)                  1.5246         D2E/DX2 =    0.274              !
 ! R7    R(4,8)                  1.5547         D2E/DX2 =    0.262              !
 ! R8    R(4,18)                 1.0945         D2E/DX2 =    0.3387             !
 ! R9    R(5,6)                  1.3462         D2E/DX2 =    0.4194             !
 ! R10   R(5,7)                  1.2124         D2E/DX2 =    0.8593             !
 ! R11   R(6,19)                 0.9728         D2E/DX2 =    0.505              !
 ! R12   R(8,9)                  1.4996         D2E/DX2 =    0.3166             !
 ! R13   R(8,20)                 1.0976         D2E/DX2 =    0.3292             !
 ! R14   R(8,21)                 1.0964         D2E/DX2 =    0.3327             !
 ! R15   R(9,10)                 1.3773         D2E/DX2 =    0.4051             !
 ! R16   R(9,13)                 1.3826         D2E/DX2 =    0.3688             !
 ! R17   R(10,11)                1.3761         D2E/DX2 =    0.3389             !
 ! R18   R(10,22)                1.0822         D2E/DX2 =    0.3698             !
 ! R19   R(11,12)                1.3169         D2E/DX2 =    0.4584             !
 ! R20   R(12,13)                1.3656         D2E/DX2 =    0.3641             !
 ! R21   R(12,23)                1.0814         D2E/DX2 =    0.3734             !
 ! R22   R(13,24)                1.0196         D2E/DX2 =    0.4281             !
 ! R23   R(14,15)                1.5472         D2E/DX2 =    0.2501             !
 ! R24   R(14,25)                1.0967         D2E/DX2 =    0.3323             !
 ! R25   R(14,26)                1.0978         D2E/DX2 =    0.3312             !
 ! R26   R(15,16)                1.4582         D2E/DX2 =    0.3379             !
 ! R27   R(15,27)                1.0961         D2E/DX2 =    0.3339             !
 ! R28   R(15,28)                1.0935         D2E/DX2 =    0.3413             !
 ! R29   R(16,29)                1.0174         D2E/DX2 =    0.4453             !
 ! R30   R(16,30)                1.0175         D2E/DX2 =    0.4453             !
 ! A1    A(1,2,3)              122.2489         D2E/DX2 =    0.2243             !
 ! A2    A(1,2,14)             121.3642         D2E/DX2 =    0.171              !
 ! A3    A(3,2,14)             116.374          D2E/DX2 =    0.1745             !
 ! A4    A(2,3,4)              122.0927         D2E/DX2 =    0.1918             !
 ! A5    A(2,3,17)             119.1266         D2E/DX2 =    0.1094             !
 ! A6    A(4,3,17)             115.5379         D2E/DX2 =    0.102              !
 ! A7    A(3,4,5)              107.8967         D2E/DX2 =    0.0912             !
 ! A8    A(3,4,8)              114.9158         D2E/DX2 =    0.1022             !
 ! A9    A(3,4,18)             107.3259         D2E/DX2 =    0.0316             !
 ! A10   A(5,4,8)              108.9251         D2E/DX2 =    0.093              !
 ! A11   A(5,4,18)             108.6953         D2E/DX2 =    0.0235             !
 ! A12   A(8,4,18)             108.9275         D2E/DX2 =    0.0319             !
 ! A13   A(4,5,6)              111.9042         D2E/DX2 =    0.164              !
 ! A14   A(4,5,7)              124.54           D2E/DX2 =    0.1697             !
 ! A15   A(6,5,7)              123.5268         D2E/DX2 =    0.2002             !
 ! A16   A(5,6,19)             106.8973         D2E/DX2 =    0.1732             !
 ! A17   A(4,8,9)              115.8552         D2E/DX2 =    0.3117             !
 ! A18   A(4,8,20)             106.282          D2E/DX2 =    0.0721             !
 ! A19   A(4,8,21)             108.9161         D2E/DX2 =    0.083              !
 ! A20   A(9,8,20)             110.7755         D2E/DX2 =    0.0691             !
 ! A21   A(9,8,21)             108.2378         D2E/DX2 =    0.0664             !
 ! A22   A(20,8,21)            106.3643         D2E/DX2 =    0.0225             !
 ! A23   A(8,9,10)             130.2216         D2E/DX2 =    0.118              !
 ! A24   A(8,9,13)             124.813          D2E/DX2 =    0.1348             !
 ! A25   A(10,9,13)            104.7671         D2E/DX2 =    0.1026             !
 ! A26   A(9,10,11)            111.1877         D2E/DX2 =    0.1149             !
 ! A27   A(9,10,22)            127.4244         D2E/DX2 =    0.0823             !
 ! A28   A(11,10,22)           121.3839         D2E/DX2 =    0.0901             !
 ! A29   A(10,11,12)           104.7493         D2E/DX2 =    0.1322             !
 ! A30   A(11,12,13)           112.2778         D2E/DX2 =    0.1198             !
 ! A31   A(11,12,23)           125.7481         D2E/DX2 =    0.0897             !
 ! A32   A(13,12,23)           121.973          D2E/DX2 =    0.0907             !
 ! A33   A(9,13,12)            106.9981         D2E/DX2 =    0.1039             !
 ! A34   A(9,13,24)            125.1489         D2E/DX2 =    0.0851             !
 ! A35   A(12,13,24)           126.2184         D2E/DX2 =    0.081              !
 ! A36   A(2,14,15)            111.7589         D2E/DX2 =    0.1268             !
 ! A37   A(2,14,25)            111.2713         D2E/DX2 =    0.0534             !
 ! A38   A(2,14,26)            107.0503         D2E/DX2 =    0.0423             !
 ! A39   A(15,14,25)           110.3913         D2E/DX2 =    0.0551             !
 ! A40   A(15,14,26)           108.9009         D2E/DX2 =    0.0505             !
 ! A41   A(25,14,26)           107.2813         D2E/DX2 =    0.0204             !
 ! A42   A(14,15,16)           115.6015         D2E/DX2 =    0.1493             !
 ! A43   A(14,15,27)           109.1368         D2E/DX2 =    0.061              !
 ! A44   A(14,15,28)           108.1306         D2E/DX2 =    0.0596             !
 ! A45   A(16,15,27)           108.1804         D2E/DX2 =    0.0595             !
 ! A46   A(16,15,28)           108.8763         D2E/DX2 =    0.0577             !
 ! A47   A(27,15,28)           106.5504         D2E/DX2 =    0.0206             !
 ! A48   A(15,16,29)           110.6536         D2E/DX2 =    0.1427             !
 ! A49   A(15,16,30)           110.458          D2E/DX2 =    0.1422             !
 ! A50   A(29,16,30)           106.6049         D2E/DX2 =    0.0584             !
 ! D1    D(1,2,3,4)            -11.2187         D2E/DX2 =    0.0151             !
 ! D2    D(1,2,3,17)          -169.962          D2E/DX2 =    0.0184             !
 ! D3    D(14,2,3,4)           170.0735         D2E/DX2 =    0.011              !
 ! D4    D(14,2,3,17)           11.3302         D2E/DX2 =    0.0102             !
 ! D5    D(1,2,14,15)          -49.5746         D2E/DX2 =    0.014              !
 ! D6    D(1,2,14,25)         -173.4904         D2E/DX2 =    0.0154             !
 ! D7    D(1,2,14,26)           69.584          D2E/DX2 =    0.0162             !
 ! D8    D(3,2,14,15)          129.1455         D2E/DX2 =    0.013              !
 ! D9    D(3,2,14,25)            5.2297         D2E/DX2 =    0.0153             !
 ! D10   D(3,2,14,26)         -111.6959         D2E/DX2 =    0.014              !
 ! D11   D(2,3,4,5)           -129.6292         D2E/DX2 =    0.0169             !
 ! D12   D(2,3,4,8)            108.6481         D2E/DX2 =    0.0396             !
 ! D13   D(2,3,4,18)           -12.6554         D2E/DX2 =    0.0117             !
 ! D14   D(17,3,4,5)            29.8226         D2E/DX2 =    0.0135             !
 ! D15   D(17,3,4,8)           -91.9            D2E/DX2 =    0.0268             !
 ! D16   D(17,3,4,18)          146.7965         D2E/DX2 =    0.0097             !
 ! D17   D(3,4,5,6)            166.6893         D2E/DX2 =    0.023              !
 ! D18   D(3,4,5,7)            -15.2144         D2E/DX2 =    0.0228             !
 ! D19   D(8,4,5,6)            -67.9495         D2E/DX2 =    0.0203             !
 ! D20   D(8,4,5,7)            110.1468         D2E/DX2 =    0.0194             !
 ! D21   D(18,4,5,6)            50.6074         D2E/DX2 =    0.016              !
 ! D22   D(18,4,5,7)          -131.2963         D2E/DX2 =    0.0148             !
 ! D23   D(3,4,8,9)            -54.5612         D2E/DX2 =    0.0253             !
 ! D24   D(3,4,8,20)          -178.0777         D2E/DX2 =    0.0292             !
 ! D25   D(3,4,8,21)            67.6946         D2E/DX2 =    0.0215             !
 ! D26   D(5,4,8,9)           -175.7239         D2E/DX2 =    0.0179             !
 ! D27   D(5,4,8,20)            60.7596         D2E/DX2 =    0.0188             !
 ! D28   D(5,4,8,21)           -53.4682         D2E/DX2 =    0.0194             !
 ! D29   D(18,4,8,9)            65.865          D2E/DX2 =    0.0143             !
 ! D30   D(18,4,8,20)          -57.6515         D2E/DX2 =    0.0136             !
 ! D31   D(18,4,8,21)         -171.8792         D2E/DX2 =    0.0173             !
 ! D32   D(4,5,6,19)           177.4775         D2E/DX2 =    0.017              !
 ! D33   D(7,5,6,19)            -0.6413         D2E/DX2 =    0.0165             !
 ! D34   D(4,8,9,10)           156.7585         D2E/DX2 =    0.0141             !
 ! D35   D(4,8,9,13)           -29.1646         D2E/DX2 =    0.0176             !
 ! D36   D(20,8,9,10)          -82.1058         D2E/DX2 =    0.0147             !
 ! D37   D(20,8,9,13)           91.9711         D2E/DX2 =    0.0152             !
 ! D38   D(21,8,9,10)           34.144          D2E/DX2 =    0.015              !
 ! D39   D(21,8,9,13)         -151.7791         D2E/DX2 =    0.0186             !
 ! D40   D(8,9,10,11)          175.5487         D2E/DX2 =    0.0101             !
 ! D41   D(8,9,10,22)           -3.7268         D2E/DX2 =    0.0073             !
 ! D42   D(13,9,10,11)           0.5753         D2E/DX2 =    0.0146             !
 ! D43   D(13,9,10,22)        -178.7002         D2E/DX2 =    0.0095             !
 ! D44   D(8,9,13,12)         -176.5295         D2E/DX2 =    0.0089             !
 ! D45   D(8,9,13,24)           17.3319         D2E/DX2 =    0.0059             !
 ! D46   D(10,9,13,12)          -1.2034         D2E/DX2 =    0.0127             !
 ! D47   D(10,9,13,24)        -167.3421         D2E/DX2 =    0.0083             !
 ! D48   D(9,10,11,12)           0.3054         D2E/DX2 =    0.0175             !
 ! D49   D(22,10,11,12)        179.6313         D2E/DX2 =    0.0099             !
 ! D50   D(10,11,12,13)         -1.1151         D2E/DX2 =    0.0187             !
 ! D51   D(10,11,12,23)        178.5086         D2E/DX2 =    0.0111             !
 ! D52   D(11,12,13,9)           1.5076         D2E/DX2 =    0.0175             !
 ! D53   D(11,12,13,24)        167.4553         D2E/DX2 =    0.0116             !
 ! D54   D(23,12,13,9)        -178.1324         D2E/DX2 =    0.0108             !
 ! D55   D(23,12,13,24)        -12.1846         D2E/DX2 =    0.008              !
 ! D56   D(2,14,15,16)         175.5033         D2E/DX2 =    0.0146             !
 ! D57   D(2,14,15,27)         -62.3234         D2E/DX2 =    0.0143             !
 ! D58   D(2,14,15,28)          53.2011         D2E/DX2 =    0.0145             !
 ! D59   D(25,14,15,16)        -60.0876         D2E/DX2 =    0.0151             !
 ! D60   D(25,14,15,27)         62.0857         D2E/DX2 =    0.0158             !
 ! D61   D(25,14,15,28)        177.6102         D2E/DX2 =    0.0146             !
 ! D62   D(26,14,15,16)         57.4456         D2E/DX2 =    0.0151             !
 ! D63   D(26,14,15,27)        179.6189         D2E/DX2 =    0.0148             !
 ! D64   D(26,14,15,28)        -64.8566         D2E/DX2 =    0.016              !
 ! D65   D(14,15,16,29)         58.6372         D2E/DX2 =    0.0142             !
 ! D66   D(14,15,16,30)        -59.1751         D2E/DX2 =    0.0143             !
 ! D67   D(27,15,16,29)        -64.0445         D2E/DX2 =    0.0166             !
 ! D68   D(27,15,16,30)        178.1433         D2E/DX2 =    0.0165             !
 ! D69   D(28,15,16,29)       -179.4584         D2E/DX2 =    0.0164             !
 ! D70   D(28,15,16,30)         62.7294         D2E/DX2 =    0.0165             !
 --------------------------------------------------------------------------------
 Trust Radius=3.00D-01 FncErr=1.00D-07 GrdErr=1.00D-06
 Number of steps in this run=    160 maximum allowed number of steps=    180.
 GradGradGradGradGradGradGradGradGradGradGradGradGradGradGradGradGradGrad

                          Input orientation:                          
 ---------------------------------------------------------------------
 Center     Atomic      Atomic             Coordinates (Angstroms)
 Number     Number       Type             X           Y           Z
 ---------------------------------------------------------------------
      1          8           0        0.920094   -1.280408   -0.901395
      2          6           0        1.171277   -0.124712   -0.542521
      3          7           0        0.256192    0.880511   -0.635335
      4          6           0       -0.984153    0.728527   -1.373945
      5          6           0       -1.117664    1.920062   -2.315707
      6          8           0       -2.078972    1.726028   -3.237965
      7          8           0       -0.467125    2.939631   -2.230815
      8          6           0       -2.262879    0.635064   -0.494584
      9          6           0       -2.253613   -0.429013    0.562013
     10          6           0       -2.968610   -0.523517    1.735331
     11          7           0       -2.727364   -1.720574    2.369721
     12          6           0       -1.867834   -2.345089    1.591671
     13          7           0       -1.560499   -1.622100    0.474631
     14          6           0        2.517433    0.241747    0.057086
     15          6           0        2.924347   -0.730143    1.190046
     16          7           0        4.250946   -0.517142    1.756792
     17          1           0        0.554047    1.834182   -0.474347
     18          1           0       -0.897424   -0.183677   -1.972445
     19          1           0       -2.129226    2.539294   -3.769429
     20          1           0       -3.102249    0.489266   -1.186597
     21          1           0       -2.429754    1.602335   -0.006010
     22          1           0       -3.652812    0.205719    2.149093
     23          1           0       -1.429859   -3.314859    1.784576
     24          1           0       -0.797309   -1.811398   -0.174416
     25          1           0        2.522550    1.276282    0.420900
     26          1           0        3.258052    0.176422   -0.750560
     27          1           0        2.190847   -0.663007    2.001784
     28          1           0        2.865595   -1.750288    0.800718
     29          1           0        4.332396    0.423411    2.135948
     30          1           0        4.963650   -0.602684    1.035710
 ---------------------------------------------------------------------
                    Distance matrix (angstroms):
                    1          2          3          4          5
     1  O    0.000000
     2  C    1.235928   0.000000
     3  N    2.276209   1.362523   0.000000
     4  C    2.808074   2.462755   1.451585   0.000000
     5  C    4.049166   3.544650   2.406615   1.524630   0.000000
     6  O    4.846918   4.610291   3.597440   2.380800   1.346225
     7  O    4.636859   3.863275   2.703464   2.427040   1.212406
     8  C    3.737091   3.517526   2.534912   1.554719   2.505838
     9  C    3.597062   3.611436   3.073698   2.588312   3.884560
    10  C    4.758911   4.741974   4.241545   3.895290   5.080156
    11  N    4.919135   5.121262   4.969669   4.801241   6.148056
    12  C    3.888633   4.326782   4.458199   4.361523   5.832827
    13  N    2.857192   3.277098   3.285644   3.045465   4.530895
    14  C    2.405646   1.518537   2.449628   3.813910   4.654119
    15  C    2.948550   2.538028   3.611824   4.896748   5.970908
    16  N    4.329332   3.863315   4.861457   6.225710   7.165695
    17  H    3.164970   2.054967   1.011990   2.097096   2.488494
    18  H    2.377675   2.515489   2.061841   1.094459   2.142908
    19  H    5.666930   5.329465   4.273678   3.213785   1.876170
    20  H    4.403672   4.365183   3.425797   2.139784   2.694558
    21  H    4.509258   4.029636   2.851559   2.173603   2.675301
    22  H    5.694341   5.534059   4.846514   4.450490   5.412983
    23  H    4.108005   4.728459   5.128340   5.150133   6.656890
    24  H    1.939052   2.618347   2.927232   2.815137   4.314110
    25  H    3.294389   2.171844   2.531531   3.977244   4.599417
    26  H    2.758832   2.118630   3.085479   4.323163   4.963553
    27  H    3.228692   2.793344   3.616592   4.838651   6.021563
    28  H    2.627347   2.705088   3.973958   5.068949   6.248995
    29  H    4.875680   4.179390   4.950191   6.377942   7.194467
    30  H    4.534538   4.135379   5.210798   6.554000   7.387735
                    6          7          8          9         10
     6  O    0.000000
     7  O    2.255046   0.000000
     8  C    2.958067   3.398567   0.000000
     9  C    4.372017   4.726435   1.499581   0.000000
    10  C    5.530423   5.829334   2.610151   1.377253   0.000000
    11  N    6.614047   6.927562   3.737515   2.271646   1.376080
    12  C    6.320123   6.670955   3.659212   2.209156   2.133183
    13  N    5.026147   5.415192   2.554899   1.382570   2.186098
    14  C    5.846999   4.628245   4.828087   4.844352   5.787815
    15  C    7.118515   6.055709   5.622196   5.224593   5.921737
    16  N    8.369425   7.078876   6.987574   6.613966   7.219591
    17  H    3.818648   2.313004   3.061596   3.752206   4.780224
    18  H    2.577707   3.163379   2.172298   2.884946   4.260623
    19  H    0.972821   2.300040   3.790589   5.252400   6.355137
    20  H    2.604762   3.746806   1.097579   2.149664   3.095360
    21  H    3.253288   3.254233   1.096433   2.116613   2.800336
    22  H    5.814525   6.066834   3.017496   2.208951   1.082181
    23  H    7.145474   7.494588   4.635772   3.240576   3.187753
    24  H    4.851945   5.187491   2.869770   2.138723   3.165489
    25  H    5.896064   4.328565   4.914225   5.073429   5.926200
    26  H    6.088702   4.868616   5.545860   5.698057   6.740986
    27  H    7.168948   6.161064   5.268066   4.677704   5.168215
    28  H    7.269421   6.503273   5.802497   5.292357   6.034602
    29  H    8.466486   6.959553   7.103672   6.824911   7.373049
    30  H    8.560708   7.260268   7.489763   7.234876   7.963447
                   11         12         13         14         15
    11  N    0.000000
    12  C    1.316879   0.000000
    13  N    2.227697   1.365630   0.000000
    14  C    6.058620   5.317634   4.503088   0.000000
    15  C    5.857851   5.072903   4.628310   1.547173   0.000000
    16  N    7.107794   6.388123   6.052914   2.543615   1.458230
    17  H    5.611833   5.253593   4.161461   2.583245   3.868370
    18  H    4.956322   4.279757   2.914946   3.995151   4.990581
    19  H    7.496226   7.257198   5.970989   6.443011   7.798988
    20  H    4.203727   4.156455   3.097505   5.760975   6.592059
    21  H    4.095655   4.295404   3.373960   5.131262   5.961326
    22  H    2.148427   3.162829   3.243843   6.515345   6.712274
    23  H    2.137207   1.081428   2.144400   5.587019   5.098366
    24  H    3.194682   2.133052   1.019586   3.905959   4.108722
    25  H    6.351428   5.810379   5.007475   1.096655   2.186039
    26  H    7.011415   6.174039   5.287174   1.097759   2.167756
    27  H    5.044068   4.412536   4.162289   2.169583   1.096107
    28  H    5.808945   4.835777   4.439941   2.154625   1.093492
    29  H    7.381838   6.812024   6.455254   2.765639   2.051346
    30  H    7.885490   7.072074   6.627107   2.766721   2.049103
                   16         17         18         19         20
    16  N    0.000000
    17  H    4.916683   0.000000
    18  H    6.365856   2.902210   0.000000
    19  H    8.977055   4.307517   3.487271   0.000000
    20  H    7.984101   3.960379   2.435500   3.438082   0.000000
    21  H    7.227130   3.029219   3.066715   3.889927   1.756405
    22  H    7.946434   5.218428   4.973014   6.541849   3.392690
    23  H    6.332419   5.962486   4.919653   8.099826   5.108436
    24  H    5.557836   3.899535   2.427427   5.798848   3.410323
    25  H    2.826363   2.233321   4.422195   6.386946   5.902695
    26  H    2.784544   3.183725   4.346338   6.612073   6.382901
    27  H    2.079737   3.878955   5.055855   7.888261   6.285727
    28  H    2.086606   4.451682   4.930012   8.014674   6.676839
    29  H    1.017366   4.804148   6.678208   9.005721   8.143561
    30  H    1.017459   5.259580   6.601269   9.125255   8.437400
                   21         22         23         24         25
    21  H    0.000000
    22  H    2.844446   0.000000
    23  H    5.327737   4.179577   0.000000
    24  H    3.787718   4.197779   2.549150   0.000000
    25  H    4.981354   6.501373   6.209648   4.572706   0.000000
    26  H    5.910899   7.494590   6.371221   4.552947   1.767194
    27  H    5.523854   5.909715   4.493218   3.870882   2.523899
    28  H    6.319147   6.937846   4.676193   3.790975   3.069539
    29  H    7.190586   7.988185   6.877623   6.053596   2.635208
    30  H    7.785224   8.725626   6.985245   6.009497   3.141253
                   26         27         28         29         30
    26  H    0.000000
    27  H    3.069033   0.000000
    28  H    2.504535   1.755001   0.000000
    29  H    3.089845   2.405106   2.942671   0.000000
    30  H    2.589755   2.936899   2.402926   1.631525   0.000000
 Symmetry turned off by external request.
 Stoichiometry    C9H14N4O3
 Framework group  C1[X(C9H14N4O3)]
 Deg. of freedom    84
 Full point group                 C1      NOp   1
 Rotational constants (GHZ):      0.4972829      0.4116936      0.2499888
 Standard basis: 6-311++G(2df,2pd) (5D, 7F)
   754 basis functions,  1084 primitive gaussians,   848 cartesian basis functions
    60 alpha electrons       60 beta electrons
       nuclear repulsion energy      1121.3183827276 Hartrees.
 NAtoms=   30 NActive=   30 NUniq=   30 SFac= 1.00D+00 NAtFMM=   60 NAOKFM=F Big=F
 Integral buffers will be    131072 words long.
 Raffenetti 2 integral format.
 Two-electron integral symmetry is turned off.
 One-electron integrals computed using PRISM.
 NBasis=   754 RedAO= T EigKep=  1.09D-06  NBF=   754
 NBsUse=   754 1.00D-06 EigRej= -1.00D+00 NBFU=   754
 Initial guess from the checkpoint file:  "conf-640.chk"
 B after Tr=     0.000000    0.000000    0.000000
         Rot=    1.000000    0.000000    0.000000    0.000000 Ang=   0.00 deg.
 Requested convergence on RMS density matrix=1.00D-08 within 128 cycles.
 Requested convergence on MAX density matrix=1.00D-06.
 Requested convergence on             energy=1.00D-06.
 No special actions if energy rises.
 SCF Done:  E(RB3LYP) =  -796.384842587     A.U. after   14 cycles
            NFock= 14  Conv=0.15D-08     -V/T= 2.0043

 **********************************************************************

            Population analysis using the SCF density.

 **********************************************************************

 Alpha  occ. eigenvalues --  -19.21034 -19.15335 -19.11781 -14.36903 -14.35680
 Alpha  occ. eigenvalues --  -14.30800 -14.28767 -10.34287 -10.30143 -10.25904
 Alpha  occ. eigenvalues --  -10.21607 -10.21096 -10.20882 -10.20528 -10.19864
 Alpha  occ. eigenvalues --  -10.17717  -1.14904  -1.06700  -1.05887  -1.00829
 Alpha  occ. eigenvalues --   -0.95926  -0.89914  -0.86663  -0.82379  -0.77592
 Alpha  occ. eigenvalues --   -0.75070  -0.68905  -0.66559  -0.62968  -0.61970
 Alpha  occ. eigenvalues --   -0.60378  -0.58629  -0.55628  -0.53302  -0.53017
 Alpha  occ. eigenvalues --   -0.52038  -0.50820  -0.50077  -0.49021  -0.47403
 Alpha  occ. eigenvalues --   -0.45821  -0.45240  -0.44242  -0.43132  -0.43068
 Alpha  occ. eigenvalues --   -0.42212  -0.41328  -0.40582  -0.40084  -0.39495
 Alpha  occ. eigenvalues --   -0.38197  -0.36511  -0.35999  -0.32566  -0.29962
 Alpha  occ. eigenvalues --   -0.29370  -0.28076  -0.26853  -0.25781  -0.22530
 Alpha virt. eigenvalues --   -0.03889  -0.02814  -0.02272  -0.01310  -0.00033
 Alpha virt. eigenvalues --    0.00275   0.00686   0.01246   0.01490   0.02239
 Alpha virt. eigenvalues --    0.02827   0.03321   0.03566   0.04647   0.04717
 Alpha virt. eigenvalues --    0.04883   0.05587   0.06095   0.07055   0.07132
 Alpha virt. eigenvalues --    0.07341   0.07974   0.08116   0.08742   0.09030
 Alpha virt. eigenvalues --    0.09278   0.09782   0.09993   0.10390   0.11345
 Alpha virt. eigenvalues --    0.11629   0.11885   0.12257   0.12569   0.12673
 Alpha virt. eigenvalues --    0.13015   0.13286   0.13524   0.13797   0.13853
 Alpha virt. eigenvalues --    0.14340   0.14526   0.15000   0.15763   0.15857
 Alpha virt. eigenvalues --    0.16273   0.16501   0.16796   0.17102   0.17472
 Alpha virt. eigenvalues --    0.17779   0.18278   0.18523   0.19040   0.19471
 Alpha virt. eigenvalues --    0.19955   0.20101   0.20766   0.21037   0.21551
 Alpha virt. eigenvalues --    0.21877   0.22176   0.22363   0.22457   0.23169
 Alpha virt. eigenvalues --    0.23608   0.23803   0.24400   0.24507   0.25496
 Alpha virt. eigenvalues --    0.25860   0.26369   0.26506   0.27077   0.27516
 Alpha virt. eigenvalues --    0.27758   0.28239   0.28788   0.29011   0.29285
 Alpha virt. eigenvalues --    0.29493   0.29674   0.30094   0.30308   0.30861
 Alpha virt. eigenvalues --    0.31390   0.31825   0.32117   0.32266   0.32643
 Alpha virt. eigenvalues --    0.33742   0.34156   0.34459   0.34661   0.34944
 Alpha virt. eigenvalues --    0.35167   0.35392   0.35989   0.36335   0.37455
 Alpha virt. eigenvalues --    0.38294   0.38778   0.39933   0.41192   0.41604
 Alpha virt. eigenvalues --    0.42425   0.43477   0.44743   0.44938   0.45274
 Alpha virt. eigenvalues --    0.46054   0.46546   0.47780   0.48598   0.49936
 Alpha virt. eigenvalues --    0.50288   0.51119   0.51772   0.52349   0.53096
 Alpha virt. eigenvalues --    0.53842   0.54343   0.55041   0.56016   0.56715
 Alpha virt. eigenvalues --    0.57308   0.57855   0.58836   0.59006   0.59605
 Alpha virt. eigenvalues --    0.60280   0.60998   0.61384   0.61974   0.62075
 Alpha virt. eigenvalues --    0.62577   0.63035   0.63602   0.63850   0.64735
 Alpha virt. eigenvalues --    0.65039   0.65724   0.66437   0.66961   0.67468
 Alpha virt. eigenvalues --    0.67895   0.69051   0.69319   0.69745   0.70231
 Alpha virt. eigenvalues --    0.70362   0.70725   0.71526   0.73344   0.73634
 Alpha virt. eigenvalues --    0.74825   0.74968   0.75852   0.76531   0.77118
 Alpha virt. eigenvalues --    0.77790   0.78839   0.78980   0.79967   0.80549
 Alpha virt. eigenvalues --    0.80825   0.81674   0.82539   0.83744   0.84315
 Alpha virt. eigenvalues --    0.84963   0.85233   0.86317   0.87209   0.87877
 Alpha virt. eigenvalues --    0.89364   0.90176   0.90675   0.90980   0.91704
 Alpha virt. eigenvalues --    0.91971   0.92834   0.94358   0.95928   0.96108
 Alpha virt. eigenvalues --    0.97040   0.97944   0.98509   0.99390   0.99876
 Alpha virt. eigenvalues --    1.00702   1.01940   1.03499   1.03922   1.04490
 Alpha virt. eigenvalues --    1.05156   1.06623   1.07095   1.08044   1.08625
 Alpha virt. eigenvalues --    1.08947   1.10299   1.10727   1.11038   1.12036
 Alpha virt. eigenvalues --    1.12574   1.13906   1.14232   1.14728   1.16218
 Alpha virt. eigenvalues --    1.16400   1.17324   1.17616   1.18075   1.18796
 Alpha virt. eigenvalues --    1.19348   1.20555   1.21657   1.23036   1.23474
 Alpha virt. eigenvalues --    1.24561   1.25134   1.25616   1.25947   1.27337
 Alpha virt. eigenvalues --    1.28162   1.28715   1.29662   1.30558   1.31230
 Alpha virt. eigenvalues --    1.31852   1.33116   1.34210   1.34882   1.35518
 Alpha virt. eigenvalues --    1.36220   1.37057   1.37745   1.37874   1.39385
 Alpha virt. eigenvalues --    1.39749   1.40870   1.41481   1.41719   1.42512
 Alpha virt. eigenvalues --    1.43780   1.44492   1.45124   1.46325   1.47412
 Alpha virt. eigenvalues --    1.48413   1.49378   1.49569   1.50574   1.50902
 Alpha virt. eigenvalues --    1.51656   1.52261   1.53194   1.53477   1.54772
 Alpha virt. eigenvalues --    1.55280   1.56565   1.57638   1.57739   1.58393
 Alpha virt. eigenvalues --    1.59255   1.61901   1.62233   1.63242   1.63479
 Alpha virt. eigenvalues --    1.65515   1.66214   1.68280   1.68925   1.70173
 Alpha virt. eigenvalues --    1.70842   1.71890   1.73058   1.74708   1.75317
 Alpha virt. eigenvalues --    1.77339   1.78187   1.80984   1.81784   1.82905
 Alpha virt. eigenvalues --    1.83137   1.85401   1.85929   1.89943   1.90949
 Alpha virt. eigenvalues --    1.91781   1.94156   1.95644   1.96649   1.99764
 Alpha virt. eigenvalues --    2.02919   2.04423   2.06689   2.08901   2.10864
 Alpha virt. eigenvalues --    2.11825   2.14697   2.17024   2.18806   2.19869
 Alpha virt. eigenvalues --    2.24370   2.26802   2.30415   2.39444   2.42798
 Alpha virt. eigenvalues --    2.46840   2.48482   2.50406   2.51669   2.53315
 Alpha virt. eigenvalues --    2.56763   2.57106   2.57762   2.59661   2.60319
 Alpha virt. eigenvalues --    2.62010   2.64632   2.66079   2.66950   2.68342
 Alpha virt. eigenvalues --    2.69398   2.69773   2.71698   2.72905   2.73194
 Alpha virt. eigenvalues --    2.74475   2.75720   2.77550   2.78290   2.78906
 Alpha virt. eigenvalues --    2.79878   2.81201   2.82775   2.83057   2.84257
 Alpha virt. eigenvalues --    2.85170   2.85828   2.87308   2.88029   2.89019
 Alpha virt. eigenvalues --    2.90255   2.91055   2.92298   2.92613   2.93828
 Alpha virt. eigenvalues --    2.94441   2.95065   2.96247   2.96432   2.96967
 Alpha virt. eigenvalues --    2.98206   2.99631   2.99837   3.00317   3.01006
 Alpha virt. eigenvalues --    3.01750   3.03409   3.04426   3.04862   3.05399
 Alpha virt. eigenvalues --    3.05951   3.06871   3.08508   3.09296   3.09749
 Alpha virt. eigenvalues --    3.10239   3.10318   3.11217   3.11679   3.12093
 Alpha virt. eigenvalues --    3.12697   3.13263   3.14519   3.15694   3.16519
 Alpha virt. eigenvalues --    3.17790   3.17875   3.20539   3.21478   3.21664
 Alpha virt. eigenvalues --    3.21725   3.22509   3.22724   3.24090   3.24812
 Alpha virt. eigenvalues --    3.26234   3.27358   3.27538   3.28163   3.29106
 Alpha virt. eigenvalues --    3.29752   3.30890   3.31473   3.32293   3.32799
 Alpha virt. eigenvalues --    3.33442   3.34417   3.34701   3.35093   3.36196
 Alpha virt. eigenvalues --    3.36657   3.36885   3.38029   3.38222   3.39203
 Alpha virt. eigenvalues --    3.40564   3.40948   3.41600   3.42685   3.43734
 Alpha virt. eigenvalues --    3.44347   3.45266   3.46635   3.47281   3.48666
 Alpha virt. eigenvalues --    3.49260   3.50280   3.50388   3.51591   3.53156
 Alpha virt. eigenvalues --    3.53738   3.54362   3.55405   3.55838   3.56769
 Alpha virt. eigenvalues --    3.58021   3.58656   3.58921   3.59721   3.60089
 Alpha virt. eigenvalues --    3.61590   3.62207   3.62937   3.63763   3.64788
 Alpha virt. eigenvalues --    3.65055   3.66234   3.66507   3.67567   3.68234
 Alpha virt. eigenvalues --    3.68515   3.69486   3.70686   3.70982   3.71877
 Alpha virt. eigenvalues --    3.72488   3.73158   3.74826   3.74894   3.76091
 Alpha virt. eigenvalues --    3.76459   3.77233   3.78409   3.79288   3.80176
 Alpha virt. eigenvalues --    3.81251   3.82043   3.82540   3.83169   3.84002
 Alpha virt. eigenvalues --    3.85573   3.86657   3.88324   3.88712   3.89403
 Alpha virt. eigenvalues --    3.89857   3.90807   3.91514   3.91633   3.92538
 Alpha virt. eigenvalues --    3.93383   3.95495   3.96124   3.96310   3.97456
 Alpha virt. eigenvalues --    3.97926   3.98715   3.99419   4.00685   4.01205
 Alpha virt. eigenvalues --    4.02744   4.03833   4.04263   4.06176   4.07264
 Alpha virt. eigenvalues --    4.07775   4.08285   4.08490   4.10147   4.11378
 Alpha virt. eigenvalues --    4.12269   4.13027   4.14180   4.15562   4.16230
 Alpha virt. eigenvalues --    4.17690   4.18022   4.19103   4.20511   4.22051
 Alpha virt. eigenvalues --    4.23654   4.25188   4.25893   4.27380   4.27846
 Alpha virt. eigenvalues --    4.29259   4.30318   4.31524   4.32365   4.33209
 Alpha virt. eigenvalues --    4.34032   4.34529   4.35130   4.36566   4.38109
 Alpha virt. eigenvalues --    4.39657   4.41681   4.42069   4.43385   4.44482
 Alpha virt. eigenvalues --    4.46563   4.48312   4.49123   4.50779   4.51538
 Alpha virt. eigenvalues --    4.53201   4.54498   4.56833   4.58533   4.58614
 Alpha virt. eigenvalues --    4.59713   4.61546   4.62629   4.65606   4.66955
 Alpha virt. eigenvalues --    4.68034   4.71727   4.72650   4.75173   4.76038
 Alpha virt. eigenvalues --    4.77160   4.79848   4.82075   4.83739   4.84432
 Alpha virt. eigenvalues --    4.86035   4.87378   4.87907   4.89281   4.92427
 Alpha virt. eigenvalues --    4.93008   4.95311   4.96465   4.96848   4.97873
 Alpha virt. eigenvalues --    4.98624   4.98865   4.99635   5.02103   5.02641
 Alpha virt. eigenvalues --    5.03611   5.04356   5.04894   5.05704   5.06453
 Alpha virt. eigenvalues --    5.07198   5.08015   5.09326   5.10504   5.11198
 Alpha virt. eigenvalues --    5.11662   5.12379   5.14265   5.14674   5.15502
 Alpha virt. eigenvalues --    5.16533   5.17470   5.18108   5.18774   5.20204
 Alpha virt. eigenvalues --    5.21710   5.22381   5.23410   5.25460   5.26054
 Alpha virt. eigenvalues --    5.26658   5.27784   5.28667   5.30788   5.33428
 Alpha virt. eigenvalues --    5.33843   5.34065   5.35781   5.37288   5.38975
 Alpha virt. eigenvalues --    5.39229   5.40300   5.42499   5.43615   5.45319
 Alpha virt. eigenvalues --    5.46677   5.47712   5.49513   5.51142   5.51803
 Alpha virt. eigenvalues --    5.54238   5.54897   5.56514   5.57573   5.58662
 Alpha virt. eigenvalues --    5.60236   5.62041   5.63715   5.68305   5.70719
 Alpha virt. eigenvalues --    5.74324   5.75759   5.79400   5.80188   5.81817
 Alpha virt. eigenvalues --    5.84247   5.84725   5.85699   5.91792   5.93008
 Alpha virt. eigenvalues --    5.94046   5.95474   5.98329   5.99668   6.04633
 Alpha virt. eigenvalues --    6.07333   6.09945   6.10640   6.18952   6.20130
 Alpha virt. eigenvalues --    6.25289   6.26674   6.28769   6.32083   6.34077
 Alpha virt. eigenvalues --    6.37694   6.40924   6.42549   6.43445   6.44237
 Alpha virt. eigenvalues --    6.47275   6.55291   6.56855   6.66104   6.70070
 Alpha virt. eigenvalues --    6.79029   6.84679   6.90047   6.93953   6.94963
 Alpha virt. eigenvalues --    7.00455   7.03458   7.05734   7.13841   7.14691
 Alpha virt. eigenvalues --    7.18128   7.21005   7.24237   7.28624   7.30522
 Alpha virt. eigenvalues --    7.34205   7.55607   7.55707   7.58009   7.65774
 Alpha virt. eigenvalues --    7.73277   7.75084   7.96011  24.53926  24.69810
 Alpha virt. eigenvalues --   24.80127  24.86882  25.01379  25.04361  25.06585
 Alpha virt. eigenvalues --   25.08963  25.14066  35.99230  36.23162  36.26364
 Alpha virt. eigenvalues --   36.46472  50.15072  50.20195  50.25873
          Condensed to atoms (all electrons):
               1          2          3          4          5          6
     1  O    8.150994   0.419063  -0.102182   0.039635   0.014629  -0.000300
     2  C    0.419063   8.401260   0.276259  -0.548595   0.037931   0.004802
     3  N   -0.102182   0.276259   6.588080  -0.158527  -0.128598  -0.002291
     4  C    0.039635  -0.548595  -0.158527  11.508903  -2.374169   0.312540
     5  C    0.014629   0.037931  -0.128598  -2.374169   7.025834   0.033415
     6  O   -0.000300   0.004802  -0.002291   0.312540   0.033415   7.816149
     7  O   -0.000500  -0.009694   0.015152   0.026404   0.379392  -0.104680
     8  C   -0.031808  -0.202688  -0.079482  -4.408591   1.688681  -0.156024
     9  C   -0.014437   0.126424   0.192398   1.696672  -0.985008   0.061567
    10  C   -0.004510   0.073104  -0.052859  -0.274921   0.037296   0.000859
    11  N    0.000358   0.002318  -0.000731   0.015564  -0.006341   0.000005
    12  C   -0.001894   0.030208  -0.002629   0.027870  -0.024245   0.000774
    13  N   -0.026517   0.015430   0.021661   0.002233  -0.021670   0.000739
    14  C   -0.053826  -2.219017  -0.073207  -0.082920   0.036846   0.000107
    15  C   -0.008038   0.071654   0.046610   0.086358  -0.019404  -0.000388
    16  N    0.000302   0.041394  -0.011667  -0.006325   0.002686   0.000004
    17  H    0.004095  -0.087548   0.321737  -0.068077   0.036010  -0.002688
    18  H   -0.004030  -0.003630  -0.082902   0.474067  -0.028101  -0.016635
    19  H   -0.000224   0.000186   0.003128  -0.202842   0.143406   0.219100
    20  H    0.000960   0.005847   0.031494  -0.170148   0.038937   0.010587
    21  H   -0.000237  -0.004541  -0.006064   0.224935  -0.098239  -0.002664
    22  H    0.000111   0.001008   0.000088  -0.027778   0.004814   0.000045
    23  H   -0.001096  -0.001339  -0.000082   0.005035  -0.000887   0.000032
    24  H    0.019404   0.036727   0.005809  -0.015761   0.002281   0.001563
    25  H    0.010222  -0.052600  -0.009449   0.025008  -0.005379   0.000244
    26  H   -0.004303  -0.102770   0.004904   0.003091  -0.001648   0.000132
    27  H   -0.002060  -0.002063   0.000014  -0.010569   0.001442   0.000007
    28  H    0.007348  -0.009816  -0.001158  -0.001161   0.001691  -0.000017
    29  H   -0.000686   0.001403  -0.000774   0.000013   0.000400  -0.000002
    30  H   -0.000209   0.004718  -0.000576  -0.000492   0.000108   0.000000
               7          8          9         10         11         12
     1  O   -0.000500  -0.031808  -0.014437  -0.004510   0.000358  -0.001894
     2  C   -0.009694  -0.202688   0.126424   0.073104   0.002318   0.030208
     3  N    0.015152  -0.079482   0.192398  -0.052859  -0.000731  -0.002629
     4  C    0.026404  -4.408591   1.696672  -0.274921   0.015564   0.027870
     5  C    0.379392   1.688681  -0.985008   0.037296  -0.006341  -0.024245
     6  O   -0.104680  -0.156024   0.061567   0.000859   0.000005   0.000774
     7  O    8.098599  -0.108123   0.033698   0.001507   0.000018   0.000593
     8  C   -0.108123  16.044582  -5.593651  -0.220458  -0.167458  -0.223646
     9  C    0.033698  -5.593651  10.686570  -0.861753   0.000053   0.026227
    10  C    0.001507  -0.220458  -0.861753   7.056918   0.419923  -0.319808
    11  N    0.000018  -0.167458   0.000053   0.419923   6.885905   0.225122
    12  C    0.000593  -0.223646   0.026227  -0.319808   0.225122   5.426479
    13  N   -0.000243  -0.147482   0.308237  -0.125898   0.056787   0.281069
    14  C    0.008978  -0.255381  -0.013820  -0.046274   0.000815   0.012242
    15  C   -0.000949  -0.029902  -0.008829   0.004115  -0.000618   0.000948
    16  N   -0.000073   0.003111  -0.001433  -0.000485   0.000069  -0.000217
    17  H    0.017214   0.041836  -0.031777   0.003749  -0.000161  -0.002551
    18  H   -0.001843  -0.074216  -0.044423   0.019157  -0.001275   0.009203
    19  H    0.025130   0.035372  -0.002920   0.000297   0.000006   0.000055
    20  H    0.003256   0.601812  -0.172015  -0.037021   0.000967  -0.009100
    21  H   -0.000879   0.047646   0.091450  -0.021936  -0.000481   0.012831
    22  H    0.000064   0.029488  -0.143652   0.480227  -0.084646   0.031181
    23  H    0.000024  -0.007572   0.035442   0.006604  -0.081900   0.458223
    24  H   -0.001460   0.012638  -0.101749   0.022871   0.007055  -0.048620
    25  H   -0.002383   0.005996  -0.011324  -0.000346  -0.000168   0.001538
    26  H    0.000869  -0.004407   0.002886  -0.000752   0.000059   0.000493
    27  H   -0.000064  -0.003826   0.005774   0.000332   0.000598  -0.003719
    28  H   -0.000046   0.010438  -0.002319  -0.000876  -0.000012  -0.001316
    29  H   -0.000016   0.000576  -0.000056  -0.000396   0.000011  -0.000176
    30  H   -0.000012   0.000150   0.000016  -0.000089   0.000004  -0.000099
              13         14         15         16         17         18
     1  O   -0.026517  -0.053826  -0.008038   0.000302   0.004095  -0.004030
     2  C    0.015430  -2.219017   0.071654   0.041394  -0.087548  -0.003630
     3  N    0.021661  -0.073207   0.046610  -0.011667   0.321737  -0.082902
     4  C    0.002233  -0.082920   0.086358  -0.006325  -0.068077   0.474067
     5  C   -0.021670   0.036846  -0.019404   0.002686   0.036010  -0.028101
     6  O    0.000739   0.000107  -0.000388   0.000004  -0.002688  -0.016635
     7  O   -0.000243   0.008978  -0.000949  -0.000073   0.017214  -0.001843
     8  C   -0.147482  -0.255381  -0.029902   0.003111   0.041836  -0.074216
     9  C    0.308237  -0.013820  -0.008829  -0.001433  -0.031777  -0.044423
    10  C   -0.125898  -0.046274   0.004115  -0.000485   0.003749   0.019157
    11  N    0.056787   0.000815  -0.000618   0.000069  -0.000161  -0.001275
    12  C    0.281069   0.012242   0.000948  -0.000217  -0.002551   0.009203
    13  N    6.353170  -0.080989   0.007427  -0.000020   0.002310   0.000717
    14  C   -0.080989   7.992428  -0.414070  -0.063904   0.025836  -0.004609
    15  C    0.007427  -0.414070   5.770226   0.278102   0.006974  -0.000286
    16  N   -0.000020  -0.063904   0.278102   6.250968  -0.000017   0.000224
    17  H    0.002310   0.025836   0.006974  -0.000017   0.577394   0.004792
    18  H    0.000717  -0.004609  -0.000286   0.000224   0.004792   0.647466
    19  H   -0.000145  -0.000798  -0.000202   0.000007   0.002216   0.002162
    20  H    0.003093   0.000216   0.000140  -0.000003   0.005910  -0.031890
    21  H    0.007067   0.017046   0.000410  -0.000045  -0.007053   0.018924
    22  H    0.022202  -0.003171  -0.000135   0.000000   0.000705  -0.000179
    23  H   -0.082736   0.001541   0.000207  -0.000007  -0.000230   0.000491
    24  H    0.394310  -0.017450   0.004803  -0.000091  -0.001918  -0.005231
    25  H   -0.001533   0.378460  -0.011652  -0.003000  -0.006064   0.000900
    26  H    0.000676   0.430163  -0.019207  -0.003432  -0.001246   0.001909
    27  H    0.001027   0.049096   0.298177  -0.046631   0.000421  -0.000560
    28  H   -0.000043  -0.003704   0.356056  -0.038177   0.000015  -0.000786
    29  H    0.000009   0.031699  -0.088217   0.376177   0.000792   0.000000
    30  H   -0.000010   0.036999  -0.100022   0.380229  -0.000036  -0.000033
              19         20         21         22         23         24
     1  O   -0.000224   0.000960  -0.000237   0.000111  -0.001096   0.019404
     2  C    0.000186   0.005847  -0.004541   0.001008  -0.001339   0.036727
     3  N    0.003128   0.031494  -0.006064   0.000088  -0.000082   0.005809
     4  C   -0.202842  -0.170148   0.224935  -0.027778   0.005035  -0.015761
     5  C    0.143406   0.038937  -0.098239   0.004814  -0.000887   0.002281
     6  O    0.219100   0.010587  -0.002664   0.000045   0.000032   0.001563
     7  O    0.025130   0.003256  -0.000879   0.000064   0.000024  -0.001460
     8  C    0.035372   0.601812   0.047646   0.029488  -0.007572   0.012638
     9  C   -0.002920  -0.172015   0.091450  -0.143652   0.035442  -0.101749
    10  C    0.000297  -0.037021  -0.021936   0.480227   0.006604   0.022871
    11  N    0.000006   0.000967  -0.000481  -0.084646  -0.081900   0.007055
    12  C    0.000055  -0.009100   0.012831   0.031181   0.458223  -0.048620
    13  N   -0.000145   0.003093   0.007067   0.022202  -0.082736   0.394310
    14  C   -0.000798   0.000216   0.017046  -0.003171   0.001541  -0.017450
    15  C   -0.000202   0.000140   0.000410  -0.000135   0.000207   0.004803
    16  N    0.000007  -0.000003  -0.000045   0.000000  -0.000007  -0.000091
    17  H    0.002216   0.005910  -0.007053   0.000705  -0.000230  -0.001918
    18  H    0.002162  -0.031890   0.018924  -0.000179   0.000491  -0.005231
    19  H    0.543159  -0.000998  -0.002616   0.000098   0.000004  -0.000225
    20  H   -0.000998   0.740606  -0.084923   0.000450  -0.000653   0.003338
    21  H   -0.002616  -0.084923   0.741566  -0.002992   0.000487  -0.001511
    22  H    0.000098   0.000450  -0.002992   0.617917   0.000335   0.001929
    23  H    0.000004  -0.000653   0.000487   0.000335   0.569411  -0.005121
    24  H   -0.000225   0.003338  -0.001511   0.001929  -0.005121   0.494101
    25  H   -0.000155  -0.000760   0.001556  -0.000120   0.000137   0.001297
    26  H    0.000019  -0.000056   0.000054   0.000012   0.000031  -0.000356
    27  H    0.000010   0.000103  -0.000075  -0.000064  -0.000820  -0.001367
    28  H    0.000002   0.000035  -0.000176   0.000043  -0.000481  -0.000974
    29  H    0.000000   0.000011  -0.000018  -0.000003  -0.000042  -0.000052
    30  H    0.000000  -0.000001   0.000011  -0.000004  -0.000016  -0.000148
              25         26         27         28         29         30
     1  O    0.010222  -0.004303  -0.002060   0.007348  -0.000686  -0.000209
     2  C   -0.052600  -0.102770  -0.002063  -0.009816   0.001403   0.004718
     3  N   -0.009449   0.004904   0.000014  -0.001158  -0.000774  -0.000576
     4  C    0.025008   0.003091  -0.010569  -0.001161   0.000013  -0.000492
     5  C   -0.005379  -0.001648   0.001442   0.001691   0.000400   0.000108
     6  O    0.000244   0.000132   0.000007  -0.000017  -0.000002   0.000000
     7  O   -0.002383   0.000869  -0.000064  -0.000046  -0.000016  -0.000012
     8  C    0.005996  -0.004407  -0.003826   0.010438   0.000576   0.000150
     9  C   -0.011324   0.002886   0.005774  -0.002319  -0.000056   0.000016
    10  C   -0.000346  -0.000752   0.000332  -0.000876  -0.000396  -0.000089
    11  N   -0.000168   0.000059   0.000598  -0.000012   0.000011   0.000004
    12  C    0.001538   0.000493  -0.003719  -0.001316  -0.000176  -0.000099
    13  N   -0.001533   0.000676   0.001027  -0.000043   0.000009  -0.000010
    14  C    0.378460   0.430163   0.049096  -0.003704   0.031699   0.036999
    15  C   -0.011652  -0.019207   0.298177   0.356056  -0.088217  -0.100022
    16  N   -0.003000  -0.003432  -0.046631  -0.038177   0.376177   0.380229
    17  H   -0.006064  -0.001246   0.000421   0.000015   0.000792  -0.000036
    18  H    0.000900   0.001909  -0.000560  -0.000786   0.000000  -0.000033
    19  H   -0.000155   0.000019   0.000010   0.000002   0.000000   0.000000
    20  H   -0.000760  -0.000056   0.000103   0.000035   0.000011  -0.000001
    21  H    0.001556   0.000054  -0.000075  -0.000176  -0.000018   0.000011
    22  H   -0.000120   0.000012  -0.000064   0.000043  -0.000003  -0.000004
    23  H    0.000137   0.000031  -0.000820  -0.000481  -0.000042  -0.000016
    24  H    0.001297  -0.000356  -0.001367  -0.000974  -0.000052  -0.000148
    25  H    0.748105  -0.064232  -0.024263   0.013091   0.000926  -0.006333
    26  H   -0.064232   0.709023   0.013223  -0.016086  -0.004564   0.005678
    27  H   -0.024263   0.013223   0.682494  -0.032309  -0.010192   0.015221
    28  H    0.013091  -0.016086  -0.032309   0.642297   0.012393  -0.011046
    29  H    0.000926  -0.004564  -0.010192   0.012393   0.621382  -0.050813
    30  H   -0.006333   0.005678   0.015221  -0.011046  -0.050813   0.614900
 Mulliken charges:
               1
     1  O   -0.410265
     2  C   -0.305432
     3  N    0.205844
     4  C   -0.097454
     5  C    0.207890
     6  O   -0.176983
     7  O   -0.379933
     8  C   -0.807613
     9  C    0.721753
    10  C   -0.158579
    11  N   -0.271849
    12  C    0.092962
    13  N    0.009124
    14  C    0.310669
    15  C   -0.230291
    16  N   -0.157749
    17  H    0.157360
    18  H    0.120615
    19  H    0.236770
    20  H    0.059807
    21  H    0.070468
    22  H    0.072027
    23  H    0.104976
    24  H    0.193906
    25  H    0.012280
    26  H    0.049838
    27  H    0.070640
    28  H    0.077095
    29  H    0.110215
    30  H    0.111907
 Sum of Mulliken charges =   0.00000
 Mulliken charges with hydrogens summed into heavy atoms:
               1
     1  O   -0.410265
     2  C   -0.305432
     3  N    0.363204
     4  C    0.023161
     5  C    0.207890
     6  O    0.059786
     7  O   -0.379933
     8  C   -0.677337
     9  C    0.721753
    10  C   -0.086552
    11  N   -0.271849
    12  C    0.197939
    13  N    0.203030
    14  C    0.372788
    15  C   -0.082556
    16  N    0.064373
 Electronic spatial extent (au):  <R**2>=           4407.5838
 Charge=              0.0000 electrons
 Dipole moment (field-independent basis, Debye):
    X=              1.6008    Y=              3.9034    Z=             -4.0972  Tot=              5.8810
 Quadrupole moment (field-independent basis, Debye-Ang):
   XX=            -96.1587   YY=            -98.5950   ZZ=           -102.0882
   XY=             -5.1598   XZ=             10.4180   YZ=              4.2977
 Traceless Quadrupole moment (field-independent basis, Debye-Ang):
   XX=              2.7886   YY=              0.3523   ZZ=             -3.1409
   XY=             -5.1598   XZ=             10.4180   YZ=              4.2977
 Octapole moment (field-independent basis, Debye-Ang**2):
  XXX=            128.7736  YYY=            -13.2082  ZZZ=            -51.1565  XYY=             20.8885
  XXY=             63.4531  XXZ=            -49.7183  XZZ=             21.2238  YZZ=             51.4765
  YYZ=              2.4556  XYZ=             10.0757
 Hexadecapole moment (field-independent basis, Debye-Ang**3):
 XXXX=          -2934.2205 YYYY=          -1262.6179 ZZZZ=          -1545.0302 XXXY=            -32.1089
 XXXZ=           -145.1214 YYYX=            -27.0209 YYYZ=            500.8594 ZZZX=              1.4429
 ZZZY=            466.8749 XXYY=           -727.0266 XXZZ=           -871.5960 YYZZ=           -450.0227
 XXYZ=            266.4129 YYXZ=             41.6819 ZZXY=            -92.7458
 N-N= 1.121318382728D+03 E-N=-4.102765767174D+03  KE= 7.929583966597D+02
 Calling FoFJK, ICntrl=      2127 FMM=F ISym2X=0 I1Cent= 0 IOpClX= 0 NMat=1 NMatS=1 NMatT=0.
 -------------------------------------------------------------------
 Center     Atomic                   Forces (Hartrees/Bohr)
 Number     Number              X              Y              Z
 -------------------------------------------------------------------
      1        8           0.001823678    0.010539064    0.002265087
      2        6          -0.001211720   -0.005143909   -0.000982191
      3        7           0.001462817   -0.001575179   -0.001034137
      4        6           0.000790101   -0.000538158   -0.000218855
      5        6           0.003887915    0.006704756    0.001575387
      6        8           0.003391686    0.005460607   -0.000042038
      7        8          -0.007377036   -0.010842710   -0.001675511
      8        6          -0.000991610    0.001477430   -0.000169648
      9        6          -0.001127663   -0.002409653    0.002258220
     10        6           0.000117093    0.001663237   -0.001346750
     11        7           0.004387185    0.000546191   -0.007117469
     12        6          -0.000738985   -0.000236243    0.000804443
     13        7          -0.001664491    0.001349378    0.002877490
     14        6           0.000694505    0.000248233   -0.000351808
     15        6          -0.003551162   -0.002051889   -0.000244934
     16        7           0.001246535    0.005087149   -0.003865607
     17        1          -0.000023270   -0.003169341    0.000255623
     18        1          -0.000553063    0.002556593    0.001021991
     19        1          -0.000813100   -0.003317745    0.000927972
     20        1           0.002151789   -0.000146225    0.002254941
     21        1           0.000317315   -0.002471399   -0.001011690
     22        1           0.001990525   -0.001980920   -0.001220510
     23        1          -0.001194295    0.002618110   -0.000467650
     24        1          -0.002320998   -0.000149866    0.002107781
     25        1          -0.000364843   -0.002800838   -0.000985237
     26        1          -0.002041744    0.000012744    0.001802725
     27        1           0.002001612   -0.000138518   -0.002022199
     28        1           0.000516612    0.002665564    0.001423892
     29        1           0.000541408   -0.003460011    0.000013435
     30        1          -0.001346795   -0.000496454    0.003167248
 -------------------------------------------------------------------
 Cartesian Forces:  Max     0.010842710 RMS     0.002850764

 GradGradGradGradGradGradGradGradGradGradGradGradGradGradGradGradGradGrad
 Berny optimization.
 FormGI is forming the generalized inverse of G from B-inverse, IUseBI=4.
 Internal  Forces:  Max     0.013193101 RMS     0.002061295
 Search for a local minimum.
 Step number   1 out of a maximum of  160
 All quantities printed in internal units (Hartrees-Bohrs-Radians)
 Mixed Optimization -- RFO/linear search
 Second derivative matrix not updated -- first step.
 ITU=  0
     Eigenvalues ---    0.00079   0.00106   0.00265   0.00279   0.00345
     Eigenvalues ---    0.00526   0.00583   0.00854   0.01076   0.01585
     Eigenvalues ---    0.01966   0.02138   0.02347   0.02851   0.02922
     Eigenvalues ---    0.03695   0.03782   0.04104   0.04243   0.04413
     Eigenvalues ---    0.04491   0.04635   0.04827   0.05211   0.05387
     Eigenvalues ---    0.05850   0.06026   0.06141   0.07500   0.08280
     Eigenvalues ---    0.08617   0.10623   0.10903   0.11270   0.11794
     Eigenvalues ---    0.11891   0.12760   0.13580   0.14473   0.14982
     Eigenvalues ---    0.15664   0.16771   0.18338   0.18372   0.19199
     Eigenvalues ---    0.21296   0.21571   0.22096   0.22887   0.23138
     Eigenvalues ---    0.23972   0.24329   0.24740   0.25843   0.26893
     Eigenvalues ---    0.30756   0.32835   0.32923   0.33083   0.33382
     Eigenvalues ---    0.33572   0.33733   0.33907   0.34085   0.34825
     Eigenvalues ---    0.35591   0.36969   0.37215   0.37418   0.37545
     Eigenvalues ---    0.40774   0.42595   0.42885   0.44557   0.44783
     Eigenvalues ---    0.45068   0.46112   0.46681   0.47236   0.51117
     Eigenvalues ---    0.57416   0.70437   0.79288   0.88245
 RFO step:  Lambda=-1.53836986D-03 EMin= 7.88112008D-04
 Linear search not attempted -- first point.
 Iteration  1 RMS(Cart)=  0.03403238 RMS(Int)=  0.00055434
 Iteration  2 RMS(Cart)=  0.00070664 RMS(Int)=  0.00012441
 Iteration  3 RMS(Cart)=  0.00000026 RMS(Int)=  0.00012441
 Variable       Old X    -DE/DX   Delta X   Delta X   Delta X     New X
                                 (Linear)    (Quad)   (Total)
    R1        2.33556  -0.01088   0.00000  -0.01390  -0.01390   2.32167
    R2        2.57480  -0.00441   0.00000  -0.00573  -0.00573   2.56907
    R3        2.86962  -0.00269   0.00000  -0.00786  -0.00786   2.86176
    R4        2.74310  -0.00053   0.00000  -0.00597  -0.00597   2.73713
    R5        1.91238  -0.00295   0.00000  -0.00731  -0.00731   1.90507
    R6        2.88113  -0.00196   0.00000  -0.00543  -0.00543   2.87571
    R7        2.93799  -0.00136   0.00000  -0.00675  -0.00675   2.93124
    R8        2.06823  -0.00273   0.00000  -0.00817  -0.00817   2.06006
    R9        2.54400  -0.00276   0.00000  -0.00362  -0.00362   2.54038
   R10        2.29112  -0.01319   0.00000  -0.01519  -0.01519   2.27593
   R11        1.83837  -0.00324   0.00000  -0.00751  -0.00751   1.83085
   R12        2.83380  -0.00248   0.00000  -0.00682  -0.00682   2.82698
   R13        2.07412  -0.00305   0.00000  -0.00878  -0.00878   2.06534
   R14        2.07196  -0.00268   0.00000  -0.00798  -0.00798   2.06398
   R15        2.60263  -0.00579   0.00000  -0.00984  -0.00984   2.59279
   R16        2.61268  -0.00298   0.00000  -0.00755  -0.00755   2.60513
   R17        2.60041  -0.00273   0.00000  -0.00513  -0.00513   2.59529
   R18        2.04503  -0.00306   0.00000  -0.00837  -0.00837   2.03666
   R19        2.48854  -0.00590   0.00000  -0.01058  -0.01058   2.47796
   R20        2.58067  -0.00448   0.00000  -0.00655  -0.00655   2.57411
   R21        2.04360  -0.00291   0.00000  -0.00776  -0.00776   2.03584
   R22        1.92674  -0.00305   0.00000  -0.00863  -0.00863   1.91810
   R23        2.92373  -0.00228   0.00000  -0.00749  -0.00749   2.91624
   R24        2.07238  -0.00297   0.00000  -0.00866  -0.00866   2.06372
   R25        2.07446  -0.00271   0.00000  -0.00867  -0.00867   2.06579
   R26        2.75566   0.00030   0.00000  -0.00413  -0.00413   2.75153
   R27        2.07134  -0.00285   0.00000  -0.00823  -0.00823   2.06311
   R28        2.06640  -0.00302   0.00000  -0.00835  -0.00835   2.05805
   R29        1.92254  -0.00315   0.00000  -0.00992  -0.00992   1.91262
   R30        1.92272  -0.00315   0.00000  -0.00991  -0.00991   1.91281
    A1        2.13365  -0.00074   0.00000  -0.00201  -0.00201   2.13163
    A2        2.11820   0.00092   0.00000   0.00388   0.00387   2.12208
    A3        2.03111  -0.00017   0.00000  -0.00175  -0.00175   2.02935
    A4        2.13092   0.00190   0.00000   0.00669   0.00645   2.13737
    A5        2.07915  -0.00204   0.00000  -0.00501  -0.00530   2.07385
    A6        2.01652   0.00023   0.00000   0.01098   0.01077   2.02729
    A7        1.88315   0.00056   0.00000   0.00745   0.00746   1.89061
    A8        2.00566   0.00036   0.00000  -0.00040  -0.00040   2.00526
    A9        1.87319   0.00001   0.00000   0.00137   0.00138   1.87457
   A10        1.90110  -0.00103   0.00000  -0.00245  -0.00246   1.89864
   A11        1.89709  -0.00031   0.00000  -0.00691  -0.00692   1.89018
   A12        1.90114   0.00040   0.00000   0.00051   0.00050   1.90164
   A13        1.95310   0.00115   0.00000  -0.00071  -0.00072   1.95238
   A14        2.17363   0.00038   0.00000   0.00265   0.00265   2.17628
   A15        2.15595  -0.00153   0.00000  -0.00175  -0.00176   2.15419
   A16        1.86571   0.00262   0.00000   0.01650   0.01650   1.88221
   A17        2.02206   0.00212   0.00000   0.00135   0.00135   2.02341
   A18        1.85497   0.00001   0.00000   0.00340   0.00340   1.85837
   A19        1.90094  -0.00072   0.00000   0.00265   0.00265   1.90360
   A20        1.93340  -0.00133   0.00000  -0.00755  -0.00755   1.92585
   A21        1.88911  -0.00051   0.00000  -0.00154  -0.00155   1.88756
   A22        1.85641   0.00033   0.00000   0.00194   0.00192   1.85833
   A23        2.27279  -0.00122   0.00000  -0.00397  -0.00397   2.26882
   A24        2.17840   0.00121   0.00000   0.00230   0.00230   2.18070
   A25        1.82853   0.00001   0.00000   0.00145   0.00145   1.82998
   A26        1.94059  -0.00139   0.00000  -0.00525  -0.00525   1.93534
   A27        2.22398   0.00060   0.00000   0.00247   0.00247   2.22644
   A28        2.11855   0.00079   0.00000   0.00277   0.00277   2.12132
   A29        1.82822   0.00212   0.00000   0.00715   0.00715   1.83537
   A30        1.95962  -0.00164   0.00000  -0.00617  -0.00617   1.95344
   A31        2.19472   0.00077   0.00000   0.00296   0.00296   2.19768
   A32        2.12883   0.00087   0.00000   0.00320   0.00319   2.13202
   A33        1.86747   0.00091   0.00000   0.00290   0.00289   1.87036
   A34        2.18426   0.00021   0.00000   0.00342   0.00342   2.18768
   A35        2.20293  -0.00104   0.00000  -0.00502  -0.00503   2.19790
   A36        1.95056   0.00131   0.00000   0.00639   0.00639   1.95695
   A37        1.94205  -0.00065   0.00000  -0.00177  -0.00176   1.94029
   A38        1.86838  -0.00051   0.00000  -0.00327  -0.00328   1.86510
   A39        1.92669  -0.00043   0.00000  -0.00529  -0.00528   1.92141
   A40        1.90068  -0.00004   0.00000   0.00142   0.00142   1.90210
   A41        1.87241   0.00028   0.00000   0.00254   0.00254   1.87496
   A42        2.01763  -0.00049   0.00000  -0.00282  -0.00282   2.01481
   A43        1.90480   0.00013   0.00000   0.00132   0.00131   1.90610
   A44        1.88724   0.00058   0.00000   0.00672   0.00672   1.89396
   A45        1.88810   0.00007   0.00000  -0.00181  -0.00181   1.88630
   A46        1.90025  -0.00019   0.00000  -0.00399  -0.00398   1.89627
   A47        1.85966  -0.00007   0.00000   0.00082   0.00080   1.86046
   A48        1.93127   0.00194   0.00000   0.02451   0.02396   1.95523
   A49        1.92786   0.00180   0.00000   0.02360   0.02304   1.95090
   A50        1.86061  -0.00065   0.00000   0.01895   0.01793   1.87854
    D1       -0.19580   0.00040   0.00000   0.01811   0.01801  -0.17779
    D2       -2.96640   0.00009   0.00000  -0.02405  -0.02397  -2.99037
    D3        2.96834   0.00000   0.00000   0.01201   0.01192   2.98027
    D4        0.19775  -0.00031   0.00000  -0.03016  -0.03006   0.16769
    D5       -0.86524  -0.00050   0.00000  -0.05302  -0.05302  -0.91826
    D6       -3.02798  -0.00042   0.00000  -0.04951  -0.04951  -3.07749
    D7        1.21447  -0.00011   0.00000  -0.04967  -0.04968   1.16479
    D8        2.25401  -0.00012   0.00000  -0.04705  -0.04705   2.20697
    D9        0.09128  -0.00004   0.00000  -0.04354  -0.04354   0.04774
   D10       -1.94946   0.00027   0.00000  -0.04371  -0.04371  -1.99317
   D11       -2.26246   0.00022   0.00000  -0.00151  -0.00159  -2.26405
   D12        1.89627   0.00090   0.00000  -0.00364  -0.00373   1.89254
   D13       -0.22088   0.00014   0.00000  -0.00504  -0.00512  -0.22600
   D14        0.52050   0.00004   0.00000   0.03610   0.03619   0.55669
   D15       -1.60396   0.00072   0.00000   0.03397   0.03405  -1.56991
   D16        2.56208  -0.00003   0.00000   0.03257   0.03266   2.59474
   D17        2.90928  -0.00026   0.00000  -0.02678  -0.02679   2.88249
   D18       -0.26554   0.00007   0.00000  -0.02060  -0.02061  -0.28615
   D19       -1.18594  -0.00011   0.00000  -0.02400  -0.02401  -1.20995
   D20        1.92242   0.00021   0.00000  -0.01782  -0.01783   1.90460
   D21        0.88327  -0.00040   0.00000  -0.02875  -0.02874   0.85452
   D22       -2.29155  -0.00007   0.00000  -0.02257  -0.02255  -2.31411
   D23       -0.95227  -0.00047   0.00000  -0.00280  -0.00281  -0.95508
   D24       -3.10804  -0.00016   0.00000   0.00345   0.00345  -3.10459
   D25        1.18149  -0.00020   0.00000  -0.00178  -0.00179   1.17971
   D26       -3.06696  -0.00066   0.00000  -0.01036  -0.01036  -3.07732
   D27        1.06045  -0.00035   0.00000  -0.00410  -0.00410   1.05636
   D28       -0.93320  -0.00039   0.00000  -0.00934  -0.00934  -0.94253
   D29        1.14956   0.00009   0.00000  -0.00093  -0.00093   1.14864
   D30       -1.00621   0.00039   0.00000   0.00533   0.00533  -1.00088
   D31       -2.99986   0.00035   0.00000   0.00009   0.00009  -2.99977
   D32        3.09757   0.00026   0.00000   0.00455   0.00454   3.10211
   D33       -0.01119  -0.00010   0.00000  -0.00166  -0.00165  -0.01285
   D34        2.73595  -0.00035   0.00000  -0.01431  -0.01431   2.72164
   D35       -0.50902  -0.00050   0.00000  -0.01743  -0.01743  -0.52645
   D36       -1.43302   0.00015   0.00000  -0.01478  -0.01479  -1.44780
   D37        1.60520   0.00001   0.00000  -0.01790  -0.01791   1.58729
   D38        0.59593  -0.00049   0.00000  -0.01753  -0.01753   0.57840
   D39       -2.64905  -0.00064   0.00000  -0.02065  -0.02065  -2.66970
   D40        3.06390  -0.00008   0.00000  -0.00490  -0.00489   3.05901
   D41       -0.06504  -0.00008   0.00000  -0.00419  -0.00419  -0.06923
   D42        0.01004  -0.00003   0.00000  -0.00236  -0.00236   0.00768
   D43       -3.11891  -0.00003   0.00000  -0.00165  -0.00165  -3.12056
   D44       -3.08102   0.00027   0.00000   0.00576   0.00577  -3.07525
   D45        0.30250   0.00011   0.00000   0.00112   0.00112   0.30362
   D46       -0.02100   0.00007   0.00000   0.00299   0.00300  -0.01800
   D47       -2.92067  -0.00009   0.00000  -0.00164  -0.00165  -2.92232
   D48        0.00533  -0.00003   0.00000   0.00071   0.00071   0.00604
   D49        3.13516  -0.00003   0.00000   0.00006   0.00006   3.13522
   D50       -0.01946   0.00009   0.00000   0.00139   0.00138  -0.01808
   D51        3.11556   0.00010   0.00000  -0.00130  -0.00131   3.11426
   D52        0.02631  -0.00013   0.00000  -0.00292  -0.00291   0.02340
   D53        2.92265   0.00026   0.00000   0.00331   0.00330   2.92594
   D54       -3.10900  -0.00013   0.00000  -0.00035  -0.00034  -3.10934
   D55       -0.21266   0.00026   0.00000   0.00588   0.00587  -0.20680
   D56        3.06311   0.00016   0.00000   0.00877   0.00877   3.07188
   D57       -1.08775   0.00000   0.00000   0.00542   0.00542  -1.08233
   D58        0.92853   0.00029   0.00000   0.01072   0.01073   0.93926
   D59       -1.04873  -0.00005   0.00000   0.00719   0.00719  -1.04154
   D60        1.08360  -0.00021   0.00000   0.00384   0.00383   1.08743
   D61        3.09988   0.00008   0.00000   0.00914   0.00915   3.10903
   D62        1.00261   0.00002   0.00000   0.00806   0.00806   1.01067
   D63        3.13494  -0.00014   0.00000   0.00471   0.00470   3.13964
   D64       -1.13196   0.00015   0.00000   0.01001   0.01002  -1.12194
   D65        1.02341   0.00063   0.00000   0.02442   0.02468   1.04809
   D66       -1.03280  -0.00090   0.00000  -0.02891  -0.02917  -1.06197
   D67       -1.11779   0.00075   0.00000   0.02607   0.02633  -1.09146
   D68        3.10919  -0.00078   0.00000  -0.02726  -0.02752   3.08166
   D69       -3.13214   0.00090   0.00000   0.02816   0.02843  -3.10371
   D70        1.09483  -0.00063   0.00000  -0.02517  -0.02543   1.06941
         Item               Value     Threshold  Converged?
 Maximum Force            0.013193     0.000450     NO 
 RMS     Force            0.002061     0.000300     NO 
 Maximum Displacement     0.133534     0.001800     NO 
 RMS     Displacement     0.033937     0.001200     NO 
 Predicted change in Energy=-7.956379D-04
 GradGradGradGradGradGradGradGradGradGradGradGradGradGradGradGradGradGrad

                          Input orientation:                          
 ---------------------------------------------------------------------
 Center     Atomic      Atomic             Coordinates (Angstroms)
 Number     Number       Type             X           Y           Z
 ---------------------------------------------------------------------
      1          8           0        0.924365   -1.276322   -0.939149
      2          6           0        1.176581   -0.133410   -0.565609
      3          7           0        0.265457    0.872149   -0.648801
      4          6           0       -0.981595    0.733414   -1.372369
      5          6           0       -1.126850    1.924630   -2.308133
      6          8           0       -2.078766    1.719951   -3.235024
      7          8           0       -0.493183    2.945201   -2.222060
      8          6           0       -2.247292    0.641713   -0.480376
      9          6           0       -2.235383   -0.429227    0.564076
     10          6           0       -2.926430   -0.515807    1.746220
     11          7           0       -2.698573   -1.723445    2.359268
     12          6           0       -1.873296   -2.361161    1.564479
     13          7           0       -1.572695   -1.632981    0.453228
     14          6           0        2.519122    0.226488    0.035559
     15          6           0        2.902290   -0.707240    1.202960
     16          7           0        4.221961   -0.483080    1.775926
     17          1           0        0.563247    1.815234   -0.453306
     18          1           0       -0.908639   -0.170360   -1.977568
     19          1           0       -2.146765    2.522816   -3.773026
     20          1           0       -3.094132    0.502942   -1.157211
     21          1           0       -2.402967    1.601118    0.017848
     22          1           0       -3.582149    0.221629    2.179545
     23          1           0       -1.455814   -3.338726    1.739674
     24          1           0       -0.831240   -1.836235   -0.209488
     25          1           0        2.536961    1.267146    0.366213
     26          1           0        3.261025    0.123180   -0.760635
     27          1           0        2.164611   -0.605528    2.001335
     28          1           0        2.844118   -1.737623    0.855102
     29          1           0        4.319954    0.452771    2.148692
     30          1           0        4.956160   -0.619364    1.092579
 ---------------------------------------------------------------------
                    Distance matrix (angstroms):
                    1          2          3          4          5
     1  O    0.000000
     2  C    1.228573   0.000000
     3  N    2.265919   1.359492   0.000000
     4  C    2.803462   2.461700   1.448425   0.000000
     5  C    4.040754   3.546507   2.408239   1.521758   0.000000
     6  O    4.823639   4.599784   3.592033   2.376242   1.344309
     7  O    4.634281   3.874247   2.710761   2.419199   1.204370
     8  C    3.734801   3.511551   2.528908   1.551145   2.498392
     9  C    3.600175   3.606272   3.069014   2.583319   3.875445
    10  C    4.755861   4.724985   4.225008   3.881821   5.062806
    11  N    4.919874   5.108810   4.956921   4.786365   6.128899
    12  C    3.907933   4.336116   4.463985   4.358509   5.824287
    13  N    2.881185   3.293214   3.296808   3.046642   4.525537
    14  C    2.398279   1.514380   2.442178   3.807132   4.655071
    15  C    2.970635   2.536767   3.588367   4.877741   5.957221
    16  N    4.344538   3.857383   4.834240   6.202307   7.147475
    17  H    3.150264   2.045973   1.008120   2.097986   2.511728
    18  H    2.379363   2.518558   2.056927   1.090136   2.132105
    19  H    5.647667   5.328010   4.278352   3.212901   1.882542
    20  H    4.400187   4.358202   3.417840   2.135936   2.686264
    21  H    4.501849   4.020221   2.845401   2.169311   2.672699
    22  H    5.681441   5.505219   4.819417   4.431805   5.391471
    23  H    4.134593   4.745301   5.138001   5.147040   6.647998
    24  H    1.981933   2.656648   2.954840   2.824534   4.316920
    25  H    3.282326   2.163443   2.519128   3.960779   4.583440
    26  H    2.729552   2.109213   3.089804   4.329714   4.989331
    27  H    3.261077   2.790753   3.579600   4.803463   5.983889
    28  H    2.667881   2.715253   3.965114   5.069885   6.259931
    29  H    4.904544   4.194262   4.943763   6.370483   7.190086
    30  H    4.562333   4.155834   5.221083   6.569848   7.418878
                    6          7          8          9         10
     6  O    0.000000
     7  O    2.245308   0.000000
     8  C    2.962952   3.378820   0.000000
     9  C    4.367683   4.710051   1.495973   0.000000
    10  C    5.525391   5.800562   2.599772   1.372045   0.000000
    11  N    6.598276   6.902795   3.723064   2.261031   1.373367
    12  C    6.303406   6.663338   3.652199   2.205512   2.132476
    13  N    5.010136   5.411309   2.549692   1.378574   2.180024
    14  C    5.836756   4.643514   4.812204   4.828520   5.755988
    15  C    7.099146   6.049820   5.583143   5.184703   5.857111
    16  N    8.346385   7.068918   6.943148   6.570295   7.148528
    17  H    3.837613   2.349758   3.045819   3.728941   4.738091
    18  H    2.554148   3.152634   2.166342   2.878752   4.249402
    19  H    0.968846   2.306131   3.793441   5.247177   6.348479
    20  H    2.613309   3.723368   1.092932   2.137573   3.081540
    21  H    3.271147   3.235896   1.092209   2.109207   2.782563
    22  H    5.815727   6.027743   3.005577   2.201621   1.077752
    23  H    7.122212   7.490643   4.625900   3.233410   3.183021
    24  H    4.832871   5.198736   2.866847   2.133000   3.155653
    25  H    5.871872   4.323979   4.898669   5.068738   5.910329
    26  H    6.098004   4.918704   5.539764   5.680714   6.706506
    27  H    7.129766   6.124428   5.213386   4.632143   5.098219
    28  H    7.274527   6.521913   5.776435   5.253373   5.965413
    29  H    8.457764   6.962900   7.076470   6.801572   7.321899
    30  H    8.584331   7.306729   7.480256   7.213443   7.910322
                   11         12         13         14         15
    11  N    0.000000
    12  C    1.311280   0.000000
    13  N    2.215576   1.362163   0.000000
    14  C    6.035412   5.322298   4.513872   0.000000
    15  C    5.808562   5.066791   4.630830   1.543208   0.000000
    16  N    7.054969   6.381541   6.053912   2.536144   1.456046
    17  H    5.574252   5.239320   4.156229   2.566817   3.818011
    18  H    4.942073   4.275075   2.913589   3.994961   4.992712
    19  H    7.479322   7.239957   5.954950   6.445847   7.790163
    20  H    4.180777   4.135351   3.077410   5.745236   6.556830
    21  H    4.077052   4.286289   3.367240   5.110468   5.905824
    22  H    2.143903   3.157418   3.233830   6.467008   6.623025
    23  H    2.130136   1.077319   2.139666   5.604897   5.119165
    24  H    3.177761   2.123297   1.015017   3.942055   4.148360
    25  H    6.350333   5.835309   5.030664   1.092071   2.175273
    26  H    6.975717   6.159493   5.284166   1.093169   2.161942
    27  H    5.002841   4.424679   4.173698   2.163840   1.091749
[...]
 0003023,-0.00000824,0.00002747,-0.00011740,0.00017331,-0.00002376,-0.0
 0015434,0.00007641,0.00003847,0.00069791,0.00066349,-0.00100874,0.0000
 0986,-0.00058692,-0.00051999,-0.07190846,0.07625362,-0.00214123,-0.005
 58197,-0.00327803,-0.00161808,0.00720503,0.00210346,0.00189074,-0.0026
 6990,-0.00053848,-0.00064176,0.00050873,0.00076032,-0.00002865,0.00016
 863,-0.00058610,0.00020443,-0.00014212,0.00014618,0.00002579,-0.000254
 97,0.00025773,-0.00133160,-0.00081481,0.00024570,-0.00371591,-0.005889
 87,0.00157818,-0.00057863,0.00181468,0.00376927,0.00189871,0.00611745,
 -0.00131156,0.01162913,-0.01158789,-0.01296135,0.18807140,-0.03477841,
 -0.21165126,-0.00020480,-0.00083369,-0.00067626,-0.00013844,-0.0004066
 4,0.00063114,-0.00009101,0.00018854,-0.00042205,0.00003548,-0.00005994
 ,0.00020281,-0.00003896,0.00112685,-0.00095592,-0.00003996,0.00003005,
 0.00001186,0.00002594,0.00046006,-0.00033594,0.00014305,0.00006045,-0.
 00015173,0.00071103,0.00038415,0.00099116,-0.00128066,-0.00019312,-0.0
 0015166,-0.19258777,0.04539338,0.22258122,-0.00723904,-0.00333599,-0.0
 0429109,0.00356953,-0.02982843,-0.00460009,-0.00000713,0.00088133,0.00
 050143,0.00029872,0.00016439,0.00022756,-0.00007188,-0.00007901,-0.000
 08061,0.00007075,0.00000852,0.00008965,0.00008235,0.00007327,0.0000565
 3,0.00005248,-0.00001786,0.00003830,0.00008476,-0.00014092,-0.00000773
 ,-0.00002724,0.00000593,0.00007559,-0.00006228,0.00006632,0.00009298,0
 .00001678,0.00011140,-0.00015908,-0.00018004,-0.00003945,0.00022006,-0
 .05212440,-0.00940965,-0.00200894,-0.00009100,0.00649248,0.00104827,0.
 00068672,0.00015284,0.00107574,-0.00161711,0.00036162,-0.00103902,0.00
 026445,-0.00021022,0.00009107,-0.00000393,-0.00000020,-0.00000509,0.00
 002897,0.00000759,-0.00002325,-0.00002389,0.00001602,-0.00000266,-0.00
 001250,0.00000031,0.00000733,-0.00000398,-0.00000245,-0.00000392,0.000
 37415,0.00007085,-0.00034241,0.05379464,-0.00252183,0.00135188,-0.0008
 9707,0.00417933,-0.00910923,-0.00012005,0.00108106,0.00092718,0.001132
 93,-0.00050252,0.00063040,-0.00022300,-0.00022562,-0.00027670,-0.00001
 992,0.00007732,0.00006940,0.00005143,0.00014357,0.00018078,0.00001155,
 0.00001881,-0.00001658,-0.00000750,0.00008543,-0.00011061,0.00000178,-
 0.00001003,0.00001418,0.00005378,-0.00006084,0.00005475,0.00006053,0.0
 0001635,0.00006472,-0.00014175,-0.00014009,-0.00004410,0.00012783,-0.0
 1423314,-0.28660021,-0.06268885,-0.00172687,-0.01949283,-0.00443788,-0
 .00002584,0.00262717,-0.00042331,-0.00032912,0.00118550,-0.00027049,0.
 00018303,0.00008920,0.00015227,-0.00001300,-0.00000515,-0.00001349,0.0
 0000490,0.00000105,-0.00001903,-0.00002506,0.00001756,0.00000126,-0.00
 001491,0.00000432,0.00000558,0.00001675,0.00001944,-0.00000258,0.00027
 165,0.00004234,-0.00013658,0.01277211,0.31375155,-0.00518362,-0.001642
 99,0.00034058,0.00442988,-0.01300375,-0.00480792,0.00007995,0.00082090
 ,0.00001457,0.00014552,0.00021903,-0.00001200,-0.00021459,-0.00035114,
 0.00001798,0.00008327,0.00009355,0.00005653,0.00020543,0.00022357,-0.0
 0004578,0.00003017,0.00002160,0.00002041,0.00005727,-0.00013440,-0.000
 00680,-0.00002771,-0.00000662,0.00004275,-0.00006036,0.00004589,0.0000
 8884,0.00000822,0.00011184,-0.00013629,-0.00020495,-0.00003059,0.00019
 538,-0.00419540,-0.06005511,-0.06210309,0.00068693,0.02869311,0.005470
 04,0.00209709,-0.00086351,0.00199074,-0.00111372,0.00021840,0.00032474
 ,0.00012165,-0.00006108,0.00005947,-0.00002144,-0.00000073,-0.00000774
 ,0.00000299,-0.00000655,-0.00001279,-0.00000902,0.00000297,0.00001200,
 0.00000007,0.00000131,0.00000895,-0.00000769,-0.00000787,-0.00000134,0
 .00036999,0.00010516,-0.00027717,0.00657955,0.06484802,0.06703242,0.00
 325830,0.00028050,-0.00283252,-0.02371948,0.00755777,0.02296482,-0.003
 38926,-0.00130263,-0.00302562,0.00043711,0.00114307,-0.00087558,-0.000
 41516,-0.00064257,0.00014208,-0.00010742,0.00024689,-0.00028635,0.0000
 9970,0.00021372,-0.00014479,0.00014433,0.00003275,0.00003067,-0.000037
 25,0.00002602,-0.00001821,0.00001891,-0.00000959,-0.00004487,0.0000119
 6,-0.00005235,0.00002376,0.00001123,-0.00001953,0.00001707,0.00005103,
 0.00005246,-0.00007422,-0.17134794,0.03324320,0.12578533,0.00358279,-0
 .00140415,-0.00467874,0.00220599,-0.00044474,-0.00042750,-0.00025756,-
 0.00035027,0.00047051,-0.00011114,0.00002628,-0.00004534,-0.00004253,-
 0.00000072,-0.00001820,-0.00002518,-0.00001293,0.00001997,-0.00000869,
 -0.00000427,0.00002389,0.00000241,0.00000127,-0.00000265,-0.00000097,-
 0.00000216,0.00000321,-0.00011619,0.00000833,0.00012103,0.00202351,-0.
 00016363,-0.00207662,0.18700070,-0.00022598,-0.00049793,-0.00138336,-0
 .00324996,0.00045184,0.00618782,0.00022201,0.00006503,0.00030941,-0.00
 005268,0.00034604,0.00019424,0.00001178,0.00006272,-0.00006286,-0.0000
 0473,-0.00000913,0.00000520,-0.00004889,-0.00003169,0.00007330,0.00000
 117,-0.00003091,-0.00001095,0.00002076,-0.00004699,-0.00000156,0.00000
 048,-0.00000056,0.00001986,-0.00001509,0.00001086,0.00002044,-0.000004
 79,0.00003897,-0.00005296,-0.00006190,-0.00002854,0.00002327,0.0336397
 3,-0.05654930,-0.03943366,-0.01322129,0.00248703,0.01710234,-0.0013825
 0,0.00023908,-0.00192102,-0.00023581,0.00034948,-0.00071385,0.00014050
 ,-0.00001780,0.00007180,0.00001085,-0.00000476,-0.00000758,0.00000340,
 0.00000732,-0.00000387,-0.00000871,0.00000835,-0.00000713,-0.00000492,
 0.00000061,0.00000201,0.00000099,0.00000377,0.00000381,0.00008784,0.00
 004354,0.00001024,0.02210298,-0.00568056,-0.02078244,-0.03891407,0.058
 98062,0.00047610,0.00079925,-0.00037468,-0.01073712,0.00161361,0.01016
 550,-0.00119887,0.00000882,-0.00138117,0.00004872,0.00062296,-0.000787
 88,-0.00025389,-0.00024157,-0.00000692,-0.00002379,0.00010203,-0.00009
 807,0.00006209,0.00007731,-0.00001798,0.00013240,0.00000920,0.00005687
 ,0.00000145,-0.00001187,-0.00001695,-0.00000118,0.00000404,0.00001270,
 0.00000775,0.00000677,0.00004618,0.00000909,-0.00000725,-0.00002451,-0
 .00000152,0.00000980,0.00001501,0.12477202,-0.03913128,-0.16540462,0.0
 1952546,-0.00309083,-0.02349339,0.00070250,-0.00101135,0.00364163,-0.0
 0028219,0.00002284,0.00016536,0.00001621,-0.00000808,0.00001272,-0.000
 01990,0.00000416,-0.00002528,0.00001463,-0.00000106,-0.00000051,-0.000
 01250,0.00000251,0.00000628,-0.00000667,-0.00000260,-0.00000214,-0.000
 01051,-0.00001330,-0.00000599,0.00003987,0.00002459,-0.00001323,0.0045
 7398,-0.00140130,-0.00514812,-0.13439801,0.03788573,0.18505834,0.00002
 265,0.00000714,0.00025062,0.00066160,-0.00022031,-0.00000893,0.0003565
 7,-0.00008867,0.00012455,-0.00003334,-0.00002209,-0.00002953,0.0000186
 3,0.00004304,-0.00000372,0.00000359,-0.00001512,0.00000815,-0.00000437
 ,-0.00002145,0.00000319,0.00000045,-0.00000626,0.00002447,-0.00000540,
 0.00000613,0.00000958,-0.00000533,-0.00000445,-0.00000022,-0.00000636,
 0.00000835,-0.00002758,-0.00001330,-0.00002295,0.00000984,-0.00001154,
 -0.00001038,-0.00002888,0.00534869,-0.00107479,-0.00392338,-0.16265885
 ,0.03160449,0.12025238,-0.03164974,0.00891058,0.01772719,0.00001883,0.
 00002221,0.00005222,0.00000714,-0.00000612,0.00000187,0.00000142,0.000
 00047,0.00000303,0.00001046,0.00000239,-0.00000948,0.00000458,-0.00000
 112,-0.00000059,0.00000668,0.00000220,0.00000338,0.00000816,0.00001051
 ,0.00000668,-0.00003050,-0.00001124,0.00001116,0.00006389,-0.00031612,
 0.00033612,0.00041061,0.00100987,-0.00187600,0.18899227,-0.00018216,0.
 00026485,-0.00000110,-0.00138728,0.00039894,-0.00034999,0.00012858,-0.
 00014870,-0.00035690,0.00002495,-0.00005849,0.00005923,0.00001079,0.00
 006534,0.00000559,-0.00001020,-0.00001387,-0.00000129,-0.00000878,-0.0
 0004903,-0.00001564,0.00001544,0.00003956,-0.00002754,-0.00004974,0.00
 001805,-0.00002288,-0.00003645,-0.00002690,-0.00001410,0.00004329,0.00
 002995,0.00004407,0.00003160,-0.00004633,0.00007293,0.00010475,0.00008
 299,-0.00000411,-0.01137908,0.00261064,0.01720920,0.03460727,-0.061788
 79,-0.03749165,-0.00492661,0.00268238,0.00327663,0.00002090,-0.0000298
 4,0.00015307,-0.00001974,0.00000249,-0.00001397,-0.00000145,0.00000306
 ,-0.00000057,-0.00000982,-0.00001257,0.00002321,0.00000790,-0.00001721
 ,0.00000804,0.00001491,-0.00000861,-0.00000136,-0.00004914,-0.00006447
 ,-0.00002618,-0.00002897,-0.00000701,-0.00013721,-0.00065699,0.0009163
 8,-0.00086182,0.00069973,-0.00133811,0.00370489,-0.03712980,0.06028926
 ,-0.00108481,-0.00070481,-0.00004021,0.00323228,0.00040181,0.00022276,
 -0.00109285,0.00031157,0.00028925,0.00001667,0.00008764,-0.00006780,0.
 00001888,0.00005877,-0.00003230,-0.00002048,-0.00000497,0.,-0.00005262
 ,-0.00004452,0.00002854,0.00000339,0.00002816,-0.00008217,-0.00002605,
 0.00012083,-0.00005410,-0.00000437,-0.00000839,0.00005381,0.00003639,0
 .00001735,0.00002728,-0.00003738,-0.00009240,0.00008573,0.00012137,0.0
 0002990,0.00006685,0.01492401,-0.00393415,-0.02176163,0.12644885,-0.03
 733292,-0.17825164,-0.01366534,0.00436793,0.01188332,0.00011240,0.0000
 3193,-0.00021358,0.00002235,0.00000131,-0.00000292,0.00000817,-0.00000
 356,-0.00001057,-0.00001100,-0.00001068,0.00002902,-0.00001628,-0.0000
 0034,0.00000236,-0.00000649,-0.00000763,-0.00000561,-0.00002351,-0.000
 03503,-0.00000974,0.00002788,-0.00003035,-0.00023778,-0.00011002,0.000
 19773,0.00134712,-0.00161323,0.00331599,-0.00322120,-0.12932169,0.0354
 1903,0.19445961,-0.00048516,-0.00101107,0.00008913,0.00040583,0.002112
 98,0.00058053,0.00012213,-0.00045092,-0.00030179,0.00003216,-0.0000409
 6,-0.00000521,0.00002075,0.00008992,-0.00003259,-0.00001228,-0.0000180
 6,0.00000307,-0.00003166,-0.00006666,0.00001225,0.00001522,0.00001938,
 -0.00000524,-0.00005276,0.00006954,-0.00000469,0.00000089,-0.00004917,
 -0.00003165,0.00005386,-0.00001814,-0.00003058,-0.00004583,-0.00001919
 ,0.00013501,0.00009980,0.00003097,-0.00005202,0.00103856,0.00454768,0.
 00160564,-0.05033399,-0.01138016,0.00075225,-0.00807981,-0.03349648,-0
 .01578636,0.00014357,-0.00004344,0.00009833,-0.00004367,0.00002011,-0.
 00002413,0.00000209,0.00000106,-0.00000372,-0.00000273,-0.00000565,0.0
 0000999,0.00000708,-0.00001182,0.00000351,0.00001100,-0.00000799,-0.00
 000287,-0.00004129,-0.00004925,0.00000169,-0.00017563,0.00003274,-0.00
 008764,0.00012916,0.00042852,-0.00152091,0.00031811,-0.00056954,-0.000
 27344,0.00251583,0.02183779,0.00525241,0.05934498,-0.00043595,0.002622
 70,-0.00063424,-0.00156900,-0.00338802,-0.00121868,0.00017513,0.000436
 37,0.00020662,-0.00002048,0.00006017,-0.00013014,-0.00007980,-0.000098
 68,-0.00000573,0.00004316,0.00002219,0.00003685,0.00007104,0.00008312,
 0.00000205,0.00001493,-0.00001926,0.00003738,0.00004635,-0.00005923,0.
 00001428,-0.00000105,0.00002623,0.00002355,-0.00003999,0.00001991,0.00
 001158,0.00001605,0.00002807,-0.00009648,-0.00007759,-0.00003341,0.000
 03901,0.00157342,-0.02009784,-0.00133091,-0.01674497,-0.29345217,-0.06
 484608,-0.00320931,-0.00161132,-0.00292166,-0.00016779,0.00016033,0.00
 001879,0.00005556,-0.00000170,0.00003625,-0.00000524,-0.00000131,-0.00
 000340,0.00001621,0.00000671,-0.00002058,-0.00000833,0.00000854,-0.000
 00144,-0.00000789,0.00000493,0.00000316,0.00002094,0.00003519,0.000002
 95,0.00012236,-0.00000322,0.00003848,0.00044143,-0.00056722,0.00314891
 ,-0.00035822,0.00100456,-0.00014407,0.00058919,-0.00462802,-0.00163120
 ,0.02043101,0.31759382,0.00031212,-0.00126657,-0.00045778,0.00076953,0
 .00218897,0.00144455,-0.00024100,-0.00045167,0.00000904,0.00000212,-0.
 00009501,0.00006809,0.00007446,0.00006378,0.00002558,-0.00003615,-0.00
 001497,-0.00003957,-0.00005516,-0.00004113,-0.00000514,-0.00004001,-0.
 00002574,-0.00002412,-0.00001087,0.00006131,0.00000388,0.00002549,0.00
 002953,-0.00001425,-0.00000153,-0.00002380,-0.00004098,-0.00001291,-0.
 00006326,0.00001753,0.00000211,-0.00002436,-0.00003239,-0.00004428,0.0
 2862893,0.00349386,-0.00174976,-0.06472602,-0.06512012,-0.00429053,-0.
 01464354,-0.00601626,0.00035167,-0.00012588,-0.00001486,-0.00006454,0.
 00001076,-0.00002500,0.00000454,-0.00000030,0.00000661,-0.00001368,0.0
 0000426,0.00000110,0.00000609,0.00000448,-0.00000859,-0.00000576,0.000
 00577,-0.00000332,0.00004055,0.00004064,0.00001801,-0.00011834,-0.0000
 2445,0.00012423,-0.00163096,0.00350276,-0.00412068,0.00055180,-0.00058
 852,0.00155473,-0.00159136,-0.02161260,-0.00541296,0.01038503,0.068607
 49,0.07365591,0.00012796,0.00078210,-0.00009156,-0.00042417,-0.0007284
 0,-0.00006523,0.00001173,0.00014377,0.00012493,-0.00004108,0.00000631,
 -0.00003647,-0.00004054,-0.00001019,-0.00004741,0.00003353,-0.00000087
 ,0.00004016,0.00002454,0.00001276,0.00002980,0.00000166,-0.00001142,0.
 00000310,0.00002221,-0.00000906,-0.00000066,0.00000370,0.00001961,0.00
 001633,-0.00000051,0.00001375,0.00001079,0.00001192,-0.00000962,-0.000
 03064,-0.00001391,-0.00000431,0.00001145,0.00103995,-0.00095095,0.0006
 0019,-0.00433555,-0.03665521,-0.01193201,-0.06692202,-0.03846080,-0.00
 803862,-0.00004154,0.00003210,-0.00008927,0.00001571,0.00000419,0.0000
 1184,-0.00000397,0.00000147,-0.00000814,0.00000723,0.00000522,-0.00000
 291,-0.00000869,0.00000582,-0.00000395,-0.00001105,-0.00000005,-0.0000
 0196,0.00000678,0.00000936,-0.00000283,0.00001987,-0.00002164,0.000019
 71,-0.00003373,0.00092763,-0.00045508,-0.00001852,0.00019964,-0.000033
 14,0.00082855,0.00008799,0.00080521,-0.00608981,-0.00048611,-0.0027996
 0,0.07130780,0.00005479,0.00012691,0.00000527,0.00023318,-0.00029913,0
 .00027943,-0.00004329,0.00006960,0.00001638,0.00005866,-0.00000824,0.0
 0001969,0.00003448,0.00000464,0.00003510,-0.00002866,0.00000321,-0.000
 03105,-0.00002421,-0.00000386,-0.00001891,0.00000107,0.00000232,-0.000
 00975,0.00000564,-0.00001436,-0.00000806,-0.00000276,0.00000926,-0.000
 00151,-0.00000789,-0.00000008,0.00002590,0.00001595,-0.00000226,-0.000
 03081,-0.00002765,0.00000395,0.00002543,0.00110603,0.00242702,0.000319
 60,0.00209710,-0.00582017,0.00449434,-0.04302431,-0.38315162,-0.144416
 88,0.00003635,-0.00001161,0.00000524,-0.00000338,-0.00000234,-0.000002
 40,0.00000467,-0.00000188,0.00000485,-0.00000621,-0.00000241,0.0000037
 2,0.00000150,0.00000031,0.00000078,-0.00000110,0.00000192,-0.00000093,
 0.00000602,0.00000517,-0.00000293,0.00003453,-0.00000064,-0.00000141,-
 0.00020316,0.00010018,-0.00073824,-0.00000394,-0.00009045,-0.00007846,
 -0.00031755,0.00010128,0.00014949,-0.00204586,0.00181634,0.00006000,0.
 04515877,0.39432304,0.00070029,0.00086330,0.00023657,-0.00171989,-0.00
 033621,-0.00012347,0.00075436,-0.00019294,-0.00001829,-0.00020858,-0.0
 0007196,-0.00016321,-0.00012282,0.00003683,-0.00016598,0.00011989,-0.0
 0003122,0.00013523,0.00010527,-0.00002357,0.00007103,0.00000369,-0.000
 01426,0.00009555,-0.00001709,0.00005889,0.00005851,0.00000165,-0.00001
 080,-0.00000259,0.00002151,0.00000923,-0.00012495,-0.00003913,-0.00002
 798,0.00010472,0.00012575,-0.00002575,-0.00013380,0.00191580,-0.001944
 21,0.00109344,-0.00580000,-0.01417498,-0.00858690,-0.00378823,-0.09793
 147,-0.05090870,-0.00012633,0.00010102,0.00005354,-0.00000144,0.000027
 03,0.00000951,-0.00002149,0.00001060,-0.00001149,0.00004407,0.00001709
 ,-0.00003449,-0.00000180,-0.00000092,-0.00000738,0.00000842,-0.0000023
 1,0.00000458,0.00000303,0.00000440,0.00000716,-0.00016821,-0.00005948,
 0.00010695,-0.00044616,0.00065284,-0.00023697,-0.00006250,-0.00001222,
 -0.00037717,0.00044548,0.00080492,0.00050751,-0.00154650,0.00064763,0.
 00055949,0.01314374,0.13654758,0.06818021,0.00033608,0.00026951,0.0000
 1776,-0.00025286,-0.00061221,-0.00009355,0.00056228,-0.00003463,0.0001
 0600,-0.00008434,-0.00009498,-0.00002154,-0.00003674,0.00002738,-0.000
 07516,0.00005618,-0.00001964,0.00006841,0.00004416,-0.00000973,0.00003
 489,-0.00000308,-0.00001591,0.00004450,0.00000215,0.00000092,0.0000313
 6,0.00000537,-0.00000049,-0.00000808,0.00000192,0.00000041,-0.00004945
 ,-0.00000853,0.00000852,0.00002118,0.00001980,-0.00001877,-0.00005505,
 0.00174738,0.00056061,0.00103081,-0.02738912,0.00673756,0.02491057,-0.
 24926001,0.05878776,0.16788371,-0.00005036,0.00003540,0.00001923,-0.00
 000546,0.00000833,0.00000457,-0.00000887,0.00000502,-0.00000431,0.0000
 1887,0.00000982,-0.00001802,0.00000077,0.00000162,-0.00000541,0.000000
 54,0.00000051,0.00000130,0.00000625,0.00000996,0.00000501,-0.00007220,
 -0.00001857,0.00007992,-0.00004275,0.00010216,-0.00014297,0.00002058,0
 .00054885,-0.00125355,-0.00486185,-0.00175969,-0.00394413,0.00113359,-
 0.00040506,0.00018092,0.00452192,-0.00310879,-0.00332275,0.27359835,-0
 .00024620,-0.00053809,-0.00019492,0.00056357,0.00074763,0.00047227,-0.
 00040572,-0.00009730,-0.00012975,0.00010992,0.00008131,0.00006635,0.00
 008721,-0.00002328,0.00012083,-0.00008694,0.00001926,-0.00010803,-0.00
 007237,0.00000522,-0.00005147,0.00000505,0.00000862,-0.00003499,0.0000
 0167,-0.00004334,-0.00002016,0.00000130,-0.00001105,-0.00001179,-0.000
 01986,-0.00003194,0.00004501,0.00000464,0.00006007,-0.00005071,-0.0000
 8165,-0.00000438,0.00004175,-0.00025121,-0.00031183,-0.00125592,-0.002
 00614,0.00126604,0.00750316,0.03627941,-0.05568897,-0.06231185,0.00005
 716,-0.00007093,0.00000098,-0.00000368,-0.00000662,-0.00000523,0.00001
 328,-0.00000421,0.00001177,-0.00002405,-0.00000768,0.00001498,0.000004
 66,-0.00000249,0.00000686,0.00000489,0.00000158,0.00000125,-0.00000280
 ,0.00000205,0.00000383,0.00008236,0.00006555,-0.00001817,0.00019496,-0
 .00014480,-0.00000742,0.00015378,0.00022692,0.00024452,-0.00294816,0.0
 0073277,-0.00069853,-0.00033734,0.00003224,0.00051912,0.02993817,-0.00
 958611,-0.02492104,-0.06101590,0.06332374,0.00027695,0.00018768,0.0000
 4643,-0.00056611,-0.00025623,-0.00048494,0.00032815,-0.00003210,0.0000
 7125,-0.00009837,-0.00006300,-0.00000164,-0.00005053,0.00003588,-0.000
 08188,0.00006015,-0.00002120,0.00007277,0.00004608,-0.00001854,0.00003
 783,-0.00001000,-0.00001161,0.00001947,-0.00000105,0.00002425,0.000018
 06,0.00000247,0.00000570,0.00000303,0.00001654,0.00001402,-0.00003586,
 -0.00000462,-0.00002490,0.00003549,0.00004689,-0.00000276,-0.00004004,
 -0.00135331,-0.00001473,0.00227646,-0.01786668,0.00717493,0.00700275,0
 .19703154,-0.09116690,-0.19575376,-0.00003633,0.00004317,-0.00000495,-
 0.00000335,0.00000385,0.00000377,-0.00001072,0.00000590,-0.00000720,0.
 00001388,0.00000660,-0.00000926,-0.00000142,0.00000097,-0.00000638,-0.
 00000371,-0.00000152,-0.00000115,0.00000028,-0.00000028,0.00000022,-0.
 00006851,-0.00003183,0.00003828,0.00007299,0.00000252,-0.00010582,0.00
 047081,-0.00024348,-0.00033552,-0.00244857,0.00015809,0.00040106,0.000
 78052,0.00010965,0.00035341,0.00882220,0.00334855,-0.01032858,-0.18544
 616,0.08076734,0.19681670\\0.00001675,0.00002661,0.00001497,-0.0000222
 6,-0.00001279,-0.00000491,0.00000305,-0.00000454,-0.00000569,0.0000039
 5,-0.00000398,0.00000210,0.00001583,0.00002699,0.00000813,0.00000817,0
 .00001317,-0.00000272,-0.00002378,-0.00003464,-0.00000654,-0.00000353,
 0.00000646,-0.00000198,-0.00000072,-0.00000253,0.00001107,0.00000209,0
 .00000441,-0.00000543,0.00001023,0.00000023,-0.00001949,-0.00000425,-0
 .00000173,0.00000279,-0.00000628,-0.00000197,-0.00000226,-0.00000453,0
 .00000958,-0.00000602,-0.00000914,-0.00001718,0.00000276,0.00000403,0.
 00001680,-0.00001284,-0.00000029,-0.00000542,0.00000299,-0.00000372,0.
 00000628,0.00000145,-0.00000150,-0.00000656,0.00000147,0.00000575,-0.0
 0000100,0.00000343,0.00000021,-0.00000709,-0.00000211,0.00000486,-0.00
 000505,-0.00000376,-0.00000287,0.00000724,-0.00000132,0.00000427,0.000
 00996,0.00001203,0.00000379,-0.00001270,0.00000190,-0.00000513,-0.0000
 0754,0.00000339,0.00000470,0.00000392,-0.00000336,0.00000310,0.0000074
 0,-0.00000416,-0.00000094,-0.00000744,0.00000734,-0.00000183,-0.000006
 90,0.00000677\\\@


 GOD GAVE US TWO ENDS... ONE TO SIT ON...    
 AND THE OTHER TO THINK WITH...              
 YOUR SUCCESS DEPENDS UPON WHICH END YOU     
 USE THE MOST...                             
                                             
 IT'S A CASE OF HEADS YOU WIN TAILS YOU LOSE.
          SOURCE UNKNOWN(IT'S JUST AS WELL.) 
 Job cpu time:       1 days  1 hours 35 minutes 36.2 seconds.
 File lengths (MBytes):  RWF=   1142 Int=      0 D2E=      0 Chk=     44 Scr=      1
 Normal termination of Gaussian 09 at Thu Jul 29 10:16:09 2021.
