 Entering Gaussian System, Link 0=g09
 Input=opt_freq-conf-150.com
 Output=opt_freq-conf-150.log
 Initial command:
 /aerosol/software/g09/l1.exe "/scratch/nicole/10726/Gau-84943.inp" -scrdir="/scratch/nicole/10726/"
 Entering Link 1 = /aerosol/software/g09/l1.exe PID=     84946.
  
 Copyright (c) 1988,1990,1992,1993,1995,1998,2003,2009,2013,
            Gaussian, Inc.  All Rights Reserved.
  
 This is part of the Gaussian(R) 09 program.  It is based on
 the Gaussian(R) 03 system (copyright 2003, Gaussian, Inc.),
 the Gaussian(R) 98 system (copyright 1998, Gaussian, Inc.),
 the Gaussian(R) 94 system (copyright 1995, Gaussian, Inc.),
 the Gaussian 92(TM) system (copyright 1992, Gaussian, Inc.),
 the Gaussian 90(TM) system (copyright 1990, Gaussian, Inc.),
 the Gaussian 88(TM) system (copyright 1988, Gaussian, Inc.),
 the Gaussian 86(TM) system (copyright 1986, Carnegie Mellon
 University), and the Gaussian 82(TM) system (copyright 1983,
 Carnegie Mellon University). Gaussian is a federally registered
 trademark of Gaussian, Inc.
  
 This software contains proprietary and confidential information,
 including trade secrets, belonging to Gaussian, Inc.
  
 This software is provided under written license and may be
 used, copied, transmitted, or stored only in accord with that
 written license.
  
 The following legend is applicable only to US Government
 contracts under FAR:
  
                    RESTRICTED RIGHTS LEGEND
  
 Use, reproduction and disclosure by the US Government is
 subject to restrictions as set forth in subparagraphs (a)
 and (c) of the Commercial Computer Software - Restricted
 Rights clause in FAR 52.227-19.
  
 Gaussian, Inc.
 340 Quinnipiac St., Bldg. 40, Wallingford CT 06492
  
  
 ---------------------------------------------------------------
 Warning -- This program may not be used in any manner that
 competes with the business of Gaussian, Inc. or will provide
 assistance to any competitor of Gaussian, Inc.  The licensee
 of this program is prohibited from giving any competitor of
 Gaussian, Inc. access to this program.  By using this program,
 the user acknowledges that Gaussian, Inc. is engaged in the
 business of creating and licensing software in the field of
 computational chemistry and represents and warrants to the
 licensee that it is not a competitor of Gaussian, Inc. and that
 it will not use this program in any manner prohibited above.
 ---------------------------------------------------------------
  

 Cite this work as:
 Gaussian 09, Revision D.01,
 M. J. Frisch, G. W. Trucks, H. B. Schlegel, G. E. Scuseria, 
 M. A. Robb, J. R. Cheeseman, G. Scalmani, V. Barone, B. Mennucci, 
 G. A. Petersson, H. Nakatsuji, M. Caricato, X. Li, H. P. Hratchian, 
 A. F. Izmaylov, J. Bloino, G. Zheng, J. L. Sonnenberg, M. Hada, 
 M. Ehara, K. Toyota, R. Fukuda, J. Hasegawa, M. Ishida, T. Nakajima, 
 Y. Honda, O. Kitao, H. Nakai, T. Vreven, J. A. Montgomery, Jr., 
 J. E. Peralta, F. Ogliaro, M. Bearpark, J. J. Heyd, E. Brothers, 
 K. N. Kudin, V. N. Staroverov, T. Keith, R. Kobayashi, J. Normand, 
 K. Raghavachari, A. Rendell, J. C. Burant, S. S. Iyengar, J. Tomasi, 
 M. Cossi, N. Rega, J. M. Millam, M. Klene, J. E. Knox, J. B. Cross, 
 V. Bakken, C. Adamo, J. Jaramillo, R. Gomperts, R. E. Stratmann, 
 O. Yazyev, A. J. Austin, R. Cammi, C. Pomelli, J. W. Ochterski, 
 R. L. Martin, K. Morokuma, V. G. Zakrzewski, G. A. Voth, 
 P. Salvador, J. J. Dannenberg, S. Dapprich, A. D. Daniels, 
 O. Farkas, J. B. Foresman, J. V. Ortiz, J. Cioslowski, 
 and D. J. Fox, Gaussian, Inc., Wallingford CT, 2013.
 
 ******************************************
 Gaussian 09:  ES64L-G09RevD.01 24-Apr-2013
                29-Jul-2021 
 ******************************************
 %mem=2gb
 %nproc=4
 Will use up to    4 processors via shared memory.
 %chk=conf-150.chk
 ----------------------------------------------------------------------
 # B3LYP/6-311++G(2df,2pd) guess=read geom=checkpoint opt=readfc freq=n
 oraman nosymm integral(ultrafinegrid)
 ----------------------------------------------------------------------
 1/10=3,14=-1,18=20,19=15,26=4,29=2,38=1/1,3;
 2/9=110,12=2,15=1,40=1/2;
 3/5=4,6=6,7=1414,11=2,14=-4,16=1,25=1,30=1,71=1,74=-5,75=-5,116=-2/1,2,3;
 4/5=1/1;
 5/5=2,38=6/2;
 6/7=2,8=2,9=2,10=2,28=1/1;
 7/30=1/1,2,3,16;
 1/14=-1,18=20,19=15,26=4/3(2);
 2/9=110,15=1/2;
 99//99;
 2/9=110,15=1/2;
 3/5=4,6=6,7=1414,11=2,14=-2,16=1,25=1,30=1,71=1,74=-5,75=-5/1,2,3;
 4/5=5,16=3,69=1/1;
 5/5=2,38=5/2;
 7/30=1/1,2,3,16;
 1/14=-1,18=20,19=15,26=4/3(-5);
 2/9=110,15=1/2;
 6/7=2,8=2,9=2,10=2,19=2,28=1/1;
 99/9=1/99;
 ------------------------------------------------------------
 Candidate Structure: Conf:150 OPT and FREQ calc in gas phase
 ------------------------------------------------------------
 Structure from the checkpoint file:  "conf-150.chk"
 Charge =  0 Multiplicity = 1
 Redundant internal coordinates found in file.
 O,0,-1.1375417553,-1.878698182,-0.7840343718
 C,0,-1.2957018391,-0.7370289833,-0.363771612
 N,0,-0.3734061724,-0.135528549,0.4549303386
 C,0,0.7224193224,-0.9058683419,1.0213966535
 C,0,1.1075742482,-0.2545726232,2.3409736559
 O,0,2.0994164602,-0.9208099903,2.958810739
 O,0,0.5894163686,0.7440232634,2.7945245313
 C,0,1.9388990327,-1.0327227298,0.0623617403
 C,0,2.6384709757,0.2539450211,-0.2323339158
 C,0,3.8842590656,0.7275128993,0.1124112487
 N,0,4.0967642319,1.9923173475,-0.389331969
 C,0,2.9903882554,2.29344406,-1.0334127601
 N,0,2.0767351743,1.2787696596,-0.9745337284
 C,0,-2.485437119,0.1296895076,-0.7594246876
 C,0,-3.7411423772,-0.7043244379,-1.0230002876
 N,0,-4.7959644539,0.1434223903,-1.5854467954
 H,0,-0.6195083568,0.7011168012,0.9711163327
 H,0,0.3691449188,-1.9243695438,1.2277248143
 H,0,2.3026805602,-0.4286651648,3.7724803672
 H,0,1.5600274186,-1.5073727831,-0.8492151685
 H,0,2.6572420864,-1.7233765388,0.5113269123
 H,0,4.6415064822,0.2149110439,0.6902740261
 H,0,2.7935363556,3.21862548,-1.5576502109
 H,0,1.1433422859,1.2756196872,-1.3563845668
 H,0,-2.2332654894,0.6665198104,-1.6829445607
 H,0,-2.6763688307,0.8954628234,0.0036438126
 H,0,-3.4849234459,-1.4773518558,-1.7521590196
 H,0,-4.0253225348,-1.2324094721,-0.0965366152
 H,0,-5.1659826485,0.7624388345,-0.8667480683
 H,0,-5.5769466599,-0.4351100334,-1.8845095148
 Recover connectivity data from disk.

 GradGradGradGradGradGradGradGradGradGradGradGradGradGradGradGradGradGrad
 Berny optimization.
 Initialization pass.
 Force constant matrix read from checkpoint file:
 "conf-150.chk"
                           ----------------------------
                           !    Initial Parameters    !
                           ! (Angstroms and Degrees)  !
 --------------------------                            --------------------------
 ! Name  Definition              Value          Derivative Info.                !
 --------------------------------------------------------------------------------
 ! R1    R(1,2)                  1.2268         D2E/DX2 =    0.795              !
 ! R2    R(2,3)                  1.3721         D2E/DX2 =    0.4314             !
 ! R3    R(2,14)                 1.5242         D2E/DX2 =    0.2715             !
 ! R4    R(3,4)                  1.4544         D2E/DX2 =    0.3419             !
 ! R5    R(3,17)                 1.0134         D2E/DX2 =    0.4586             !
 ! R6    R(4,5)                  1.5211         D2E/DX2 =    0.2829             !
 ! R7    R(4,8)                  1.5542         D2E/DX2 =    0.2489             !
 ! R8    R(4,18)                 1.0976         D2E/DX2 =    0.3302             !
 ! R9    R(5,6)                  1.3451         D2E/DX2 =    0.4225             !
 ! R10   R(5,7)                  1.213          D2E/DX2 =    0.8567             !
 ! R11   R(6,19)                 0.9724         D2E/DX2 =    0.5071             !
 ! R12   R(8,9)                  1.4939         D2E/DX2 =    0.318              !
 ! R13   R(8,20)                 1.0954         D2E/DX2 =    0.3361             !
 ! R14   R(8,21)                 1.093          D2E/DX2 =    0.343              !
 ! R15   R(9,10)                 1.3766         D2E/DX2 =    0.4075             !
 ! R16   R(9,13)                 1.3844         D2E/DX2 =    0.3604             !
 ! R17   R(10,11)                1.3772         D2E/DX2 =    0.3355             !
 ! R18   R(10,22)                1.0817         D2E/DX2 =    0.3714             !
 ! R19   R(11,12)                1.3151         D2E/DX2 =    0.4626             !
 ! R20   R(12,13)                1.3667         D2E/DX2 =    0.3615             !
 ! R21   R(12,23)                1.0815         D2E/DX2 =    0.3734             !
 ! R22   R(13,24)                1.0085         D2E/DX2 =    0.4783             !
 ! R23   R(14,15)                1.5303         D2E/DX2 =    0.2807             !
 ! R24   R(14,25)                1.0976         D2E/DX2 =    0.3322             !
 ! R25   R(14,26)                1.0978         D2E/DX2 =    0.3298             !
 ! R26   R(15,16)                1.4655         D2E/DX2 =    0.3307             !
 ! R27   R(15,27)                1.0931         D2E/DX2 =    0.3421             !
 ! R28   R(15,28)                1.1036         D2E/DX2 =    0.3125             !
 ! R29   R(16,29)                1.0181         D2E/DX2 =    0.4423             !
 ! R30   R(16,30)                1.0169         D2E/DX2 =    0.4474             !
 ! A1    A(1,2,3)              121.7152         D2E/DX2 =    0.2039             !
 ! A2    A(1,2,14)             122.7437         D2E/DX2 =    0.1706             !
 ! A3    A(3,2,14)             115.4851         D2E/DX2 =    0.1688             !
 ! A4    A(2,3,4)              120.4423         D2E/DX2 =    0.1455             !
 ! A5    A(2,3,17)             120.172          D2E/DX2 =    0.0864             !
 ! A6    A(4,3,17)             114.9532         D2E/DX2 =    0.0932             !
 ! A7    A(3,4,5)              107.5707         D2E/DX2 =    0.0942             !
 ! A8    A(3,4,8)              113.1183         D2E/DX2 =    0.0899             !
 ! A9    A(3,4,18)             108.7967         D2E/DX2 =    0.0303             !
 ! A10   A(5,4,8)              111.8424         D2E/DX2 =    0.0821             !
 ! A11   A(5,4,18)             108.4052         D2E/DX2 =    0.0236             !
 ! A12   A(8,4,18)             106.9881         D2E/DX2 =    0.0322             !
 ! A13   A(4,5,6)              111.9064         D2E/DX2 =    0.169              !
 ! A14   A(4,5,7)              124.6588         D2E/DX2 =    0.1778             !
 ! A15   A(6,5,7)              123.4347         D2E/DX2 =    0.2031             !
 ! A16   A(5,6,19)             106.7259         D2E/DX2 =    0.1743             !
 ! A17   A(4,8,9)              114.7048         D2E/DX2 =    0.1489             !
 ! A18   A(4,8,20)             106.1505         D2E/DX2 =    0.0598             !
 ! A19   A(4,8,21)             108.2111         D2E/DX2 =    0.06               !
 ! A20   A(9,8,20)             111.7787         D2E/DX2 =    0.05               !
 ! A21   A(9,8,21)             108.5119         D2E/DX2 =    0.0516             !
 ! A22   A(20,8,21)            107.1793         D2E/DX2 =    0.0199             !
 ! A23   A(8,9,10)             132.118          D2E/DX2 =    0.0966             !
 ! A24   A(8,9,13)             123.594          D2E/DX2 =    0.1063             !
 ! A25   A(10,9,13)            104.2877         D2E/DX2 =    0.1022             !
 ! A26   A(9,10,11)            111.3667         D2E/DX2 =    0.1146             !
 ! A27   A(9,10,22)            127.1765         D2E/DX2 =    0.0821             !
 ! A28   A(11,10,22)           121.4542         D2E/DX2 =    0.0897             !
 ! A29   A(10,11,12)           105.0049         D2E/DX2 =    0.131              !
 ! A30   A(11,12,13)           111.7963         D2E/DX2 =    0.1187             !
 ! A31   A(11,12,23)           125.9034         D2E/DX2 =    0.0895             !
 ! A32   A(13,12,23)           122.3002         D2E/DX2 =    0.0903             !
 ! A33   A(9,13,12)            107.5436         D2E/DX2 =    0.1028             !
 ! A34   A(9,13,24)            125.1847         D2E/DX2 =    0.0775             !
 ! A35   A(12,13,24)           127.211          D2E/DX2 =    0.0769             !
 ! A36   A(2,14,15)            112.0427         D2E/DX2 =    0.1396             !
 ! A37   A(2,14,25)            108.4938         D2E/DX2 =    0.0425             !
 ! A38   A(2,14,26)            110.6086         D2E/DX2 =    0.0543             !
 ! A39   A(15,14,25)           108.0691         D2E/DX2 =    0.052              !
 ! A40   A(15,14,26)           110.9268         D2E/DX2 =    0.0576             !
 ! A41   A(25,14,26)           106.478          D2E/DX2 =    0.0208             !
 ! A42   A(14,15,16)           109.9654         D2E/DX2 =    0.1521             !
 ! A43   A(14,15,27)           107.9368         D2E/DX2 =    0.056              !
 ! A44   A(14,15,28)           109.1163         D2E/DX2 =    0.0631             !
 ! A45   A(16,15,27)           108.771          D2E/DX2 =    0.0492             !
 ! A46   A(16,15,28)           114.4342         D2E/DX2 =    0.0575             !
 ! A47   A(27,15,28)           106.3761         D2E/DX2 =    0.0219             !
 ! A48   A(15,16,29)           110.0212         D2E/DX2 =    0.148              !
 ! A49   A(15,16,30)           109.6673         D2E/DX2 =    0.1433             !
 ! A50   A(29,16,30)           105.9251         D2E/DX2 =    0.0564             !
 ! D1    D(1,2,3,4)             -9.6655         D2E/DX2 =    0.0126             !
 ! D2    D(1,2,3,17)          -164.8524         D2E/DX2 =    0.0108             !
 ! D3    D(14,2,3,4)           172.9859         D2E/DX2 =    0.011              !
 ! D4    D(14,2,3,17)           17.799          D2E/DX2 =    0.0079             !
 ! D5    D(1,2,14,15)           31.6892         D2E/DX2 =    0.0136             !
 ! D6    D(1,2,14,25)          -87.5379         D2E/DX2 =    0.0153             !
 ! D7    D(1,2,14,26)          156.0183         D2E/DX2 =    0.0153             !
 ! D8    D(3,2,14,15)         -150.9924         D2E/DX2 =    0.0135             !
 ! D9    D(3,2,14,25)           89.7805         D2E/DX2 =    0.0141             !
 ! D10   D(3,2,14,26)          -26.6632         D2E/DX2 =    0.0157             !
 ! D11   D(2,3,4,5)           -151.5347         D2E/DX2 =    0.0137             !
 ! D12   D(2,3,4,8)             84.4424         D2E/DX2 =    0.0133             !
 ! D13   D(2,3,4,18)           -34.3009         D2E/DX2 =    0.0088             !
 ! D14   D(17,3,4,5)             4.8772         D2E/DX2 =    0.0142             !
 ! D15   D(17,3,4,8)          -119.1456         D2E/DX2 =    0.0131             !
 ! D16   D(17,3,4,18)          122.111          D2E/DX2 =    0.0103             !
 ! D17   D(3,4,5,6)            178.5164         D2E/DX2 =    0.0234             !
 ! D18   D(3,4,5,7)             -1.3606         D2E/DX2 =    0.0223             !
 ! D19   D(8,4,5,6)            -56.6899         D2E/DX2 =    0.0204             !
 ! D20   D(8,4,5,7)            123.4331         D2E/DX2 =    0.0193             !
 ! D21   D(18,4,5,6)            61.0279         D2E/DX2 =    0.0158             !
 ! D22   D(18,4,5,7)          -118.849          D2E/DX2 =    0.0145             !
 ! D23   D(3,4,8,9)             65.6652         D2E/DX2 =    0.0193             !
 ! D24   D(3,4,8,20)           -58.2805         D2E/DX2 =    0.0189             !
 ! D25   D(3,4,8,21)          -173.0512         D2E/DX2 =    0.019              !
 ! D26   D(5,4,8,9)            -55.9861         D2E/DX2 =    0.0182             !
 ! D27   D(5,4,8,20)          -179.9318         D2E/DX2 =    0.0186             !
 ! D28   D(5,4,8,21)            65.2975         D2E/DX2 =    0.0179             !
 ! D29   D(18,4,8,9)          -174.5493         D2E/DX2 =    0.0139             !
 ! D30   D(18,4,8,20)           61.5049         D2E/DX2 =    0.0132             !
 ! D31   D(18,4,8,21)          -53.2658         D2E/DX2 =    0.0132             !
 ! D32   D(4,5,6,19)           178.2789         D2E/DX2 =    0.0163             !
 ! D33   D(7,5,6,19)            -1.8424         D2E/DX2 =    0.0162             !
 ! D34   D(4,8,9,10)           111.3557         D2E/DX2 =    0.0112             !
 ! D35   D(4,8,9,13)           -68.4107         D2E/DX2 =    0.0119             !
 ! D36   D(20,8,9,10)         -127.7452         D2E/DX2 =    0.0129             !
 ! D37   D(20,8,9,13)           52.4884         D2E/DX2 =    0.0132             !
 ! D38   D(21,8,9,10)           -9.763          D2E/DX2 =    0.0128             !
 ! D39   D(21,8,9,13)          170.4706         D2E/DX2 =    0.0132             !
 ! D40   D(8,9,10,11)         -179.7822         D2E/DX2 =    0.0096             !
 ! D41   D(8,9,10,22)            0.8092         D2E/DX2 =    0.0071             !
 ! D42   D(13,9,10,11)           0.017          D2E/DX2 =    0.0142             !
 ! D43   D(13,9,10,22)        -179.3916         D2E/DX2 =    0.0096             !
 ! D44   D(8,9,13,12)          179.6562         D2E/DX2 =    0.008              !
 ! D45   D(8,9,13,24)            2.3228         D2E/DX2 =    0.0026             !
 ! D46   D(10,9,13,12)          -0.165          D2E/DX2 =    0.0123             !
 ! D47   D(10,9,13,24)        -177.4984         D2E/DX2 =    0.0045             !
 ! D48   D(9,10,11,12)           0.1416         D2E/DX2 =    0.0175             !
 ! D49   D(22,10,11,12)        179.5892         D2E/DX2 =    0.0099             !
 ! D50   D(10,11,12,13)         -0.2511         D2E/DX2 =    0.0184             !
 ! D51   D(10,11,12,23)        179.8618         D2E/DX2 =    0.0102             !
 ! D52   D(11,12,13,9)           0.2708         D2E/DX2 =    0.0172             !
 ! D53   D(11,12,13,24)        177.5342         D2E/DX2 =    0.0078             !
 ! D54   D(23,12,13,9)        -179.8374         D2E/DX2 =    0.0102             !
 ! D55   D(23,12,13,24)         -2.574          D2E/DX2 =    0.0059             !
 ! D56   D(2,14,15,16)        -171.7787         D2E/DX2 =    0.0148             !
 ! D57   D(2,14,15,27)         -53.2598         D2E/DX2 =    0.0142             !
 ! D58   D(2,14,15,28)          61.9438         D2E/DX2 =    0.0141             !
 ! D59   D(25,14,15,16)        -52.3021         D2E/DX2 =    0.0155             !
 ! D60   D(25,14,15,27)         66.2168         D2E/DX2 =    0.0161             !
 ! D61   D(25,14,15,28)       -178.5797         D2E/DX2 =    0.0146             !
 ! D62   D(26,14,15,16)         64.0694         D2E/DX2 =    0.0154             !
 ! D63   D(26,14,15,27)       -177.4117         D2E/DX2 =    0.0146             !
 ! D64   D(26,14,15,28)        -62.2081         D2E/DX2 =    0.0158             !
 ! D65   D(14,15,16,29)        -72.0866         D2E/DX2 =    0.0155             !
 ! D66   D(14,15,16,30)        171.7867         D2E/DX2 =    0.0154             !
 ! D67   D(27,15,16,29)        169.9093         D2E/DX2 =    0.0184             !
 ! D68   D(27,15,16,30)         53.7827         D2E/DX2 =    0.0175             !
 ! D69   D(28,15,16,29)         51.1268         D2E/DX2 =    0.0184             !
 ! D70   D(28,15,16,30)        -64.9999         D2E/DX2 =    0.0182             !
 --------------------------------------------------------------------------------
 Trust Radius=3.00D-01 FncErr=1.00D-07 GrdErr=1.00D-06
 Number of steps in this run=    160 maximum allowed number of steps=    180.
 GradGradGradGradGradGradGradGradGradGradGradGradGradGradGradGradGradGrad

                          Input orientation:                          
 ---------------------------------------------------------------------
 Center     Atomic      Atomic             Coordinates (Angstroms)
 Number     Number       Type             X           Y           Z
 ---------------------------------------------------------------------
      1          8           0       -1.137542   -1.878698   -0.784034
      2          6           0       -1.295702   -0.737029   -0.363772
      3          7           0       -0.373406   -0.135529    0.454930
      4          6           0        0.722419   -0.905868    1.021397
      5          6           0        1.107574   -0.254573    2.340974
      6          8           0        2.099416   -0.920810    2.958811
      7          8           0        0.589416    0.744023    2.794525
      8          6           0        1.938899   -1.032723    0.062362
      9          6           0        2.638471    0.253945   -0.232334
     10          6           0        3.884259    0.727513    0.112411
     11          7           0        4.096764    1.992317   -0.389332
     12          6           0        2.990388    2.293444   -1.033413
     13          7           0        2.076735    1.278770   -0.974534
     14          6           0       -2.485437    0.129690   -0.759425
     15          6           0       -3.741142   -0.704324   -1.023000
     16          7           0       -4.795964    0.143422   -1.585447
     17          1           0       -0.619508    0.701117    0.971116
     18          1           0        0.369145   -1.924370    1.227725
     19          1           0        2.302681   -0.428665    3.772480
     20          1           0        1.560027   -1.507373   -0.849215
     21          1           0        2.657242   -1.723377    0.511327
     22          1           0        4.641506    0.214911    0.690274
     23          1           0        2.793536    3.218625   -1.557650
     24          1           0        1.143342    1.275620   -1.356385
     25          1           0       -2.233265    0.666520   -1.682945
     26          1           0       -2.676369    0.895463    0.003644
     27          1           0       -3.484923   -1.477352   -1.752159
     28          1           0       -4.025323   -1.232409   -0.096537
     29          1           0       -5.165983    0.762439   -0.866748
     30          1           0       -5.576947   -0.435110   -1.884510
 ---------------------------------------------------------------------
                    Distance matrix (angstroms):
                    1          2          3          4          5
     1  O    0.000000
     2  C    1.226802   0.000000
     3  N    2.271030   1.372117   0.000000
     4  C    2.768652   2.453571   1.454352   0.000000
     5  C    4.176602   3.650226   2.400965   1.521123   0.000000
     6  O    5.040272   4.753962   3.605681   2.376956   1.345119
     7  O    4.761002   3.965100   2.678496   2.425658   1.213009
     8  C    3.300992   3.275922   2.511140   1.554240   2.547291
     9  C    4.371592   4.059190   3.113748   2.566761   3.037128
    10  C    5.728388   5.404038   4.357737   3.673067   3.693367
    11  N    6.522155   6.043896   5.022244   4.666459   4.630156
    12  C    5.874416   5.291763   4.407968   4.427361   4.628592
    13  N    4.509708   3.976155   3.169669   3.254313   3.779286
    14  C    2.418894   1.524209   2.450648   3.812355   4.761287
    15  C    2.866181   2.532949   3.721486   4.913610   5.918501
    16  N    4.256206   3.810449   4.878522   6.192673   7.101193
    17  H    3.162967   2.075434   1.013405   2.094206   2.402637
    18  H    2.513835   2.591207   2.085317   1.097597   2.138416
    19  H    5.890633   5.491086   4.272412   3.208334   1.872912
    20  H    2.723786   2.997378   2.705719   2.136020   3.457098
    21  H    4.012788   4.167067   3.421881   2.161488   2.811843
    22  H    6.320932   6.104723   5.032648   4.089625   3.928600
    23  H    6.483407   5.813297   5.032927   5.287008   5.486788
    24  H    3.934430   3.314358   2.751859   3.254214   4.001653
    25  H    2.913209   2.142240   2.944973   4.303712   5.310512
    26  H    3.268699   2.169393   2.563248   3.978992   4.593900
    27  H    2.570709   2.695995   4.043918   5.071581   6.272157
    28  H    3.038029   2.787050   3.852760   4.888502   5.765783
    29  H    4.817757   4.180964   5.051927   6.404812   7.119080
    30  H    4.796176   4.553335   5.713104   6.953267   7.910128
                    6          7          8          9         10
     6  O    0.000000
     7  O    2.253610   0.000000
     8  C    2.903051   3.527413   0.000000
     9  C    3.442969   3.687909   1.493908   0.000000
    10  C    3.742275   4.248528   2.623997   1.376628   0.000000
    11  N    4.866803   4.898640   3.743164   2.274468   1.377184
    12  C    5.202221   4.776869   3.656465   2.219263   2.136366
    13  N    4.506647   4.087037   2.537154   1.384440   2.180017
    14  C    5.995807   4.739482   4.647718   5.152446   6.456820
    15  C    7.072044   5.951886   5.792126   6.499454   7.841305
    16  N    8.326412   6.967582   7.032565   7.557378   8.863981
    17  H    3.738198   2.188186   3.221410   3.501812   4.584975
    18  H    2.645303   3.102209   2.148775   3.467948   4.542294
    19  H    0.972410   2.294966   3.776533   4.076426   4.151415
    20  H    3.890509   4.391777   1.095358   2.155417   3.364743
    21  H    2.635424   3.946765   1.092973   2.112625   2.769759
    22  H    3.591426   4.596440   3.042195   2.205647   1.081716
    23  H    6.165643   5.470213   4.629126   3.251129   3.191304
    24  H    4.935513   4.221312   2.823862   2.131365   3.157595
    25  H    6.545047   5.293512   4.831198   5.099834   6.375824
    26  H    5.902540   4.298523   5.002204   5.358615   6.563679
    27  H    7.327198   6.496698   5.736552   6.542417   7.914727
    28  H    6.851618   5.793128   5.969679   6.828897   8.151468
    29  H    8.381781   6.821281   7.386826   7.846690   9.103123
    30  H    9.089566   7.829926   7.786873   8.408185   9.739291
                   11         12         13         14         15
    11  N    0.000000
    12  C    1.315137   0.000000
    13  N    2.220840   1.366672   0.000000
    14  C    6.850673   5.894198   4.709572   0.000000
    15  C    8.313013   7.368869   6.146764   1.530309   0.000000
    16  N    9.161317   8.096581   6.992584   2.453780   1.465493
    17  H    5.075554   4.425494   3.374754   2.608254   3.961864
    18  H    5.643621   5.456520   4.245693   4.039376   4.842389
    19  H    5.138149   5.565917   5.049805   6.616343   7.720131
    20  H    4.346764   4.065227   2.836421   4.365068   5.364465
    21  H    4.085314   4.316486   3.399655   5.612113   6.658224
    22  H    2.149760   3.165057   3.237504   7.273391   8.605179
    23  H    2.137101   1.081451   2.148690   6.168164   7.640511
    24  H    3.189286   2.133508   1.008485   3.851955   5.281052
    25  H    6.595487   5.509567   4.410533   1.097573   2.142063
    26  H    6.872616   5.928067   4.867828   1.097787   2.178775
    27  H    8.448544   7.527626   6.255634   2.137072   1.093111
    28  H    8.743734   7.907565   6.656727   2.160088   1.103615
    29  H    9.356228   8.300490   7.261899   2.756304   2.050848
    30  H   10.085070   9.031534   7.895840   3.338000   2.045691
                   16         17         18         19         20
    16  N    0.000000
    17  H    4.928471   0.000000
    18  H    6.234425   2.817173   0.000000
    19  H    8.912095   4.202765   3.528664   0.000000
    20  H    6.608010   3.597417   2.430178   4.803667   0.000000
    21  H    7.964401   4.102032   2.406037   3.526629   1.761140
    22  H    9.708237   5.290893   4.808165   3.922282   3.851208
    23  H    8.188905   4.937751   6.331381   6.477188   4.935431
    24  H    6.050595   2.975728   4.185324   5.527559   2.859352
    25  H    2.617358   3.106356   4.685856   7.178851   4.450841
    26  H    2.753808   2.281326   4.327237   6.383446   4.944496
    27  H    2.091299   4.513597   4.892175   8.069557   5.125206
    28  H    2.168791   4.059307   4.641532   7.460491   5.642541
    29  H    1.018147   4.904277   6.499492   8.872548   7.098702
    30  H    1.016893   5.832821   6.874584   9.700005   7.290952
                   21         22         23         24         25
    21  H    0.000000
    22  H    2.779620   0.000000
    23  H    5.359349   4.182159   0.000000
    24  H    3.843724   4.189399   2.557131   0.000000
    25  H    5.868858   7.286879   5.638943   3.446611   0.000000
    26  H    5.963511   7.381457   6.144476   4.072394   1.758788
    27  H    6.550580   8.652635   7.842773   5.399660   2.483470
    28  H    6.728092   8.822003   8.273053   5.881541   3.055174
    29  H    8.323534   9.945398   8.358477   6.349069   3.045687
    30  H    8.671881  10.557880   9.139016   6.954696   3.526247
                   26         27         28         29         30
    26  H    0.000000
    27  H    3.060532   0.000000
    28  H    2.521419   1.758725   0.000000
    29  H    2.640730   2.937103   2.423582   0.000000
    30  H    3.707951   2.341014   2.498013   1.624455   0.000000
 Symmetry turned off by external request.
 Stoichiometry    C9H14N4O3
 Framework group  C1[X(C9H14N4O3)]
 Deg. of freedom    84
 Full point group                 C1      NOp   1
 Rotational constants (GHZ):      0.7947077      0.2797681      0.2397128
 Standard basis: 6-311++G(2df,2pd) (5D, 7F)
   754 basis functions,  1084 primitive gaussians,   848 cartesian basis functions
    60 alpha electrons       60 beta electrons
       nuclear repulsion energy      1115.9554946991 Hartrees.
 NAtoms=   30 NActive=   30 NUniq=   30 SFac= 1.00D+00 NAtFMM=   60 NAOKFM=F Big=F
 Integral buffers will be    131072 words long.
 Raffenetti 2 integral format.
 Two-electron integral symmetry is turned off.
 One-electron integrals computed using PRISM.
 NBasis=   754 RedAO= T EigKep=  2.11D-06  NBF=   754
 NBsUse=   754 1.00D-06 EigRej= -1.00D+00 NBFU=   754
 Initial guess from the checkpoint file:  "conf-150.chk"
 B after Tr=     0.000000    0.000000    0.000000
         Rot=    1.000000    0.000000    0.000000    0.000000 Ang=   0.00 deg.
 Requested convergence on RMS density matrix=1.00D-08 within 128 cycles.
 Requested convergence on MAX density matrix=1.00D-06.
 Requested convergence on             energy=1.00D-06.
 No special actions if energy rises.
 SCF Done:  E(RB3LYP) =  -796.383173369     A.U. after   12 cycles
            NFock= 12  Conv=0.75D-08     -V/T= 2.0043

 **********************************************************************

            Population analysis using the SCF density.

 **********************************************************************

 Alpha  occ. eigenvalues --  -19.20252 -19.14646 -19.10755 -14.37357 -14.35781
 Alpha  occ. eigenvalues --  -14.30718 -14.29675 -10.33588 -10.29084 -10.25081
 Alpha  occ. eigenvalues --  -10.22801 -10.21113 -10.20524 -10.20370 -10.19356
 Alpha  occ. eigenvalues --  -10.18573  -1.14190  -1.05807  -1.05136  -1.02003
 Alpha  occ. eigenvalues --   -0.94865  -0.89685  -0.87729  -0.81990  -0.77443
 Alpha  occ. eigenvalues --   -0.74910  -0.69344  -0.65933  -0.62265  -0.61686
 Alpha  occ. eigenvalues --   -0.60614  -0.59559  -0.54485  -0.54323  -0.52254
 Alpha  occ. eigenvalues --   -0.51236  -0.50554  -0.49473  -0.48112  -0.46737
 Alpha  occ. eigenvalues --   -0.46127  -0.45101  -0.44543  -0.43460  -0.42986
 Alpha  occ. eigenvalues --   -0.41430  -0.41279  -0.40814  -0.39883  -0.39436
 Alpha  occ. eigenvalues --   -0.37060  -0.36052  -0.35781  -0.31745  -0.29261
 Alpha  occ. eigenvalues --   -0.28910  -0.27866  -0.27686  -0.26024  -0.23476
 Alpha virt. eigenvalues --   -0.03320  -0.02429  -0.01581  -0.01213  -0.00824
 Alpha virt. eigenvalues --    0.00103   0.00636   0.01319   0.01682   0.02060
 Alpha virt. eigenvalues --    0.02729   0.03222   0.03594   0.04080   0.04291
 Alpha virt. eigenvalues --    0.04751   0.05902   0.06455   0.06646   0.06943
 Alpha virt. eigenvalues --    0.07197   0.07928   0.07977   0.08436   0.08673
 Alpha virt. eigenvalues --    0.09223   0.09402   0.10189   0.10858   0.11455
 Alpha virt. eigenvalues --    0.11782   0.11895   0.12171   0.12313   0.12520
 Alpha virt. eigenvalues --    0.12764   0.13640   0.13704   0.13995   0.14193
 Alpha virt. eigenvalues --    0.14464   0.14690   0.15210   0.15518   0.15753
 Alpha virt. eigenvalues --    0.16278   0.16397   0.16631   0.17108   0.17462
 Alpha virt. eigenvalues --    0.18138   0.18581   0.18948   0.19144   0.19605
 Alpha virt. eigenvalues --    0.19822   0.20000   0.20794   0.21100   0.21372
 Alpha virt. eigenvalues --    0.21418   0.22036   0.22210   0.22610   0.22953
 Alpha virt. eigenvalues --    0.23448   0.23716   0.24097   0.24536   0.24890
 Alpha virt. eigenvalues --    0.25384   0.26033   0.26441   0.26874   0.27185
 Alpha virt. eigenvalues --    0.27564   0.27989   0.28179   0.28529   0.29204
 Alpha virt. eigenvalues --    0.29296   0.29876   0.30196   0.30522   0.30999
 Alpha virt. eigenvalues --    0.31405   0.31928   0.32002   0.32926   0.33326
 Alpha virt. eigenvalues --    0.33583   0.34161   0.34228   0.34573   0.35311
 Alpha virt. eigenvalues --    0.35897   0.36062   0.36873   0.37392   0.37686
 Alpha virt. eigenvalues --    0.38625   0.39511   0.39894   0.40530   0.41570
 Alpha virt. eigenvalues --    0.43242   0.43639   0.44208   0.44770   0.45901
 Alpha virt. eigenvalues --    0.46506   0.47286   0.48082   0.48665   0.50383
 Alpha virt. eigenvalues --    0.51477   0.51866   0.52944   0.53097   0.53699
 Alpha virt. eigenvalues --    0.54269   0.54828   0.55269   0.56015   0.56404
 Alpha virt. eigenvalues --    0.57106   0.57385   0.57936   0.58921   0.59295
 Alpha virt. eigenvalues --    0.60048   0.60606   0.60967   0.61908   0.62127
 Alpha virt. eigenvalues --    0.62580   0.62890   0.63753   0.64166   0.64767
 Alpha virt. eigenvalues --    0.65751   0.65901   0.66175   0.66468   0.67435
 Alpha virt. eigenvalues --    0.67837   0.67977   0.68666   0.69066   0.69823
 Alpha virt. eigenvalues --    0.70658   0.72089   0.72294   0.73242   0.73729
 Alpha virt. eigenvalues --    0.74189   0.74750   0.75482   0.76366   0.76437
 Alpha virt. eigenvalues --    0.77417   0.78299   0.78685   0.79456   0.80365
 Alpha virt. eigenvalues --    0.80635   0.80723   0.82390   0.83640   0.84581
 Alpha virt. eigenvalues --    0.84779   0.85546   0.87154   0.87913   0.88226
 Alpha virt. eigenvalues --    0.88821   0.89949   0.91276   0.91523   0.92811
 Alpha virt. eigenvalues --    0.93942   0.94395   0.94930   0.95166   0.95606
 Alpha virt. eigenvalues --    0.96404   0.97243   0.98807   0.99147   1.00558
 Alpha virt. eigenvalues --    1.01553   1.01893   1.02663   1.04097   1.04269
 Alpha virt. eigenvalues --    1.05502   1.05945   1.06991   1.07493   1.08065
 Alpha virt. eigenvalues --    1.08375   1.09643   1.10178   1.12144   1.12765
 Alpha virt. eigenvalues --    1.13511   1.14089   1.14285   1.14672   1.15330
 Alpha virt. eigenvalues --    1.16390   1.17243   1.18529   1.18701   1.19686
 Alpha virt. eigenvalues --    1.20691   1.21589   1.22265   1.22591   1.23361
 Alpha virt. eigenvalues --    1.24127   1.24476   1.25451   1.25898   1.26538
 Alpha virt. eigenvalues --    1.27635   1.28696   1.29301   1.30149   1.31149
 Alpha virt. eigenvalues --    1.31741   1.32795   1.33253   1.34636   1.35233
 Alpha virt. eigenvalues --    1.35901   1.36767   1.37506   1.38307   1.39307
 Alpha virt. eigenvalues --    1.39634   1.40020   1.41302   1.41597   1.42491
 Alpha virt. eigenvalues --    1.43499   1.44094   1.45185   1.45750   1.46470
 Alpha virt. eigenvalues --    1.48164   1.49161   1.49653   1.50178   1.50523
 Alpha virt. eigenvalues --    1.51939   1.52163   1.53101   1.54448   1.54735
 Alpha virt. eigenvalues --    1.55622   1.56839   1.57922   1.58461   1.58884
 Alpha virt. eigenvalues --    1.61027   1.62016   1.64085   1.64377   1.66092
 Alpha virt. eigenvalues --    1.66518   1.66822   1.69020   1.69741   1.71115
 Alpha virt. eigenvalues --    1.71594   1.72199   1.73561   1.74781   1.76291
 Alpha virt. eigenvalues --    1.77662   1.79867   1.80294   1.81170   1.81626
 Alpha virt. eigenvalues --    1.82342   1.83948   1.87283   1.88957   1.90045
 Alpha virt. eigenvalues --    1.91185   1.92885   1.94894   1.96359   1.98428
 Alpha virt. eigenvalues --    2.01820   2.04290   2.06803   2.08194   2.08628
 Alpha virt. eigenvalues --    2.11312   2.13369   2.14117   2.16417   2.17344
 Alpha virt. eigenvalues --    2.21661   2.29699   2.31455   2.40227   2.44989
 Alpha virt. eigenvalues --    2.45507   2.50123   2.51932   2.53795   2.55646
 Alpha virt. eigenvalues --    2.56213   2.57662   2.58030   2.59066   2.61153
 Alpha virt. eigenvalues --    2.63535   2.63940   2.65216   2.66243   2.68069
 Alpha virt. eigenvalues --    2.70517   2.71258   2.72498   2.73214   2.73846
 Alpha virt. eigenvalues --    2.74431   2.75540   2.76419   2.77254   2.78615
 Alpha virt. eigenvalues --    2.80044   2.81177   2.81993   2.82603   2.82984
 Alpha virt. eigenvalues --    2.84701   2.85746   2.86909   2.87601   2.90200
 Alpha virt. eigenvalues --    2.90227   2.91078   2.91333   2.93310   2.93739
 Alpha virt. eigenvalues --    2.94313   2.94672   2.96592   2.96829   2.97940
 Alpha virt. eigenvalues --    2.98270   2.98678   3.00071   3.00865   3.01415
 Alpha virt. eigenvalues --    3.02165   3.02887   3.03147   3.04892   3.05364
 Alpha virt. eigenvalues --    3.06423   3.07066   3.08133   3.08404   3.09354
 Alpha virt. eigenvalues --    3.10282   3.10669   3.11173   3.12487   3.13070
 Alpha virt. eigenvalues --    3.14039   3.14678   3.14996   3.16094   3.16798
 Alpha virt. eigenvalues --    3.17434   3.17841   3.19436   3.20306   3.21054
 Alpha virt. eigenvalues --    3.21814   3.22932   3.24400   3.24511   3.25528
 Alpha virt. eigenvalues --    3.25989   3.27276   3.27722   3.28468   3.29388
 Alpha virt. eigenvalues --    3.30250   3.31065   3.31817   3.32516   3.32969
 Alpha virt. eigenvalues --    3.33579   3.34447   3.34992   3.35344   3.35805
 Alpha virt. eigenvalues --    3.36676   3.37531   3.38160   3.38536   3.39230
 Alpha virt. eigenvalues --    3.39912   3.40589   3.41095   3.42116   3.42511
 Alpha virt. eigenvalues --    3.43084   3.44827   3.46045   3.46807   3.48152
 Alpha virt. eigenvalues --    3.48776   3.48835   3.49876   3.51132   3.51859
 Alpha virt. eigenvalues --    3.53129   3.53859   3.55604   3.55769   3.56135
 Alpha virt. eigenvalues --    3.57804   3.58216   3.58659   3.59108   3.59607
 Alpha virt. eigenvalues --    3.60917   3.61546   3.62047   3.63475   3.64243
 Alpha virt. eigenvalues --    3.64655   3.65683   3.65842   3.67254   3.68905
 Alpha virt. eigenvalues --    3.69561   3.69982   3.70932   3.71301   3.71724
 Alpha virt. eigenvalues --    3.72691   3.73683   3.74861   3.76504   3.76893
 Alpha virt. eigenvalues --    3.77814   3.77921   3.79133   3.79860   3.80123
 Alpha virt. eigenvalues --    3.80682   3.81666   3.83136   3.84464   3.85037
 Alpha virt. eigenvalues --    3.86001   3.86818   3.87323   3.88098   3.88267
 Alpha virt. eigenvalues --    3.89705   3.89870   3.90634   3.91565   3.92993
 Alpha virt. eigenvalues --    3.93710   3.94680   3.95518   3.96404   3.97897
 Alpha virt. eigenvalues --    3.98386   3.98965   3.99827   4.00768   4.01178
 Alpha virt. eigenvalues --    4.02610   4.03671   4.04683   4.05733   4.06317
 Alpha virt. eigenvalues --    4.06876   4.07879   4.09075   4.09547   4.09764
 Alpha virt. eigenvalues --    4.10882   4.12538   4.13136   4.15116   4.16450
 Alpha virt. eigenvalues --    4.17053   4.17546   4.18062   4.19112   4.21132
 Alpha virt. eigenvalues --    4.21612   4.22879   4.24314   4.24852   4.26734
 Alpha virt. eigenvalues --    4.28287   4.28936   4.29257   4.30678   4.31430
 Alpha virt. eigenvalues --    4.32913   4.34678   4.35474   4.37161   4.37526
 Alpha virt. eigenvalues --    4.40629   4.42267   4.43361   4.44818   4.45270
 Alpha virt. eigenvalues --    4.49020   4.49679   4.50392   4.52108   4.52845
 Alpha virt. eigenvalues --    4.54170   4.56209   4.57249   4.59120   4.59568
 Alpha virt. eigenvalues --    4.60684   4.62407   4.63851   4.66792   4.67045
 Alpha virt. eigenvalues --    4.68743   4.70508   4.73467   4.74986   4.75876
 Alpha virt. eigenvalues --    4.78139   4.78916   4.80243   4.82867   4.84777
 Alpha virt. eigenvalues --    4.86045   4.87210   4.88288   4.89962   4.90224
 Alpha virt. eigenvalues --    4.92376   4.93240   4.94639   4.96085   4.96451
 Alpha virt. eigenvalues --    4.97687   4.99373   4.99971   5.02086   5.02522
 Alpha virt. eigenvalues --    5.03383   5.04136   5.05035   5.06306   5.07310
 Alpha virt. eigenvalues --    5.07731   5.09045   5.09865   5.10554   5.11171
 Alpha virt. eigenvalues --    5.12414   5.12942   5.13817   5.15483   5.15899
 Alpha virt. eigenvalues --    5.16503   5.17740   5.18481   5.20585   5.20696
 Alpha virt. eigenvalues --    5.21973   5.22531   5.23525   5.24580   5.25586
 Alpha virt. eigenvalues --    5.26111   5.27244   5.28829   5.30018   5.30790
 Alpha virt. eigenvalues --    5.31955   5.32871   5.35751   5.36472   5.38083
 Alpha virt. eigenvalues --    5.40000   5.41432   5.44406   5.45685   5.46631
 Alpha virt. eigenvalues --    5.47544   5.48673   5.50234   5.51039   5.51323
 Alpha virt. eigenvalues --    5.53514   5.55777   5.56695   5.57828   5.60682
 Alpha virt. eigenvalues --    5.61573   5.63259   5.65062   5.67593   5.68322
 Alpha virt. eigenvalues --    5.69969   5.77410   5.79199   5.80236   5.80745
 Alpha virt. eigenvalues --    5.81193   5.86124   5.88449   5.88944   5.90946
 Alpha virt. eigenvalues --    5.92751   5.94967   5.98784   6.01324   6.05181
 Alpha virt. eigenvalues --    6.09638   6.11434   6.13649   6.19591   6.21003
 Alpha virt. eigenvalues --    6.26949   6.28991   6.30375   6.32211   6.33807
 Alpha virt. eigenvalues --    6.39103   6.39904   6.40752   6.44721   6.46263
 Alpha virt. eigenvalues --    6.50322   6.54132   6.55289   6.67729   6.71898
 Alpha virt. eigenvalues --    6.79916   6.87279   6.90968   6.93459   6.97002
 Alpha virt. eigenvalues --    6.98394   7.01806   7.06819   7.15690   7.16152
 Alpha virt. eigenvalues --    7.21806   7.22307   7.26035   7.28661   7.28718
 Alpha virt. eigenvalues --    7.29630   7.56828   7.56995   7.60590   7.65948
 Alpha virt. eigenvalues --    7.71486   7.75385   7.97108  24.53026  24.71887
 Alpha virt. eigenvalues --   24.79441  24.86941  25.01429  25.04782  25.07971
 Alpha virt. eigenvalues --   25.10189  25.13417  35.98687  36.23179  36.28011
 Alpha virt. eigenvalues --   36.44401  50.17477  50.20559  50.27170
          Condensed to atoms (all electrons):
               1          2          3          4          5          6
     1  O    8.127140   0.334466  -0.043803  -0.024834   0.034156   0.000210
     2  C    0.334466   7.013378   0.119714  -0.484215   0.088171   0.007696
     3  N   -0.043803   0.119714   6.781916  -0.379901   0.086471  -0.005346
     4  C   -0.024834  -0.484215  -0.379901   9.385051  -1.841130   0.120003
     5  C    0.034156   0.088171   0.086471  -1.841130   6.550717   0.185138
     6  O    0.000210   0.007696  -0.005346   0.120003   0.185138   7.795139
     7  O    0.000011   0.004487  -0.023328  -0.006396   0.473597  -0.124269
     8  C   -0.037589   0.055921  -0.054519  -1.245334   0.271887  -0.069190
     9  C   -0.025182   0.056694   0.166796   0.186121  -0.181500   0.012248
    10  C   -0.007118  -0.009258   0.065582  -0.136978   0.139396   0.035944
    11  N    0.000043  -0.002942  -0.005322   0.021440   0.002962  -0.000320
    12  C    0.000022  -0.010136  -0.006158   0.116904  -0.043645   0.000704
    13  N    0.006024   0.015379  -0.024133   0.085468  -0.007882   0.003036
    14  C    0.074603  -1.023485  -0.069582   0.062202  -0.014020   0.000720
    15  C   -0.033100   0.310973  -0.033519  -0.082206   0.021051   0.000115
    16  N    0.001124  -0.004661  -0.000519   0.000777   0.000807   0.000002
    17  H    0.003854  -0.040358   0.315580   0.008016  -0.003872  -0.005208
    18  H    0.002730  -0.001873  -0.043256   0.438969  -0.071404   0.007095
    19  H   -0.000089  -0.001915   0.004359  -0.149691   0.107413   0.223588
    20  H   -0.004481  -0.005947   0.003023  -0.035376   0.026878  -0.000178
    21  H    0.000001  -0.008848   0.006207  -0.019020  -0.036244  -0.008940
    22  H   -0.000036   0.002801   0.000696   0.017044  -0.010609  -0.000765
    23  H    0.000093   0.000348  -0.001947   0.005259  -0.002792  -0.000113
    24  H   -0.002999   0.005951   0.008247  -0.000710  -0.002589   0.000426
    25  H   -0.001662  -0.078573   0.007308   0.007355   0.002200   0.000061
    26  H    0.004337  -0.109935   0.016188  -0.014558   0.011167   0.000044
    27  H    0.003320  -0.004205   0.000866  -0.002182   0.001221  -0.000033
    28  H   -0.007744  -0.022677   0.000966   0.008471  -0.005232   0.000047
    29  H   -0.000379  -0.001375  -0.000269  -0.000027   0.000135   0.000001
    30  H    0.000798  -0.000873   0.000126  -0.000336   0.000065   0.000000
               7          8          9         10         11         12
     1  O    0.000011  -0.037589  -0.025182  -0.007118   0.000043   0.000022
     2  C    0.004487   0.055921   0.056694  -0.009258  -0.002942  -0.010136
     3  N   -0.023328  -0.054519   0.166796   0.065582  -0.005322  -0.006158
     4  C   -0.006396  -1.245334   0.186121  -0.136978   0.021440   0.116904
     5  C    0.473597   0.271887  -0.181500   0.139396   0.002962  -0.043645
     6  O   -0.124269  -0.069190   0.012248   0.035944  -0.000320   0.000704
     7  O    8.040335  -0.012598   0.010358  -0.022335   0.000371  -0.001336
     8  C   -0.012598   9.642090  -2.238634  -0.687909  -0.045168  -0.177541
     9  C    0.010358  -2.238634   8.480708  -0.287956   0.003352  -0.209015
    10  C   -0.022335  -0.687909  -0.287956   6.719345   0.267035  -0.090967
    11  N    0.000371  -0.045168   0.003352   0.267035   6.877618   0.260748
    12  C   -0.001336  -0.177541  -0.209015  -0.090967   0.260748   5.325831
    13  N   -0.003504  -0.277846   0.243664  -0.133386   0.061107   0.324700
    14  C   -0.004588  -0.158850   0.019847  -0.005826   0.000716   0.010891
    15  C    0.001270  -0.036655   0.031094   0.005627  -0.000092   0.001743
    16  N   -0.000001   0.000226   0.000033   0.000021  -0.000001   0.000019
    17  H    0.019864   0.080798  -0.038026  -0.026253   0.000273  -0.011614
    18  H    0.003737  -0.016474   0.000075  -0.010663   0.000167   0.003101
    19  H    0.026455   0.020834  -0.006725   0.006511   0.000017  -0.001290
    20  H   -0.001019   0.464960  -0.124078  -0.005310   0.000160  -0.003743
    21  H   -0.000394   0.489777  -0.093212  -0.017309  -0.000263  -0.005124
    22  H   -0.000156  -0.078495  -0.101796   0.512028  -0.094493   0.037788
    23  H    0.000025   0.003152   0.046687   0.003519  -0.078341   0.440119
    24  H    0.000341  -0.082005  -0.059996   0.073253   0.010432  -0.057901
    25  H    0.000446  -0.008930   0.008283  -0.000902  -0.000167   0.000802
    26  H   -0.002431  -0.009719   0.004883   0.006149  -0.000058   0.002187
    27  H   -0.000089   0.001494  -0.001024   0.000157  -0.000002  -0.000012
    28  H    0.000162   0.002498  -0.002235  -0.000595  -0.000003  -0.000110
    29  H    0.000006   0.000231  -0.000180  -0.000058   0.000000  -0.000040
    30  H    0.000002  -0.000246   0.000238   0.000031   0.000000   0.000021
              13         14         15         16         17         18
     1  O    0.006024   0.074603  -0.033100   0.001124   0.003854   0.002730
     2  C    0.015379  -1.023485   0.310973  -0.004661  -0.040358  -0.001873
     3  N   -0.024133  -0.069582  -0.033519  -0.000519   0.315580  -0.043256
     4  C    0.085468   0.062202  -0.082206   0.000777   0.008016   0.438969
     5  C   -0.007882  -0.014020   0.021051   0.000807  -0.003872  -0.071404
     6  O    0.003036   0.000720   0.000115   0.000002  -0.005208   0.007095
     7  O   -0.003504  -0.004588   0.001270  -0.000001   0.019864   0.003737
     8  C   -0.277846  -0.158850  -0.036655   0.000226   0.080798  -0.016474
     9  C    0.243664   0.019847   0.031094   0.000033  -0.038026   0.000075
    10  C   -0.133386  -0.005826   0.005627   0.000021  -0.026253  -0.010663
    11  N    0.061107   0.000716  -0.000092  -0.000001   0.000273   0.000167
    12  C    0.324700   0.010891   0.001743   0.000019  -0.011614   0.003101
    13  N    6.371176  -0.001724  -0.003057  -0.000057  -0.002127   0.001432
    14  C   -0.001724   6.092440  -0.022508   0.016465  -0.004489   0.012860
    15  C   -0.003057  -0.022508   5.213805   0.229389  -0.021975  -0.004434
    16  N   -0.000057   0.016465   0.229389   6.292796   0.000102  -0.000157
    17  H   -0.002127  -0.004489  -0.021975   0.000102   0.565022   0.000456
    18  H    0.001432   0.012860  -0.004434  -0.000157   0.000456   0.608973
    19  H   -0.000711  -0.000616   0.000060   0.000001   0.002979  -0.000944
    20  H   -0.000617   0.006513  -0.000896  -0.000050   0.000808  -0.003072
    21  H    0.004682  -0.000604  -0.001317   0.000032   0.000818  -0.001219
    22  H    0.023876  -0.000124   0.000100  -0.000001  -0.000769   0.000135
    23  H   -0.083916   0.000958  -0.000082   0.000000   0.000081   0.000104
    24  H    0.428788  -0.003665  -0.000788   0.000289  -0.001717   0.000460
    25  H   -0.002348   0.421340  -0.045174  -0.001527   0.000987  -0.000975
    26  H   -0.000667   0.429020   0.001837  -0.013492  -0.012381  -0.000158
    27  H    0.000065  -0.043558   0.441295  -0.054426  -0.000651  -0.000241
    28  H    0.000114   0.030947   0.335301  -0.073857   0.004063   0.000044
    29  H    0.000000  -0.000600  -0.058090   0.382195   0.000766  -0.000004
    30  H   -0.000016  -0.020795  -0.024412   0.389548  -0.000416  -0.000083
              19         20         21         22         23         24
     1  O   -0.000089  -0.004481   0.000001  -0.000036   0.000093  -0.002999
     2  C   -0.001915  -0.005947  -0.008848   0.002801   0.000348   0.005951
     3  N    0.004359   0.003023   0.006207   0.000696  -0.001947   0.008247
     4  C   -0.149691  -0.035376  -0.019020   0.017044   0.005259  -0.000710
     5  C    0.107413   0.026878  -0.036244  -0.010609  -0.002792  -0.002589
     6  O    0.223588  -0.000178  -0.008940  -0.000765  -0.000113   0.000426
     7  O    0.026455  -0.001019  -0.000394  -0.000156   0.000025   0.000341
     8  C    0.020834   0.464960   0.489777  -0.078495   0.003152  -0.082005
     9  C   -0.006725  -0.124078  -0.093212  -0.101796   0.046687  -0.059996
    10  C    0.006511  -0.005310  -0.017309   0.512028   0.003519   0.073253
    11  N    0.000017   0.000160  -0.000263  -0.094493  -0.078341   0.010432
    12  C   -0.001290  -0.003743  -0.005124   0.037788   0.440119  -0.057901
    13  N   -0.000711  -0.000617   0.004682   0.023876  -0.083916   0.428788
    14  C   -0.000616   0.006513  -0.000604  -0.000124   0.000958  -0.003665
    15  C    0.000060  -0.000896  -0.001317   0.000100  -0.000082  -0.000788
    16  N    0.000001  -0.000050   0.000032  -0.000001   0.000000   0.000289
    17  H    0.002979   0.000808   0.000818  -0.000769   0.000081  -0.001717
    18  H   -0.000944  -0.003072  -0.001219   0.000135   0.000104   0.000460
    19  H    0.526284  -0.000019  -0.000925  -0.000798  -0.000040   0.000006
    20  H   -0.000019   0.635541  -0.038986   0.000746  -0.000543   0.003639
    21  H   -0.000925  -0.038986   0.635067   0.000079  -0.000040  -0.003239
    22  H   -0.000798   0.000746   0.000079   0.620351   0.000480   0.003010
    23  H   -0.000040  -0.000543  -0.000040   0.000480   0.574681  -0.010020
    24  H    0.000006   0.003639  -0.003239   0.003010  -0.010020   0.545315
    25  H    0.000000   0.000574   0.000067  -0.000027   0.000367  -0.004884
    26  H   -0.000047  -0.000020  -0.000375   0.000066  -0.000116  -0.000193
    27  H    0.000007   0.000217  -0.000034  -0.000004  -0.000003  -0.000174
    28  H   -0.000023  -0.000258   0.000143  -0.000004   0.000011   0.000219
    29  H    0.000001   0.000050   0.000004  -0.000001   0.000000  -0.000052
    30  H    0.000000  -0.000021  -0.000006   0.000000   0.000001  -0.000123
              25         26         27         28         29         30
     1  O   -0.001662   0.004337   0.003320  -0.007744  -0.000379   0.000798
     2  C   -0.078573  -0.109935  -0.004205  -0.022677  -0.001375  -0.000873
     3  N    0.007308   0.016188   0.000866   0.000966  -0.000269   0.000126
     4  C    0.007355  -0.014558  -0.002182   0.008471  -0.000027  -0.000336
     5  C    0.002200   0.011167   0.001221  -0.005232   0.000135   0.000065
     6  O    0.000061   0.000044  -0.000033   0.000047   0.000001   0.000000
     7  O    0.000446  -0.002431  -0.000089   0.000162   0.000006   0.000002
     8  C   -0.008930  -0.009719   0.001494   0.002498   0.000231  -0.000246
     9  C    0.008283   0.004883  -0.001024  -0.002235  -0.000180   0.000238
    10  C   -0.000902   0.006149   0.000157  -0.000595  -0.000058   0.000031
    11  N   -0.000167  -0.000058  -0.000002  -0.000003   0.000000   0.000000
    12  C    0.000802   0.002187  -0.000012  -0.000110  -0.000040   0.000021
    13  N   -0.002348  -0.000667   0.000065   0.000114   0.000000  -0.000016
    14  C    0.421340   0.429020  -0.043558   0.030947  -0.000600  -0.020795
    15  C   -0.045174   0.001837   0.441295   0.335301  -0.058090  -0.024412
    16  N   -0.001527  -0.013492  -0.054426  -0.073857   0.382195   0.389548
    17  H    0.000987  -0.012381  -0.000651   0.004063   0.000766  -0.000416
    18  H   -0.000975  -0.000158  -0.000241   0.000044  -0.000004  -0.000083
    19  H    0.000000  -0.000047   0.000007  -0.000023   0.000001   0.000000
    20  H    0.000574  -0.000020   0.000217  -0.000258   0.000050  -0.000021
    21  H    0.000067  -0.000375  -0.000034   0.000143   0.000004  -0.000006
    22  H   -0.000027   0.000066  -0.000004  -0.000004  -0.000001   0.000000
    23  H    0.000367  -0.000116  -0.000003   0.000011   0.000000   0.000001
    24  H   -0.004884  -0.000193  -0.000174   0.000219  -0.000052  -0.000123
    25  H    0.696140  -0.066207  -0.013247   0.017282  -0.001468   0.003063
    26  H   -0.066207   0.756721   0.016081  -0.043082   0.006304   0.002999
    27  H   -0.013247   0.016081   0.644736  -0.062594   0.012418  -0.009176
    28  H    0.017282  -0.043082  -0.062594   0.792865  -0.010694  -0.002715
    29  H   -0.001468   0.006304   0.012418  -0.010694   0.628938  -0.053842
    30  H    0.003063   0.002999  -0.009176  -0.002715  -0.053842   0.604828
 Mulliken charges:
               1
     1  O   -0.403917
     2  C   -0.204700
     3  N    0.107555
     4  C   -0.040187
     5  C    0.217488
     6  O   -0.177856
     7  O   -0.379022
     8  C    0.203834
     9  C    0.098475
    10  C   -0.391774
    11  N   -0.279271
    12  C    0.093050
    13  N   -0.027521
    14  C    0.195512
    15  C   -0.225355
    16  N   -0.165078
    17  H    0.165385
    18  H    0.074620
    19  H    0.245319
    20  H    0.081504
    21  H    0.099219
    22  H    0.068875
    23  H    0.102065
    24  H    0.150682
    25  H    0.059815
    26  H    0.015455
    27  H    0.069776
    28  H    0.038688
    29  H    0.096028
    30  H    0.111338
 Sum of Mulliken charges =   0.00000
 Mulliken charges with hydrogens summed into heavy atoms:
               1
     1  O   -0.403917
     2  C   -0.204700
     3  N    0.272940
     4  C    0.034433
     5  C    0.217488
     6  O    0.067462
     7  O   -0.379022
     8  C    0.384557
     9  C    0.098475
    10  C   -0.322899
    11  N   -0.279271
    12  C    0.195115
    13  N    0.123160
    14  C    0.270782
    15  C   -0.116891
    16  N    0.042288
 Electronic spatial extent (au):  <R**2>=           4738.4818
 Charge=              0.0000 electrons
 Dipole moment (field-independent basis, Debye):
    X=             -3.2204    Y=             -0.5265    Z=              1.5637  Tot=              3.6185
 Quadrupole moment (field-independent basis, Debye-Ang):
   XX=           -100.9529   YY=           -102.7059   ZZ=            -92.6333
   XY=            -11.1251   XZ=              2.5685   YZ=             -6.7119
 Traceless Quadrupole moment (field-independent basis, Debye-Ang):
   XX=             -2.1889   YY=             -3.9419   ZZ=              6.1308
   XY=            -11.1251   XZ=              2.5685   YZ=             -6.7119
 Octapole moment (field-independent basis, Debye-Ang**2):
  XXX=           -276.4714  YYY=             -3.8300  ZZZ=             -0.5297  XYY=            -55.6107
  XXY=            -73.5652  XXZ=             24.7231  XZZ=             -1.5774  YZZ=            -14.9809
  YYZ=            -20.1226  XYZ=            -13.3860
 Hexadecapole moment (field-independent basis, Debye-Ang**3):
 XXXX=          -4203.4663 YYYY=           -864.9515 ZZZZ=          -1074.8105 XXXY=           -582.2013
 XXXZ=           -229.0654 YYYX=           -422.2335 YYYZ=             41.7401 ZZZX=           -279.4871
 ZZZY=             55.5759 XXYY=           -966.5450 XXZZ=           -880.8802 YYZZ=           -353.4933
 XXYZ=             94.8993 YYXZ=           -160.2814 ZZXY=            -87.6379
 N-N= 1.115955494699D+03 E-N=-4.092258618401D+03  KE= 7.929572733046D+02
 Calling FoFJK, ICntrl=      2127 FMM=F ISym2X=0 I1Cent= 0 IOpClX= 0 NMat=1 NMatS=1 NMatT=0.
 -------------------------------------------------------------------
 Center     Atomic                   Forces (Hartrees/Bohr)
 Number     Number              X              Y              Z
 -------------------------------------------------------------------
      1        8          -0.001161470    0.009961239    0.003869464
      2        6           0.001791906   -0.004158346   -0.001824623
      3        7          -0.002553253   -0.002903185    0.000146328
      4        6          -0.000085874    0.000623417    0.000440768
      5        6          -0.003956371    0.006507233    0.002881918
      6        8          -0.002685302    0.005126671    0.002660369
      7        8           0.005955518   -0.010871597   -0.004357770
      8        6           0.001054828   -0.000588848   -0.000110432
      9        6           0.002412397    0.002559482   -0.000212807
     10        6          -0.001177164   -0.001934301    0.000132487
     11        7          -0.007638403   -0.002592723   -0.002234535
     12        6           0.001330602    0.000230143    0.000311294
     13        7           0.002645553   -0.000086941    0.001256892
     14        6          -0.000400405   -0.000024438    0.000019385
     15        6           0.004247990   -0.002660866    0.000135216
     16        7          -0.004853319   -0.002289362    0.005030662
     17        1          -0.000053431   -0.002391270   -0.002256029
     18        1           0.001135466    0.002710421   -0.000044181
     19        1           0.000299535   -0.002635435   -0.002324628
     20        1           0.001414398    0.001411042    0.002128942
     21        1          -0.001826746    0.001768854   -0.001427187
     22        1          -0.002141717    0.001379075   -0.001673420
     23        1           0.000561635   -0.002467339    0.001442946
     24        1           0.003063167    0.000750690    0.000566597
     25        1           0.000173291   -0.001477519    0.002233623
     26        1           0.000699628   -0.002203780   -0.001835645
     27        1          -0.001369488    0.002103700    0.001663593
     28        1          -0.000110324    0.002344450   -0.003063750
     29        1           0.000916464   -0.000783181   -0.003370774
     30        1           0.002310889    0.002592716   -0.000184703
 -------------------------------------------------------------------
 Cartesian Forces:  Max     0.010871597 RMS     0.002896781

 GradGradGradGradGradGradGradGradGradGradGradGradGradGradGradGradGradGrad
 Berny optimization.
 FormGI is forming the generalized inverse of G from B-inverse, IUseBI=4.
 Internal  Forces:  Max     0.013123218 RMS     0.002064565
 Search for a local minimum.
 Step number   1 out of a maximum of  160
 All quantities printed in internal units (Hartrees-Bohrs-Radians)
 Mixed Optimization -- RFO/linear search
 Second derivative matrix not updated -- first step.
 ITU=  0
     Eigenvalues ---    0.00061   0.00170   0.00246   0.00267   0.00331
     Eigenvalues ---    0.00376   0.00506   0.00568   0.00888   0.00968
     Eigenvalues ---    0.01805   0.01965   0.02065   0.02492   0.03191
     Eigenvalues ---    0.03439   0.04005   0.04041   0.04252   0.04414
     Eigenvalues ---    0.04441   0.04596   0.04898   0.05089   0.05161
     Eigenvalues ---    0.05201   0.05987   0.06123   0.07528   0.08114
     Eigenvalues ---    0.08361   0.09940   0.10629   0.10805   0.11031
     Eigenvalues ---    0.11537   0.11821   0.13495   0.14992   0.15053
     Eigenvalues ---    0.15477   0.16744   0.17617   0.18532   0.18889
     Eigenvalues ---    0.20320   0.21789   0.21903   0.22221   0.23114
     Eigenvalues ---    0.23319   0.24154   0.24356   0.25112   0.26447
     Eigenvalues ---    0.29055   0.30974   0.32593   0.32752   0.32903
     Eigenvalues ---    0.33217   0.33688   0.33864   0.34486   0.34555
     Eigenvalues ---    0.34763   0.36100   0.37047   0.37203   0.37390
     Eigenvalues ---    0.37821   0.40681   0.43277   0.43745   0.44329
     Eigenvalues ---    0.44854   0.44923   0.46084   0.47328   0.48094
     Eigenvalues ---    0.51328   0.57723   0.82541   0.88055
 RFO step:  Lambda=-1.65736406D-03 EMin= 6.07909974D-04
 Linear search not attempted -- first point.
 Iteration  1 RMS(Cart)=  0.03967286 RMS(Int)=  0.00064437
 Iteration  2 RMS(Cart)=  0.00109685 RMS(Int)=  0.00013132
 Iteration  3 RMS(Cart)=  0.00000052 RMS(Int)=  0.00013132
 Variable       Old X    -DE/DX   Delta X   Delta X   Delta X     New X
                                 (Linear)    (Quad)   (Total)
    R1        2.31832  -0.01075   0.00000  -0.01155  -0.01155   2.30677
    R2        2.59293  -0.00459   0.00000  -0.01108  -0.01108   2.58185
    R3        2.88034  -0.00279   0.00000  -0.00767  -0.00767   2.87267
    R4        2.74833  -0.00095   0.00000  -0.00784  -0.00784   2.74049
    R5        1.91506  -0.00311   0.00000  -0.00803  -0.00803   1.90703
    R6        2.87451  -0.00189   0.00000  -0.00564  -0.00564   2.86886
    R7        2.93709  -0.00039   0.00000  -0.00253  -0.00253   2.93456
    R8        2.07416  -0.00289   0.00000  -0.00823  -0.00823   2.06593
    R9        2.54191  -0.00284   0.00000  -0.00359  -0.00359   2.53831
   R10        2.29225  -0.01312   0.00000  -0.01531  -0.01531   2.27694
   R11        1.83759  -0.00322   0.00000  -0.00743  -0.00743   1.83015
   R12        2.82308  -0.00222   0.00000  -0.00702  -0.00702   2.81605
   R13        2.06993  -0.00287   0.00000  -0.00805  -0.00805   2.06187
   R14        2.06542  -0.00290   0.00000  -0.00804  -0.00804   2.05738
   R15        2.60145  -0.00596   0.00000  -0.00983  -0.00983   2.59162
   R16        2.61621  -0.00250   0.00000  -0.00634  -0.00632   2.60989
   R17        2.60250  -0.00267   0.00000  -0.00556  -0.00558   2.59692
   R18        2.04415  -0.00305   0.00000  -0.00822  -0.00822   2.03593
   R19        2.48525  -0.00616   0.00000  -0.01086  -0.01087   2.47438
   R20        2.58264  -0.00437   0.00000  -0.00654  -0.00653   2.57611
   R21        2.04365  -0.00291   0.00000  -0.00763  -0.00763   2.03601
   R22        1.90576  -0.00305   0.00000  -0.00633  -0.00633   1.89943
   R23        2.89187  -0.00169   0.00000  -0.00769  -0.00769   2.88417
   R24        2.07411  -0.00256   0.00000  -0.00740  -0.00740   2.06671
   R25        2.07452  -0.00294   0.00000  -0.00858  -0.00858   2.06594
   R26        2.76938   0.00033   0.00000  -0.00256  -0.00256   2.76682
   R27        2.06568  -0.00292   0.00000  -0.00856  -0.00856   2.05713
   R28        2.08553  -0.00367   0.00000  -0.01087  -0.01087   2.07466
   R29        1.92402  -0.00319   0.00000  -0.00977  -0.00977   1.91425
   R30        1.92165  -0.00320   0.00000  -0.00972  -0.00972   1.91193
    A1        2.12433  -0.00037   0.00000   0.00156   0.00156   2.12589
    A2        2.14228   0.00029   0.00000  -0.00021  -0.00021   2.14207
    A3        2.01560   0.00008   0.00000  -0.00122  -0.00122   2.01437
    A4        2.10212   0.00190   0.00000   0.01548   0.01497   2.11708
    A5        2.09740  -0.00188   0.00000  -0.00517  -0.00578   2.09161
    A6        2.00631   0.00015   0.00000   0.01107   0.01060   2.01691
    A7        1.87746   0.00015   0.00000   0.00518   0.00513   1.88259
    A8        1.97429   0.00058   0.00000   0.00746   0.00742   1.98171
    A9        1.89886  -0.00028   0.00000  -0.00202  -0.00199   1.89687
   A10        1.95202   0.00011   0.00000   0.00365   0.00359   1.95561
   A11        1.89203  -0.00049   0.00000  -0.01014  -0.01014   1.88189
   A12        1.86729  -0.00013   0.00000  -0.00518  -0.00518   1.86212
   A13        1.95314   0.00105   0.00000  -0.00148  -0.00148   1.95165
   A14        2.17571   0.00022   0.00000   0.00259   0.00258   2.17829
   A15        2.15434  -0.00127   0.00000  -0.00112  -0.00112   2.15322
   A16        1.86272   0.00266   0.00000   0.01685   0.01685   1.87957
   A17        2.00198   0.00244   0.00000   0.01293   0.01293   2.01490
   A18        1.85268  -0.00017   0.00000   0.00241   0.00242   1.85509
   A19        1.88864  -0.00074   0.00000  -0.00334  -0.00333   1.88531
   A20        1.95091  -0.00107   0.00000  -0.00655  -0.00659   1.94432
   A21        1.89389  -0.00075   0.00000  -0.00257  -0.00258   1.89131
   A22        1.87063   0.00019   0.00000  -0.00381  -0.00382   1.86681
   A23        2.30589  -0.00110   0.00000  -0.00721  -0.00725   2.29864
   A24        2.15712   0.00125   0.00000   0.00628   0.00624   2.16336
   A25        1.82016  -0.00016   0.00000   0.00096   0.00098   1.82114
   A26        1.94372  -0.00119   0.00000  -0.00427  -0.00427   1.93945
   A27        2.21965   0.00054   0.00000   0.00212   0.00212   2.22177
   A28        2.11977   0.00065   0.00000   0.00215   0.00214   2.12192
   A29        1.83268   0.00208   0.00000   0.00626   0.00626   1.83894
   A30        1.95121  -0.00151   0.00000  -0.00500  -0.00497   1.94624
   A31        2.19743   0.00071   0.00000   0.00267   0.00265   2.20008
   A32        2.13454   0.00080   0.00000   0.00234   0.00232   2.13686
   A33        1.87699   0.00079   0.00000   0.00206   0.00201   1.87900
   A34        2.18488   0.00049   0.00000   0.01009   0.00995   2.19484
   A35        2.22025  -0.00127   0.00000  -0.01097  -0.01111   2.20914
   A36        1.95551   0.00175   0.00000   0.00801   0.00802   1.96353
   A37        1.89357  -0.00099   0.00000  -0.00788  -0.00791   1.88567
   A38        1.93048  -0.00075   0.00000  -0.00245  -0.00245   1.92803
   A39        1.88616   0.00014   0.00000   0.00549   0.00551   1.89167
   A40        1.93604  -0.00054   0.00000  -0.00463  -0.00462   1.93141
   A41        1.85839   0.00032   0.00000   0.00119   0.00118   1.85957
   A42        1.91926   0.00059   0.00000   0.00161   0.00160   1.92086
   A43        1.88385   0.00042   0.00000   0.01017   0.01016   1.89402
   A44        1.90444   0.00028   0.00000   0.00155   0.00152   1.90596
   A45        1.89841  -0.00036   0.00000  -0.00451  -0.00453   1.89388
   A46        1.99725  -0.00111   0.00000  -0.01189  -0.01190   1.98535
   A47        1.85661   0.00025   0.00000   0.00440   0.00434   1.86095
   A48        1.92023   0.00228   0.00000   0.02396   0.02353   1.94376
   A49        1.91406   0.00168   0.00000   0.02091   0.02048   1.93453
   A50        1.84874  -0.00069   0.00000   0.01707   0.01624   1.86498
    D1       -0.16869   0.00035   0.00000   0.02382   0.02370  -0.14500
    D2       -2.87722  -0.00014   0.00000  -0.03563  -0.03550  -2.91272
    D3        3.01917   0.00027   0.00000   0.02082   0.02070   3.03987
    D4        0.31065  -0.00022   0.00000  -0.03863  -0.03850   0.27215
    D5        0.55308   0.00023   0.00000   0.02534   0.02532   0.57841
    D6       -1.52782  -0.00037   0.00000   0.01877   0.01879  -1.50904
    D7        2.72303   0.00025   0.00000   0.02333   0.02332   2.74635
    D8       -2.63531   0.00029   0.00000   0.02842   0.02841  -2.60691
    D9        1.56697  -0.00031   0.00000   0.02185   0.02187   1.58884
   D10       -0.46536   0.00031   0.00000   0.02641   0.02640  -0.43896
   D11       -2.64478   0.00054   0.00000  -0.00085  -0.00098  -2.64576
   D12        1.47380  -0.00010   0.00000  -0.01429  -0.01446   1.45934
   D13       -0.59866  -0.00010   0.00000  -0.01108  -0.01123  -0.60989
   D14        0.08512   0.00050   0.00000   0.05174   0.05190   0.13702
   D15       -2.07948  -0.00014   0.00000   0.03829   0.03842  -2.04106
   D16        2.13124  -0.00015   0.00000   0.04150   0.04164   2.17288
   D17        3.11570  -0.00076   0.00000  -0.03155  -0.03156   3.08414
   D18       -0.02375  -0.00046   0.00000  -0.02761  -0.02762  -0.05137
   D19       -0.98943   0.00016   0.00000  -0.01601  -0.01601  -1.00543
   D20        2.15431   0.00045   0.00000  -0.01207  -0.01207   2.14225
   D21        1.06514  -0.00024   0.00000  -0.02659  -0.02658   1.03855
   D22       -2.07431   0.00005   0.00000  -0.02265  -0.02264  -2.09695
   D23        1.14607   0.00029   0.00000   0.00337   0.00340   1.14947
   D24       -1.01719   0.00019   0.00000   0.00144   0.00144  -1.01575
   D25       -3.02031   0.00040   0.00000   0.00620   0.00622  -3.01410
   D26       -0.97714  -0.00041   0.00000  -0.01164  -0.01164  -0.98878
   D27       -3.14040  -0.00051   0.00000  -0.01357  -0.01360   3.12919
   D28        1.13966  -0.00030   0.00000  -0.00881  -0.00882   1.13084
   D29       -3.04646   0.00020   0.00000   0.00186   0.00187  -3.04459
   D30        1.07346   0.00010   0.00000  -0.00007  -0.00009   1.07337
   D31       -0.92966   0.00031   0.00000   0.00469   0.00469  -0.92497
   D32        3.11155   0.00021   0.00000   0.00522   0.00522   3.11677
   D33       -0.03216  -0.00008   0.00000   0.00134   0.00135  -0.03081
   D34        1.94352  -0.00022   0.00000  -0.03636  -0.03634   1.90718
   D35       -1.19399  -0.00052   0.00000  -0.05229  -0.05228  -1.24627
   D36       -2.22957   0.00052   0.00000  -0.02866  -0.02867  -2.25824
   D37        0.91610   0.00023   0.00000  -0.04458  -0.04461   0.87149
   D38       -0.17040  -0.00035   0.00000  -0.03882  -0.03880  -0.20920
   D39        2.97527  -0.00064   0.00000  -0.05474  -0.05474   2.92053
   D40       -3.13779  -0.00017   0.00000  -0.01274  -0.01273   3.13266
   D41        0.01412  -0.00013   0.00000  -0.01196  -0.01193   0.00219
   D42        0.00030   0.00009   0.00000   0.00096   0.00093   0.00123
   D43       -3.13097   0.00013   0.00000   0.00174   0.00173  -3.12924
   D44        3.13559   0.00016   0.00000   0.01285   0.01296  -3.13464
   D45        0.04054   0.00005   0.00000  -0.01261  -0.01272   0.02782
   D46       -0.00288  -0.00006   0.00000   0.00068   0.00070  -0.00218
   D47       -3.09793  -0.00017   0.00000  -0.02478  -0.02498  -3.12291
   D48        0.00247  -0.00008   0.00000  -0.00226  -0.00223   0.00024
   D49        3.13442  -0.00011   0.00000  -0.00298  -0.00297   3.13145
   D50       -0.00438   0.00004   0.00000   0.00272   0.00269  -0.00169
   D51        3.13918   0.00008   0.00000   0.00138   0.00130   3.14048
   D52        0.00473   0.00001   0.00000  -0.00222  -0.00221   0.00252
   D53        3.09856   0.00019   0.00000   0.02465   0.02447   3.12303
   D54       -3.13875  -0.00003   0.00000  -0.00094  -0.00088  -3.13963
   D55       -0.04492   0.00015   0.00000   0.02593   0.02580  -0.01912
   D56       -2.99810  -0.00039   0.00000  -0.02028  -0.02030  -3.01840
   D57       -0.92956  -0.00024   0.00000  -0.01880  -0.01882  -0.94838
   D58        1.08112   0.00042   0.00000  -0.00736  -0.00736   1.07376
   D59       -0.91284  -0.00047   0.00000  -0.02161  -0.02160  -0.93445
   D60        1.15570  -0.00032   0.00000  -0.02013  -0.02013   1.13557
   D61       -3.11680   0.00034   0.00000  -0.00869  -0.00867  -3.12547
   D62        1.11822  -0.00030   0.00000  -0.01951  -0.01952   1.09871
   D63       -3.09642  -0.00015   0.00000  -0.01804  -0.01804  -3.11446
   D64       -1.08574   0.00051   0.00000  -0.00659  -0.00658  -1.09232
   D65       -1.25815   0.00094   0.00000   0.02154   0.02175  -1.23640
   D66        2.99824  -0.00052   0.00000  -0.02509  -0.02532   2.97293
   D67        2.96548   0.00030   0.00000   0.01097   0.01120   2.97668
   D68        0.93868  -0.00116   0.00000  -0.03566  -0.03586   0.90282
   D69        0.89233   0.00095   0.00000   0.01614   0.01635   0.90868
   D70       -1.13446  -0.00051   0.00000  -0.03049  -0.03071  -1.16518
         Item               Value     Threshold  Converged?
 Maximum Force            0.013123     0.000450     NO 
 RMS     Force            0.002065     0.000300     NO 
 Maximum Displacement     0.193316     0.001800     NO 
 RMS     Displacement     0.039583     0.001200     NO 
 Predicted change in Energy=-8.642571D-04
 GradGradGradGradGradGradGradGradGradGradGradGradGradGradGradGradGradGrad

                          Input orientation:                          
 ---------------------------------------------------------------------
 Center     Atomic      Atomic             Coordinates (Angstroms)
 Number     Number       Type             X           Y           Z
 ---------------------------------------------------------------------
      1          8           0       -1.132293   -1.884869   -0.795495
      2          6           0       -1.294285   -0.753428   -0.366917
      3          7           0       -0.385758   -0.161296    0.464113
      4          6           0        0.725611   -0.908701    1.020289
      5          6           0        1.093472   -0.275678    2.350212
      6          8           0        2.073609   -0.952412    2.971176
      7          8           0        0.574389    0.709760    2.809849
      8          6           0        1.945806   -1.008770    0.064983
      9          6           0        2.635044    0.279020   -0.230343
     10          6           0        3.859436    0.766499    0.149181
     11          7           0        4.080670    2.015559   -0.379420
     12          6           0        3.006495    2.293207   -1.074800
     13          7           0        2.099698    1.276741   -1.021152
     14          6           0       -2.479223    0.113197   -0.761559
     15          6           0       -3.743748   -0.704439   -1.010252
     16          7           0       -4.800492    0.155600   -1.546278
     17          1           0       -0.632717    0.683589    0.957653
     18          1           0        0.395846   -1.932344    1.216738
     19          1           0        2.275265   -0.487310    3.796380
     20          1           0        1.582049   -1.484015   -0.847330
     21          1           0        2.668226   -1.689915    0.511589
     22          1           0        4.593920    0.277234    0.767142
     23          1           0        2.827631    3.198358   -1.631148
     24          1           0        1.194989    1.257509   -1.458683
     25          1           0       -2.221419    0.639258   -1.685073
     26          1           0       -2.659368    0.881852   -0.005310
     27          1           0       -3.518450   -1.474516   -1.745941
     28          1           0       -4.024337   -1.225778   -0.085710
     29          1           0       -5.152251    0.791559   -0.840626
     30          1           0       -5.587503   -0.395862   -1.862730
 ---------------------------------------------------------------------
                    Distance matrix (angstroms):
                    1          2          3          4          5
     1  O    0.000000
     2  C    1.220688   0.000000
     3  N    2.261555   1.366255   0.000000
     4  C    2.775208   2.455287   1.450203   0.000000
     5  C    4.176002   3.648619   2.399703   1.518135   0.000000
     6  O    5.033397   4.746069   3.599960   2.371702   1.343217
     7  O    4.758504   3.965438   2.680130   2.417604   1.204907
     8  C    3.314010   3.278709   2.512709   1.552900   2.546796
     9  C    4.381169   4.065001   3.130718   2.573072   3.056698
    10  C    5.730577   5.397905   4.356795   3.658686   3.685272
    11  N    6.523912   6.046287   5.039764   4.665501   4.650163
    12  C    5.887605   5.317875   4.460966   4.454665   4.689300
    13  N    4.526860   4.008582   3.232871   3.291163   3.845594
    14  C    2.409905   1.520151   2.441355   3.806602   4.753787
    15  C    2.873888   2.533011   3.707405   4.913246   5.905527
    16  N    4.264138   3.809293   4.861273   6.185291   7.078662
    17  H    3.149615   2.063292   1.009158   2.093887   2.416431
    18  H    2.527161   2.598913   2.077008   1.093243   2.125085
    19  H    5.886419   5.490496   4.276837   3.207129   1.879581
    20  H    2.744271   3.006303   2.709563   2.133653   3.452979
    21  H    4.023732   4.165367   3.415516   2.154722   2.803650
    22  H    6.317123   6.084350   5.008127   4.053929   3.881361
    23  H    6.497577   5.848512   5.099340   5.321329   5.561247
    24  H    3.966181   3.381170   2.865120   3.325370   4.107147
    25  H    2.889422   2.129950   2.937608   4.289539   5.301805
    26  H    3.257467   2.160636   2.545156   3.964343   4.579538
    27  H    2.601055   2.714514   4.052486   5.097473   6.283749
    28  H    3.049937   2.784847   3.830755   4.887308   5.747032
    29  H    4.829635   4.182737   5.032865   6.395557   7.094329
    30  H    4.817160   4.560376   5.703277   6.959182   7.899288
                    6          7          8          9         10
     6  O    0.000000
     7  O    2.244216   0.000000
     8  C    2.909547   3.516876   0.000000
     9  C    3.475824   3.697919   1.490191   0.000000
    10  C    3.755994   4.227755   2.611637   1.371426   0.000000
    11  N    4.905470   4.916356   3.728499   2.264426   1.374232
    12  C    5.270127   4.849014   3.650647   2.215408   2.134591
    13  N    4.572580   4.162283   2.535140   1.381095   2.174099
    14  C    5.983069   4.736600   4.639274   5.144455   6.436991
    15  C    7.053715   5.936281   5.798256   6.501111   7.830476
    16  N    8.299901   6.940625   7.033098   7.552094   8.845459
    17  H    3.748996   2.210976   3.210875   3.500468   4.565078
    18  H    2.617863   3.090404   2.140537   3.463839   4.518836
    19  H    0.968476   2.302000   3.782034   4.114753   4.169376
    20  H    3.886543   4.382121   1.091096   2.144240   3.353257
    21  H    2.635726   3.927416   1.088718   2.104345   2.753959
    22  H    3.566758   4.529499   3.026441   2.198220   1.077368
    23  H    6.243303   5.567107   4.621083   3.243745   3.185614
    24  H    5.027860   4.348050   2.832191   2.130732   3.150491
    25  H    6.531564   5.293943   4.810869   5.082445   6.352754
    26  H    5.884307   4.290911   4.978657   5.333372   6.521655
    27  H    7.334501   6.502124   5.775332   6.575517   7.940204
    28  H    6.826729   5.768782   5.975986   6.828814   8.135000
    29  H    8.353701   6.791691   7.378599   7.827970   9.065917
    30  H    9.075738   7.811805   7.800159   8.410139   9.728490
                   11         12         13         14         15
    11  N    0.000000
    12  C    1.309387   0.000000
    13  N    2.209508   1.363218   0.000000
    14  C    6.840848   5.911316   4.731568   0.000000
    15  C    8.307699   7.386192   6.170174   1.526238   0.000000
    16  N    9.148555   8.108064   7.010374   2.450688   1.464138
    17  H    5.077197   4.468288   3.425433   2.586624   3.934182
    18  H    5.631303   5.470092   4.267257   4.045234   4.858340
    19  H    5.192412   5.656356   5.133353   6.613666   7.705801
    20  H    4.325397   4.043290   2.814240   4.364903   5.385016
    21  H    4.064410   4.300735   3.387266   5.600746   6.663376
    22  H    2.144715   3.158610   3.227717   7.238314   8.581347
    23  H    2.129776   1.077411   2.143501   6.199767   7.668140
    24  H    3.172791   2.121695   1.005137   3.910916   5.333053
    25  H    6.581433   5.517161   4.418057   1.093655   2.139717
    26  H    6.844952   5.936138   4.882272   1.093249   2.168434
    27  H    8.473171   7.564461   6.297485   2.137717   1.088584
[...]
 .00006999,-0.00002458,0.00008218,-0.00005302,0.00004802,0.00012437,0.0
 0034532,-0.00009507,-0.00002002,0.00001563,0.00002229,0.00003255,0.000
 02806,-0.00001884,-0.00033636,-0.00089804,-0.00023554,-0.00002848,-0.0
 0001024,-0.00039954,0.00054599,0.00117198,0.00076994,0.00084182,-0.000
 57233,0.00003010,0.02539234,0.05067843,0.00003237,-0.00126326,-0.00108
 831,0.00187463,0.00197895,0.00231675,-0.00236429,-0.00218732,0.0006428
 5,-0.00064369,0.00117867,-0.00084131,-0.00049741,0.00048527,-0.0003213
 9,0.00036583,-0.00016478,0.00024341,0.00019935,-0.00033731,0.00021720,
 0.00109606,-0.00019113,-0.00041229,-0.01029177,-0.00963293,-0.00763968
 ,-0.00225868,0.00373995,-0.00087987,-0.00009043,0.00295650,0.00502252,
 0.00645801,-0.00483286,-0.00166475,-0.18810360,0.01395600,-0.12289203,
 -0.00009978,-0.00007251,0.00011484,0.00016387,0.00006997,-0.00001887,-
 0.00011172,0.00001955,-0.00010094,0.00071298,0.00031630,-0.00088037,0.
 00013077,-0.00008729,-0.00003313,-0.00004351,0.00001880,-0.00004123,-0
 .00009389,0.00000121,0.00003555,-0.00002848,-0.00019807,0.00004285,-0.
 00112891,0.00013017,0.00112622,0.00036826,-0.00039978,-0.00093910,0.19
 440841,-0.00550719,0.12807870,-0.00125382,-0.00113447,0.00229825,0.006
 10977,0.01095726,-0.02602631,-0.00258640,-0.00012666,0.00068799,-0.000
 87698,-0.00064808,0.00098416,0.00008366,0.00001600,0.00028335,-0.00005
 593,0.00002377,-0.00009712,-0.00003941,-0.00006877,-0.00012385,-0.0002
 2707,0.00016889,-0.00035112,-0.00001547,0.00018678,-0.00009582,0.00006
 690,0.00001576,0.00003475,0.00009399,-0.00005520,0.00007612,-0.0001310
 0,-0.00017947,0.00002017,0.00001194,0.00004189,-0.00000263,-0.05185158
 ,-0.01610059,0.04340985,-0.00932859,-0.01414333,0.02693744,0.00276040,
 0.00111416,0.00013151,0.00016975,0.00059202,-0.00036666,0.00004896,0.0
 0001173,0.00004197,0.00001284,0.00000611,0.00000330,0.00003828,0.00000
 667,-0.00003496,-0.00012907,0.00001646,0.00008029,0.00001231,0.0000030
 0,0.00000797,-0.00000743,-0.00000932,0.00000132,-0.00024435,-0.0000312
 0,-0.00010183,0.06153710,0.00225009,0.00049321,-0.00262029,-0.00479706
 ,-0.00866214,0.01772818,0.00047667,-0.00021120,-0.00060611,0.00032498,
 0.00009761,-0.00004025,0.00006907,-0.00004595,-0.00008194,-0.00001955,
 0.00001810,0.00000675,-0.00004770,0.00004314,0.00003641,0.00004583,0.0
 0000959,0.00006949,0.00003277,-0.00002451,0.00002118,-0.00000850,-0.00
 000463,-0.00000193,-0.00001753,-0.00000421,-0.00001064,0.00001413,0.00
 003604,-0.00002091,0.00001981,-0.00002331,-0.00003311,-0.01885716,-0.0
 8569256,0.09156524,-0.00738997,-0.01010171,0.01801849,0.00189257,0.001
 21368,-0.00077218,0.00024298,0.00018481,-0.00011400,-0.00003842,-0.000
 00963,-0.00004699,-0.00000094,-0.00000462,0.00000591,-0.00002894,-0.00
 001181,0.00003908,0.00001519,0.00000138,-0.00000568,-0.00000316,-0.000
 00031,0.00000316,-0.00000815,-0.00000018,0.00000656,0.00003457,0.00011
 408,0.00006751,0.02346964,0.09323762,-0.00004779,-0.00097914,0.0007993
 0,-0.00009087,0.00312040,-0.00876508,-0.00128377,0.00054480,0.00069074
 ,-0.00051002,-0.00026590,0.00033302,0.00007495,-0.00002330,0.00002751,
 -0.00005436,0.00002113,-0.00004036,-0.00008156,0.00000438,0.00001416,-
 0.00007977,0.00013929,-0.00019098,-0.00003109,0.00015919,-0.00010061,0
 .00005124,0.00001839,0.00003086,0.00010459,-0.00003456,0.00007091,-0.0
 0013528,-0.00014934,-0.00000158,0.00006160,-0.00002699,0.00002433,0.04
 880832,0.09063003,-0.25184952,-0.00014767,0.00016640,0.00160247,-0.000
 19398,-0.00108430,0.00064385,0.00052196,0.00050080,-0.00024444,0.00007
 372,-0.00001487,0.00002032,0.00001219,0.00000760,-0.00000753,-0.000009
 03,-0.00000411,-0.00001442,-0.00006468,-0.00001487,0.00005015,0.000012
 49,0.00000042,0.00000494,-0.00001314,-0.00000884,0.00000769,-0.0002821
 9,0.00004282,-0.00002361,-0.05026155,-0.10055658,0.27321119,-0.0042443
 4,0.00571148,-0.00323431,0.00068641,0.01657176,0.02159957,-0.00027278,
 -0.00104977,-0.00099125,0.00022643,-0.00026321,0.00008062,-0.00007958,
 0.00021258,0.00009805,0.00006152,-0.00007425,0.00001673,0.00009111,-0.
 00017773,-0.00006533,0.00005041,-0.00001526,0.00006169,-0.00000320,0.0
 0004855,-0.00005255,0.00001665,-0.00000772,0.00000408,0.00000967,-0.00
 002969,0.00001766,-0.00004078,-0.00003880,-0.00000580,0.00004506,-0.00
 002934,-0.00002566,-0.05466922,0.02345305,0.01906020,0.00287008,-0.023
 03339,-0.02047147,0.00241201,0.00003278,0.00075514,-0.00148936,0.00078
 745,-0.00112743,0.00015290,-0.00002370,0.00014660,-0.00000785,0.000005
 80,-0.00000400,0.00006776,0.00000845,-0.00004274,0.00001677,-0.0000042
 0,-0.00001626,0.00000043,0.00000178,0.00000483,-0.00000857,-0.00000302
 ,0.00000937,-0.00004477,0.00009099,0.00006780,-0.00120084,0.00456438,0
 .00402016,0.05964803,0.00498810,-0.00217798,0.00176187,-0.00226915,-0.
 01568648,-0.01483009,-0.00131276,0.00131578,0.00025503,-0.00000697,-0.
 00004610,0.00066681,0.00025517,-0.00029303,-0.00011213,-0.00010903,0.0
 0011006,-0.00003481,-0.00019512,0.00017125,0.00010241,-0.00011755,0.00
 011238,-0.00013829,0.00000455,0.00000279,0.00003088,-0.00000608,0.0000
 0604,0.00000422,-0.00000130,0.00000378,-0.00000382,0.00000730,0.000012
 41,0.00000001,-0.00001618,0.00000167,0.00001426,0.02573090,-0.18776240
 ,-0.12211383,0.00228802,-0.01428423,-0.01209996,0.00045863,0.00126659,
 0.00102122,0.00104600,0.00086162,0.00057425,-0.00004221,0.00006249,-0.
 00008785,0.00002342,-0.00000624,0.00000934,-0.00006073,-0.00001481,0.0
 0004206,-0.00005373,-0.00000171,0.00004370,0.00000326,-0.00000201,-0.0
 0000271,0.00000071,-0.00000073,-0.00000216,0.00001371,-0.00001364,-0.0
 0003093,-0.00165281,0.01025724,0.00774768,-0.02570476,0.20629729,-0.00
 186972,0.00251911,0.00096126,-0.00198901,0.00752910,0.00428578,0.00001
 729,0.00057378,-0.00016434,0.00022630,0.00009602,0.00049690,0.00006766
 ,-0.00012107,-0.00008891,0.00000763,0.00002586,0.00004761,0.00001668,0
 .00008813,0.00003530,-0.00002339,-0.00001905,-0.00003102,-0.00000256,-
 0.00004146,0.00001667,-0.00001508,0.00000185,-0.00000833,-0.00000810,0
 .00003406,-0.00001056,0.00003286,0.00002157,0.00001730,-0.00004437,0.0
 0003412,0.00003820,0.02205109,-0.12480893,-0.15497119,0.00020915,-0.00
 182701,-0.00166197,-0.00005074,0.00064890,0.00025714,-0.00050875,0.000
 36680,0.00055445,-0.00000619,0.00006797,-0.00000087,0.00000021,-0.0000
 1044,0.00000538,0.00000024,0.00002597,0.00000927,0.00000837,0.00000391
 ,0.00001741,-0.00000157,-0.00000071,-0.00000541,0.00001437,0.00000168,
 -0.00001579,0.00003803,-0.00011687,-0.00009149,0.00418722,-0.02222534,
 -0.01861118,-0.02020883,0.13661433,0.16667304,-0.00047523,0.00147209,0
 .00098269,0.00072561,-0.00233355,-0.00175536,0.00039086,0.00088000,0.0
 0056404,-0.00007391,0.00021016,0.00001808,0.00004025,-0.00009935,-0.00
 009389,-0.00000816,0.00003029,0.00002687,-0.00003173,0.00008084,0.0000
 6820,-0.00000556,-0.00001506,-0.00002016,-0.00000970,-0.00002122,0.000
 01929,-0.00000859,0.00000318,-0.00000411,0.00000515,0.00002178,-0.0000
 0572,0.00000957,0.00001045,0.00000104,-0.00000436,0.00001097,0.0000154
 6,0.00290064,-0.02281778,-0.01954685,-0.05298738,0.02660011,0.02574913
 ,-0.00820052,0.02465978,0.01529456,0.00039216,-0.00015728,0.00029731,-
 0.00006843,0.00000358,-0.00006371,0.00000171,-0.00000358,-0.00000072,-
 0.00003527,0.00000358,0.00001839,0.00000270,0.00000149,0.00000467,-0.0
 0000095,-0.00000120,-0.00000198,0.00000416,0.00000126,-0.00000458,0.00
 001912,-0.00004293,-0.00002034,0.00153045,0.00056774,0.00026999,-0.005
 39670,-0.00293783,-0.00068421,0.06436516,0.00134770,0.00089334,0.00127
 087,0.00099748,-0.00154592,-0.00031341,-0.00010216,0.00007379,-0.00021
 914,0.00004979,0.00002100,0.00000900,0.00003229,-0.00002694,-0.0000018
 8,-0.00002657,0.00001532,-0.00001811,-0.00002403,0.00003442,-0.0000000
 6,-0.00000215,-0.00000174,-0.00001673,-0.00000015,-0.00000021,0.000008
 27,0.00000015,0.00000278,0.00000122,-0.00000087,0.00000007,0.00000265,
 0.00000035,0.00000074,0.00000281,-0.00001175,0.00000877,0.00001136,-0.
 00110256,-0.01455016,-0.01284599,0.02877076,-0.19175816,-0.12436929,0.
 00602982,-0.01717854,-0.01075192,0.00002530,0.00005795,0.00013460,-0.0
 0002472,0.00002188,-0.00001184,0.00000099,-0.00000240,0.00000234,-0.00
 001042,0.00000308,0.00000390,-0.00000396,0.00000161,0.00000656,0.00000
 107,-0.00000061,-0.00000150,0.00000231,-0.00000164,-0.00000418,0.00001
 113,-0.00001812,-0.00003320,0.00061417,0.00046858,0.00007637,-0.002667
 97,-0.00099848,0.00022156,-0.03474922,0.21375282,0.00112545,0.00170834
 ,0.00053111,0.00046971,-0.00297657,-0.00082131,0.00000681,0.00050131,0
 .00033072,-0.00000668,-0.00000910,-0.00002263,0.00004171,-0.00006027,-
 0.00006041,-0.00002149,0.00002492,-0.00000351,-0.00003944,0.00005071,0
 .00005580,0.00000206,-0.00000608,-0.00001077,-0.00000079,-0.00001994,0
 .00001881,-0.00000759,0.00000113,-0.00000264,-0.00000827,0.00001061,-0
 .00000938,0.00001669,0.00001677,-0.00000026,-0.00000580,0.00000037,-0.
 00000036,-0.00101480,-0.00123074,-0.00193571,0.02727603,-0.13069292,-0
 .16667101,-0.00295972,0.01302891,0.01056569,0.00004721,0.00004048,0.00
 010091,-0.00000950,0.00000294,-0.00002931,0.00000439,-0.00000256,0.000
 00023,-0.00001804,-0.00000462,0.00001696,-0.00000105,0.00000160,-0.000
 00025,-0.00000085,-0.00000066,-0.00000164,0.00000238,0.00000213,-0.000
 00101,0.00002000,-0.00001106,0.00000812,-0.00042275,0.00041894,0.00096
 066,-0.00050712,0.00027574,0.00140159,-0.02625587,0.13697363,0.1740858
 8,0.00001511,0.00127936,-0.00031327,0.00168755,-0.00241034,0.00145023,
 -0.00039386,0.00028844,-0.00063151,0.00004226,-0.00015797,0.00003137,-
 0.00001732,0.00003872,0.00010042,-0.00002784,0.00000680,-0.00006508,0.
 00001368,-0.00000410,-0.00007595,-0.00002954,0.00002922,-0.00001036,0.
 00003289,-0.00005170,0.00004815,-0.00001915,-0.00000984,-0.00001031,-0
 .00005779,-0.00000356,-0.00003293,0.00006598,0.00007042,0.00000328,-0.
 00004166,-0.00000101,-0.00001472,-0.01000017,-0.01112543,0.02504523,-0
 .06451431,-0.02325708,0.05330779,-0.00017733,0.01770560,-0.02870690,-0
 .00002525,-0.00002286,0.00015531,-0.00004897,0.00004017,0.00000736,-0.
 00000923,-0.00000559,0.00000721,0.00001139,-0.00001454,-0.00000390,-0.
 00001887,0.00000378,0.00000045,-0.00000409,0.00000060,-0.00000161,0.00
 000413,0.00000358,-0.00000165,0.00010595,0.00000449,0.00001221,-0.0048
 6446,-0.00320367,-0.00070222,0.00133966,0.00042674,-0.00063588,-0.0001
 2074,-0.00191388,0.00391347,0.07472957,-0.00012158,0.00055217,0.000243
 34,0.00077408,-0.00087812,0.00039252,-0.00020595,0.00017777,-0.0004014
 5,-0.00001178,-0.00005619,-0.00003209,-0.00009201,0.00010158,0.0000609
 9,0.00003075,-0.00002918,-0.00001211,0.00007270,-0.00003849,-0.0000615
 9,-0.00001901,0.00000095,0.00000271,0.00001505,-0.00003335,0.00001700,
 -0.00001281,-0.00000586,-0.00000796,-0.00002201,0.00001121,-0.00002176
 ,0.00003253,0.00003094,0.00000470,-0.00001177,-0.00000025,-0.00000845,
 -0.00866901,-0.00698621,0.01586720,-0.02381468,-0.08595054,0.07573056,
 0.00552911,-0.01098810,0.02061847,-0.00010470,-0.00005268,0.00010423,-
 0.00002137,0.00002225,0.00000080,-0.00001845,-0.00000273,-0.00000117,0
 .00000590,-0.00000461,-0.00000535,-0.00000389,0.00000247,-0.00000193,-
 0.00000479,0.00000120,0.00000008,0.00000307,0.00000361,0.00000014,0.00
 005083,-0.00001021,0.00001773,-0.00292446,-0.00123571,-0.00001496,0.00
 105013,0.00038004,0.00029206,0.00568076,0.01065748,-0.02036198,0.02357
 947,0.09364020,0.00015372,-0.00103337,0.00054370,0.00003440,0.00140966
 ,0.00019104,0.00047334,-0.00028172,0.00013140,0.00001844,0.00010701,0.
 00000991,0.00005037,-0.00002243,-0.00004078,-0.00000690,-0.00000628,0.
 00003093,-0.00003802,-0.00001263,0.00003899,0.00001981,-0.00002420,0.0
 0000873,-0.00001279,0.00002058,-0.00000318,0.00000636,0.00000585,0.000
 00712,0.00000846,-0.00001771,0.00001514,-0.00002067,-0.00001506,-0.000
 00440,0.00000720,0.00000204,0.00000546,-0.00034542,-0.00207195,0.00276
 668,0.05532112,0.07597403,-0.23578101,-0.00722160,0.01031328,-0.008183
 05,0.00001035,0.00005741,-0.00013228,0.00003887,-0.00003688,-0.0000038
 9,0.00001963,0.00000978,-0.00000048,-0.00000692,0.00000347,0.00000004,
 0.00001290,-0.00000212,-0.00000278,0.00000440,-0.00000111,-0.00000025,
 -0.00000301,-0.00000370,0.00000024,-0.00000568,0.00001313,-0.00001626,
 -0.00128423,-0.00052579,0.00134637,0.00036665,0.00049849,0.00082913,0.
 00642926,0.00821771,-0.01977678,-0.05270907,-0.09237524,0.25657962,-0.
 00006770,-0.00105213,-0.00027848,-0.00055467,0.00104840,-0.00041418,0.
 00005750,-0.00016624,0.00000987,-0.00005596,0.00004018,-0.00002656,-0.
 00007714,0.00006684,-0.00003547,0.00005885,-0.00004089,0.00005242,0.00
 005146,-0.00005417,0.00001323,0.00000589,-0.00000826,0.00001727,-0.000
 01086,0.00001575,-0.00002376,0.00000422,-0.00000063,0.00000104,0.00002
 702,0.00000140,0.00000985,-0.00002972,-0.00002275,-0.00000753,0.000032
 93,-0.00000598,-0.00000080,0.00125212,0.00127423,0.00155019,-0.0078834
 7,0.01798416,0.02305310,-0.09151046,0.08994030,0.06667517,-0.00008996,
 0.00001248,-0.00007050,0.00001630,-0.00001317,0.00000482,-0.00000575,0
 .00000635,-0.00001228,-0.00000170,0.00000641,-0.00000095,0.00001168,-0
 .00000092,-0.00000160,-0.00000022,-0.00000039,0.00000274,-0.00000609,-
 0.00000126,0.00000518,-0.00003284,0.00001644,0.00001594,-0.00012783,0.
 00009168,0.00004247,-0.00058608,-0.00076785,-0.00077546,-0.00377135,0.
 00272005,-0.00256726,0.00123281,-0.00055823,-0.00089940,0.09243518,0.0
 0008556,0.00005156,0.00006794,0.00014514,-0.00024171,0.00000130,-0.000
 04431,-0.00002931,0.00007363,0.00000740,0.00001072,-0.00001295,0.00000
 791,0.00001924,-0.00001444,0.00000019,-0.00001289,0.00001131,-0.000014
 82,-0.00002580,0.00001644,0.00000775,0.00000207,-0.00000507,-0.0000019
 2,0.00001522,-0.00000562,0.00000382,0.00000156,0.00000425,0.00000891,-
 0.00001589,0.00000822,-0.00001594,-0.00000790,-0.00000776,0.00001057,-
 0.00000415,-0.00000110,-0.00022582,0.00123163,0.00055354,0.00815044,-0
 .01727862,-0.01538493,0.06864053,-0.19420484,-0.16531884,0.00000335,0.
 00006786,-0.00004868,0.00000871,-0.00000970,-0.00000418,0.00000776,0.0
 0000739,-0.00000468,-0.00000263,0.00000046,0.00000080,0.00000074,-0.00
 000148,0.00000191,0.00000234,-0.00000084,0.00000153,-0.00000589,-0.000
 00185,0.00000436,-0.00001207,0.00002303,-0.00000181,-0.00015428,-0.000
 02034,0.00022841,0.00049028,0.00029197,-0.00032391,0.00314201,-0.00081
 156,0.00280459,-0.00169146,0.00072960,-0.00055503,-0.08631203,0.225693
 03,-0.00026302,0.00006978,-0.00004664,0.00013157,0.00008480,0.00012641
 ,0.00003081,-0.00001008,-0.00010872,-0.00002083,0.00000461,-0.00000208
 ,-0.00004193,0.00002726,0.00001344,0.00002494,-0.00000974,0.00000694,0
 .00003942,-0.00000867,-0.00002110,-0.00000794,-0.00000633,0.00000828,-
 0.00000084,-0.00001192,-0.00000014,-0.00000366,-0.00000142,-0.00000473
 ,-0.00000088,0.00001566,-0.00000735,0.00000793,0.00000091,0.00000517,-
 0.00000054,0.00000320,0.00000088,0.00061388,0.00030360,0.00058705,-0.0
 0694103,0.01660869,0.00769207,0.06455913,-0.21040721,-0.21508085,-0.00
 004587,-0.00003659,0.00002805,-0.00000464,0.00000413,0.00000456,-0.000
 01101,-0.00000354,-0.00000014,0.00000203,0.00000116,-0.00000240,0.0000
 0244,0.00000127,-0.00000232,-0.00000282,0.00000082,-0.00000037,0.00000
 400,0.00000184,-0.00000186,0.00000589,-0.00001968,0.00000779,0.0001405
 2,-0.00015318,-0.00028918,0.00030947,-0.00036490,0.00001228,-0.0021658
 6,0.00193252,0.00035536,0.00001352,0.00055320,0.00181538,-0.06350168,0
 .19443557,0.21463949,0.00009381,0.00074928,0.00018682,-0.00040539,-0.0
 0263212,-0.00025444,-0.00076286,0.00055814,-0.00029347,0.00008350,-0.0
 0020535,-0.00011461,0.00000638,0.00008391,0.00012875,-0.00006025,0.000
 00128,-0.00009706,-0.00001735,-0.00002431,-0.00007519,-0.00000420,0.00
 002176,-0.00003412,0.00001614,0.00000900,0.00001653,0.00000189,-0.0000
 0059,0.00000400,-0.00002004,-0.00002140,-0.00000135,0.00001009,0.00001
 173,0.00000135,-0.00002625,0.00000163,0.00000133,-0.00430430,0.0055910
 0,-0.00206926,-0.02075154,-0.01872266,-0.00210241,-0.29075086,-0.15884
 433,-0.09328841,0.00000078,0.00005324,0.00008126,-0.00001799,0.0000176
 3,-0.00000232,-0.00000329,0.00000058,0.00000443,0.00001234,-0.00001124
 ,-0.00000407,-0.00002263,-0.00000033,0.00000688,0.00000180,-0.00000007
 ,-0.00000098,-0.00000051,-0.00000218,-0.00000093,0.00002431,0.00001349
 ,-0.00002814,0.00046388,0.00030867,-0.00006470,0.00034915,0.00000754,-
 0.00005323,0.00081100,0.00003707,0.00092113,0.00108962,-0.00020788,-0.
 00042155,0.00962584,0.00775778,0.00712700,0.30455691,-0.00012753,-0.00
 011249,-0.00001737,0.00066388,0.00109043,-0.00006257,0.00024527,-0.000
 24530,0.00014553,-0.00002662,0.00002737,0.00010126,0.00001653,-0.00004
 284,-0.00002967,0.00000945,0.00000529,0.00002541,-0.00000561,0.0000129
 3,0.00001737,-0.00000701,0.00000159,0.00000524,-0.00000273,-0.00000365
 ,-0.00000184,-0.00000026,0.00000068,-0.00000134,-0.00000062,0.00000157
 ,0.00000042,0.00000257,0.00000086,0.00000085,-0.00000042,0.00000089,0.
 00000046,0.00244333,-0.00206631,0.00127177,0.02226682,0.01154911,0.009
 88483,-0.16702389,-0.17309587,-0.07987221,0.00002420,-0.00001105,-0.00
 003990,0.00001269,-0.00000352,0.00000800,0.00000549,0.00000085,0.00000
 204,-0.00000120,0.00000293,-0.00000195,0.00000402,0.00000039,-0.000000
 49,0.00000016,0.00000014,0.00000010,0.00000150,0.00000043,-0.00000130,
 -0.00000124,-0.00000558,0.00000380,-0.00001567,-0.00012227,-0.00023038
 ,0.00009335,0.00013442,0.00032800,-0.00020105,0.00088083,-0.00048664,0
 .00039562,-0.00003924,0.00035280,-0.02421978,-0.01547846,-0.00301576,0
 .16544876,0.17751587,0.00016074,-0.00004555,-0.00018457,-0.00019196,-0
 .00003861,0.00063467,0.00024757,-0.00010952,0.00009015,-0.00002407,0.0
 0006090,-0.00000722,-0.00006161,0.00002640,-0.00004514,0.00005814,-0.0
 0001916,0.00004574,0.00004999,-0.00001524,0.00001359,0.00000459,-0.000
 01413,0.00002772,-0.00000833,-0.00000537,-0.00001583,-0.00000084,-0.00
 000250,-0.00000514,0.00002080,0.00001835,-0.00000350,-0.00001065,-0.00
 001122,-0.00000122,0.00002628,-0.00000570,-0.00000397,0.00060969,0.001
 35329,-0.00017651,-0.01318974,-0.00448302,-0.00710377,-0.05585102,-0.0
 5086118,-0.03814875,-0.00004595,-0.00003817,-0.00002238,-0.00000364,-0
 .00000348,0.00000038,-0.00001302,-0.00000214,-0.00000342,-0.00000804,0
 .00000684,0.00000414,0.00001439,0.00000119,-0.00000289,-0.00000348,0.0
 0000104,0.00000263,-0.00000230,0.00000299,0.00000438,-0.00002745,-0.00
 000410,0.00002780,-0.00015733,-0.00017201,0.00030002,0.00013413,0.0001
 5918,0.00000235,0.00086440,-0.00028811,0.00091512,-0.00018065,-0.00059
 969,-0.00037476,-0.02283740,-0.01652483,-0.00973528,0.09042675,0.07161
 354,0.05376566\\-0.00000052,-0.00000250,-0.00000053,-0.00000064,0.0000
 0147,-0.00000120,0.00000069,0.00000053,0.00000102,-0.00000094,-0.00000
 051,0.00000158,0.00000093,-0.00000129,-0.00000081,0.,0.00000026,0.0000
 0020,-0.00000196,0.00000352,0.00000116,-0.00000076,0.00000040,0.000001
 16,-0.00000064,-0.00000109,-0.00000037,0.00000028,0.00000013,0.0000006
 1,0.00000146,0.00000011,0.00000046,0.00000007,-0.00000050,-0.00000074,
 -0.00000031,-0.00000093,-0.00000031,0.00000273,0.00000045,-0.00000498,
 -0.00000138,0.00000013,0.00000211,0.00000098,-0.00000061,-0.00000122,0
 .00000051,0.00000175,-0.00000075,-0.00000029,-0.00000008,0.00000102,-0
 .00000063,0.00000169,0.00000099,-0.00000007,-0.00000038,0.00000031,0.0
 0000009,-0.00000026,0.00000144,0.00000006,-0.00000028,0.00000110,0.000
 00042,-0.00000031,-0.00000094,0.00000051,0.00000039,0.00000008,0.,-0.0
 0000035,0.00000027,-0.00000021,0.00000005,0.00000107,-0.00000019,-0.00
 000139,-0.00000069,-0.00000018,-0.00000025,-0.00000012,0.00000020,0.00
 000049,-0.00000039,-0.00000022,-0.00000062,-0.00000153\\\@


 READER, WHETHER YOU BE DILETTANTE OR PROFESSOR ... SHOW YOURSELF TO BE
 MORE HUMAN THAN CRITICAL, AND THEN YOUR PLEASURE WILL INCREASE.
                                           -- DOMENICO SCARLATTI (1738)
 Job cpu time:       1 days  0 hours 54 minutes 25.6 seconds.
 File lengths (MBytes):  RWF=   1142 Int=      0 D2E=      0 Chk=     44 Scr=      1
 Normal termination of Gaussian 09 at Thu Jul 29 10:55:49 2021.
