 Entering Gaussian System, Link 0=g09
 Input=opt_freq-conf-490.com
 Output=opt_freq-conf-490.log
 Initial command:
 /aerosol/software/g09/l1.exe "/scratch/nicole/10731/Gau-97738.inp" -scrdir="/scratch/nicole/10731/"
 Entering Link 1 = /aerosol/software/g09/l1.exe PID=     97740.
  
 Copyright (c) 1988,1990,1992,1993,1995,1998,2003,2009,2013,
            Gaussian, Inc.  All Rights Reserved.
  
 This is part of the Gaussian(R) 09 program.  It is based on
 the Gaussian(R) 03 system (copyright 2003, Gaussian, Inc.),
 the Gaussian(R) 98 system (copyright 1998, Gaussian, Inc.),
 the Gaussian(R) 94 system (copyright 1995, Gaussian, Inc.),
 the Gaussian 92(TM) system (copyright 1992, Gaussian, Inc.),
 the Gaussian 90(TM) system (copyright 1990, Gaussian, Inc.),
 the Gaussian 88(TM) system (copyright 1988, Gaussian, Inc.),
 the Gaussian 86(TM) system (copyright 1986, Carnegie Mellon
 University), and the Gaussian 82(TM) system (copyright 1983,
 Carnegie Mellon University). Gaussian is a federally registered
 trademark of Gaussian, Inc.
  
 This software contains proprietary and confidential information,
 including trade secrets, belonging to Gaussian, Inc.
  
 This software is provided under written license and may be
 used, copied, transmitted, or stored only in accord with that
 written license.
  
 The following legend is applicable only to US Government
 contracts under FAR:
  
                    RESTRICTED RIGHTS LEGEND
  
 Use, reproduction and disclosure by the US Government is
 subject to restrictions as set forth in subparagraphs (a)
 and (c) of the Commercial Computer Software - Restricted
 Rights clause in FAR 52.227-19.
  
 Gaussian, Inc.
 340 Quinnipiac St., Bldg. 40, Wallingford CT 06492
  
  
 ---------------------------------------------------------------
 Warning -- This program may not be used in any manner that
 competes with the business of Gaussian, Inc. or will provide
 assistance to any competitor of Gaussian, Inc.  The licensee
 of this program is prohibited from giving any competitor of
 Gaussian, Inc. access to this program.  By using this program,
 the user acknowledges that Gaussian, Inc. is engaged in the
 business of creating and licensing software in the field of
 computational chemistry and represents and warrants to the
 licensee that it is not a competitor of Gaussian, Inc. and that
 it will not use this program in any manner prohibited above.
 ---------------------------------------------------------------
  

 Cite this work as:
 Gaussian 09, Revision D.01,
 M. J. Frisch, G. W. Trucks, H. B. Schlegel, G. E. Scuseria, 
 M. A. Robb, J. R. Cheeseman, G. Scalmani, V. Barone, B. Mennucci, 
 G. A. Petersson, H. Nakatsuji, M. Caricato, X. Li, H. P. Hratchian, 
 A. F. Izmaylov, J. Bloino, G. Zheng, J. L. Sonnenberg, M. Hada, 
 M. Ehara, K. Toyota, R. Fukuda, J. Hasegawa, M. Ishida, T. Nakajima, 
 Y. Honda, O. Kitao, H. Nakai, T. Vreven, J. A. Montgomery, Jr., 
 J. E. Peralta, F. Ogliaro, M. Bearpark, J. J. Heyd, E. Brothers, 
 K. N. Kudin, V. N. Staroverov, T. Keith, R. Kobayashi, J. Normand, 
 K. Raghavachari, A. Rendell, J. C. Burant, S. S. Iyengar, J. Tomasi, 
 M. Cossi, N. Rega, J. M. Millam, M. Klene, J. E. Knox, J. B. Cross, 
 V. Bakken, C. Adamo, J. Jaramillo, R. Gomperts, R. E. Stratmann, 
 O. Yazyev, A. J. Austin, R. Cammi, C. Pomelli, J. W. Ochterski, 
 R. L. Martin, K. Morokuma, V. G. Zakrzewski, G. A. Voth, 
 P. Salvador, J. J. Dannenberg, S. Dapprich, A. D. Daniels, 
 O. Farkas, J. B. Foresman, J. V. Ortiz, J. Cioslowski, 
 and D. J. Fox, Gaussian, Inc., Wallingford CT, 2013.
 
 ******************************************
 Gaussian 09:  ES64L-G09RevD.01 24-Apr-2013
                29-Jul-2021 
 ******************************************
 %mem=2gb
 %nproc=4
 Will use up to    4 processors via shared memory.
 %chk=conf-490.chk
 ----------------------------------------------------------------------
 # B3LYP/6-311++G(2df,2pd) guess=read geom=checkpoint opt=readfc freq=n
 oraman nosymm integral(ultrafinegrid)
 ----------------------------------------------------------------------
 1/10=3,14=-1,18=20,19=15,26=4,29=2,38=1/1,3;
 2/9=110,12=2,15=1,40=1/2;
 3/5=4,6=6,7=1414,11=2,14=-4,16=1,25=1,30=1,71=1,74=-5,75=-5,116=-2/1,2,3;
 4/5=1/1;
 5/5=2,38=6/2;
 6/7=2,8=2,9=2,10=2,28=1/1;
 7/30=1/1,2,3,16;
 1/14=-1,18=20,19=15,26=4/3(2);
 2/9=110,15=1/2;
 99//99;
 2/9=110,15=1/2;
 3/5=4,6=6,7=1414,11=2,14=-2,16=1,25=1,30=1,71=1,74=-5,75=-5/1,2,3;
 4/5=5,16=3,69=1/1;
 5/5=2,38=5/2;
 7/30=1/1,2,3,16;
 1/14=-1,18=20,19=15,26=4/3(-5);
 2/9=110,15=1/2;
 6/7=2,8=2,9=2,10=2,19=2,28=1/1;
 99/9=1/99;
 ------------------------------------------------------------
 Candidate Structure: Conf:490 OPT and FREQ calc in gas phase
 ------------------------------------------------------------
 Structure from the checkpoint file:  "conf-490.chk"
 Charge =  0 Multiplicity = 1
 Redundant internal coordinates found in file.
 O,0,0.8698950808,0.5000428548,-2.3334619343
 C,0,1.5668140585,0.1456466656,-1.3827698697
 N,0,1.0802509264,0.0390923457,-0.1164266313
 C,0,-0.27585961,0.4330572718,0.1819096255
 C,0,-0.3873052049,0.7078785317,1.6853063178
 O,0,-1.5328602862,1.2916223847,2.0917805487
 O,0,0.4755215204,0.4178360796,2.4804678711
 C,0,-1.2993400582,-0.6469064839,-0.2977719621
 C,0,-2.73633002,-0.2639376572,-0.1141377012
 C,0,-3.5072515054,0.7542926232,-0.641310465
 N,0,-4.7927611001,0.7171844021,-0.1430018078
 C,0,-4.8125286074,-0.3087107073,0.6780222607
 N,0,-3.5980695296,-0.9337577731,0.7361427378
 C,0,3.0385999664,-0.2315656526,-1.569090866
 C,0,3.9943824177,0.1735662122,-0.4376220711
 N,0,3.699586475,-0.5693459522,0.7968244347
 H,0,1.719310383,-0.2135527369,0.6438132617
 H,0,-0.5048684279,1.3549759766,-0.368689312
 H,0,-2.1415344815,1.4069186746,1.3389961091
 H,0,-1.081269545,-0.8003086058,-1.3581942784
 H,0,-1.0830259755,-1.5867201208,0.2224357103
 H,0,-3.2089304207,1.4923996652,-1.3738834675
 H,0,-5.6635130323,-0.6442788286,1.2544289842
 H,0,-3.3589340247,-1.728453624,1.310413086
 H,0,3.094686895,-1.3185008,-1.7238665122
 H,0,3.3501755878,0.2313633955,-2.5087488709
 H,0,5.0302562823,0.0445269941,-0.7889822048
 H,0,3.8670292292,1.2399268065,-0.2204846945
 H,0,4.1921097516,-0.1684745612,1.5896853112
 H,0,4.0055743655,-1.5359341204,0.71282574
 Recover connectivity data from disk.

 GradGradGradGradGradGradGradGradGradGradGradGradGradGradGradGradGradGrad
 Berny optimization.
 Initialization pass.
 Force constant matrix read from checkpoint file:
 "conf-490.chk"
                           ----------------------------
                           !    Initial Parameters    !
                           ! (Angstroms and Degrees)  !
 --------------------------                            --------------------------
 ! Name  Definition              Value          Derivative Info.                !
 --------------------------------------------------------------------------------
 ! R1    R(1,2)                  1.2309         D2E/DX2 =    0.7777             !
 ! R2    R(2,3)                  1.3608         D2E/DX2 =    0.4642             !
 ! R3    R(2,14)                 1.5307         D2E/DX2 =    0.2754             !
 ! R4    R(3,4)                  1.4433         D2E/DX2 =    0.358              !
 ! R5    R(3,17)                 1.0248         D2E/DX2 =    0.4077             !
 ! R6    R(4,5)                  1.5324         D2E/DX2 =    0.2678             !
 ! R7    R(4,8)                  1.5633         D2E/DX2 =    0.2447             !
 ! R8    R(4,18)                 1.098          D2E/DX2 =    0.3281             !
 ! R9    R(5,6)                  1.3484         D2E/DX2 =    0.4214             !
 ! R10   R(5,7)                  1.2087         D2E/DX2 =    0.8758             !
 ! R11   R(6,19)                 0.9749         D2E/DX2 =    0.4814             !
 ! R12   R(8,9)                  1.4984         D2E/DX2 =    0.3098             !
 ! R13   R(8,20)                 1.0934         D2E/DX2 =    0.3407             !
 ! R14   R(8,21)                 1.0957         D2E/DX2 =    0.3346             !
 ! R15   R(9,10)                 1.3817         D2E/DX2 =    0.3967             !
 ! R16   R(9,13)                 1.3836         D2E/DX2 =    0.3609             !
 ! R17   R(10,11)                1.3792         D2E/DX2 =    0.3325             !
 ! R18   R(10,22)                1.0819         D2E/DX2 =    0.3716             !
 ! R19   R(11,12)                1.3141         D2E/DX2 =    0.4653             !
 ! R20   R(12,13)                1.3671         D2E/DX2 =    0.3598             !
 ! R21   R(12,23)                1.0812         D2E/DX2 =    0.3744             !
 ! R22   R(13,24)                1.0092         D2E/DX2 =    0.4757             !
 ! R23   R(14,15)                1.5355         D2E/DX2 =    0.2824             !
 ! R24   R(14,25)                1.0993         D2E/DX2 =    0.3276             !
 ! R25   R(14,26)                1.0929         D2E/DX2 =    0.3436             !
 ! R26   R(15,16)                1.4706         D2E/DX2 =    0.3221             !
 ! R27   R(15,27)                1.1014         D2E/DX2 =    0.3172             !
 ! R28   R(15,28)                1.0957         D2E/DX2 =    0.3351             !
 ! R29   R(16,29)                1.0158         D2E/DX2 =    0.4522             !
 ! R30   R(16,30)                1.0173         D2E/DX2 =    0.4462             !
 ! A1    A(1,2,3)              122.6057         D2E/DX2 =    0.2092             !
 ! A2    A(1,2,14)             121.4209         D2E/DX2 =    0.1826             !
 ! A3    A(3,2,14)             115.9615         D2E/DX2 =    0.2163             !
 ! A4    A(2,3,4)              120.4596         D2E/DX2 =    0.1508             !
 ! A5    A(2,3,17)             119.1236         D2E/DX2 =    0.1114             !
 ! A6    A(4,3,17)             119.991          D2E/DX2 =    0.0951             !
 ! A7    A(3,4,5)              108.6674         D2E/DX2 =    0.0918             !
 ! A8    A(3,4,8)              111.2929         D2E/DX2 =    0.0948             !
 ! A9    A(3,4,18)             108.7538         D2E/DX2 =    0.0294             !
 ! A10   A(5,4,8)              112.1676         D2E/DX2 =    0.0996             !
 ! A11   A(5,4,18)             109.0403         D2E/DX2 =    0.0243             !
 ! A12   A(8,4,18)             106.8358         D2E/DX2 =    0.0318             !
 ! A13   A(4,5,6)              115.7959         D2E/DX2 =    0.1957             !
 ! A14   A(4,5,7)              123.4007         D2E/DX2 =    0.1847             !
 ! A15   A(6,5,7)              120.7993         D2E/DX2 =    0.2025             !
 ! A16   A(5,6,19)             110.4162         D2E/DX2 =    0.1987             !
 ! A17   A(4,8,9)              114.4361         D2E/DX2 =    0.1742             !
 ! A18   A(4,8,20)             105.3031         D2E/DX2 =    0.061              !
 ! A19   A(4,8,21)             108.5176         D2E/DX2 =    0.0629             !
 ! A20   A(9,8,20)             110.2408         D2E/DX2 =    0.0529             !
 ! A21   A(9,8,21)             110.5083         D2E/DX2 =    0.054              !
 ! A22   A(20,8,21)            107.5009         D2E/DX2 =    0.0204             !
 ! A23   A(8,9,10)             132.584          D2E/DX2 =    0.0951             !
 ! A24   A(8,9,13)             123.2904         D2E/DX2 =    0.1049             !
 ! A25   A(10,9,13)            104.1075         D2E/DX2 =    0.1021             !
 ! A26   A(9,10,11)            111.2461         D2E/DX2 =    0.1141             !
 ! A27   A(9,10,22)            127.3935         D2E/DX2 =    0.0821             !
 ! A28   A(11,10,22)           121.3331         D2E/DX2 =    0.0896             !
 ! A29   A(10,11,12)           105.1147         D2E/DX2 =    0.131              !
 ! A30   A(11,12,13)           111.7232         D2E/DX2 =    0.1184             !
 ! A31   A(11,12,23)           125.9584         D2E/DX2 =    0.0894             !
 ! A32   A(13,12,23)           122.3181         D2E/DX2 =    0.0902             !
 ! A33   A(9,13,12)            107.8079         D2E/DX2 =    0.1029             !
 ! A34   A(9,13,24)            125.6858         D2E/DX2 =    0.0783             !
 ! A35   A(12,13,24)           126.4918         D2E/DX2 =    0.0789             !
 ! A36   A(2,14,15)            116.3443         D2E/DX2 =    0.2143             !
 ! A37   A(2,14,25)            108.0495         D2E/DX2 =    0.0543             !
 ! A38   A(2,14,26)            105.9259         D2E/DX2 =    0.0668             !
 ! A39   A(15,14,25)           109.4417         D2E/DX2 =    0.0617             !
 ! A40   A(15,14,26)           110.1416         D2E/DX2 =    0.0639             !
 ! A41   A(25,14,26)           106.4524         D2E/DX2 =    0.0216             !
 ! A42   A(14,15,16)           111.129          D2E/DX2 =    0.1935             !
 ! A43   A(14,15,27)           108.6282         D2E/DX2 =    0.0647             !
 ! A44   A(14,15,28)           109.2967         D2E/DX2 =    0.0587             !
 ! A45   A(16,15,27)           113.3983         D2E/DX2 =    0.0678             !
 ! A46   A(16,15,28)           107.5782         D2E/DX2 =    0.0556             !
 ! A47   A(27,15,28)           106.652          D2E/DX2 =    0.0223             !
 ! A48   A(15,16,29)           111.0156         D2E/DX2 =    0.1376             !
 ! A49   A(15,16,30)           110.5101         D2E/DX2 =    0.1407             !
 ! A50   A(29,16,30)           107.0709         D2E/DX2 =    0.0581             !
 ! D1    D(1,2,3,4)             -4.3219         D2E/DX2 =    0.0136             !
 ! D2    D(1,2,3,17)          -176.8334         D2E/DX2 =    0.0167             !
 ! D3    D(14,2,3,4)           176.9153         D2E/DX2 =    0.011              !
 ! D4    D(14,2,3,17)            4.4039         D2E/DX2 =    0.0118             !
 ! D5    D(1,2,14,15)          143.436          D2E/DX2 =    0.0171             !
 ! D6    D(1,2,14,25)          -93.0585         D2E/DX2 =    0.0144             !
 ! D7    D(1,2,14,26)           20.6919         D2E/DX2 =    0.0159             !
 ! D8    D(3,2,14,15)          -37.7854         D2E/DX2 =    0.0187             !
 ! D9    D(3,2,14,25)           85.7201         D2E/DX2 =    0.016              !
 ! D10   D(3,2,14,26)         -160.5294         D2E/DX2 =    0.0163             !
 ! D11   D(2,3,4,5)           -159.0616         D2E/DX2 =    0.0143             !
 ! D12   D(2,3,4,8)             76.9433         D2E/DX2 =    0.0159             !
 ! D13   D(2,3,4,18)           -40.483          D2E/DX2 =    0.0087             !
 ! D14   D(17,3,4,5)            13.3849         D2E/DX2 =    0.0145             !
 ! D15   D(17,3,4,8)          -110.6102         D2E/DX2 =    0.015              !
 ! D16   D(17,3,4,18)          131.9635         D2E/DX2 =    0.0097             !
 ! D17   D(3,4,5,6)            169.754          D2E/DX2 =    0.0221             !
 ! D18   D(3,4,5,7)            -10.9832         D2E/DX2 =    0.0205             !
 ! D19   D(8,4,5,6)            -66.7729         D2E/DX2 =    0.0267             !
 ! D20   D(8,4,5,7)            112.4899         D2E/DX2 =    0.022              !
 ! D21   D(18,4,5,6)            51.3562         D2E/DX2 =    0.0165             !
 ! D22   D(18,4,5,7)          -129.3811         D2E/DX2 =    0.0149             !
 ! D23   D(3,4,8,9)           -175.7109         D2E/DX2 =    0.019              !
 ! D24   D(3,4,8,20)           -54.4922         D2E/DX2 =    0.0196             !
 ! D25   D(3,4,8,21)            60.3705         D2E/DX2 =    0.0186             !
 ! D26   D(5,4,8,9)             62.3014         D2E/DX2 =    0.0234             !
 ! D27   D(5,4,8,20)          -176.4799         D2E/DX2 =    0.0218             !
 ! D28   D(5,4,8,21)           -61.6172         D2E/DX2 =    0.0193             !
 ! D29   D(18,4,8,9)           -57.127          D2E/DX2 =    0.0129             !
 ! D30   D(18,4,8,20)           64.0917         D2E/DX2 =    0.0138             !
 ! D31   D(18,4,8,21)          178.9544         D2E/DX2 =    0.0144             !
 ! D32   D(4,5,6,19)             2.8601         D2E/DX2 =    0.0131             !
 ! D33   D(7,5,6,19)          -176.4234         D2E/DX2 =    0.02               !
 ! D34   D(4,8,9,10)            62.7755         D2E/DX2 =    0.0116             !
 ! D35   D(4,8,9,13)          -115.4129         D2E/DX2 =    0.0116             !
 ! D36   D(20,8,9,10)          -55.6828         D2E/DX2 =    0.0136             !
 ! D37   D(20,8,9,13)          126.1288         D2E/DX2 =    0.0138             !
 ! D38   D(21,8,9,10)         -174.3766         D2E/DX2 =    0.0135             !
 ! D39   D(21,8,9,13)            7.4351         D2E/DX2 =    0.0128             !
 ! D40   D(8,9,10,11)         -178.5749         D2E/DX2 =    0.0092             !
 ! D41   D(8,9,10,22)            3.3235         D2E/DX2 =    0.0072             !
 ! D42   D(13,9,10,11)          -0.1363         D2E/DX2 =    0.0139             !
 ! D43   D(13,9,10,22)        -178.2379         D2E/DX2 =    0.0099             !
 ! D44   D(8,9,13,12)          178.8612         D2E/DX2 =    0.0079             !
 ! D45   D(8,9,13,24)            0.1741         D2E/DX2 =    0.0026             !
 ! D46   D(10,9,13,12)           0.2365         D2E/DX2 =    0.0123             !
 ! D47   D(10,9,13,24)        -178.4507         D2E/DX2 =    0.0045             !
 ! D48   D(9,10,11,12)          -0.0208         D2E/DX2 =    0.0173             !
 ! D49   D(22,10,11,12)        178.2135         D2E/DX2 =    0.0101             !
 ! D50   D(10,11,12,13)          0.1782         D2E/DX2 =    0.0184             !
 ! D51   D(10,11,12,23)       -179.9914         D2E/DX2 =    0.0102             !
 ! D52   D(11,12,13,9)          -0.2706         D2E/DX2 =    0.0173             !
 ! D53   D(11,12,13,24)        178.4029         D2E/DX2 =    0.0078             !
 ! D54   D(23,12,13,9)         179.8918         D2E/DX2 =    0.0102             !
 ! D55   D(23,12,13,24)         -1.4346         D2E/DX2 =    0.0061             !
 ! D56   D(2,14,15,16)          66.7185         D2E/DX2 =    0.0233             !
 ! D57   D(2,14,15,27)        -167.8628         D2E/DX2 =    0.0173             !
 ! D58   D(2,14,15,28)         -51.8595         D2E/DX2 =    0.0155             !
 ! D59   D(25,14,15,16)        -56.0634         D2E/DX2 =    0.0167             !
 ! D60   D(25,14,15,27)         69.3553         D2E/DX2 =    0.0157             !
 ! D61   D(25,14,15,28)       -174.6414         D2E/DX2 =    0.0172             !
 ! D62   D(26,14,15,16)       -172.7666         D2E/DX2 =    0.0208             !
 ! D63   D(26,14,15,27)        -47.348          D2E/DX2 =    0.016              !
 ! D64   D(26,14,15,28)         68.6554         D2E/DX2 =    0.0158             !
 ! D65   D(14,15,16,29)       -168.0184         D2E/DX2 =    0.0155             !
 ! D66   D(14,15,16,30)         73.3308         D2E/DX2 =    0.0159             !
 ! D67   D(27,15,16,29)         69.2741         D2E/DX2 =    0.0186             !
 ! D68   D(27,15,16,30)        -49.3767         D2E/DX2 =    0.0185             !
 ! D69   D(28,15,16,29)        -48.4108         D2E/DX2 =    0.0176             !
 ! D70   D(28,15,16,30)       -167.0616         D2E/DX2 =    0.019              !
 --------------------------------------------------------------------------------
 Trust Radius=3.00D-01 FncErr=1.00D-07 GrdErr=1.00D-06
 Number of steps in this run=    160 maximum allowed number of steps=    180.
 GradGradGradGradGradGradGradGradGradGradGradGradGradGradGradGradGradGrad

                          Input orientation:                          
 ---------------------------------------------------------------------
 Center     Atomic      Atomic             Coordinates (Angstroms)
 Number     Number       Type             X           Y           Z
 ---------------------------------------------------------------------
      1          8           0        0.869895    0.500043   -2.333462
      2          6           0        1.566814    0.145647   -1.382770
      3          7           0        1.080251    0.039092   -0.116427
      4          6           0       -0.275860    0.433057    0.181910
      5          6           0       -0.387305    0.707879    1.685306
      6          8           0       -1.532860    1.291622    2.091781
      7          8           0        0.475522    0.417836    2.480468
      8          6           0       -1.299340   -0.646906   -0.297772
      9          6           0       -2.736330   -0.263938   -0.114138
     10          6           0       -3.507252    0.754293   -0.641310
     11          7           0       -4.792761    0.717184   -0.143002
     12          6           0       -4.812529   -0.308711    0.678022
     13          7           0       -3.598070   -0.933758    0.736143
     14          6           0        3.038600   -0.231566   -1.569091
     15          6           0        3.994382    0.173566   -0.437622
     16          7           0        3.699586   -0.569346    0.796824
     17          1           0        1.719310   -0.213553    0.643813
     18          1           0       -0.504868    1.354976   -0.368689
     19          1           0       -2.141534    1.406919    1.338996
     20          1           0       -1.081270   -0.800309   -1.358194
     21          1           0       -1.083026   -1.586720    0.222436
     22          1           0       -3.208930    1.492400   -1.373883
     23          1           0       -5.663513   -0.644279    1.254429
     24          1           0       -3.358934   -1.728454    1.310413
     25          1           0        3.094687   -1.318501   -1.723867
     26          1           0        3.350176    0.231363   -2.508749
     27          1           0        5.030256    0.044527   -0.788982
     28          1           0        3.867029    1.239927   -0.220485
     29          1           0        4.192110   -0.168475    1.589685
     30          1           0        4.005574   -1.535934    0.712826
 ---------------------------------------------------------------------
                    Distance matrix (angstroms):
                    1          2          3          4          5
     1  O    0.000000
     2  C    1.230897   0.000000
     3  N    2.274197   1.360780   0.000000
     4  C    2.764839   2.434394   1.443346   0.000000
     5  C    4.215951   3.680731   2.418106   1.532367   0.000000
     6  O    5.097313   4.795179   3.643262   2.442292   1.348434
     7  O    4.830757   4.023632   2.693140   2.418300   1.208667
     8  C    3.188277   3.165470   2.483130   1.563307   2.569017
     9  C    4.302781   4.504912   3.828593   2.574366   3.114537
    10  C    4.699727   5.163947   4.672493   3.350041   3.892218
    11  N    6.075438   6.504451   5.912088   4.537477   4.769784
    12  C    6.481748   6.719324   5.956254   4.623604   4.650879
    13  N    5.607224   5.686029   4.853864   3.634892   3.728926
    14  C    2.413047   1.530738   2.453288   3.807016   4.817726
    15  C    3.669226   2.605220   2.934862   4.322745   4.898112
    16  N    4.353095   3.132182   2.839920   4.145733   4.373029
    17  H    3.177246   2.063812   1.024788   2.147595   2.524197
    18  H    2.545823   2.604363   2.075522   1.097970   2.156723
    19  H    4.835088   4.769766   3.790660   2.401666   1.919872
    20  H    2.539509   2.812078   2.630352   2.131149   3.466859
    21  H    3.834200   3.549568   2.727244   2.175468   2.808772
    22  H    4.306086   4.962011   4.700040   3.485054   4.235054
    23  H    7.541078   7.736694   6.915533   5.598014   5.463731
    24  H    6.010575   5.918486   4.986627   3.930776   3.860937
    25  H    2.937415   2.143472   2.912881   4.249767   5.277589
    26  H    2.500941   2.110818   3.303442   4.519785   5.637901
    27  H    4.461112   3.515429   4.006857   5.408184   5.992671
    28  H    3.740978   2.799883   3.036275   4.239869   4.691959
    29  H    5.184121   3.978233   3.554936   4.722968   4.663494
    30  H    4.822609   3.628607   3.424308   4.742307   5.027704
                    6          7          8          9         10
     6  O    0.000000
     7  O    2.224450   0.000000
     8  C    3.085837   3.464452   0.000000
     9  C    2.955365   4.184828   1.498441   0.000000
    10  C    3.414195   5.071606   2.637470   1.381674   0.000000
    11  N    3.993893   5.892962   3.753490   2.278671   1.379211
    12  C    3.913567   5.633840   3.661836   2.222639   2.138776
    13  N    3.324930   4.632885   2.536813   1.383557   2.180628
    14  C    6.051473   4.836323   4.539436   5.955481   6.684375
    15  C    6.180480   4.577914   5.358753   6.752669   7.526835
    16  N    5.702509   3.768790   5.117951   6.507238   7.467179
    17  H    3.865071   2.306288   3.191650   4.519929   5.468566
    18  H    2.667338   3.155486   2.154936   2.768591   3.073995
    19  H    0.974916   3.021626   2.757988   2.292845   2.492532
    20  H    4.059857   4.317731   1.093427   2.138830   2.969191
    21  H    3.461453   3.397944   1.095745   2.143933   3.478975
    22  H    3.854912   5.439292   3.062872   2.212472   1.081878
    23  H    4.638013   6.349725   4.631991   3.253619   3.193633
    24  H    3.614684   4.547377   2.828061   2.135834   3.161527
    25  H    6.541108   5.248935   4.668218   6.140366   7.003855
    26  H    6.792132   5.761136   5.222813   6.559347   7.126366
    27  H    7.275200   5.619099   6.386169   7.801950   8.568233
    28  H    5.874355   4.412856   5.500680   6.773276   7.402226
    29  H    5.929525   3.866559   5.826441   7.135503   8.069015
    30  H    6.369525   4.404889   5.473006   6.910508   7.970030
                   11         12         13         14         15
    11  N    0.000000
    12  C    1.314128   0.000000
    13  N    2.219413   1.367104   0.000000
    14  C    8.016488   8.166743   7.060634   0.000000
    15  C    8.808871   8.890384   7.762037   1.535537   0.000000
    16  N    8.640509   8.516933   7.307001   2.479628   1.470606
    17  H    6.625136   6.532622   5.366726   2.576392   2.548591
    18  H    4.340937   4.734912   4.003355   4.063772   4.652283
    19  H    3.114651   3.242604   2.822002   6.162418   6.505921
    20  H    4.189827   4.279035   3.276940   4.164285   5.249584
    21  H    4.382198   3.968634   2.648716   4.694019   5.414274
    22  H    2.150476   3.166361   3.238808   6.483965   7.382657
    23  H    2.136493   1.081215   2.149064   9.158022   9.839047
    24  H    3.185815   2.128033   1.009214   7.173608   7.793880
    25  H    8.297890   8.325431   7.140915   1.099331   2.165673
    26  H    8.493539   8.779347   7.756606   1.092859   2.169772
    27  H    9.867190   9.957776   8.816522   2.156732   1.101426
    28  H    8.675899   8.862298   7.833756   2.161093   1.095670
    29  H    9.193177   9.051757   7.874077   3.363396   2.065445
    30  H    9.122483   8.903158   7.627487   2.800636   2.060594
                   16         17         18         19         20
    16  N    0.000000
    17  H    2.017794   0.000000
    18  H    4.768530   2.903862   0.000000
    19  H    6.190175   4.244447   2.365917   0.000000
    20  H    5.249194   3.492215   2.440617   3.642918   0.000000
    21  H    4.923246   3.149006   3.055695   3.365861   1.765457
    22  H    7.529301   5.591863   2.888123   2.916566   3.127890
    23  H    9.374575   7.420543   5.765687   4.076628   5.277035
    24  H    7.171472   5.341147   4.524667   3.363545   3.629142
    25  H    2.698336   2.952707   4.684099   6.650342   4.223843
    26  H    3.419070   3.577194   4.550135   6.807786   4.693168
    27  H    2.159237   3.616887   5.703642   7.603880   6.195845
    28  H    2.082408   2.733553   4.375922   6.209888   5.471984
    29  H    1.015827   2.647913   5.312037   6.531444   6.074351
    30  H    1.017338   2.642056   5.465449   6.843933   5.541322
                   21         22         23         24         25
    21  H    0.000000
    22  H    4.068007   0.000000
    23  H    4.788953   4.183109   0.000000
    24  H    2.526567   4.195455   2.547480   0.000000
    25  H    4.616635   6.910806   9.275284   7.143118   0.000000
    26  H    5.515258   6.774954   9.806877   7.964862   1.755960
    27  H    6.407508   8.385860  10.909019   8.827765   2.545247
    28  H    5.717443   7.173791   9.826334   7.960495   3.066304
    29  H    5.630972   8.143503   9.872795   7.715555   3.675122
    30  H    5.112428   8.097792   9.725206   7.391222   2.610453
                   26         27         28         29         30
    26  H    0.000000
    27  H    2.411468   0.000000
    28  H    2.553525   1.762177   0.000000
    29  H    4.203081   2.530992   2.316460   0.000000
    30  H    3.732483   2.408995   2.931837   1.635122   0.000000
 Symmetry turned off by external request.
 Stoichiometry    C9H14N4O3
 Framework group  C1[X(C9H14N4O3)]
 Deg. of freedom    84
 Full point group                 C1      NOp   1
 Rotational constants (GHZ):      1.0885050      0.2708301      0.2354884
 Standard basis: 6-311++G(2df,2pd) (5D, 7F)
   754 basis functions,  1084 primitive gaussians,   848 cartesian basis functions
    60 alpha electrons       60 beta electrons
       nuclear repulsion energy      1125.1355492679 Hartrees.
 NAtoms=   30 NActive=   30 NUniq=   30 SFac= 1.00D+00 NAtFMM=   60 NAOKFM=F Big=F
 Integral buffers will be    131072 words long.
 Raffenetti 2 integral format.
 Two-electron integral symmetry is turned off.
 One-electron integrals computed using PRISM.
 NBasis=   754 RedAO= T EigKep=  1.31D-06  NBF=   754
 NBsUse=   754 1.00D-06 EigRej= -1.00D+00 NBFU=   754
 Initial guess from the checkpoint file:  "conf-490.chk"
 B after Tr=     0.000000    0.000000    0.000000
         Rot=    1.000000    0.000000    0.000000    0.000000 Ang=   0.00 deg.
 Requested convergence on RMS density matrix=1.00D-08 within 128 cycles.
 Requested convergence on MAX density matrix=1.00D-06.
 Requested convergence on             energy=1.00D-06.
 No special actions if energy rises.
 SCF Done:  E(RB3LYP) =  -796.380246431     A.U. after   14 cycles
            NFock= 14  Conv=0.16D-08     -V/T= 2.0043

 **********************************************************************

            Population analysis using the SCF density.

 **********************************************************************

 Alpha  occ. eigenvalues --  -19.18058 -19.12386 -19.09140 -14.38772 -14.33671
 Alpha  occ. eigenvalues --  -14.32115 -14.30974 -10.31759 -10.27558 -10.24410
 Alpha  occ. eigenvalues --  -10.23995 -10.22677 -10.21820 -10.20822 -10.19920
 Alpha  occ. eigenvalues --  -10.18870  -1.11676  -1.04110  -1.03579  -1.03262
 Alpha  occ. eigenvalues --   -0.93454  -0.90800  -0.89036  -0.81663  -0.77502
 Alpha  occ. eigenvalues --   -0.74489  -0.68818  -0.64733  -0.63395  -0.62822
 Alpha  occ. eigenvalues --   -0.60981  -0.58544  -0.57115  -0.54870  -0.52328
 Alpha  occ. eigenvalues --   -0.50599  -0.48610  -0.48215  -0.47035  -0.46784
 Alpha  occ. eigenvalues --   -0.45843  -0.44957  -0.44206  -0.43911  -0.42486
 Alpha  occ. eigenvalues --   -0.42136  -0.41009  -0.40458  -0.40025  -0.38827
 Alpha  occ. eigenvalues --   -0.38041  -0.35716  -0.33832  -0.30545  -0.29624
 Alpha  occ. eigenvalues --   -0.28932  -0.27697  -0.27225  -0.26077  -0.24581
 Alpha virt. eigenvalues --   -0.02604  -0.02058  -0.01765  -0.00325  -0.00044
 Alpha virt. eigenvalues --    0.00341   0.00731   0.01105   0.01504   0.01891
 Alpha virt. eigenvalues --    0.02603   0.03037   0.03691   0.04099   0.04296
 Alpha virt. eigenvalues --    0.04944   0.05277   0.05937   0.06596   0.07217
 Alpha virt. eigenvalues --    0.07967   0.08140   0.08265   0.08719   0.09476
 Alpha virt. eigenvalues --    0.09889   0.10138   0.10572   0.10769   0.10865
 Alpha virt. eigenvalues --    0.11363   0.11623   0.11705   0.12071   0.12274
 Alpha virt. eigenvalues --    0.12701   0.13312   0.13611   0.13727   0.13921
 Alpha virt. eigenvalues --    0.14248   0.14724   0.15031   0.15266   0.15782
 Alpha virt. eigenvalues --    0.15996   0.16422   0.17047   0.17320   0.17797
 Alpha virt. eigenvalues --    0.18281   0.18323   0.18759   0.19233   0.19509
 Alpha virt. eigenvalues --    0.19723   0.20456   0.20742   0.20884   0.21142
 Alpha virt. eigenvalues --    0.21837   0.22319   0.22477   0.22892   0.23113
 Alpha virt. eigenvalues --    0.23524   0.23882   0.24450   0.24767   0.25234
 Alpha virt. eigenvalues --    0.25307   0.25913   0.26722   0.27301   0.27818
 Alpha virt. eigenvalues --    0.28189   0.28193   0.28712   0.29334   0.29546
 Alpha virt. eigenvalues --    0.29886   0.30273   0.30452   0.30920   0.31119
 Alpha virt. eigenvalues --    0.31389   0.32510   0.32770   0.33165   0.33640
 Alpha virt. eigenvalues --    0.33714   0.34118   0.34593   0.34781   0.35479
 Alpha virt. eigenvalues --    0.36149   0.37009   0.37462   0.37934   0.38581
 Alpha virt. eigenvalues --    0.39375   0.39533   0.41234   0.41505   0.42783
 Alpha virt. eigenvalues --    0.43113   0.43807   0.44581   0.44750   0.46405
 Alpha virt. eigenvalues --    0.46922   0.47112   0.48372   0.49274   0.50164
 Alpha virt. eigenvalues --    0.50328   0.51380   0.52132   0.52718   0.53409
 Alpha virt. eigenvalues --    0.53764   0.54831   0.55209   0.55845   0.56361
 Alpha virt. eigenvalues --    0.57080   0.57846   0.57960   0.58401   0.58593
 Alpha virt. eigenvalues --    0.59551   0.59765   0.60370   0.61110   0.61402
 Alpha virt. eigenvalues --    0.62391   0.62825   0.63132   0.63731   0.64086
 Alpha virt. eigenvalues --    0.65437   0.66022   0.66488   0.66782   0.67447
 Alpha virt. eigenvalues --    0.68340   0.68471   0.69368   0.70330   0.70776
 Alpha virt. eigenvalues --    0.71251   0.71745   0.72452   0.72841   0.74142
 Alpha virt. eigenvalues --    0.74540   0.75561   0.76195   0.77089   0.77937
 Alpha virt. eigenvalues --    0.78189   0.78424   0.80030   0.80435   0.80779
 Alpha virt. eigenvalues --    0.81142   0.82312   0.82781   0.83258   0.84159
 Alpha virt. eigenvalues --    0.84908   0.85188   0.86286   0.86362   0.87906
 Alpha virt. eigenvalues --    0.88460   0.89131   0.89953   0.92019   0.92507
 Alpha virt. eigenvalues --    0.93243   0.94010   0.95792   0.96897   0.97097
 Alpha virt. eigenvalues --    0.98047   0.99088   1.00711   1.01149   1.01545
 Alpha virt. eigenvalues --    1.02549   1.02827   1.03483   1.04723   1.05185
 Alpha virt. eigenvalues --    1.06056   1.07863   1.08225   1.08692   1.09200
 Alpha virt. eigenvalues --    1.10070   1.11373   1.12009   1.12759   1.13186
 Alpha virt. eigenvalues --    1.13703   1.14753   1.16287   1.17016   1.17112
 Alpha virt. eigenvalues --    1.17540   1.18446   1.18488   1.19351   1.20292
 Alpha virt. eigenvalues --    1.21266   1.21946   1.22530   1.23415   1.23533
 Alpha virt. eigenvalues --    1.24321   1.25058   1.26752   1.26887   1.27415
 Alpha virt. eigenvalues --    1.28414   1.29116   1.29561   1.30833   1.31375
 Alpha virt. eigenvalues --    1.32341   1.32857   1.34025   1.35597   1.35991
 Alpha virt. eigenvalues --    1.36926   1.37684   1.38028   1.38734   1.39591
 Alpha virt. eigenvalues --    1.40277   1.41289   1.41448   1.42188   1.43001
 Alpha virt. eigenvalues --    1.44289   1.45194   1.46657   1.47627   1.48439
 Alpha virt. eigenvalues --    1.48734   1.50146   1.50381   1.51650   1.51924
 Alpha virt. eigenvalues --    1.52827   1.53654   1.54745   1.55497   1.56251
 Alpha virt. eigenvalues --    1.57099   1.57478   1.57622   1.58842   1.60832
 Alpha virt. eigenvalues --    1.61791   1.63061   1.64013   1.65059   1.65596
 Alpha virt. eigenvalues --    1.67013   1.68427   1.68925   1.69153   1.71044
 Alpha virt. eigenvalues --    1.72441   1.74690   1.76360   1.77055   1.78416
 Alpha virt. eigenvalues --    1.79113   1.80611   1.80895   1.81583   1.82970
 Alpha virt. eigenvalues --    1.84444   1.85541   1.88102   1.88802   1.90519
 Alpha virt. eigenvalues --    1.91495   1.94653   1.95788   1.97305   1.99505
 Alpha virt. eigenvalues --    2.02498   2.05187   2.09257   2.11824   2.12259
 Alpha virt. eigenvalues --    2.13629   2.15666   2.16300   2.19508   2.23559
 Alpha virt. eigenvalues --    2.26450   2.34301   2.36240   2.43846   2.48049
 Alpha virt. eigenvalues --    2.49116   2.50231   2.50706   2.52320   2.52887
 Alpha virt. eigenvalues --    2.53301   2.58240   2.59031   2.60545   2.61494
 Alpha virt. eigenvalues --    2.62849   2.63968   2.65701   2.67643   2.70058
 Alpha virt. eigenvalues --    2.70988   2.72017   2.72616   2.73457   2.74959
 Alpha virt. eigenvalues --    2.75102   2.75487   2.78469   2.78538   2.79126
 Alpha virt. eigenvalues --    2.80848   2.81362   2.83100   2.83709   2.84499
 Alpha virt. eigenvalues --    2.85521   2.86193   2.87775   2.88027   2.88790
 Alpha virt. eigenvalues --    2.89170   2.90410   2.91268   2.91460   2.93017
 Alpha virt. eigenvalues --    2.94187   2.94359   2.95103   2.95931   2.97098
 Alpha virt. eigenvalues --    2.97319   2.98069   2.98922   3.01134   3.01644
 Alpha virt. eigenvalues --    3.02769   3.03829   3.04089   3.05301   3.06226
 Alpha virt. eigenvalues --    3.06424   3.07280   3.08632   3.09621   3.10005
 Alpha virt. eigenvalues --    3.10580   3.12380   3.12957   3.13143   3.13528
 Alpha virt. eigenvalues --    3.14316   3.14813   3.15383   3.16163   3.17265
 Alpha virt. eigenvalues --    3.18177   3.18942   3.19579   3.21136   3.22300
 Alpha virt. eigenvalues --    3.22977   3.24338   3.25211   3.25818   3.26443
 Alpha virt. eigenvalues --    3.26809   3.27134   3.27809   3.28791   3.28918
 Alpha virt. eigenvalues --    3.29598   3.30817   3.31382   3.32074   3.33351
 Alpha virt. eigenvalues --    3.33985   3.34378   3.34926   3.35552   3.35864
 Alpha virt. eigenvalues --    3.37092   3.37781   3.38725   3.39376   3.40385
 Alpha virt. eigenvalues --    3.40660   3.41102   3.41592   3.43204   3.43797
 Alpha virt. eigenvalues --    3.44609   3.45881   3.47019   3.47104   3.48130
 Alpha virt. eigenvalues --    3.49224   3.49682   3.50621   3.50910   3.51550
 Alpha virt. eigenvalues --    3.52453   3.52688   3.54382   3.55233   3.56080
 Alpha virt. eigenvalues --    3.56973   3.57385   3.58338   3.59578   3.60286
 Alpha virt. eigenvalues --    3.61039   3.61865   3.62317   3.63327   3.65160
 Alpha virt. eigenvalues --    3.66587   3.67331   3.67640   3.68079   3.69591
 Alpha virt. eigenvalues --    3.69759   3.70513   3.71342   3.72235   3.72739
 Alpha virt. eigenvalues --    3.74099   3.75830   3.76629   3.76972   3.78019
 Alpha virt. eigenvalues --    3.78876   3.80063   3.81053   3.82236   3.83656
 Alpha virt. eigenvalues --    3.83950   3.85193   3.85643   3.86401   3.86477
 Alpha virt. eigenvalues --    3.87546   3.88334   3.88862   3.89432   3.90818
 Alpha virt. eigenvalues --    3.91726   3.92385   3.92720   3.93194   3.94561
 Alpha virt. eigenvalues --    3.95694   3.96196   3.97317   3.97799   3.99004
 Alpha virt. eigenvalues --    3.99592   3.99970   4.01351   4.02421   4.02942
 Alpha virt. eigenvalues --    4.04024   4.04795   4.05544   4.06452   4.07205
 Alpha virt. eigenvalues --    4.07975   4.08156   4.09311   4.10302   4.11258
 Alpha virt. eigenvalues --    4.11697   4.13037   4.13183   4.14550   4.15932
 Alpha virt. eigenvalues --    4.16997   4.18734   4.21107   4.21549   4.22173
 Alpha virt. eigenvalues --    4.22910   4.24255   4.26349   4.26785   4.27778
 Alpha virt. eigenvalues --    4.29532   4.29838   4.31149   4.31755   4.33256
 Alpha virt. eigenvalues --    4.34394   4.35173   4.36844   4.38603   4.40284
 Alpha virt. eigenvalues --    4.41222   4.43900   4.44231   4.45243   4.46760
 Alpha virt. eigenvalues --    4.48903   4.49874   4.50947   4.52760   4.54312
 Alpha virt. eigenvalues --    4.55371   4.56981   4.58042   4.59747   4.61325
 Alpha virt. eigenvalues --    4.61989   4.62607   4.66192   4.67882   4.70060
 Alpha virt. eigenvalues --    4.70587   4.72403   4.74608   4.76199   4.76393
 Alpha virt. eigenvalues --    4.79088   4.79682   4.82289   4.83619   4.84387
 Alpha virt. eigenvalues --    4.86234   4.86748   4.88039   4.89739   4.90798
 Alpha virt. eigenvalues --    4.91627   4.93757   4.95234   4.96103   4.97017
 Alpha virt. eigenvalues --    4.97681   4.98130   4.99952   5.00258   5.02853
 Alpha virt. eigenvalues --    5.04252   5.05017   5.06009   5.06238   5.06582
 Alpha virt. eigenvalues --    5.08297   5.09602   5.09935   5.09990   5.11968
 Alpha virt. eigenvalues --    5.12559   5.13245   5.15092   5.15491   5.16555
 Alpha virt. eigenvalues --    5.17489   5.18278   5.19092   5.20213   5.20366
 Alpha virt. eigenvalues --    5.21276   5.21963   5.23162   5.24639   5.26096
 Alpha virt. eigenvalues --    5.27205   5.27576   5.29800   5.29978   5.31519
 Alpha virt. eigenvalues --    5.33283   5.34886   5.35472   5.36684   5.39437
 Alpha virt. eigenvalues --    5.41149   5.42352   5.44333   5.46023   5.47744
 Alpha virt. eigenvalues --    5.48898   5.50713   5.52683   5.54192   5.55677
 Alpha virt. eigenvalues --    5.56957   5.57849   5.58238   5.58910   5.59743
 Alpha virt. eigenvalues --    5.61379   5.65969   5.66910   5.67793   5.68721
 Alpha virt. eigenvalues --    5.72369   5.76805   5.78591   5.79097   5.82931
 Alpha virt. eigenvalues --    5.83908   5.84843   5.85871   5.87200   5.90121
 Alpha virt. eigenvalues --    5.94356   5.96136   5.97043   6.04245   6.04848
 Alpha virt. eigenvalues --    6.12496   6.13072   6.14554   6.18027   6.26590
 Alpha virt. eigenvalues --    6.28804   6.29800   6.35284   6.37313   6.37857
 Alpha virt. eigenvalues --    6.39306   6.41526   6.44260   6.45741   6.45765
 Alpha virt. eigenvalues --    6.53511   6.54607   6.60803   6.68450   6.70531
 Alpha virt. eigenvalues --    6.84245   6.87529   6.92229   6.94300   7.00720
 Alpha virt. eigenvalues --    7.00999   7.02195   7.07508   7.14524   7.20374
 Alpha virt. eigenvalues --    7.21070   7.26058   7.28734   7.30045   7.30866
 Alpha virt. eigenvalues --    7.44134   7.47176   7.57249   7.60275   7.71307
 Alpha virt. eigenvalues --    7.73521   7.78006   7.97151  24.50791  24.72828
 Alpha virt. eigenvalues --   24.83126  24.87505  24.99713  25.03210  25.06588
 Alpha virt. eigenvalues --   25.08498  25.11561  35.98064  36.24301  36.26818
 Alpha virt. eigenvalues --   36.43686  50.18951  50.23223  50.29334
          Condensed to atoms (all electrons):
               1          2          3          4          5          6
     1  O    8.181544   0.352759  -0.067699  -0.028194   0.009927   0.000000
     2  C    0.352759   6.864619   0.118240  -0.587495   0.071887   0.008930
     3  N   -0.067699   0.118240   6.739873  -0.105555  -0.043510   0.000663
     4  C   -0.028194  -0.587495  -0.105555   8.987499  -0.969933  -0.013172
     5  C    0.009927   0.071887  -0.043510  -0.969933   6.509789   0.303714
     6  O    0.000000   0.008930   0.000663  -0.013172   0.303714   7.803393
     7  O    0.000337   0.027000   0.006789   0.018900   0.326771  -0.052773
     8  C    0.003106   0.370997  -0.074324  -1.051305  -0.196644   0.091539
     9  C   -0.038204  -0.305238   0.203259  -0.432433   0.060700  -0.009766
    10  C    0.001964  -0.028632  -0.000898  -0.246352   0.084826  -0.092781
    11  N   -0.000024   0.001411   0.000649   0.011302   0.008207  -0.004839
    12  C    0.000005  -0.002986   0.001297   0.013083   0.046589  -0.012857
    13  N   -0.000738   0.003277  -0.004340   0.019502   0.065515  -0.004236
    14  C    0.016861  -0.653904  -0.067518  -0.044490  -0.004875   0.000180
    15  C   -0.002849  -0.082128  -0.044900   0.026798  -0.018873  -0.000492
    16  N   -0.000995   0.050000   0.015761  -0.085938   0.014802   0.000216
    17  H    0.005911  -0.013300   0.371114  -0.046837   0.023450   0.001328
    18  H    0.000889   0.013847  -0.059419   0.502032  -0.136978  -0.006606
    19  H    0.000528   0.006671   0.000474   0.040229  -0.111556   0.186295
    20  H   -0.021011  -0.004460   0.019732  -0.186345   0.023611  -0.004044
    21  H    0.009887   0.010896  -0.013659   0.092741  -0.077689   0.001839
    22  H   -0.002087   0.001502  -0.000154   0.006255  -0.001287   0.000442
    23  H   -0.000010  -0.000347   0.000051  -0.005380   0.000407   0.001266
    24  H   -0.000281   0.001175   0.000846  -0.002227   0.002493  -0.003976
    25  H    0.000619  -0.151393   0.005628   0.016445   0.002233  -0.000093
    26  H   -0.001744  -0.090671   0.002879  -0.007560   0.000910   0.000052
    27  H    0.000171   0.000876  -0.002239   0.004181  -0.002591  -0.000014
    28  H   -0.001443  -0.010042   0.011263   0.001502  -0.000683   0.000176
    29  H   -0.000371   0.015048   0.000501   0.002984  -0.000818   0.000014
    30  H    0.000019  -0.015750   0.005520  -0.001594   0.000025  -0.000004
               7          8          9         10         11         12
     1  O    0.000337   0.003106  -0.038204   0.001964  -0.000024   0.000005
     2  C    0.027000   0.370997  -0.305238  -0.028632   0.001411  -0.002986
     3  N    0.006789  -0.074324   0.203259  -0.000898   0.000649   0.001297
     4  C    0.018900  -1.051305  -0.432433  -0.246352   0.011302   0.013083
     5  C    0.326771  -0.196644   0.060700   0.084826   0.008207   0.046589
     6  O   -0.052773   0.091539  -0.009766  -0.092781  -0.004839  -0.012857
     7  O    8.065237  -0.017722  -0.019672  -0.017682  -0.000019  -0.002451
     8  C   -0.017722  14.197820  -6.281292  -0.875373  -0.235850  -0.295319
     9  C   -0.019672  -6.281292  13.738036  -0.518308  -0.053354  -0.272603
    10  C   -0.017682  -0.875373  -0.518308   7.183054   0.446906  -0.133748
    11  N   -0.000019  -0.235850  -0.053354   0.446906   6.884325   0.298587
    12  C   -0.002451  -0.295319  -0.272603  -0.133748   0.298587   5.383193
    13  N   -0.002756  -0.284079   0.065283  -0.011292   0.061438   0.446901
    14  C    0.002335  -0.059316   0.029338  -0.020072   0.000112  -0.000903
    15  C   -0.009615  -0.011267  -0.012965   0.002019   0.000038  -0.000188
    16  N    0.007703   0.026449  -0.001686  -0.001205   0.000003  -0.000031
    17  H   -0.002255   0.039249  -0.082658  -0.005608  -0.000236  -0.001896
    18  H   -0.002000   0.062596  -0.116420   0.001860  -0.000546  -0.004793
    19  H    0.015090  -0.131875   0.153014   0.001614   0.004114   0.013008
    20  H   -0.001269   0.366822   0.139106  -0.018509  -0.001843  -0.004388
    21  H    0.001603   0.430764  -0.154734  -0.019896   0.001104  -0.008760
    22  H   -0.000253   0.006985  -0.119010   0.477193  -0.089734   0.030598
    23  H   -0.000079   0.023088   0.035532   0.014309  -0.077694   0.428416
    24  H    0.000331  -0.045472  -0.063494   0.059455  -0.000354  -0.025736
    25  H   -0.000321  -0.009651  -0.000161  -0.000461  -0.000004  -0.000005
    26  H    0.000293   0.003153  -0.004378  -0.000662   0.000001  -0.000002
    27  H   -0.000637  -0.000758   0.000560   0.000044   0.000001  -0.000003
    28  H    0.001919   0.000383  -0.002555  -0.000375  -0.000003  -0.000005
    29  H   -0.001432  -0.000755   0.000322   0.000099   0.000001   0.000010
    30  H    0.000703   0.001813   0.000605   0.000009   0.000000   0.000005
              13         14         15         16         17         18
     1  O   -0.000738   0.016861  -0.002849  -0.000995   0.005911   0.000889
     2  C    0.003277  -0.653904  -0.082128   0.050000  -0.013300   0.013847
     3  N   -0.004340  -0.067518  -0.044900   0.015761   0.371114  -0.059419
     4  C    0.019502  -0.044490   0.026798  -0.085938  -0.046837   0.502032
     5  C    0.065515  -0.004875  -0.018873   0.014802   0.023450  -0.136978
     6  O   -0.004236   0.000180  -0.000492   0.000216   0.001328  -0.006606
     7  O   -0.002756   0.002335  -0.009615   0.007703  -0.002255  -0.002000
     8  C   -0.284079  -0.059316  -0.011267   0.026449   0.039249   0.062596
     9  C    0.065283   0.029338  -0.012965  -0.001686  -0.082658  -0.116420
    10  C   -0.011292  -0.020072   0.002019  -0.001205  -0.005608   0.001860
    11  N    0.061438   0.000112   0.000038   0.000003  -0.000236  -0.000546
    12  C    0.446901  -0.000903  -0.000188  -0.000031  -0.001896  -0.004793
    13  N    6.298883  -0.001335  -0.000002  -0.000035   0.000927  -0.006574
    14  C   -0.001335   5.732676   0.239112   0.008149  -0.003896  -0.010281
    15  C   -0.000002   0.239112   5.214782   0.112948  -0.008491   0.004317
    16  N   -0.000035   0.008149   0.112948   6.521604  -0.084035  -0.002341
    17  H    0.000927  -0.003896  -0.008491  -0.084035   0.510186   0.004522
    18  H   -0.006574  -0.010281   0.004317  -0.002341   0.004522   0.642754
    19  H   -0.013128   0.002234  -0.000037   0.000182  -0.005987  -0.007896
    20  H   -0.003907   0.003216  -0.002913   0.002837  -0.001859  -0.015692
    21  H   -0.014967   0.008315   0.007174  -0.001604  -0.000994   0.019049
    22  H    0.015932  -0.001790   0.000032  -0.000043   0.000196  -0.003898
    23  H   -0.081459  -0.000006  -0.000010  -0.000001  -0.000074   0.000660
    24  H    0.398414  -0.000307  -0.000040  -0.000041   0.000742  -0.002455
    25  H    0.000040   0.443442  -0.024233  -0.015056   0.006520   0.001118
    26  H    0.000040   0.505025  -0.018420   0.004923  -0.001959  -0.001651
    27  H   -0.000014  -0.052096   0.415973  -0.042631  -0.009616   0.000763
    28  H    0.000061  -0.047373   0.411089  -0.053125   0.010375  -0.001658
    29  H    0.000012  -0.005396  -0.048823   0.370331   0.010369   0.000594
    30  H   -0.000002   0.004729  -0.031921   0.347027   0.009809  -0.000807
              19         20         21         22         23         24
     1  O    0.000528  -0.021011   0.009887  -0.002087  -0.000010  -0.000281
     2  C    0.006671  -0.004460   0.010896   0.001502  -0.000347   0.001175
     3  N    0.000474   0.019732  -0.013659  -0.000154   0.000051   0.000846
     4  C    0.040229  -0.186345   0.092741   0.006255  -0.005380  -0.002227
     5  C   -0.111556   0.023611  -0.077689  -0.001287   0.000407   0.002493
     6  O    0.186295  -0.004044   0.001839   0.000442   0.001266  -0.003976
     7  O    0.015090  -0.001269   0.001603  -0.000253  -0.000079   0.000331
     8  C   -0.131875   0.366822   0.430764   0.006985   0.023088  -0.045472
     9  C    0.153014   0.139106  -0.154734  -0.119010   0.035532  -0.063494
    10  C    0.001614  -0.018509  -0.019896   0.477193   0.014309   0.059455
    11  N    0.004114  -0.001843   0.001104  -0.089734  -0.077694  -0.000354
    12  C    0.013008  -0.004388  -0.008760   0.030598   0.428416  -0.025736
    13  N   -0.013128  -0.003907  -0.014967   0.015932  -0.081459   0.398414
    14  C    0.002234   0.003216   0.008315  -0.001790  -0.000006  -0.000307
    15  C   -0.000037  -0.002913   0.007174   0.000032  -0.000010  -0.000040
    16  N    0.000182   0.002837  -0.001604  -0.000043  -0.000001  -0.000041
    17  H   -0.005987  -0.001859  -0.000994   0.000196  -0.000074   0.000742
    18  H   -0.007896  -0.015692   0.019049  -0.003898   0.000660  -0.002455
    19  H    0.578094   0.000532   0.002292  -0.001015  -0.001124  -0.000740
    20  H    0.000532   0.651968  -0.070473   0.004983  -0.000609   0.002636
    21  H    0.002292  -0.070473   0.756769  -0.003591   0.000605  -0.006932
    22  H   -0.001015   0.004983  -0.003591   0.579083   0.000545   0.002372
    23  H   -0.001124  -0.000609   0.000605   0.000545   0.567908  -0.006155
    24  H   -0.000740   0.002636  -0.006932   0.002372  -0.006155   0.552486
    25  H   -0.000080  -0.000397   0.000293  -0.000083   0.000000   0.000013
    26  H    0.000076  -0.000678   0.000132   0.000050   0.000000   0.000005
    27  H   -0.000004  -0.000130   0.000369  -0.000012   0.000000  -0.000005
    28  H   -0.000123  -0.000311  -0.000320   0.000008  -0.000001   0.000007
    29  H   -0.000060  -0.000067  -0.000099   0.000000   0.000000   0.000002
    30  H    0.000051   0.000196  -0.000674   0.000010   0.000000   0.000009
              25         26         27         28         29         30
     1  O    0.000619  -0.001744   0.000171  -0.001443  -0.000371   0.000019
     2  C   -0.151393  -0.090671   0.000876  -0.010042   0.015048  -0.015750
     3  N    0.005628   0.002879  -0.002239   0.011263   0.000501   0.005520
     4  C    0.016445  -0.007560   0.004181   0.001502   0.002984  -0.001594
     5  C    0.002233   0.000910  -0.002591  -0.000683  -0.000818   0.000025
     6  O   -0.000093   0.000052  -0.000014   0.000176   0.000014  -0.000004
     7  O   -0.000321   0.000293  -0.000637   0.001919  -0.001432   0.000703
     8  C   -0.009651   0.003153  -0.000758   0.000383  -0.000755   0.001813
     9  C   -0.000161  -0.004378   0.000560  -0.002555   0.000322   0.000605
    10  C   -0.000461  -0.000662   0.000044  -0.000375   0.000099   0.000009
    11  N   -0.000004   0.000001   0.000001  -0.000003   0.000001   0.000000
    12  C   -0.000005  -0.000002  -0.000003  -0.000005   0.000010   0.000005
    13  N    0.000040   0.000040  -0.000014   0.000061   0.000012  -0.000002
    14  C    0.443442   0.505025  -0.052096  -0.047373  -0.005396   0.004729
    15  C   -0.024233  -0.018420   0.415973   0.411089  -0.048823  -0.031921
    16  N   -0.015056   0.004923  -0.042631  -0.053125   0.370331   0.347027
    17  H    0.006520  -0.001959  -0.009616   0.010375   0.010369   0.009809
    18  H    0.001118  -0.001651   0.000763  -0.001658   0.000594  -0.000807
    19  H   -0.000080   0.000076  -0.000004  -0.000123  -0.000060   0.000051
    20  H   -0.000397  -0.000678  -0.000130  -0.000311  -0.000067   0.000196
    21  H    0.000293   0.000132   0.000369  -0.000320  -0.000099  -0.000674
    22  H   -0.000083   0.000050  -0.000012   0.000008   0.000000   0.000010
    23  H    0.000000   0.000000   0.000000  -0.000001   0.000000   0.000000
    24  H    0.000013   0.000005  -0.000005   0.000007   0.000002   0.000009
    25  H    0.719284  -0.037735  -0.006681   0.010260   0.001717   0.001075
    26  H   -0.037735   0.608235  -0.006223  -0.000873  -0.002025   0.000864
    27  H   -0.006681  -0.006223   0.708650  -0.055699   0.002101  -0.013871
    28  H    0.010260  -0.000873  -0.055699   0.668681  -0.006664   0.011693
    29  H    0.001717  -0.002025   0.002101  -0.006664   0.586262  -0.040921
    30  H    0.001075   0.000864  -0.013871   0.011693  -0.040921   0.624420
 Mulliken charges:
               1
     1  O   -0.418877
     2  C    0.027212
     3  N   -0.020323
     4  C    0.071358
     5  C    0.009582
     6  O   -0.194394
     7  O   -0.344074
     8  C   -0.053763
     9  C    0.063174
    10  C   -0.281497
    11  N   -0.253699
    12  C    0.104985
    13  N    0.052638
    14  C   -0.022166
    15  C   -0.116119
    16  N   -0.194166
    17  H    0.275003
    18  H    0.125016
    19  H    0.269125
    20  H    0.123264
    21  H    0.030556
    22  H    0.096771
    23  H    0.100160
    24  H    0.137228
    25  H    0.037666
    26  H    0.047943
    27  H    0.059535
    28  H    0.053837
    29  H    0.117063
    30  H    0.096960
 Sum of Mulliken charges =   0.00000
 Mulliken charges with hydrogens summed into heavy atoms:
               1
     1  O   -0.418877
     2  C    0.027212
     3  N    0.254680
     4  C    0.196374
     5  C    0.009582
     6  O    0.074731
     7  O   -0.344074
     8  C    0.100058
     9  C    0.063174
    10  C   -0.184726
    11  N   -0.253699
    12  C    0.205145
    13  N    0.189866
    14  C    0.063443
    15  C   -0.002747
    16  N    0.019858
 Electronic spatial extent (au):  <R**2>=           4654.0418
 Charge=              0.0000 electrons
 Dipole moment (field-independent basis, Debye):
    X=              3.2111    Y=             -3.8508    Z=              1.0803  Tot=              5.1291
 Quadrupole moment (field-independent basis, Debye-Ang):
   XX=            -84.8719   YY=            -89.7987   ZZ=           -112.6170
   XY=              8.8958   XZ=             -6.5730   YZ=             -3.7407
 Traceless Quadrupole moment (field-independent basis, Debye-Ang):
   XX=             10.8906   YY=              5.9638   ZZ=            -16.8545
   XY=              8.8958   XZ=             -6.5730   YZ=             -3.7407
 Octapole moment (field-independent basis, Debye-Ang**2):
  XXX=            262.1055  YYY=            -42.6514  ZZZ=            -30.5065  XYY=             42.2249
  XXY=            -77.6601  XXZ=             39.3111  XZZ=             33.9488  YZZ=            -30.2511
  YYZ=             -4.1915  XYZ=             16.4906
 Hexadecapole moment (field-independent basis, Debye-Ang**3):
 XXXX=          -4869.0057 YYYY=           -339.2641 ZZZZ=          -1200.2333 XXXY=            325.5057
 XXXZ=             39.8533 YYYX=             74.1566 YYYZ=            -46.5504 ZZZX=            257.8633
 ZZZY=            -48.8480 XXYY=           -835.3165 XXZZ=           -900.5642 YYZZ=           -232.2022
 XXYZ=            -63.8858 YYXZ=             70.1408 ZZXY=             36.5327
 N-N= 1.125135549268D+03 E-N=-4.110834814318D+03  KE= 7.929520754806D+02
 Calling FoFJK, ICntrl=      2127 FMM=F ISym2X=0 I1Cent= 0 IOpClX= 0 NMat=1 NMatS=1 NMatT=0.
 -------------------------------------------------------------------
 Center     Atomic                   Forces (Hartrees/Bohr)
 Number     Number              X              Y              Z
 -------------------------------------------------------------------
      1        8           0.005640393   -0.002081321    0.007589489
      2        6          -0.002624644   -0.000289255   -0.002814805
      3        7           0.000480197    0.001018076   -0.003111123
      4        6          -0.000804496    0.000624107    0.000682367
      5        6           0.006767817   -0.002130648    0.007021951
      6        8           0.002002869   -0.000805428   -0.003855050
      7        8          -0.009835767    0.003381434   -0.008296415
      8        6          -0.000219977   -0.000291564   -0.000137369
      9        6          -0.003553415    0.002081219   -0.000768088
     10        6           0.002115384   -0.001497947   -0.000182435
     11        7           0.004586947   -0.006107443    0.003113703
     12        6          -0.000315247    0.001126968   -0.000615644
     13        7          -0.000758106    0.001815965   -0.001641473
     14        6          -0.000038977    0.000548414   -0.001158117
     15        6          -0.000126767    0.002171222   -0.002042070
     16        7           0.006142316   -0.001771363    0.001149481
     17        1          -0.002622230    0.000955954   -0.003178167
     18        1           0.000638753   -0.002198466    0.002054239
     19        1           0.001357164   -0.000135289    0.003178868
     20        1          -0.000946246   -0.000054341    0.002727927
     21        1          -0.000803758    0.002349819   -0.001219435
     22        1          -0.000738988   -0.002046616    0.002084670
     23        1           0.002228849    0.000898124   -0.001548864
     24        1          -0.001058405    0.002272812   -0.001507245
     25        1          -0.000630450    0.002743380    0.000437230
     26        1          -0.000580752   -0.001179990    0.002333016
     27        1          -0.003320591   -0.000077843    0.001290702
     28        1           0.000347319   -0.002591844   -0.000567205
     29        1          -0.001968827   -0.001505160   -0.001893335
     30        1          -0.001360362    0.002777023    0.000873194
 -------------------------------------------------------------------
 Cartesian Forces:  Max     0.009835767 RMS     0.002803024

 GradGradGradGradGradGradGradGradGradGradGradGradGradGradGradGradGradGrad
 Berny optimization.
 FormGI is forming the generalized inverse of G from B-inverse, IUseBI=4.
 Internal  Forces:  Max     0.013291109 RMS     0.002111208
 Search for a local minimum.
 Step number   1 out of a maximum of  160
 All quantities printed in internal units (Hartrees-Bohrs-Radians)
 Mixed Optimization -- RFO/linear search
 Second derivative matrix not updated -- first step.
 ITU=  0
     Eigenvalues ---    0.00092   0.00152   0.00315   0.00375   0.00470
     Eigenvalues ---    0.00521   0.00550   0.00660   0.00891   0.01256
     Eigenvalues ---    0.01986   0.02148   0.02536   0.02979   0.03150
     Eigenvalues ---    0.03551   0.04033   0.04124   0.04259   0.04399
     Eigenvalues ---    0.04589   0.04964   0.05097   0.05135   0.05461
     Eigenvalues ---    0.05572   0.06070   0.06108   0.07876   0.07977
     Eigenvalues ---    0.08384   0.10202   0.11065   0.11212   0.11491
     Eigenvalues ---    0.11861   0.12293   0.13407   0.14815   0.14992
     Eigenvalues ---    0.16776   0.16963   0.17919   0.18998   0.20843
     Eigenvalues ---    0.21467   0.21984   0.22374   0.23071   0.23197
     Eigenvalues ---    0.23853   0.24354   0.25089   0.26599   0.30146
     Eigenvalues ---    0.31118   0.31331   0.32420   0.32907   0.33055
     Eigenvalues ---    0.33374   0.33472   0.34269   0.34422   0.34514
     Eigenvalues ---    0.35488   0.37197   0.37368   0.37769   0.39691
     Eigenvalues ---    0.40229   0.40391   0.43979   0.44684   0.44987
     Eigenvalues ---    0.45343   0.46662   0.47142   0.47850   0.48845
     Eigenvalues ---    0.53032   0.57656   0.81062   0.89789
 RFO step:  Lambda=-1.56788251D-03 EMin= 9.20437366D-04
 Linear search not attempted -- first point.
 Iteration  1 RMS(Cart)=  0.04046232 RMS(Int)=  0.00044626
 Iteration  2 RMS(Cart)=  0.00097754 RMS(Int)=  0.00002530
 Iteration  3 RMS(Cart)=  0.00000042 RMS(Int)=  0.00002530
 Variable       Old X    -DE/DX   Delta X   Delta X   Delta X     New X
                                 (Linear)    (Quad)   (Total)
    R1        2.32606  -0.00965   0.00000  -0.01145  -0.01145   2.31461
    R2        2.57150  -0.00441   0.00000  -0.00654  -0.00654   2.56496
    R3        2.89268  -0.00180   0.00000  -0.01014  -0.01014   2.88253
    R4        2.72753  -0.00059   0.00000  -0.00211  -0.00211   2.72542
    R5        1.93657  -0.00423   0.00000  -0.01240  -0.01240   1.92417
    R6        2.89575  -0.00188   0.00000  -0.00700  -0.00700   2.88875
    R7        2.95422  -0.00082   0.00000  -0.00755  -0.00755   2.94668
    R8        2.07486  -0.00301   0.00000  -0.00963  -0.00963   2.06524
    R9        2.54817  -0.00347   0.00000  -0.00475  -0.00475   2.54343
   R10        2.28405  -0.01329   0.00000  -0.01492  -0.01492   2.26913
   R11        1.84232  -0.00332   0.00000  -0.00811  -0.00811   1.83421
   R12        2.83164  -0.00291   0.00000  -0.00743  -0.00743   2.82421
   R13        2.06628  -0.00283   0.00000  -0.00733  -0.00733   2.05895
   R14        2.07066  -0.00275   0.00000  -0.00760  -0.00760   2.06306
   R15        2.61099  -0.00660   0.00000  -0.01228  -0.01228   2.59871
   R16        2.61454  -0.00286   0.00000  -0.00661  -0.00661   2.60793
   R17        2.60633  -0.00284   0.00000  -0.00594  -0.00594   2.60039
   R18        2.04445  -0.00301   0.00000  -0.00810  -0.00810   2.03636
   R19        2.48334  -0.00587   0.00000  -0.01013  -0.01013   2.47321
   R20        2.58345  -0.00446   0.00000  -0.00690  -0.00690   2.57655
   R21        2.04320  -0.00286   0.00000  -0.00748  -0.00748   2.03572
   R22        1.90714  -0.00290   0.00000  -0.00595  -0.00595   1.90119
   R23        2.90174  -0.00132   0.00000  -0.00774  -0.00774   2.89400
   R24        2.07744  -0.00281   0.00000  -0.00801  -0.00801   2.06943
   R25        2.06520  -0.00267   0.00000  -0.00762  -0.00762   2.05758
   R26        2.77904  -0.00020   0.00000  -0.00374  -0.00374   2.77530
   R27        2.08139  -0.00353   0.00000  -0.00998  -0.00998   2.07141
   R28        2.07052  -0.00268   0.00000  -0.00791  -0.00791   2.06261
   R29        1.91964  -0.00303   0.00000  -0.00789  -0.00789   1.91174
   R30        1.92249  -0.00312   0.00000  -0.00826  -0.00826   1.91423
    A1        2.13987  -0.00198   0.00000  -0.00410  -0.00411   2.13576
    A2        2.11920  -0.00195   0.00000  -0.00249  -0.00249   2.11670
    A3        2.02391   0.00394   0.00000   0.00672   0.00672   2.03063
    A4        2.10242   0.00174   0.00000   0.00832   0.00832   2.11073
    A5        2.07910  -0.00096   0.00000  -0.00139  -0.00139   2.07771
    A6        2.09424  -0.00078   0.00000  -0.00655  -0.00655   2.08768
    A7        1.89660  -0.00022   0.00000   0.00293   0.00293   1.89954
    A8        1.94243  -0.00067   0.00000  -0.00035  -0.00035   1.94208
    A9        1.89811   0.00007   0.00000  -0.00488  -0.00488   1.89323
   A10        1.95769   0.00105   0.00000   0.00028   0.00028   1.95797
   A11        1.90311  -0.00060   0.00000  -0.00444  -0.00444   1.89867
   A12        1.86464   0.00036   0.00000   0.00611   0.00611   1.87075
   A13        2.02102   0.00155   0.00000  -0.00047  -0.00047   2.02055
   A14        2.15375  -0.00009   0.00000   0.00332   0.00332   2.15707
   A15        2.10834  -0.00145   0.00000  -0.00282  -0.00282   2.10552
   A16        1.92713   0.00178   0.00000   0.01227   0.01227   1.93940
   A17        1.99729   0.00213   0.00000   0.00578   0.00578   2.00306
   A18        1.83789  -0.00015   0.00000   0.00464   0.00465   1.84253
   A19        1.89399  -0.00056   0.00000   0.00072   0.00072   1.89471
   A20        1.92406  -0.00110   0.00000  -0.00561  -0.00563   1.91843
   A21        1.92873  -0.00058   0.00000  -0.00176  -0.00178   1.92696
   A22        1.87624   0.00018   0.00000  -0.00404  -0.00406   1.87219
   A23        2.31403  -0.00040   0.00000  -0.00245  -0.00249   2.31154
   A24        2.15182   0.00006   0.00000  -0.00009  -0.00013   2.15169
   A25        1.81702   0.00034   0.00000   0.00289   0.00287   1.81989
   A26        1.94161  -0.00133   0.00000  -0.00508  -0.00507   1.93654
   A27        2.22344   0.00059   0.00000   0.00291   0.00290   2.22634
   A28        2.11766   0.00075   0.00000   0.00224   0.00223   2.11989
   A29        1.83460   0.00202   0.00000   0.00649   0.00649   1.84109
   A30        1.94994  -0.00154   0.00000  -0.00505  -0.00506   1.94488
   A31        2.19839   0.00074   0.00000   0.00239   0.00239   2.20078
   A32        2.13485   0.00080   0.00000   0.00266   0.00266   2.13752
   A33        1.88160   0.00051   0.00000   0.00076   0.00076   1.88236
   A34        2.19363   0.00012   0.00000   0.00205   0.00204   2.19567
   A35        2.20770  -0.00063   0.00000  -0.00275  -0.00276   2.20494
   A36        2.03059   0.00393   0.00000   0.00855   0.00855   2.03914
   A37        1.88582  -0.00130   0.00000  -0.00482  -0.00483   1.88099
   A38        1.84876  -0.00143   0.00000  -0.00167  -0.00167   1.84708
   A39        1.91012  -0.00071   0.00000   0.00065   0.00066   1.91078
   A40        1.92233  -0.00126   0.00000  -0.00294  -0.00294   1.91939
   A41        1.85794   0.00051   0.00000  -0.00055  -0.00056   1.85739
   A42        1.93957   0.00293   0.00000   0.00688   0.00687   1.94644
   A43        1.89592  -0.00090   0.00000  -0.00485  -0.00484   1.89108
   A44        1.90759  -0.00069   0.00000   0.00188   0.00186   1.90945
   A45        1.97917  -0.00167   0.00000  -0.00597  -0.00596   1.97321
   A46        1.87759  -0.00025   0.00000   0.00127   0.00124   1.87884
   A47        1.86143   0.00049   0.00000   0.00088   0.00088   1.86231
   A48        1.93759   0.00103   0.00000   0.01078   0.01067   1.94826
   A49        1.92877   0.00112   0.00000   0.01201   0.01189   1.94066
   A50        1.86874  -0.00061   0.00000   0.00647   0.00626   1.87500
    D1       -0.07543   0.00035   0.00000   0.00628   0.00628  -0.06915
    D2       -3.08632   0.00045   0.00000   0.00346   0.00346  -3.08287
    D3        3.08776  -0.00002   0.00000  -0.00092  -0.00091   3.08684
    D4        0.07686   0.00007   0.00000  -0.00374  -0.00374   0.07312
    D5        2.50343  -0.00056   0.00000  -0.00824  -0.00823   2.49520
    D6       -1.62418   0.00028   0.00000  -0.00512  -0.00513  -1.62931
    D7        0.36114  -0.00041   0.00000  -0.00875  -0.00875   0.35239
    D8       -0.65948  -0.00019   0.00000  -0.00115  -0.00114  -0.66062
    D9        1.49610   0.00065   0.00000   0.00196   0.00195   1.49805
   D10       -2.80177  -0.00004   0.00000  -0.00167  -0.00166  -2.80343
   D11       -2.77615   0.00086   0.00000   0.04972   0.04973  -2.72642
   D12        1.34291   0.00014   0.00000   0.04755   0.04756   1.39047
   D13       -0.70656   0.00006   0.00000   0.04329   0.04330  -0.66327
   D14        0.23361   0.00076   0.00000   0.05296   0.05296   0.28657
   D15       -1.93051   0.00004   0.00000   0.05080   0.05079  -1.87972
   D16        2.30320  -0.00005   0.00000   0.04654   0.04653   2.34973
   D17        2.96277  -0.00045   0.00000  -0.02382  -0.02382   2.93895
   D18       -0.19169  -0.00006   0.00000  -0.02069  -0.02069  -0.21238
   D19       -1.16541  -0.00076   0.00000  -0.02199  -0.02199  -1.18739
   D20        1.96332  -0.00037   0.00000  -0.01886  -0.01885   1.94447
   D21        0.89633  -0.00006   0.00000  -0.01711  -0.01711   0.87922
   D22       -2.25813   0.00033   0.00000  -0.01398  -0.01398  -2.27210
   D23       -3.06673   0.00044   0.00000   0.03083   0.03083  -3.03591
   D24       -0.95107   0.00023   0.00000   0.03049   0.03050  -0.92057
   D25        1.05366   0.00011   0.00000   0.02848   0.02848   1.08214
   D26        1.08736   0.00046   0.00000   0.02709   0.02708   1.11445
   D27       -3.08016   0.00026   0.00000   0.02675   0.02676  -3.05340
   D28       -1.07542   0.00013   0.00000   0.02474   0.02473  -1.05069
   D29       -0.99705   0.00036   0.00000   0.02845   0.02845  -0.96861
   D30        1.11861   0.00016   0.00000   0.02812   0.02812   1.14673
   D31        3.12334   0.00003   0.00000   0.02610   0.02610  -3.13374
   D32        0.04992   0.00033   0.00000   0.01083   0.01082   0.06074
   D33       -3.07917  -0.00005   0.00000   0.00773   0.00774  -3.07143
   D34        1.09564   0.00009   0.00000  -0.01510  -0.01512   1.08052
   D35       -2.01433  -0.00013   0.00000  -0.03218  -0.03218  -2.04651
   D36       -0.97185  -0.00036   0.00000  -0.02089  -0.02088  -0.99273
   D37        2.20136  -0.00058   0.00000  -0.03796  -0.03794   2.16342
   D38       -3.04345   0.00047   0.00000  -0.01126  -0.01128  -3.05472
   D39        0.12977   0.00025   0.00000  -0.02834  -0.02834   0.10143
   D40       -3.11672  -0.00011   0.00000  -0.01286  -0.01286  -3.12958
   D41        0.05801  -0.00014   0.00000  -0.01524  -0.01524   0.04277
   D42       -0.00238   0.00008   0.00000   0.00184   0.00184  -0.00054
   D43       -3.11084   0.00005   0.00000  -0.00054  -0.00054  -3.11138
   D44        3.12172   0.00007   0.00000   0.01105   0.01107   3.13278
   D45        0.00304   0.00010   0.00000   0.00873   0.00874   0.01178
   D46        0.00413  -0.00009   0.00000  -0.00184  -0.00185   0.00228
   D47       -3.11455  -0.00005   0.00000  -0.00416  -0.00418  -3.11873
   D48       -0.00036  -0.00004   0.00000  -0.00109  -0.00110  -0.00146
   D49        3.11041  -0.00001   0.00000   0.00114   0.00114   3.11155
   D50        0.00311  -0.00003   0.00000  -0.00015  -0.00015   0.00296
   D51       -3.14144   0.00004   0.00000   0.00096   0.00096  -3.14048
   D52       -0.00472   0.00008   0.00000   0.00132   0.00132  -0.00340
   D53        3.11372   0.00006   0.00000   0.00374   0.00374   3.11746
   D54        3.13970   0.00002   0.00000   0.00025   0.00025   3.13996
   D55       -0.02504   0.00000   0.00000   0.00268   0.00267  -0.02236
   D56        1.16446   0.00117   0.00000   0.02327   0.02329   1.18774
   D57       -2.92976   0.00042   0.00000   0.01694   0.01695  -2.91281
   D58       -0.90512   0.00013   0.00000   0.01633   0.01633  -0.88879
   D59       -0.97849   0.00058   0.00000   0.02287   0.02287  -0.95562
   D60        1.21048  -0.00017   0.00000   0.01654   0.01654   1.22701
   D61       -3.04807  -0.00046   0.00000   0.01593   0.01592  -3.03214
   D62       -3.01535   0.00110   0.00000   0.02486   0.02487  -2.99048
   D63       -0.82638   0.00035   0.00000   0.01853   0.01853  -0.80785
   D64        1.19826   0.00006   0.00000   0.01792   0.01791   1.21618
   D65       -2.93247   0.00004   0.00000   0.01646   0.01650  -2.91597
   D66        1.27986  -0.00058   0.00000  -0.00617  -0.00623   1.27363
   D67        1.20906   0.00022   0.00000   0.02199   0.02204   1.23111
   D68       -0.86179  -0.00040   0.00000  -0.00064  -0.00069  -0.86248
   D69       -0.84493   0.00075   0.00000   0.02356   0.02362  -0.82130
   D70       -2.91577   0.00013   0.00000   0.00094   0.00089  -2.91489
         Item               Value     Threshold  Converged?
 Maximum Force            0.013291     0.000450     NO 
 RMS     Force            0.002111     0.000300     NO 
 Maximum Displacement     0.153269     0.001800     NO 
 RMS     Displacement     0.040523     0.001200     NO 
 Predicted change in Energy=-8.127820D-04
 GradGradGradGradGradGradGradGradGradGradGradGradGradGradGradGradGradGrad

                          Input orientation:                          
 ---------------------------------------------------------------------
 Center     Atomic      Atomic             Coordinates (Angstroms)
 Number     Number       Type             X           Y           Z
 ---------------------------------------------------------------------
      1          8           0        0.877837    0.558016   -2.313209
      2          6           0        1.565462    0.174174   -1.375089
      3          7           0        1.071177    0.042576   -0.117836
      4          6           0       -0.282134    0.433594    0.191476
      5          6           0       -0.377760    0.740829    1.685889
      6          8           0       -1.508934    1.350121    2.086784
      7          8           0        0.479784    0.459927    2.478076
      8          6           0       -1.302098   -0.659606   -0.251294
      9          6           0       -2.738096   -0.275103   -0.097612
     10          6           0       -3.496437    0.724661   -0.660202
     11          7           0       -4.789138    0.685588   -0.190135
     12          6           0       -4.826885   -0.321056    0.645394
     13          7           0       -3.613262   -0.935057    0.740905
     14          6           0        3.030946   -0.201938   -1.569142
     15          6           0        3.995267    0.168447   -0.438565
     16          7           0        3.732600   -0.618671    0.773174
     17          1           0        1.700330   -0.231037    0.634550
     18          1           0       -0.517344    1.341127   -0.370164
     19          1           0       -2.130116    1.455243    1.348411
     20          1           0       -1.081177   -0.858290   -1.299549
     21          1           0       -1.091935   -1.576039    0.303542
     22          1           0       -3.186751    1.449804   -1.394688
     23          1           0       -5.687012   -0.649934    1.204415
     24          1           0       -3.385996   -1.717766    1.330725
     25          1           0        3.077960   -1.280899   -1.750425
     26          1           0        3.341051    0.279560   -2.495174
     27          1           0        5.020783    0.056667   -0.809182
     28          1           0        3.867089    1.221859   -0.183161
     29          1           0        4.216379   -0.239112    1.576498
     30          1           0        4.038223   -1.577801    0.660197
 ---------------------------------------------------------------------
                    Distance matrix (angstroms):
                    1          2          3          4          5
     1  O    0.000000
     2  C    1.224840   0.000000
     3  N    2.263343   1.357321   0.000000
     4  C    2.763052   2.436193   1.442228   0.000000
     5  C    4.195560   3.669713   2.416692   1.528662   0.000000
     6  O    5.067943   4.776958   3.636894   2.436647   1.345923
     7  O    4.808792   4.013382   2.694938   2.410344   1.200770
     8  C    3.238243   3.190769   2.478570   1.559314   2.562869
     9  C    4.321797   4.511587   3.822551   2.572464   3.127967
    10  C    4.679154   5.141685   4.650000   3.337936   3.902634
    11  N    6.052960   6.484336   5.895930   4.530145   4.794035
    12  C    6.486136   6.722330   5.958346   4.629287   4.690943
    13  N    5.632659   5.703245   4.861807   3.643005   3.764314
    14  C    2.401467   1.525371   2.450871   3.805283   4.806590
    15  C    3.658473   2.604047   2.944319   4.331676   4.895333
    16  N    4.365778   3.152796   2.883456   4.190910   4.424516
    17  H    3.160440   2.054515   1.018225   2.137338   2.523548
    18  H    2.516986   2.590316   2.067197   1.092876   2.146437
    19  H    4.822889   4.766119   3.793914   2.407758   1.922246
    20  H    2.621291   2.841899   2.615460   2.128518   3.459019
    21  H    3.909166   3.597611   2.734324   2.169553   2.790842
    22  H    4.261437   4.920483   4.662681   3.461993   4.228833
    23  H    7.545201   7.741536   6.921057   5.604710   5.509464
    24  H    6.052909   5.951286   5.006348   3.944641   3.901322
    25  H    2.922135   2.132079   2.905875   4.242723   5.276138
    26  H    2.485572   2.102002   3.295485   4.513234   5.614589
    27  H    4.435927   3.503327   4.009681   5.409651   5.986461
    28  H    3.730069   2.795679   3.035144   4.240020   4.662990
    29  H    5.187590   3.988738   3.583631   4.754729   4.698762
    30  H    4.836414   3.650528   3.469052   4.788622   5.092052
                    6          7          8          9         10
     6  O    0.000000
     7  O    2.213720   0.000000
     8  C    3.090047   3.446436   0.000000
     9  C    2.987269   4.186788   1.494507   0.000000
    10  C    3.447796   5.072397   2.626504   1.375178   0.000000
    11  N    4.047925   5.910314   3.738012   2.266773   1.376069
    12  C    3.984876   5.668280   3.652778   2.217478   2.137334
    13  N    3.385501   4.660125   2.530179   1.380060   2.175181
    14  C    6.032013   4.829748   4.552082   5.954209   6.655185
    15  C    6.170087   4.577158   5.364963   6.756565   7.515593
    16  N    5.751121   3.827646   5.138034   6.538059   7.491201
    17  H    3.861142   2.316410   3.159584   4.498626   5.440233
    18  H    2.649514   3.143764   2.152418   2.760113   3.056002
    19  H    0.970624   3.013034   2.777995   2.335534   2.536752
    20  H    4.065378   4.294735   1.089550   2.128413   2.957699
    21  H    3.451992   3.368094   1.091723   2.136166   3.464629
    22  H    3.865960   5.424172   3.051045   2.204314   1.077593
    23  H    4.715413   6.394011   4.620243   3.245285   3.188247
    24  H    3.675175   4.582905   2.822254   2.131009   3.153004
    25  H    6.533455   5.259393   4.671007   6.129431   6.959422
    26  H    6.757425   5.740436   5.241743   6.558352   7.093411
    27  H    7.259259   5.620441   6.387732   7.798501   8.544674
    28  H    5.837013   4.374535   5.501368   6.773233   7.395694
    29  H    5.963662   3.906871   5.828484   7.153228   8.088215
    30  H    6.432638   4.485478   5.494810   6.941888   7.988485
                   11         12         13         14         15
    11  N    0.000000
    12  C    1.308765   0.000000
    13  N    2.208169   1.363452   0.000000
    14  C    7.990186   8.164794   7.072430   0.000000
    15  C    8.803121   8.901964   7.778084   1.531439   0.000000
    16  N    8.674623   8.565611   7.352743   2.480409   1.468625
    17  H    6.605566   6.527845   5.361083   2.574420   2.564742
    18  H    4.325548   4.729308   4.000024   4.050797   4.662995
    19  H    3.167000   3.304850   2.877901   6.155885   6.509182
    20  H    4.166934   4.254616   3.252814   4.172892   5.250311
    21  H    4.362108   3.954959   2.638036   4.732150   5.428958
    22  H    2.145371   3.160367   3.229586   6.435716   7.357815
    23  H    2.129451   1.077257   2.143963   9.159481   9.854728
    24  H    3.171424   2.120527   1.006067   7.203062   7.821204
    25  H    8.257894   8.315517   7.148341   1.095094   2.159406
    26  H    8.460381   8.771493   7.765949   1.088826   2.161016
    27  H    9.849534   9.961679   8.827968   2.145663   1.096145
[...]
 2,0.00006228,0.00001255,-0.00000822,-0.00005365,0.00000071,-0.00013644
 ,-0.00037006,0.00034639,0.00031954,0.00015435,-0.00007580,-0.00023425,
 0.00023144,0.00027191,0.00056132,0.00063546,0.00080854,-0.00012461,-0.
 00033330,-0.00078736,-0.07615322,0.29078335,-0.00008484,-0.00004927,-0
 .00000105,0.00011722,0.00001099,-0.00007145,-0.00027874,-0.00006923,-0
 .00005880,0.00019530,-0.00002230,0.00027784,-0.00052590,0.00009787,0.0
 0096673,0.00046160,0.00007024,-0.00049016,0.00007888,0.00008198,-0.000
 41633,-0.00089934,-0.00111614,-0.00078325,-0.01021906,0.00643153,-0.00
 885752,0.00231730,0.00266511,-0.00075776,0.00239103,0.00128883,0.00458
 703,-0.00211156,-0.00598845,-0.00213088,-0.03624559,0.20815344,-0.1702
 7820,-0.00000643,0.00002799,-0.00000224,0.00002041,-0.00000722,0.00004
 465,-0.00002720,0.00001492,-0.00005337,0.00001823,-0.00001010,0.000114
 10,-0.00009107,-0.00012007,-0.00006571,0.00007076,-0.00001388,0.000383
 29,0.00009872,0.00003435,-0.00000533,0.00071545,-0.00026573,0.00036774
 ,-0.00006759,0.00115056,0.00107046,-0.00021802,-0.00054292,-0.00077238
 ,0.04432360,-0.21182078,0.17692493,-0.00336906,-0.00367650,-0.00098676
 ,0.00006394,0.03480137,0.00425369,-0.00129029,-0.00173815,0.00064570,-
 0.00032610,-0.00138148,-0.00022046,0.00004491,-0.00014653,-0.00027012,
 -0.00002997,0.00005510,0.00005507,0.00004769,0.00001781,0.00016571,-0.
 00035040,0.00022319,0.00021010,-0.00003583,-0.00013262,-0.00003417,0.0
 0001772,0.00000459,-0.00000860,-0.00003601,-0.00001037,0.00002389,-0.0
 0004268,0.00001092,0.00001198,-0.00003311,0.00000437,-0.00001709,-0.04
 635604,0.01623258,0.00336087,0.00069636,-0.02302943,-0.00499745,0.0007
 8744,0.00040617,0.00204357,-0.00028068,0.00065104,0.00008941,0.0000630
 2,0.00000232,-0.00010894,0.00002220,-0.00001011,-0.00001679,0.00001769
 ,0.00013775,-0.00001031,-0.00001871,-0.00002213,0.00007893,0.00000719,
 -0.00001166,0.00000402,-0.00000236,0.00000512,0.00000468,0.00000192,0.
 00001475,-0.00000461,0.05169273,0.00169671,0.00131764,-0.00012158,0.00
 066811,-0.00862946,-0.00033993,0.00042363,0.00073446,0.00039311,0.0001
 9168,0.00019215,-0.00015114,-0.00001181,0.00003126,0.00006403,0.000041
 28,-0.00002373,-0.00003221,0.00001591,0.00001451,-0.00004146,0.0000679
 1,-0.00006555,-0.00001351,-0.00000684,0.00003114,-0.00000057,-0.000003
 69,0.00000145,0.00001146,0.00000989,0.00000843,-0.00000487,0.00001426,
 -0.00000127,-0.00000549,0.00001328,0.00000548,0.00000506,0.01166875,-0
 .29032850,-0.04044599,-0.00032259,-0.00901306,-0.00184031,0.00018120,0
 .00210013,0.00083558,-0.00002743,-0.00031274,-0.00007805,-0.00008565,0
 .00001339,0.00006890,-0.00002201,-0.00000654,-0.00000450,-0.00000691,-
 0.00006177,-0.00001858,0.00000690,0.00001116,-0.00003586,-0.00000668,0
 .00000129,-0.00000610,0.00000080,-0.00000154,-0.00000207,-0.00000120,-
 0.00001106,-0.00000209,-0.01286322,0.31688646,-0.00112022,-0.00018678,
 0.00001744,0.00063043,-0.00654506,-0.00243209,0.00105890,0.00069346,-0
 .00031528,0.00013694,0.00047447,0.00001477,0.00002744,-0.00002072,0.00
 006179,-0.00003114,0.00000749,0.00000058,-0.00002169,0.00006041,-0.000
 03011,0.00012164,-0.00009765,-0.00004007,0.00002850,0.00004248,0.00001
 116,-0.00000437,0.00000024,-0.00000143,-0.00000314,0.00000430,-0.00000
 701,0.00000858,-0.00000771,0.00000019,0.00000298,0.00000047,0.00000060
 ,0.00297402,-0.03997079,-0.04969564,-0.00067144,-0.02674309,-0.0075012
 9,0.00113956,-0.00027462,0.00259304,0.00026868,-0.00059230,-0.00006320
 ,-0.00000088,-0.00000706,-0.00002331,0.00000068,-0.00000129,0.00000438
 ,0.00001798,0.00000702,-0.00000168,0.00000649,0.00000785,-0.00001398,0
 .00000351,0.00000076,0.00000188,0.00000045,-0.00000116,-0.00000020,0.0
 0000589,-0.00000131,0.00000269,0.00025018,0.04581127,0.05447472,0.0031
 7511,0.00082133,-0.00166782,-0.01138795,-0.01662329,0.03088690,-0.0062
 2108,0.00258675,-0.00063110,0.00052867,0.00024478,0.00149479,-0.000531
 23,0.00004336,-0.00052445,-0.00018928,0.00016605,0.00035393,0.00011347
 ,0.00000335,0.00021390,0.00006173,0.00009164,0.00004057,0.00000475,-0.
 00006515,-0.00003529,0.00000913,-0.00003335,0.00002013,-0.00004734,0.0
 0000153,0.00000056,-0.00002705,0.00001180,0.00000951,-0.00000218,0.000
 02492,-0.00003600,-0.06904132,-0.03558452,0.06193711,0.00637360,0.0114
 5298,-0.01634554,-0.00229179,-0.00220826,-0.00432580,-0.00048627,-0.00
 010226,-0.00070273,-0.00010113,0.00005308,0.00007077,0.00009911,-0.000
 03106,0.00001912,-0.00000672,-0.00004013,0.00001140,-0.00000149,-0.000
 01303,-0.00001535,-0.00000131,0.00000221,0.00000963,-0.00000111,0.0000
 0494,0.00000282,0.00001152,0.00001156,-0.00000547,0.00007359,0.0005018
 6,-0.00164892,0.07892735,-0.00121687,0.00007743,-0.00114847,0.00587894
 ,0.00294227,-0.00830986,0.00160228,-0.00000800,0.00021849,0.00042197,0
 .00025805,-0.00047212,0.00014616,-0.00000463,0.00001554,-0.00002135,-0
 .00003191,-0.00002362,-0.00004322,0.00001815,0.00000410,-0.00001396,-0
 .00005332,-0.00000051,0.00001871,0.00000372,0.00000278,-0.00000023,0.0
 0000068,-0.00000087,-0.00001695,0.00000095,-0.00000114,-0.00000267,-0.
 00000342,0.00000317,-0.00000842,0.00000498,-0.00000221,-0.03775286,-0.
 10155997,0.10353512,0.00331792,0.00384805,-0.00789138,-0.00082472,0.00
 037784,-0.00123612,-0.00009591,-0.00025429,-0.00007233,-0.00006711,0.0
 0002242,0.00001144,0.00000740,0.00000702,-0.00000140,0.00000581,0.0000
 0478,0.00002297,0.00001136,-0.00000100,-0.00001567,0.00000369,-0.00000
 035,0.00000395,-0.00000056,0.00000058,0.00000099,0.00000663,0.00000274
 ,-0.00000168,-0.00953243,-0.01470730,0.02702520,0.03759508,0.10792026,
 -0.00267115,-0.00072081,0.00168994,0.00276272,0.00303608,-0.00816228,0
 .00156222,-0.00024020,0.00107437,-0.00018207,0.00022295,-0.00020361,-0
 .00004462,0.00002458,0.00001955,0.00010491,-0.00006559,-0.00004971,0.0
 0009464,-0.00003006,0.00003565,0.00002713,-0.00002616,0.00000628,0.000
 01416,0.00002318,0.00001236,-0.00000044,0.00001308,-0.00000820,0.00000
 955,-0.00000485,0.00000424,-0.00000038,-0.00000131,-0.00000417,0.00000
 052,-0.00000709,0.00001627,0.06492067,0.10210830,-0.23669881,0.0082502
 9,0.01129341,-0.01712594,-0.00310877,-0.00268291,-0.00362903,-0.000660
 28,-0.00002879,0.00009482,0.00005678,-0.00001556,-0.00004477,-0.000022
 59,0.00000586,-0.00001476,0.00003336,0.00004019,-0.00000543,-0.0000074
 1,-0.00000727,0.00001089,0.00000251,-0.00000161,-0.00000073,-0.0000004
 1,-0.00000184,-0.00000126,-0.00000411,-0.00000170,-0.00000216,-0.00195
 053,-0.00240154,0.00563014,-0.06887876,-0.11151109,0.25694756,-0.00205
 492,0.00125432,-0.00044329,0.00192142,-0.00259440,-0.00418455,0.000007
 52,-0.00006936,0.00036695,0.00035298,0.00006130,-0.00001358,0.00023940
 ,-0.00017833,-0.00019726,-0.00024388,0.00013017,0.00013083,-0.00015836
 ,0.00009116,0.00011988,-0.00002416,0.00002461,0.00003447,0.00004385,-0
 .00005303,-0.00003603,0.00002095,-0.00001198,0.00000362,-0.00007410,0.
 00000080,0.00001465,-0.00003501,0.00000230,0.00001440,-0.00001594,0.00
 002356,-0.00002782,-0.02250284,0.00364350,0.00466023,-0.26222450,0.029
 01188,0.07037638,0.00083334,-0.00436486,0.00712561,0.00035104,-0.00004
 860,0.00013295,-0.00006599,0.00000239,0.00001622,0.00006734,-0.0000108
 5,0.00000600,0.00002765,0.00004337,0.00000216,0.00000124,-0.00000257,0
 .00001109,0.00001394,-0.00001174,0.00001058,-0.00000210,0.00000283,0.0
 0000353,0.00002059,0.00001815,-0.00000925,0.00070214,-0.00055695,0.000
 60548,0.00055533,0.00051928,-0.00039802,0.28491584,-0.00078726,0.00049
 126,-0.00008873,0.00006996,-0.00022306,-0.00220609,0.00013435,0.000504
 43,0.00026693,-0.00024051,0.00004701,-0.00003198,0.00011807,-0.0000861
 4,0.00016182,-0.00006669,0.00003340,-0.00004265,-0.00011640,0.00011777
 ,-0.00009214,0.00003065,-0.00002047,-0.00001330,-0.00000080,0.00001229
 ,0.00000615,-0.00000356,-0.00000029,-0.00000066,0.00000616,0.00000409,
 -0.00000505,0.00000875,-0.00000435,-0.00000031,0.00000142,-0.00000094,
 -0.00000122,-0.01045788,0.00167038,0.00146469,0.02965927,-0.05716648,-
 0.01219645,-0.02048084,-0.00013477,0.01555882,0.00056168,-0.00064821,0
 .00058916,-0.00002889,-0.00002393,-0.00001474,-0.00001316,-0.00000062,
 0.00001072,-0.00000831,-0.00000184,-0.00000449,0.00000427,0.00000761,-
 0.00000045,-0.00000080,0.00000019,-0.00000119,0.00000055,-0.00000023,-
 0.00000010,0.00000190,-0.00000101,0.00000450,0.00014761,0.00034747,0.0
 0083073,0.00065240,0.00042906,0.00030397,-0.02781080,0.05612392,-0.002
 02127,0.00143466,-0.00011608,0.00066702,-0.00335726,-0.00484474,-0.000
 22187,-0.00016646,0.00171585,0.00017447,0.00000281,0.00033584,-0.00055
 259,0.00017433,-0.00049178,0.00020667,-0.00008928,0.00012856,0.0003901
 6,-0.00014118,0.00031490,-0.00003380,0.00002443,0.00000286,0.00001477,
 -0.00001069,-0.00000309,0.00001104,0.00001844,-0.00000502,-0.00000505,
 -0.00001385,0.00002036,-0.00002660,0.00000987,-0.00000339,-0.00000110,
 -0.00000607,0.00001699,-0.02619901,0.00311676,0.00651562,0.07134078,-0
 .01183068,-0.07130472,0.02843093,0.00642401,-0.02030689,-0.00176885,0.
 00084996,-0.00101489,0.00004171,-0.00003517,-0.00001073,0.00000877,-0.
 00001429,-0.00004163,0.00004118,0.00003983,0.00000368,-0.00001558,-0.0
 0002104,0.00001197,0.00000541,-0.00000702,-0.00000211,-0.00000206,-0.0
 0000087,-0.00000079,-0.00000950,0.00000093,-0.00001109,0.00084069,-0.0
 0002815,0.00077020,0.00039721,0.00043626,0.00093610,-0.08027798,0.0063
 8286,0.08804580,0.00028779,0.00013129,0.00010696,0.00113428,-0.0013496
 8,-0.00010969,0.00008254,0.00040726,0.00021330,-0.00022996,0.00013313,
 0.00011990,-0.00019864,0.00006291,0.00008234,0.00011297,-0.00005298,-0
 .00004743,0.00010667,0.00001669,-0.00006057,0.00007513,-0.00004298,-0.
 00003260,-0.00000438,0.00004329,0.00002458,-0.00000948,0.00000702,0.00
 000014,0.00002989,0.00000384,-0.00000700,0.00001901,-0.00000470,-0.000
 00830,0.00000932,-0.00000635,0.00001292,0.00133957,-0.02159812,-0.0068
 8963,-0.05581781,0.03644849,0.01175366,0.00113716,-0.00664758,-0.00209
 192,0.00002262,-0.00059484,0.00012917,-0.00001221,-0.00001383,-0.00000
 694,-0.00003553,-0.00000341,-0.00000600,0.00000268,-0.00002078,-0.0000
 0184,0.00000559,0.00000634,-0.00001360,-0.00000593,0.00000302,-0.00000
 628,0.00000104,-0.00000233,-0.00000245,-0.00000658,-0.00001051,0.00000
 389,-0.00234959,-0.00149485,-0.00346535,0.00047726,0.00050802,0.000471
 32,-0.00412903,0.02945337,0.00882302,0.05690786,-0.00050481,0.00007845
 ,0.00004791,0.00116223,0.00023416,-0.00061449,-0.00037084,0.00073382,0
 .00060855,-0.00017905,-0.00003666,0.00003699,-0.00013272,-0.00001843,-
 0.00005571,0.00003678,-0.00000208,0.00000887,0.00009002,0.00010141,0.0
 0002817,0.00000512,-0.00001797,0.00000255,0.00000557,0.00000809,0.0000
 1306,-0.00000143,0.00000702,0.00000567,-0.00000073,0.00000803,0.000000
 03,0.00000558,-0.00000567,-0.00000102,-0.00000013,0.00000778,0.0000011
 6,-0.00056770,-0.00619325,-0.00363741,0.03263613,-0.28103867,-0.061291
 37,0.00172902,-0.02164014,-0.00029350,0.00027010,-0.00069023,0.0001591
 3,-0.00003027,-0.00001405,-0.00002208,-0.00001953,-0.00001808,-0.00001
 267,0.00000722,0.00000295,0.00000442,0.00000574,0.00000328,-0.00000724
 ,-0.00000117,-0.00000349,-0.00000471,-0.00000010,-0.00000122,-0.000001
 49,0.00000148,-0.00000796,-0.00000216,-0.00049326,0.00119269,-0.001044
 43,-0.00023885,0.00008651,-0.00048507,0.00194531,-0.00304922,-0.002099
 21,-0.03480716,0.31001529,-0.00034322,0.00034042,-0.00024173,0.0018740
 4,-0.00024762,0.00070657,-0.00020862,0.00020910,0.00040516,-0.00004239
 ,-0.00010712,0.00011295,0.00008316,-0.00004089,0.00002335,-0.00005365,
 0.00004150,0.00001348,-0.00007900,-0.00003805,-0.00001427,-0.00000733,
 0.00001706,-0.00001438,0.00000589,-0.00000927,0.00000083,0.00000471,-0
 .00000380,0.00000537,-0.00001178,0.00000238,0.00000425,-0.00000679,0.0
 0000094,0.00000127,-0.00000086,0.00000981,-0.00000631,0.00141226,-0.02
 396244,-0.00695649,0.01102251,-0.06977943,-0.06703459,-0.00319013,0.03
 440720,0.00341092,-0.00022236,0.00017966,-0.00005362,-0.00000125,-0.00
 000964,-0.00002568,0.00000699,-0.00000558,0.00000493,0.00001052,-0.000
 00237,0.00000367,-0.00000087,-0.00000195,-0.00000234,0.00000015,-0.000
 00452,-0.00000070,-0.00000067,0.00000029,-0.00000035,0.00000222,0.0000
 0234,-0.00000387,-0.00349712,-0.00057684,-0.00339539,0.00052804,0.0003
 1125,0.00029260,0.00128322,-0.00978549,-0.00199354,-0.00932437,0.06492
 228,0.07776954,-0.00025142,0.00009684,0.00014791,0.00089390,-0.0004457
 3,-0.00009889,-0.00160061,0.00094025,0.00034978,0.00029098,0.00015525,
 -0.00024405,-0.00126290,0.00036453,-0.00112180,0.00064339,-0.00028816,
 0.00020590,0.00109200,-0.00010991,0.00083109,-0.00010383,-0.00001483,0
 .00006050,0.00001479,0.00000909,0.00001639,0.00000097,0.00003656,0.000
 00950,0.00000659,-0.00001022,0.00002149,-0.00002659,0.00000814,-0.0000
 0960,-0.00000114,-0.00000356,0.00003415,0.00016991,0.00044014,-0.00074
 998,-0.00137954,0.00130979,0.01210988,-0.10935881,-0.08237879,-0.17989
 701,0.00029831,-0.00151651,-0.00194884,-0.00016305,0.00005693,0.000062
 19,-0.00002276,-0.00005100,-0.00011334,0.00005440,0.00003418,0.0000287
 5,0.00000420,-0.00001792,-0.00002713,-0.00000016,-0.00000584,-0.000008
 35,-0.00000343,-0.00000241,-0.00000350,-0.00001644,-0.00001912,-0.0000
 2083,0.00010186,0.00014096,0.00026788,-0.00002112,0.00000573,-0.000342
 35,0.00036068,0.00005635,0.00095798,0.00066559,0.00039517,-0.00051508,
 0.10706321,0.00028987,-0.00016084,-0.00020644,-0.00077693,0.00022336,0
 .00047686,0.00050776,-0.00013173,-0.00029717,-0.00001545,0.00001687,-0
 .00000048,0.00026492,-0.00002969,0.00021273,-0.00009933,0.00002978,-0.
 00004823,-0.00022582,-0.00014513,-0.00013021,0.00002619,0.00000221,-0.
 00001117,0.00000078,0.00000684,-0.00000596,-0.00000103,-0.00001241,-0.
 00000378,-0.00000080,-0.00000488,-0.00000319,0.00000007,0.00000414,0.0
 0000038,0.00000216,-0.00000482,-0.00000405,-0.00127313,-0.00266154,0.0
 0365266,0.01195565,0.00919218,0.01947473,-0.06341795,-0.11529537,-0.11
 077967,-0.00018724,0.00020084,0.00014651,0.00002708,-0.00000379,0.0000
 0123,0.00001620,0.00002401,0.00002436,-0.00001379,-0.00001778,-0.00000
 079,-0.00000006,-0.00000056,-0.00000544,-0.00000021,0.00000359,0.00000
 434,0.00000018,0.00000108,0.00000082,0.00000099,0.00000717,-0.00000022
 ,-0.00014238,0.00028621,0.00003537,0.00077324,0.00051467,0.00114783,-0
 .00033001,-0.00017467,0.00012489,0.00049180,0.00040960,-0.00007936,0.0
 7266233,0.12127632,-0.00014906,-0.00004917,0.00025039,0.00029324,0.000
 16622,-0.00049744,0.00056584,-0.00039835,0.00030628,-0.00014875,-0.000
 06252,0.00015193,0.00031705,-0.00010162,0.00035552,-0.00018925,0.00008
 383,-0.00007298,-0.00026082,0.00003841,-0.00033048,0.00003524,0.000008
 02,-0.00002503,-0.00000999,-0.00000160,0.00000005,-0.00000070,-0.00000
 988,-0.00000493,0.00000271,0.00000402,-0.00000860,0.00001171,-0.000004
 84,0.00000292,0.00000032,-0.00000044,-0.00001206,0.00304176,0.00442735
 ,-0.00372615,-0.01628460,-0.01191540,-0.02223176,-0.13857436,-0.108597
 85,-0.28191192,-0.00077725,0.00061084,0.00021218,0.00006727,-0.0000387
 0,-0.00002194,0.00000530,0.00001312,0.00004057,-0.00001402,-0.00000574
 ,-0.00001304,-0.00000521,0.00000513,0.00001568,0.00000017,0.00000171,0
 .00000167,0.00000185,0.00000089,0.00000158,0.00000441,0.00000707,0.000
 01154,0.00032313,0.00008181,0.00040108,-0.00136237,-0.00043579,-0.0007
 8780,0.00040098,-0.00084898,0.00021543,-0.00040692,0.00005856,0.001740
 88,0.15681681,0.11767184,0.30917605,0.00004819,0.00007483,-0.00010150,
 -0.00026756,0.00025708,0.00009153,-0.00173991,-0.00065816,-0.00073070,
 -0.00009940,-0.00004658,-0.00025357,0.00005420,0.00004149,0.00004277,-
 0.00002175,0.00001124,-0.00001963,-0.00016443,-0.00021910,0.00002698,-
 0.00006039,0.00015928,-0.00004746,-0.00004586,-0.00004265,-0.00000482,
 0.00000862,0.00000077,-0.00001620,0.00003437,-0.00003020,0.00000955,-0
 .00002568,0.00001875,-0.00000329,0.00000543,-0.00003029,0.00001099,-0.
 00018261,0.00118724,0.00005736,-0.00108837,-0.01219152,0.00350316,-0.0
 6047455,0.14903702,0.01181063,0.00201892,0.00213206,0.00084974,-0.0000
 0579,-0.00000328,0.00000124,0.00001023,0.00003234,0.00001139,-0.000005
 96,0.00001051,-0.00002206,-0.00004436,-0.00003270,0.00004987,0.0000000
 2,0.00000377,0.00000363,0.00000035,0.00000208,0.00000225,-0.00002482,0
 .00001408,0.00000313,0.00018044,-0.00023329,-0.00058906,-0.00005226,-0
 .00045173,-0.00003886,0.00109559,-0.00089085,-0.00121655,0.00038215,-0
 .00094771,0.00127177,0.00255103,-0.02053509,-0.00370447,0.05791417,-0.
 00018279,0.00009225,-0.00010259,0.00016068,-0.00016326,-0.00009536,-0.
 00045855,-0.00003657,-0.00026891,0.00003945,0.00004474,-0.00003512,0.0
 0003096,-0.00001762,-0.00000544,-0.00003219,0.00001541,0.00001106,-0.0
 0005296,-0.00000899,0.00002049,-0.00000124,0.00002552,-0.00001177,-0.0
 0000182,-0.00000905,-0.00000692,0.00000377,-0.00000063,-0.00000404,0.0
 0000146,-0.00000942,0.00000481,-0.00001258,0.00000652,-0.00000015,0.00
 000115,-0.00000730,0.00000210,0.00007151,0.00111781,0.00025261,0.00804
 735,-0.02005155,-0.00355454,0.10153329,-0.37401244,-0.04810444,0.00081
 623,-0.00006903,0.00038644,-0.00002298,0.00000484,-0.00000449,0.000008
 83,0.00000511,0.00000310,0.00000412,0.00000915,-0.00000531,-0.00000759
 ,-0.00000608,0.00001419,0.00000155,-0.00000058,0.00000223,-0.00000039,
 0.00000085,0.00000096,-0.00000442,0.00000769,-0.00000008,0.00047558,-0
 .00001279,0.00049245,-0.00010297,0.00010403,0.00001405,-0.00073147,0.0
 0174736,-0.00121884,-0.00106638,-0.00015196,0.00421015,0.00815180,-0.0
 1355565,-0.00070794,-0.11666940,0.40493164,0.00028699,-0.00005409,0.00
 005586,-0.00048874,-0.00000281,0.00016772,0.00025504,0.00000811,-0.000
 07355,-0.00007205,0.00006128,-0.00000297,-0.00009556,0.00004885,0.0000
 3280,0.00008800,-0.00005298,-0.00003461,0.00014662,0.00008423,-0.00004
 602,0.00003072,-0.00004088,0.00001181,-0.00001251,0.00001548,0.0000085
 6,-0.00000964,0.00000369,-0.00000078,0.00001740,0.00000886,-0.00001327
 ,0.00002267,-0.00000937,-0.00000084,0.00000110,-0.00000109,0.00000196,
 0.00046470,0.00104452,0.00158278,-0.01000625,0.03342689,0.00409356,0.0
 0641248,-0.05340894,-0.06896245,-0.00016350,-0.00028066,-0.00021877,0.
 00001184,-0.00000014,0.00001291,-0.00001710,-0.00000507,0.00000082,-0.
 00001331,-0.00000349,-0.00000584,0.00000504,0.00000887,-0.00000045,-0.
 00000300,0.00000439,-0.00000219,0.00000175,-0.00000071,-0.00000006,0.0
 0000179,-0.00000932,0.00001054,-0.00023870,-0.00112038,-0.00046397,0.0
 0018321,-0.00046701,-0.00003208,0.00026856,-0.00024632,0.00111634,0.00
 073971,0.00367520,-0.00475251,0.01318053,-0.03139838,-0.00323961,-0.01
 099780,0.04871127,0.07075430\\-0.00000046,-0.00000105,-0.00000124,-0.0
 0000043,-0.00000044,0.00000034,-0.00000034,0.00000035,-0.00000044,0.00
 000066,-0.00000006,-0.00000010,-0.00000018,0.00000111,-0.00000060,0.00
 000057,0.00000138,0.00000021,0.00000093,0.00000094,0.00000034,-0.00000
 123,0.00000057,-0.00000050,-0.00000001,-0.00000157,0.00000053,-0.00000
 041,0.00000024,-0.00000108,-0.00000046,0.00000068,-0.00000034,0.000000
 03,0.00000064,0.00000061,0.00000017,0.00000066,0.00000030,-0.00000013,
 -0.00000117,-0.00000008,-0.00000014,-0.00000059,-0.00000038,0.00000146
 ,0.00000020,0.00000013,0.00000006,-0.00000034,0.00000105,0.00000007,-0
 .00000003,-0.00000073,-0.00000024,0.00000180,-0.00000045,0.00000054,-0
 .00000118,0.00000054,-0.00000013,0.00000013,0.00000081,0.00000013,-0.0
 0000036,-0.00000088,-0.00000018,0.00000098,0.00000065,0.,0.00000081,0.
 00000114,-0.00000007,-0.00000137,0.00000050,-0.00000003,-0.00000163,-0
 .00000048,0.00000014,-0.00000079,-0.00000027,0.00000006,-0.00000022,-0
 .00000064,-0.00000020,0.00000076,0.00000045,-0.00000020,-0.00000046,0.
 00000058\\\@


 KNOWING HOW CONTENTED, FREE, AND JOYFUL IS LIFE IN
 THE REALMS OF SCIENCE, ONE FERVENTLY WISHES THAT
 MANY WOULD ENTER HER PORTALS.
   --  DMITRI IVANOVICH MENDELEEV
 "FIRST PRINCIPLES OF CHEMISTRY", LONGMANS, GREEN,
 AND CO.  LONDON, 1891
 Job cpu time:       1 days  1 hours 44 minutes 59.8 seconds.
 File lengths (MBytes):  RWF=   1142 Int=      0 D2E=      0 Chk=     44 Scr=      1
 Normal termination of Gaussian 09 at Thu Jul 29 10:43:39 2021.
