 Entering Gaussian System, Link 0=g09
 Input=opt_freq-conf-338.com
 Output=opt_freq-conf-338.log
 Initial command:
 /aerosol/software/g09/l1.exe "/scratch/nicole/10724/Gau-86152.inp" -scrdir="/scratch/nicole/10724/"
 Entering Link 1 = /aerosol/software/g09/l1.exe PID=     86162.
  
 Copyright (c) 1988,1990,1992,1993,1995,1998,2003,2009,2013,
            Gaussian, Inc.  All Rights Reserved.
  
 This is part of the Gaussian(R) 09 program.  It is based on
 the Gaussian(R) 03 system (copyright 2003, Gaussian, Inc.),
 the Gaussian(R) 98 system (copyright 1998, Gaussian, Inc.),
 the Gaussian(R) 94 system (copyright 1995, Gaussian, Inc.),
 the Gaussian 92(TM) system (copyright 1992, Gaussian, Inc.),
 the Gaussian 90(TM) system (copyright 1990, Gaussian, Inc.),
 the Gaussian 88(TM) system (copyright 1988, Gaussian, Inc.),
 the Gaussian 86(TM) system (copyright 1986, Carnegie Mellon
 University), and the Gaussian 82(TM) system (copyright 1983,
 Carnegie Mellon University). Gaussian is a federally registered
 trademark of Gaussian, Inc.
  
 This software contains proprietary and confidential information,
 including trade secrets, belonging to Gaussian, Inc.
  
 This software is provided under written license and may be
 used, copied, transmitted, or stored only in accord with that
 written license.
  
 The following legend is applicable only to US Government
 contracts under FAR:
  
                    RESTRICTED RIGHTS LEGEND
  
 Use, reproduction and disclosure by the US Government is
 subject to restrictions as set forth in subparagraphs (a)
 and (c) of the Commercial Computer Software - Restricted
 Rights clause in FAR 52.227-19.
  
 Gaussian, Inc.
 340 Quinnipiac St., Bldg. 40, Wallingford CT 06492
  
  
 ---------------------------------------------------------------
 Warning -- This program may not be used in any manner that
 competes with the business of Gaussian, Inc. or will provide
 assistance to any competitor of Gaussian, Inc.  The licensee
 of this program is prohibited from giving any competitor of
 Gaussian, Inc. access to this program.  By using this program,
 the user acknowledges that Gaussian, Inc. is engaged in the
 business of creating and licensing software in the field of
 computational chemistry and represents and warrants to the
 licensee that it is not a competitor of Gaussian, Inc. and that
 it will not use this program in any manner prohibited above.
 ---------------------------------------------------------------
  

 Cite this work as:
 Gaussian 09, Revision D.01,
 M. J. Frisch, G. W. Trucks, H. B. Schlegel, G. E. Scuseria, 
 M. A. Robb, J. R. Cheeseman, G. Scalmani, V. Barone, B. Mennucci, 
 G. A. Petersson, H. Nakatsuji, M. Caricato, X. Li, H. P. Hratchian, 
 A. F. Izmaylov, J. Bloino, G. Zheng, J. L. Sonnenberg, M. Hada, 
 M. Ehara, K. Toyota, R. Fukuda, J. Hasegawa, M. Ishida, T. Nakajima, 
 Y. Honda, O. Kitao, H. Nakai, T. Vreven, J. A. Montgomery, Jr., 
 J. E. Peralta, F. Ogliaro, M. Bearpark, J. J. Heyd, E. Brothers, 
 K. N. Kudin, V. N. Staroverov, T. Keith, R. Kobayashi, J. Normand, 
 K. Raghavachari, A. Rendell, J. C. Burant, S. S. Iyengar, J. Tomasi, 
 M. Cossi, N. Rega, J. M. Millam, M. Klene, J. E. Knox, J. B. Cross, 
 V. Bakken, C. Adamo, J. Jaramillo, R. Gomperts, R. E. Stratmann, 
 O. Yazyev, A. J. Austin, R. Cammi, C. Pomelli, J. W. Ochterski, 
 R. L. Martin, K. Morokuma, V. G. Zakrzewski, G. A. Voth, 
 P. Salvador, J. J. Dannenberg, S. Dapprich, A. D. Daniels, 
 O. Farkas, J. B. Foresman, J. V. Ortiz, J. Cioslowski, 
 and D. J. Fox, Gaussian, Inc., Wallingford CT, 2013.
 
 ******************************************
 Gaussian 09:  ES64L-G09RevD.01 24-Apr-2013
                29-Jul-2021 
 ******************************************
 %mem=2gb
 %nproc=4
 Will use up to    4 processors via shared memory.
 %chk=conf-338.chk
 ----------------------------------------------------------------------
 # B3LYP/6-311++G(2df,2pd) guess=read geom=checkpoint opt=readfc freq=n
 oraman nosymm integral(ultrafinegrid)
 ----------------------------------------------------------------------
 1/10=3,14=-1,18=20,19=15,26=4,29=2,38=1/1,3;
 2/9=110,12=2,15=1,40=1/2;
 3/5=4,6=6,7=1414,11=2,14=-4,16=1,25=1,30=1,71=1,74=-5,75=-5,116=-2/1,2,3;
 4/5=1/1;
 5/5=2,38=6/2;
 6/7=2,8=2,9=2,10=2,28=1/1;
 7/30=1/1,2,3,16;
 1/14=-1,18=20,19=15,26=4/3(2);
 2/9=110,15=1/2;
 99//99;
 2/9=110,15=1/2;
 3/5=4,6=6,7=1414,11=2,14=-2,16=1,25=1,30=1,71=1,74=-5,75=-5/1,2,3;
 4/5=5,16=3,69=1/1;
 5/5=2,38=5/2;
 7/30=1/1,2,3,16;
 1/14=-1,18=20,19=15,26=4/3(-5);
 2/9=110,15=1/2;
 6/7=2,8=2,9=2,10=2,19=2,28=1/1;
 99/9=1/99;
 ------------------------------------------------------------
 Candidate Structure: Conf:338 OPT and FREQ calc in gas phase
 ------------------------------------------------------------
 Structure from the checkpoint file:  "conf-338.chk"
 Charge =  0 Multiplicity = 1
 Redundant internal coordinates found in file.
 O,0,0.5677290184,0.487798059,1.7892541033
 C,0,1.2769396377,0.0527851994,0.8728376507
 N,0,0.7876392985,-0.5640897191,-0.2257252534
 C,0,-0.6288462167,-0.8167677858,-0.4066644285
 C,0,-0.7741011046,-1.9669303495,-1.3896601604
 O,0,-2.0464737395,-2.4115531926,-1.436390844
 O,0,0.1161811933,-2.4277749067,-2.0708677935
 C,0,-1.4435423277,0.4413180251,-0.9049006505
 C,0,-2.4563439079,0.9461674783,0.0698536795
 C,0,-3.7993400909,1.2280252489,-0.0462401711
 N,0,-4.3079484614,1.7068862225,1.1397055735
 C,0,-3.2816907037,1.7102248514,1.9683319243
 N,0,-2.1383362985,1.2664344164,1.3746632284
 C,0,2.7997113461,0.1643002907,0.963715839
 C,0,3.5544988323,0.3959941508,-0.3528315923
 N,0,3.4169648011,-0.7573434548,-1.2541860668
 H,0,1.4594481358,-0.9186407075,-0.9165877556
 H,0,-1.0570097362,-1.1384626132,0.5480621867
 H,0,-2.0691075581,-3.1202498902,-2.1015027653
 H,0,-1.9651463515,0.2082211678,-1.8372898577
 H,0,-0.7017011081,1.2126890711,-1.1446806176
 H,0,-4.4232566354,1.1116121019,-0.9227121783
 H,0,-3.3107605953,2.0201512412,3.0041494302
 H,0,-1.2120832781,1.1185437321,1.7786887404
 H,0,3.0021427188,0.9823884601,1.6592045465
 H,0,3.172900666,-0.750862768,1.4449184932
 H,0,3.1323316896,1.2683052423,-0.8644002477
 H,0,4.6005511518,0.6447995024,-0.115248717
 H,0,3.9477987313,-1.5514005897,-0.9035896052
 H,0,3.7807875029,-0.5425241543,-2.1781269708
 Recover connectivity data from disk.

 GradGradGradGradGradGradGradGradGradGradGradGradGradGradGradGradGradGrad
 Berny optimization.
 Initialization pass.
 Force constant matrix read from checkpoint file:
 "conf-338.chk"
                           ----------------------------
                           !    Initial Parameters    !
                           ! (Angstroms and Degrees)  !
 --------------------------                            --------------------------
 ! Name  Definition              Value          Derivative Info.                !
 --------------------------------------------------------------------------------
 ! R1    R(1,2)                  1.2378         D2E/DX2 =    0.7499             !
 ! R2    R(2,3)                  1.3516         D2E/DX2 =    0.4872             !
 ! R3    R(2,14)                 1.5296         D2E/DX2 =    0.2792             !
 ! R4    R(3,4)                  1.4502         D2E/DX2 =    0.3597             !
 ! R5    R(3,17)                 1.0268         D2E/DX2 =    0.3991             !
 ! R6    R(4,5)                  1.52           D2E/DX2 =    0.2798             !
 ! R7    R(4,8)                  1.5795         D2E/DX2 =    0.2437             !
 ! R8    R(4,18)                 1.0947         D2E/DX2 =    0.3363             !
 ! R9    R(5,6)                  1.3486         D2E/DX2 =    0.4146             !
 ! R10   R(5,7)                  1.212          D2E/DX2 =    0.8617             !
 ! R11   R(6,19)                 0.9722         D2E/DX2 =    0.5074             !
 ! R12   R(8,9)                  1.4936         D2E/DX2 =    0.3262             !
 ! R13   R(8,20)                 1.0935         D2E/DX2 =    0.3399             !
 ! R14   R(8,21)                 1.0967         D2E/DX2 =    0.3301             !
 ! R15   R(9,10)                 1.3772         D2E/DX2 =    0.4068             !
 ! R16   R(9,13)                 1.3807         D2E/DX2 =    0.3728             !
 ! R17   R(10,11)                1.3764         D2E/DX2 =    0.3376             !
 ! R18   R(10,22)                1.0821         D2E/DX2 =    0.3699             !
 ! R19   R(11,12)                1.319          D2E/DX2 =    0.4527             !
 ! R20   R(12,13)                1.3626         D2E/DX2 =    0.3694             !
 ! R21   R(12,23)                1.0816         D2E/DX2 =    0.3729             !
 ! R22   R(13,24)                1.0213         D2E/DX2 =    0.422              !
 ! R23   R(14,15)                1.5351         D2E/DX2 =    0.2832             !
 ! R24   R(14,25)                1.0927         D2E/DX2 =    0.344              !
 ! R25   R(14,26)                1.0992         D2E/DX2 =    0.3281             !
 ! R26   R(15,16)                1.4702         D2E/DX2 =    0.3226             !
 ! R27   R(15,27)                1.0958         D2E/DX2 =    0.3346             !
 ! R28   R(15,28)                1.1012         D2E/DX2 =    0.3179             !
 ! R29   R(16,29)                1.0175         D2E/DX2 =    0.4464             !
 ! R30   R(16,30)                1.016          D2E/DX2 =    0.4516             !
 ! A1    A(1,2,3)              123.694          D2E/DX2 =    0.2225             !
 ! A2    A(1,2,14)             120.0548         D2E/DX2 =    0.1893             !
 ! A3    A(3,2,14)             116.2304         D2E/DX2 =    0.2269             !
 ! A4    A(2,3,4)              122.313          D2E/DX2 =    0.2573             !
 ! A5    A(2,3,17)             117.8791         D2E/DX2 =    0.1457             !
 ! A6    A(4,3,17)             119.667          D2E/DX2 =    0.1236             !
 ! A7    A(3,4,5)              107.8115         D2E/DX2 =    0.0993             !
 ! A8    A(3,4,8)              113.8529         D2E/DX2 =    0.1119             !
 ! A9    A(3,4,18)             108.9311         D2E/DX2 =    0.0303             !
 ! A10   A(5,4,8)              110.4528         D2E/DX2 =    0.0866             !
 ! A11   A(5,4,18)             107.7156         D2E/DX2 =    0.0247             !
 ! A12   A(8,4,18)             107.9053         D2E/DX2 =    0.0321             !
 ! A13   A(4,5,6)              111.2259         D2E/DX2 =    0.1653             !
 ! A14   A(4,5,7)              125.5215         D2E/DX2 =    0.1672             !
 ! A15   A(6,5,7)              123.2418         D2E/DX2 =    0.1997             !
 ! A16   A(5,6,19)             106.6188         D2E/DX2 =    0.1727             !
 ! A17   A(4,8,9)              114.4018         D2E/DX2 =    0.224              !
 ! A18   A(4,8,20)             110.1949         D2E/DX2 =    0.0722             !
 ! A19   A(4,8,21)             106.2776         D2E/DX2 =    0.0653             !
 ! A20   A(9,8,20)             107.7622         D2E/DX2 =    0.0728             !
 ! A21   A(9,8,21)             111.3228         D2E/DX2 =    0.0513             !
 ! A22   A(20,8,21)            106.6279         D2E/DX2 =    0.0215             !
 ! A23   A(8,9,10)             132.4888         D2E/DX2 =    0.1252             !
 ! A24   A(8,9,13)             122.6152         D2E/DX2 =    0.1452             !
 ! A25   A(10,9,13)            104.8808         D2E/DX2 =    0.1023             !
 ! A26   A(9,10,11)            111.0343         D2E/DX2 =    0.1157             !
 ! A27   A(9,10,22)            127.4824         D2E/DX2 =    0.0822             !
 ! A28   A(11,10,22)           121.4833         D2E/DX2 =    0.0899             !
 ! A29   A(10,11,12)           104.7536         D2E/DX2 =    0.1329             !
 ! A30   A(11,12,13)           112.2301         D2E/DX2 =    0.12               !
 ! A31   A(11,12,23)           125.5521         D2E/DX2 =    0.0898             !
 ! A32   A(13,12,23)           122.2177         D2E/DX2 =    0.0906             !
 ! A33   A(9,13,12)            107.0997         D2E/DX2 =    0.1031             !
 ! A34   A(9,13,24)            123.3101         D2E/DX2 =    0.0912             !
 ! A35   A(12,13,24)           129.4806         D2E/DX2 =    0.0817             !
 ! A36   A(2,14,15)            116.7142         D2E/DX2 =    0.223              !
 ! A37   A(2,14,25)            106.0719         D2E/DX2 =    0.0692             !
 ! A38   A(2,14,26)            107.656          D2E/DX2 =    0.0553             !
 ! A39   A(15,14,25)           109.9851         D2E/DX2 =    0.0647             !
 ! A40   A(15,14,26)           109.521          D2E/DX2 =    0.0628             !
 ! A41   A(25,14,26)           106.3672         D2E/DX2 =    0.0217             !
 ! A42   A(14,15,16)           111.1852         D2E/DX2 =    0.1934             !
 ! A43   A(14,15,27)           109.3344         D2E/DX2 =    0.059              !
 ! A44   A(14,15,28)           108.429          D2E/DX2 =    0.0646             !
 ! A45   A(16,15,27)           107.5906         D2E/DX2 =    0.0554             !
 ! A46   A(16,15,28)           113.4773         D2E/DX2 =    0.0682             !
 ! A47   A(27,15,28)           106.668          D2E/DX2 =    0.0223             !
 ! A48   A(15,16,29)           110.6196         D2E/DX2 =    0.1407             !
 ! A49   A(15,16,30)           110.9881         D2E/DX2 =    0.1368             !
 ! A50   A(29,16,30)           106.951          D2E/DX2 =    0.0581             !
 ! D1    D(1,2,3,4)             -2.3065         D2E/DX2 =    0.0145             !
 ! D2    D(1,2,3,17)          -177.9746         D2E/DX2 =    0.0207             !
 ! D3    D(14,2,3,4)           176.0328         D2E/DX2 =    0.0117             !
 ! D4    D(14,2,3,17)            0.3648         D2E/DX2 =    0.014              !
 ! D5    D(1,2,14,15)         -145.6717         D2E/DX2 =    0.0171             !
 ! D6    D(1,2,14,25)          -22.772          D2E/DX2 =    0.0159             !
 ! D7    D(1,2,14,26)           90.7719         D2E/DX2 =    0.0146             !
 ! D8    D(3,2,14,15)           35.9246         D2E/DX2 =    0.0184             !
 ! D9    D(3,2,14,25)          158.8243         D2E/DX2 =    0.0163             !
 ! D10   D(3,2,14,26)          -87.6318         D2E/DX2 =    0.0162             !
 ! D11   D(2,3,4,5)           -157.2648         D2E/DX2 =    0.0139             !
 ! D12   D(2,3,4,8)             79.8223         D2E/DX2 =    0.0276             !
 ! D13   D(2,3,4,18)           -40.6439         D2E/DX2 =    0.0094             !
 ! D14   D(17,3,4,5)            18.3282         D2E/DX2 =    0.013              !
 ! D15   D(17,3,4,8)          -104.5847         D2E/DX2 =    0.022              !
 ! D16   D(17,3,4,18)          134.949          D2E/DX2 =    0.0101             !
 ! D17   D(3,4,5,6)            169.4784         D2E/DX2 =    0.0239             !
 ! D18   D(3,4,5,7)            -11.6884         D2E/DX2 =    0.0223             !
 ! D19   D(8,4,5,6)            -65.5515         D2E/DX2 =    0.0218             !
 ! D20   D(8,4,5,7)            113.2817         D2E/DX2 =    0.02               !
 ! D21   D(18,4,5,6)            52.068          D2E/DX2 =    0.016              !
 ! D22   D(18,4,5,7)          -129.0988         D2E/DX2 =    0.0144             !
 ! D23   D(3,4,8,9)           -115.2252         D2E/DX2 =    0.0456             !
 ! D24   D(3,4,8,20)           123.1872         D2E/DX2 =    0.0314             !
 ! D25   D(3,4,8,21)             8.0342         D2E/DX2 =    0.0231             !
 ! D26   D(5,4,8,9)            123.318          D2E/DX2 =    0.0211             !
 ! D27   D(5,4,8,20)             1.7304         D2E/DX2 =    0.0173             !
 ! D28   D(5,4,8,21)          -113.4226         D2E/DX2 =    0.0184             !
 ! D29   D(18,4,8,9)             5.8152         D2E/DX2 =    0.0149             !
 ! D30   D(18,4,8,20)         -115.7724         D2E/DX2 =    0.0135             !
 ! D31   D(18,4,8,21)          129.0746         D2E/DX2 =    0.0159             !
 ! D32   D(4,5,6,19)           178.1493         D2E/DX2 =    0.017              !
 ! D33   D(7,5,6,19)            -0.7152         D2E/DX2 =    0.0162             !
 ! D34   D(4,8,9,10)          -128.0142         D2E/DX2 =    0.016              !
 ! D35   D(4,8,9,13)            53.6338         D2E/DX2 =    0.019              !
 ! D36   D(20,8,9,10)           -5.1005         D2E/DX2 =    0.0137             !
 ! D37   D(20,8,9,13)          176.5475         D2E/DX2 =    0.0153             !
 ! D38   D(21,8,9,10)          111.4893         D2E/DX2 =    0.0153             !
 ! D39   D(21,8,9,13)          -66.8627         D2E/DX2 =    0.0165             !
 ! D40   D(8,9,10,11)         -178.5857         D2E/DX2 =    0.0097             !
 ! D41   D(8,9,10,22)            1.3204         D2E/DX2 =    0.007              !
 ! D42   D(13,9,10,11)          -0.0219         D2E/DX2 =    0.0146             !
 ! D43   D(13,9,10,22)         179.8841         D2E/DX2 =    0.0096             !
 ! D44   D(8,9,13,12)          178.9885         D2E/DX2 =    0.0082             !
 ! D45   D(8,9,13,24)           -4.4957         D2E/DX2 =    0.0044             !
 ! D46   D(10,9,13,12)           0.2458         D2E/DX2 =    0.0127             !
 ! D47   D(10,9,13,24)         176.7616         D2E/DX2 =    0.0072             !
 ! D48   D(9,10,11,12)          -0.2157         D2E/DX2 =    0.0176             !
 ! D49   D(22,10,11,12)        179.8717         D2E/DX2 =    0.0098             !
 ! D50   D(10,11,12,13)          0.3815         D2E/DX2 =    0.0188             !
 ! D51   D(10,11,12,23)       -179.4663         D2E/DX2 =    0.0109             !
 ! D52   D(11,12,13,9)          -0.4075         D2E/DX2 =    0.0176             !
 ! D53   D(11,12,13,24)       -176.6345         D2E/DX2 =    0.01               !
 ! D54   D(23,12,13,9)         179.4461         D2E/DX2 =    0.0107             !
 ! D55   D(23,12,13,24)          3.2191         D2E/DX2 =    0.007              !
 ! D56   D(2,14,15,16)         -65.2114         D2E/DX2 =    0.024              !
 ! D57   D(2,14,15,27)          53.4401         D2E/DX2 =    0.0156             !
 ! D58   D(2,14,15,28)         169.3728         D2E/DX2 =    0.0174             !
 ! D59   D(25,14,15,16)        173.9377         D2E/DX2 =    0.0215             !
 ! D60   D(25,14,15,27)        -67.4109         D2E/DX2 =    0.0159             !
 ! D61   D(25,14,15,28)         48.5219         D2E/DX2 =    0.0162             !
 ! D62   D(26,14,15,16)         57.3819         D2E/DX2 =    0.017              !
 ! D63   D(26,14,15,27)        176.0333         D2E/DX2 =    0.0173             !
 ! D64   D(26,14,15,28)        -68.0339         D2E/DX2 =    0.0158             !
 ! D65   D(14,15,16,29)        -71.0048         D2E/DX2 =    0.016              !
 ! D66   D(14,15,16,30)        170.4409         D2E/DX2 =    0.0159             !
 ! D67   D(27,15,16,29)        169.3008         D2E/DX2 =    0.0191             !
 ! D68   D(27,15,16,30)         50.7466         D2E/DX2 =    0.0178             !
 ! D69   D(28,15,16,29)         51.5417         D2E/DX2 =    0.0187             !
 ! D70   D(28,15,16,30)        -67.0126         D2E/DX2 =    0.0186             !
 --------------------------------------------------------------------------------
 Trust Radius=3.00D-01 FncErr=1.00D-07 GrdErr=1.00D-06
 Number of steps in this run=    160 maximum allowed number of steps=    180.
 GradGradGradGradGradGradGradGradGradGradGradGradGradGradGradGradGradGrad

                          Input orientation:                          
 ---------------------------------------------------------------------
 Center     Atomic      Atomic             Coordinates (Angstroms)
 Number     Number       Type             X           Y           Z
 ---------------------------------------------------------------------
      1          8           0        0.567729    0.487798    1.789254
      2          6           0        1.276940    0.052785    0.872838
      3          7           0        0.787639   -0.564090   -0.225725
      4          6           0       -0.628846   -0.816768   -0.406664
      5          6           0       -0.774101   -1.966930   -1.389660
      6          8           0       -2.046474   -2.411553   -1.436391
      7          8           0        0.116181   -2.427775   -2.070868
      8          6           0       -1.443542    0.441318   -0.904901
      9          6           0       -2.456344    0.946167    0.069854
     10          6           0       -3.799340    1.228025   -0.046240
     11          7           0       -4.307948    1.706886    1.139706
     12          6           0       -3.281691    1.710225    1.968332
     13          7           0       -2.138336    1.266434    1.374663
     14          6           0        2.799711    0.164300    0.963716
     15          6           0        3.554499    0.395994   -0.352832
     16          7           0        3.416965   -0.757343   -1.254186
     17          1           0        1.459448   -0.918641   -0.916588
     18          1           0       -1.057010   -1.138463    0.548062
     19          1           0       -2.069108   -3.120250   -2.101503
     20          1           0       -1.965146    0.208221   -1.837290
     21          1           0       -0.701701    1.212689   -1.144681
     22          1           0       -4.423257    1.111612   -0.922712
     23          1           0       -3.310761    2.020151    3.004149
     24          1           0       -1.212083    1.118544    1.778689
     25          1           0        3.002143    0.982388    1.659205
     26          1           0        3.172901   -0.750863    1.444918
     27          1           0        3.132332    1.268305   -0.864400
     28          1           0        4.600551    0.644800   -0.115249
     29          1           0        3.947799   -1.551401   -0.903590
     30          1           0        3.780788   -0.542524   -2.178127
 ---------------------------------------------------------------------
                    Distance matrix (angstroms):
                    1          2          3          4          5
     1  O    0.000000
     2  C    1.237754   0.000000
     3  N    2.283631   1.351588   0.000000
     4  C    2.820593   2.454642   1.450178   0.000000
     5  C    4.234583   3.661272   2.400362   1.519952   0.000000
     6  O    5.064097   4.738204   3.593192   2.369250   1.348631
     7  O    4.858498   4.020689   2.707163   2.433101   1.212033
     8  C    3.362416   3.272970   2.539743   1.579477   2.546135
     9  C    3.508769   3.921775   3.590497   2.583555   3.666914
    10  C    4.794608   5.290984   4.927907   3.789870   4.600499
    11  N    5.067575   5.830801   5.743409   4.721852   5.690580
    12  C    4.042824   4.972758   5.152266   4.366221   5.575445
    13  N    2.846217   3.659082   3.804392   3.129124   4.467356
    14  C    2.401647   1.529552   2.448215   3.820398   4.780445
    15  C    3.676650   2.609087   2.931455   4.355923   5.039365
    16  N    4.350983   3.124139   2.829917   4.134055   4.364228
    17  H    3.177234   2.044265   1.026803   2.152063   2.512260
    18  H    2.612481   2.640430   2.081197   1.094676   2.126303
    19  H    5.925277   5.487339   4.267728   3.202009   1.874542
    20  H    4.432318   4.228484   3.281986   2.209749   2.519969
    21  H    3.277940   3.054632   2.493904   2.160711   3.189865
    22  H    5.714354   6.069378   5.517898   4.287482   4.797062
    23  H    4.343588   5.427708   5.822995   5.184055   6.452676
    24  H    1.888302   2.855108   3.293603   2.976804   4.444144
    25  H    2.487550   2.111601   3.293718   4.548501   5.679267
    26  H    2.905128   2.137240   2.918117   4.229182   5.009239
    27  H    3.772037   2.817439   3.043544   4.324756   5.099300
    28  H    4.462671   3.517554   4.001489   5.437619   6.110004
    29  H    4.778557   3.586446   3.379481   4.661791   4.765004
    30  H    5.208207   3.991495   3.573692   4.760059   4.837109
                    6          7          8          9         10
     6  O    0.000000
     7  O    2.253863   0.000000
     8  C    2.963930   3.467551   0.000000
     9  C    3.702844   4.752269   1.493582   0.000000
    10  C    4.272188   5.726718   2.627925   1.377157   0.000000
    11  N    5.358366   6.853913   3.739906   2.269739   1.376393
    12  C    5.486980   6.706990   3.639283   2.206627   2.135176
    13  N    4.630125   5.531882   2.521898   1.380662   2.186178
    14  C    5.990079   4.809250   4.644746   5.388546   6.760104
    15  C    6.358248   4.769418   5.028643   6.050751   7.407106
    16  N    5.711284   3.788467   5.018298   6.257059   7.581285
    17  H    3.845838   2.326846   3.205773   4.447921   5.746350
    18  H    2.556922   3.146029   2.180875   2.555876   3.670672
    19  H    0.972182   2.292585   3.808931   4.626066   5.111292
    20  H    2.651519   3.366743   1.093506   2.103102   2.759008
    21  H    3.876679   3.844442   1.096739   2.150558   3.286666
    22  H    4.280848   5.869584   3.054228   2.209367   1.082140
    23  H    6.399752   7.568605   4.610845   3.239377   3.189208
    24  H    4.847115   5.399977   2.777384   2.120853   3.168004
    25  H    6.825693   5.819916   5.160572   5.685281   7.016341
    26  H    6.188837   4.951396   5.315495   6.038138   7.399439
    27  H    6.378758   4.920745   4.650180   5.675376   6.979906
    28  H    7.434356   5.777087   6.098854   7.065752   8.420397
    29  H    6.079066   4.100227   5.747825   6.942513   8.275169
    30  H    6.164448   4.122501   5.466505   6.794956   8.070819
                   11         12         13         14         15
    11  N    0.000000
    12  C    1.319029   0.000000
    13  N    2.226302   1.362590   0.000000
    14  C    7.275257   6.354730   5.076208   0.000000
    15  C    8.109512   7.338153   6.012510   1.535149   0.000000
    16  N    8.454433   7.832337   6.470541   2.479822   1.470219
    17  H    6.662177   6.141017   4.792540   2.550413   2.536794
    18  H    4.360580   3.883477   2.763343   4.091975   4.942892
    19  H    6.230496   6.431749   5.597457   6.624895   6.859065
    20  H    4.073969   4.297914   3.386215   5.527335   5.718860
    21  H    4.297403   4.073664   2.900673   4.219519   4.405593
    22  H    2.149701   3.165382   3.243881   7.525110   8.030035
    23  H    2.137445   1.081581   2.144270   6.704134   7.812746
    24  H    3.215405   2.160862   1.021300   4.203482   5.271220
    25  H    7.364252   6.333393   5.156178   1.092681   2.167313
    26  H    7.880152   6.927674   5.681871   1.099250   2.166288
    27  H    7.717938   7.025621   5.726548   2.161359   1.095835
    28  H    9.058935   8.222297   6.929565   2.153617   1.101170
    29  H    9.107626   8.435144   7.083196   2.783624   2.061641
    30  H    9.027486   8.493915   7.136573   3.366495   2.064879
                   16         17         18         19         20
    16  N    0.000000
    17  H    1.992953   0.000000
    18  H    4.838367   2.919945   0.000000
    19  H    6.033097   4.324559   3.460060   0.000000
    20  H    5.499040   3.720935   2.885858   3.340559   0.000000
    21  H    4.566884   3.043872   2.918825   4.643239   1.756405
    22  H    8.066718   6.223197   4.307857   4.983996   2.773964
    23  H    8.432686   6.838389   4.592232   7.350722   5.341657
    24  H    5.843404   4.307170   2.575377   5.810142   3.804089
    25  H    3.418565   3.553664   4.712681   7.529418   6.123624
    26  H    2.710124   2.922461   4.341282   6.757940   6.171893
    27  H    2.082355   2.753906   5.033703   6.916994   5.296657
    28  H    2.159643   3.599030   5.968920   7.912342   6.801795
    29  H    1.017462   2.567575   5.227420   6.332412   6.239470
    30  H    1.015963   2.668625   5.584938   6.393107   5.804786
                   21         22         23         24         25
    21  H    0.000000
    22  H    3.729539   0.000000
    23  H    4.967089   4.181308   0.000000
    24  H    2.969081   4.196338   2.592122   0.000000
    25  H    4.651158   7.862541   6.537475   4.218118   0.000000
    26  H    5.057084   8.171664   7.221328   4.778511   1.754775
    27  H    3.844666   7.557438   7.552773   5.087464   2.543084
    28  H    5.431032   9.071881   8.614586   6.131733   2.411962
    29  H    5.414440   8.784450   8.984046   6.399031   3.725891
    30  H    4.923565   8.462776   9.149500   6.583638   4.201995
                   26         27         28         29         30
    26  H    0.000000
    27  H    3.067839   0.000000
    28  H    2.533808   1.762287   0.000000
    29  H    2.599388   2.935518   2.422986   0.000000
    30  H    3.679591   2.329265   2.517383   1.634065   0.000000
 Symmetry turned off by external request.
 Stoichiometry    C9H14N4O3
 Framework group  C1[X(C9H14N4O3)]
 Deg. of freedom    84
 Full point group                 C1      NOp   1
 Rotational constants (GHZ):      0.7496847      0.3365310      0.2504319
 Standard basis: 6-311++G(2df,2pd) (5D, 7F)
   754 basis functions,  1084 primitive gaussians,   848 cartesian basis functions
    60 alpha electrons       60 beta electrons
       nuclear repulsion energy      1129.6314596432 Hartrees.
 NAtoms=   30 NActive=   30 NUniq=   30 SFac= 1.00D+00 NAtFMM=   60 NAOKFM=F Big=F
 Integral buffers will be    131072 words long.
 Raffenetti 2 integral format.
 Two-electron integral symmetry is turned off.
 One-electron integrals computed using PRISM.
 NBasis=   754 RedAO= T EigKep=  2.05D-06  NBF=   754
 NBsUse=   754 1.00D-06 EigRej= -1.00D+00 NBFU=   754
 Initial guess from the checkpoint file:  "conf-338.chk"
 B after Tr=     0.000000    0.000000    0.000000
         Rot=    1.000000    0.000000    0.000000    0.000000 Ang=   0.00 deg.
 Requested convergence on RMS density matrix=1.00D-08 within 128 cycles.
 Requested convergence on MAX density matrix=1.00D-06.
 Requested convergence on             energy=1.00D-06.
 No special actions if energy rises.
 SCF Done:  E(RB3LYP) =  -796.389690356     A.U. after   13 cycles
            NFock= 13  Conv=0.35D-08     -V/T= 2.0043

 **********************************************************************

            Population analysis using the SCF density.

 **********************************************************************

 Alpha  occ. eigenvalues --  -19.19608 -19.14006 -19.10682 -14.34803 -14.34494
 Alpha  occ. eigenvalues --  -14.32895 -14.27902 -10.32993 -10.28981 -10.24653
 Alpha  occ. eigenvalues --  -10.22616 -10.20865 -10.20038 -10.19777 -10.19354
 Alpha  occ. eigenvalues --  -10.16972  -1.13540  -1.05357  -1.04530  -0.99915
 Alpha  occ. eigenvalues --   -0.94530  -0.91584  -0.85730  -0.81070  -0.77581
 Alpha  occ. eigenvalues --   -0.74210  -0.68113  -0.66285  -0.63096  -0.59963
 Alpha  occ. eigenvalues --   -0.59453  -0.57617  -0.54580  -0.53736  -0.52700
 Alpha  occ. eigenvalues --   -0.51438  -0.49712  -0.48393  -0.48127  -0.47678
 Alpha  occ. eigenvalues --   -0.46413  -0.44437  -0.43304  -0.43042  -0.42300
 Alpha  occ. eigenvalues --   -0.41489  -0.40119  -0.39734  -0.39419  -0.39138
 Alpha  occ. eigenvalues --   -0.38547  -0.36646  -0.35193  -0.31119  -0.28732
 Alpha  occ. eigenvalues --   -0.28387  -0.27599  -0.27020  -0.25964  -0.21780
 Alpha virt. eigenvalues --   -0.02885  -0.02770  -0.01679  -0.00744  -0.00131
 Alpha virt. eigenvalues --    0.00447   0.00880   0.01726   0.02006   0.02590
 Alpha virt. eigenvalues --    0.03063   0.03573   0.03985   0.04519   0.04696
 Alpha virt. eigenvalues --    0.05367   0.05735   0.06534   0.06947   0.07385
 Alpha virt. eigenvalues --    0.07615   0.08131   0.08550   0.08793   0.09194
 Alpha virt. eigenvalues --    0.09316   0.10131   0.10429   0.10900   0.11253
 Alpha virt. eigenvalues --    0.11410   0.11661   0.12017   0.12265   0.12916
 Alpha virt. eigenvalues --    0.13404   0.13703   0.13801   0.14027   0.14279
 Alpha virt. eigenvalues --    0.14475   0.14603   0.15456   0.15748   0.16350
 Alpha virt. eigenvalues --    0.16488   0.16653   0.17021   0.17115   0.17935
 Alpha virt. eigenvalues --    0.18481   0.18719   0.19022   0.19451   0.19505
 Alpha virt. eigenvalues --    0.20058   0.20283   0.20728   0.21120   0.21461
 Alpha virt. eigenvalues --    0.21794   0.22083   0.22802   0.23415   0.23821
 Alpha virt. eigenvalues --    0.24226   0.24482   0.24910   0.25276   0.25593
 Alpha virt. eigenvalues --    0.25899   0.26730   0.27349   0.27371   0.27811
 Alpha virt. eigenvalues --    0.28534   0.28733   0.29036   0.29142   0.29604
 Alpha virt. eigenvalues --    0.30070   0.30691   0.30937   0.31005   0.31361
 Alpha virt. eigenvalues --    0.31616   0.32189   0.32233   0.33252   0.33706
 Alpha virt. eigenvalues --    0.33989   0.34351   0.34634   0.35219   0.35774
 Alpha virt. eigenvalues --    0.36090   0.36465   0.37913   0.38571   0.39152
 Alpha virt. eigenvalues --    0.39596   0.39687   0.41049   0.41838   0.42607
 Alpha virt. eigenvalues --    0.43415   0.43982   0.45041   0.45919   0.46553
 Alpha virt. eigenvalues --    0.47934   0.48366   0.48697   0.49620   0.49963
 Alpha virt. eigenvalues --    0.51267   0.51838   0.52006   0.53338   0.53736
 Alpha virt. eigenvalues --    0.54616   0.55379   0.55411   0.56127   0.56802
 Alpha virt. eigenvalues --    0.56874   0.58162   0.58764   0.58777   0.59567
 Alpha virt. eigenvalues --    0.60008   0.60513   0.60804   0.61475   0.61861
 Alpha virt. eigenvalues --    0.63007   0.63052   0.63449   0.63821   0.64247
 Alpha virt. eigenvalues --    0.65616   0.66010   0.66435   0.67069   0.67838
 Alpha virt. eigenvalues --    0.68709   0.69114   0.70624   0.70879   0.71512
 Alpha virt. eigenvalues --    0.71908   0.72188   0.73520   0.74126   0.75207
 Alpha virt. eigenvalues --    0.75812   0.76468   0.76854   0.77093   0.78360
 Alpha virt. eigenvalues --    0.78961   0.80007   0.80319   0.81115   0.81566
 Alpha virt. eigenvalues --    0.82724   0.83317   0.83987   0.84547   0.85093
 Alpha virt. eigenvalues --    0.86018   0.86849   0.87571   0.88281   0.88766
 Alpha virt. eigenvalues --    0.89456   0.90979   0.91690   0.92244   0.93262
 Alpha virt. eigenvalues --    0.94345   0.95115   0.95209   0.97057   0.97803
 Alpha virt. eigenvalues --    0.98401   0.99588   1.00247   1.00808   1.02338
 Alpha virt. eigenvalues --    1.02667   1.03463   1.04283   1.05603   1.06137
 Alpha virt. eigenvalues --    1.06466   1.06671   1.06832   1.08007   1.08540
 Alpha virt. eigenvalues --    1.09135   1.09961   1.10715   1.12231   1.13220
 Alpha virt. eigenvalues --    1.14162   1.14888   1.15449   1.15649   1.16458
 Alpha virt. eigenvalues --    1.17570   1.18046   1.19074   1.20145   1.20752
 Alpha virt. eigenvalues --    1.21282   1.21810   1.22739   1.23488   1.24443
 Alpha virt. eigenvalues --    1.24641   1.25581   1.26211   1.27186   1.27865
 Alpha virt. eigenvalues --    1.28264   1.30185   1.31146   1.31193   1.32363
 Alpha virt. eigenvalues --    1.34142   1.34267   1.34973   1.35598   1.36777
 Alpha virt. eigenvalues --    1.37527   1.38649   1.39371   1.40121   1.40209
 Alpha virt. eigenvalues --    1.40577   1.41312   1.42183   1.42659   1.43423
 Alpha virt. eigenvalues --    1.44530   1.45153   1.45551   1.46599   1.47760
 Alpha virt. eigenvalues --    1.48517   1.48857   1.49463   1.50881   1.51251
 Alpha virt. eigenvalues --    1.52085   1.52586   1.53897   1.54652   1.55100
 Alpha virt. eigenvalues --    1.56001   1.56677   1.57764   1.58800   1.59183
 Alpha virt. eigenvalues --    1.60931   1.61341   1.62860   1.64892   1.65840
 Alpha virt. eigenvalues --    1.68053   1.68600   1.70011   1.70923   1.71564
 Alpha virt. eigenvalues --    1.72544   1.74643   1.76325   1.77098   1.78128
 Alpha virt. eigenvalues --    1.78456   1.79083   1.80932   1.83110   1.84592
 Alpha virt. eigenvalues --    1.84761   1.86130   1.88022   1.90309   1.90738
 Alpha virt. eigenvalues --    1.93343   1.95251   1.97025   1.98830   2.01559
 Alpha virt. eigenvalues --    2.04236   2.05436   2.07977   2.09258   2.11873
 Alpha virt. eigenvalues --    2.14740   2.16702   2.18099   2.20269   2.21102
 Alpha virt. eigenvalues --    2.25712   2.31980   2.37484   2.41864   2.46194
 Alpha virt. eigenvalues --    2.48593   2.49853   2.51083   2.51805   2.55697
 Alpha virt. eigenvalues --    2.55969   2.57837   2.58392   2.60148   2.60295
 Alpha virt. eigenvalues --    2.62273   2.64252   2.65269   2.68061   2.69520
 Alpha virt. eigenvalues --    2.69981   2.72184   2.72772   2.73993   2.74965
 Alpha virt. eigenvalues --    2.75349   2.77064   2.77313   2.78412   2.79253
 Alpha virt. eigenvalues --    2.79766   2.81086   2.82345   2.84721   2.85992
 Alpha virt. eigenvalues --    2.86422   2.87375   2.88125   2.88504   2.89173
 Alpha virt. eigenvalues --    2.90253   2.90819   2.91956   2.92918   2.93702
 Alpha virt. eigenvalues --    2.94425   2.95019   2.96609   2.97491   2.98322
 Alpha virt. eigenvalues --    2.99925   3.00385   3.00800   3.01297   3.01831
 Alpha virt. eigenvalues --    3.03143   3.03679   3.05053   3.05989   3.07039
 Alpha virt. eigenvalues --    3.07758   3.08384   3.09069   3.09369   3.09583
 Alpha virt. eigenvalues --    3.10196   3.11079   3.12645   3.13302   3.14323
 Alpha virt. eigenvalues --    3.15018   3.16300   3.17092   3.17538   3.18630
 Alpha virt. eigenvalues --    3.18670   3.20047   3.20721   3.21139   3.21898
 Alpha virt. eigenvalues --    3.22366   3.23755   3.24484   3.25438   3.25724
 Alpha virt. eigenvalues --    3.26953   3.27217   3.27453   3.27947   3.28463
 Alpha virt. eigenvalues --    3.29107   3.29737   3.31263   3.31690   3.32309
 Alpha virt. eigenvalues --    3.32910   3.34104   3.34960   3.35477   3.36503
 Alpha virt. eigenvalues --    3.37279   3.38159   3.39152   3.39335   3.40059
 Alpha virt. eigenvalues --    3.41467   3.42209   3.42961   3.43823   3.44452
 Alpha virt. eigenvalues --    3.45074   3.45550   3.45731   3.46931   3.49111
 Alpha virt. eigenvalues --    3.50010   3.51050   3.51583   3.52550   3.52700
 Alpha virt. eigenvalues --    3.53749   3.54730   3.55699   3.55828   3.56835
 Alpha virt. eigenvalues --    3.57932   3.58894   3.59332   3.60231   3.61409
 Alpha virt. eigenvalues --    3.61619   3.62739   3.63865   3.64139   3.65247
 Alpha virt. eigenvalues --    3.65600   3.66648   3.67411   3.68054   3.70021
 Alpha virt. eigenvalues --    3.70344   3.70668   3.71390   3.72333   3.73370
 Alpha virt. eigenvalues --    3.74283   3.74347   3.76231   3.77063   3.77463
 Alpha virt. eigenvalues --    3.78255   3.79607   3.80063   3.81055   3.81674
 Alpha virt. eigenvalues --    3.82157   3.83465   3.85514   3.85957   3.86980
 Alpha virt. eigenvalues --    3.87334   3.87956   3.88356   3.89036   3.90366
 Alpha virt. eigenvalues --    3.90439   3.91734   3.92837   3.94549   3.94990
 Alpha virt. eigenvalues --    3.95135   3.95780   3.96851   3.98238   3.98466
 Alpha virt. eigenvalues --    3.98726   3.99756   4.01162   4.01536   4.02780
 Alpha virt. eigenvalues --    4.03324   4.03806   4.04170   4.05832   4.07161
 Alpha virt. eigenvalues --    4.07822   4.09708   4.09999   4.10835   4.12391
 Alpha virt. eigenvalues --    4.14427   4.14752   4.15890   4.16109   4.17257
 Alpha virt. eigenvalues --    4.18968   4.19774   4.20646   4.20995   4.22418
 Alpha virt. eigenvalues --    4.22772   4.24517   4.26020   4.26879   4.27991
 Alpha virt. eigenvalues --    4.28747   4.30068   4.31019   4.31902   4.33057
 Alpha virt. eigenvalues --    4.35310   4.36239   4.37266   4.37974   4.39151
 Alpha virt. eigenvalues --    4.40916   4.43368   4.44621   4.46517   4.47769
 Alpha virt. eigenvalues --    4.48527   4.49755   4.50990   4.53042   4.53815
 Alpha virt. eigenvalues --    4.54423   4.57175   4.58358   4.58441   4.60374
 Alpha virt. eigenvalues --    4.60719   4.63819   4.67920   4.68839   4.69909
 Alpha virt. eigenvalues --    4.71368   4.73127   4.74227   4.75987   4.78249
 Alpha virt. eigenvalues --    4.80268   4.80550   4.82469   4.84072   4.85139
 Alpha virt. eigenvalues --    4.86393   4.88253   4.89187   4.89376   4.92050
 Alpha virt. eigenvalues --    4.92811   4.95279   4.96334   4.97000   4.98070
 Alpha virt. eigenvalues --    4.98754   5.00957   5.01731   5.02338   5.03677
 Alpha virt. eigenvalues --    5.03768   5.05119   5.05902   5.06372   5.07200
 Alpha virt. eigenvalues --    5.08244   5.08464   5.09132   5.10588   5.11117
 Alpha virt. eigenvalues --    5.11717   5.12206   5.13294   5.14890   5.15900
 Alpha virt. eigenvalues --    5.17068   5.18298   5.19256   5.20353   5.20987
 Alpha virt. eigenvalues --    5.22477   5.23704   5.24039   5.25378   5.26800
 Alpha virt. eigenvalues --    5.28285   5.28597   5.29124   5.30010   5.31827
 Alpha virt. eigenvalues --    5.33274   5.33559   5.35258   5.36445   5.36640
 Alpha virt. eigenvalues --    5.41027   5.43529   5.44477   5.45440   5.46945
 Alpha virt. eigenvalues --    5.48064   5.49457   5.50836   5.51715   5.53607
 Alpha virt. eigenvalues --    5.54074   5.55513   5.57271   5.59004   5.60786
 Alpha virt. eigenvalues --    5.62510   5.65717   5.66649   5.67641   5.71076
 Alpha virt. eigenvalues --    5.72247   5.77173   5.78853   5.80645   5.82379
 Alpha virt. eigenvalues --    5.82949   5.86042   5.88460   5.91518   5.92967
 Alpha virt. eigenvalues --    5.94853   5.98181   6.00158   6.02682   6.08036
 Alpha virt. eigenvalues --    6.11728   6.12485   6.14439   6.22778   6.25857
 Alpha virt. eigenvalues --    6.27084   6.30105   6.32119   6.33785   6.36883
 Alpha virt. eigenvalues --    6.40408   6.41276   6.42549   6.45460   6.46850
 Alpha virt. eigenvalues --    6.49477   6.56620   6.60569   6.68031   6.72427
 Alpha virt. eigenvalues --    6.80146   6.86787   6.93183   6.94517   6.96356
 Alpha virt. eigenvalues --    6.98952   7.03049   7.08589   7.15390   7.16519
 Alpha virt. eigenvalues --    7.19605   7.22882   7.27809   7.29059   7.29992
 Alpha virt. eigenvalues --    7.38440   7.57548   7.59312   7.66114   7.66637
 Alpha virt. eigenvalues --    7.73071   7.76435   7.97350  24.55253  24.71433
 Alpha virt. eigenvalues --   24.81476  24.86369  25.02415  25.03912  25.07599
 Alpha virt. eigenvalues --   25.08424  25.12305  35.99932  36.23441  36.29508
 Alpha virt. eigenvalues --   36.43151  50.17114  50.21068  50.27204
          Condensed to atoms (all electrons):
               1          2          3          4          5          6
     1  O    8.231792   0.245603  -0.040859  -0.038937  -0.008887   0.000158
     2  C    0.245603   7.031413   0.140274  -0.488239   0.082330   0.013513
     3  N   -0.040859   0.140274   6.679405  -0.376521  -0.016417  -0.015943
     4  C   -0.038937  -0.488239  -0.376521  10.895082  -2.360173   0.232973
     5  C   -0.008887   0.082330  -0.016417  -2.360173   8.019673   0.027943
     6  O    0.000158   0.013513  -0.015943   0.232973   0.027943   7.841260
     7  O    0.000194   0.021582   0.013850  -0.060935   0.424757  -0.101454
     8  C    0.134526   0.035914   0.229840  -1.593328  -0.297130   0.111091
     9  C   -0.089556   0.118306  -0.103757   0.117598   0.002906  -0.085302
    10  C   -0.049853  -0.067462   0.022671  -0.000878   0.082838  -0.034928
    11  N    0.001815  -0.001403  -0.001310   0.020881  -0.006433  -0.000448
    12  C   -0.005467   0.019480  -0.004708   0.052707  -0.053260   0.000453
    13  N    0.033039   0.025694   0.002164  -0.048344  -0.042823   0.003099
    14  C    0.058907  -0.839888   0.003837  -0.265609  -0.182435   0.000109
    15  C   -0.006172  -0.062008  -0.027106  -0.073968   0.000328   0.000526
    16  N   -0.002805   0.018191   0.029290  -0.062297  -0.011877   0.000029
    17  H    0.014763  -0.090958   0.380210   0.027695  -0.011983  -0.001507
    18  H    0.002515   0.002353  -0.041198   0.374798  -0.020359  -0.016949
    19  H   -0.000195  -0.001048   0.005574  -0.195506   0.182461   0.190678
    20  H    0.002657   0.006410  -0.003723   0.102370  -0.115993   0.014203
    21  H   -0.011822  -0.005376   0.034912  -0.226084   0.064770   0.001580
    22  H   -0.000370   0.000903   0.001720  -0.020757   0.005721  -0.002371
    23  H   -0.000082   0.002135  -0.000109  -0.001626  -0.001083   0.000003
    24  H   -0.023989  -0.002398  -0.001133   0.006714   0.026752   0.000205
    25  H    0.004866  -0.089162   0.005858  -0.013077  -0.005089   0.000015
    26  H    0.001969  -0.147186   0.009401   0.009605  -0.004515  -0.000048
    27  H   -0.001248  -0.008648   0.009106   0.013366   0.002073  -0.000091
    28  H   -0.000736  -0.007209   0.002295  -0.004708  -0.003058   0.000014
    29  H    0.000194  -0.036038   0.006476   0.009541  -0.006275   0.000024
    30  H   -0.000399   0.019260  -0.001598   0.005454   0.000021   0.000017
               7          8          9         10         11         12
     1  O    0.000194   0.134526  -0.089556  -0.049853   0.001815  -0.005467
     2  C    0.021582   0.035914   0.118306  -0.067462  -0.001403   0.019480
     3  N    0.013850   0.229840  -0.103757   0.022671  -0.001310  -0.004708
     4  C   -0.060935  -1.593328   0.117598  -0.000878   0.020881   0.052707
     5  C    0.424757  -0.297130   0.002906   0.082838  -0.006433  -0.053260
     6  O   -0.101454   0.111091  -0.085302  -0.034928  -0.000448   0.000453
     7  O    8.114567   0.014825  -0.045506  -0.001860  -0.000019   0.000008
     8  C    0.014825  11.680906  -2.869973  -1.559981  -0.046490  -0.154068
     9  C   -0.045506  -2.869973   9.481095  -0.859764  -0.013061  -0.084079
    10  C   -0.001860  -1.559981  -0.859764   8.259683   0.302681  -0.241914
    11  N   -0.000019  -0.046490  -0.013061   0.302681   6.891115   0.256065
    12  C    0.000008  -0.154068  -0.084079  -0.241914   0.256065   5.385667
    13  N    0.000593  -0.125187   0.157199  -0.051143   0.045800   0.309924
    14  C   -0.011408   0.151292  -0.021171  -0.023382  -0.000049   0.002948
    15  C    0.000270  -0.023790   0.031219   0.004978  -0.000069   0.000005
    16  N    0.005941   0.033780   0.004800   0.000827   0.000002   0.000126
    17  H    0.007606   0.024173  -0.056319  -0.008123  -0.000170  -0.000577
    18  H   -0.003829  -0.032482  -0.011863   0.007764   0.001543  -0.016223
    19  H    0.021972   0.012806  -0.013296   0.001093  -0.000094  -0.000967
    20  H    0.001172   0.356738   0.015833  -0.065982   0.001271   0.006919
    21  H   -0.002160   0.458091  -0.094458   0.022875  -0.000568  -0.004098
    22  H    0.000078  -0.090063  -0.105398   0.538627  -0.090961   0.038142
    23  H   -0.000004   0.006321   0.035289   0.008266  -0.080307   0.447606
    24  H   -0.000093  -0.087478  -0.054262   0.038310   0.013908  -0.064361
    25  H   -0.000112   0.005244  -0.000025  -0.000798  -0.000012   0.000249
    26  H    0.000972  -0.002227  -0.003147  -0.000462   0.000044   0.000039
    27  H    0.000470  -0.009153  -0.001400  -0.000395  -0.000002  -0.000083
    28  H   -0.000179   0.000918   0.001808   0.000376  -0.000003   0.000061
    29  H   -0.000702  -0.000159  -0.000374  -0.000095  -0.000001   0.000004
    30  H   -0.000056  -0.003366   0.001296   0.000189   0.000001  -0.000012
              13         14         15         16         17         18
     1  O    0.033039   0.058907  -0.006172  -0.002805   0.014763   0.002515
     2  C    0.025694  -0.839888  -0.062008   0.018191  -0.090958   0.002353
     3  N    0.002164   0.003837  -0.027106   0.029290   0.380210  -0.041198
     4  C   -0.048344  -0.265609  -0.073968  -0.062297   0.027695   0.374798
     5  C   -0.042823  -0.182435   0.000328  -0.011877  -0.011983  -0.020359
     6  O    0.003099   0.000109   0.000526   0.000029  -0.001507  -0.016949
     7  O    0.000593  -0.011408   0.000270   0.005941   0.007606  -0.003829
     8  C   -0.125187   0.151292  -0.023790   0.033780   0.024173  -0.032482
     9  C    0.157199  -0.021171   0.031219   0.004800  -0.056319  -0.011863
    10  C   -0.051143  -0.023382   0.004978   0.000827  -0.008123   0.007764
    11  N    0.045800  -0.000049  -0.000069   0.000002  -0.000170   0.001543
    12  C    0.309924   0.002948   0.000005   0.000126  -0.000577  -0.016223
    13  N    6.453420   0.009924  -0.003608   0.000053   0.001860   0.007442
    14  C    0.009924   5.982608   0.253864   0.025118   0.033205  -0.013066
    15  C   -0.003608   0.253864   5.299517   0.102988  -0.044021  -0.003434
    16  N    0.000053   0.025118   0.102988   6.525558  -0.079791  -0.002627
    17  H    0.001860   0.033205  -0.044021  -0.079791   0.520488   0.007822
    18  H    0.007442  -0.013066  -0.003434  -0.002627   0.007822   0.652404
    19  H   -0.000076  -0.000786  -0.000030  -0.000053   0.002186   0.003973
    20  H    0.006314   0.000490  -0.001048   0.000994  -0.001506  -0.002653
    21  H    0.009377   0.000690   0.002402  -0.002104  -0.003615   0.001678
    22  H    0.026998   0.000144   0.000058   0.000019  -0.000148  -0.000410
    23  H   -0.078017   0.000185   0.000036  -0.000001  -0.000014   0.000110
    24  H    0.416525   0.001869   0.001434  -0.000518  -0.000646  -0.001009
    25  H    0.001070   0.498953  -0.013078   0.004167  -0.003902   0.000240
    26  H    0.000973   0.446186  -0.020728  -0.022654   0.003192   0.000689
    27  H   -0.000159  -0.049865   0.411032  -0.056938   0.008170   0.000538
    28  H   -0.000165  -0.033130   0.415046  -0.040661  -0.008805  -0.000345
    29  H    0.000029   0.023765  -0.033027   0.343567   0.007056   0.000498
    30  H   -0.000061  -0.008141  -0.050770   0.368688   0.010568   0.000113
              19         20         21         22         23         24
     1  O   -0.000195   0.002657  -0.011822  -0.000370  -0.000082  -0.023989
     2  C   -0.001048   0.006410  -0.005376   0.000903   0.002135  -0.002398
     3  N    0.005574  -0.003723   0.034912   0.001720  -0.000109  -0.001133
     4  C   -0.195506   0.102370  -0.226084  -0.020757  -0.001626   0.006714
     5  C    0.182461  -0.115993   0.064770   0.005721  -0.001083   0.026752
     6  O    0.190678   0.014203   0.001580  -0.002371   0.000003   0.000205
     7  O    0.021972   0.001172  -0.002160   0.000078  -0.000004  -0.000093
     8  C    0.012806   0.356738   0.458091  -0.090063   0.006321  -0.087478
     9  C   -0.013296   0.015833  -0.094458  -0.105398   0.035289  -0.054262
    10  C    0.001093  -0.065982   0.022875   0.538627   0.008266   0.038310
    11  N   -0.000094   0.001271  -0.000568  -0.090961  -0.080307   0.013908
    12  C   -0.000967   0.006919  -0.004098   0.038142   0.447606  -0.064361
    13  N   -0.000076   0.006314   0.009377   0.026998  -0.078017   0.416525
    14  C   -0.000786   0.000490   0.000690   0.000144   0.000185   0.001869
    15  C   -0.000030  -0.001048   0.002402   0.000058   0.000036   0.001434
    16  N   -0.000053   0.000994  -0.002104   0.000019  -0.000001  -0.000518
    17  H    0.002186  -0.001506  -0.003615  -0.000148  -0.000014  -0.000646
    18  H    0.003973  -0.002653   0.001678  -0.000410   0.000110  -0.001009
    19  H    0.560681  -0.010706   0.001373   0.000440  -0.000008   0.000196
    20  H   -0.010706   0.707295  -0.076977  -0.001529   0.000139  -0.003032
    21  H    0.001373  -0.076977   0.771389   0.002589  -0.000630   0.006502
    22  H    0.000440  -0.001529   0.002589   0.633781   0.000593   0.001553
    23  H   -0.000008   0.000139  -0.000630   0.000593   0.573838  -0.009672
    24  H    0.000196  -0.003032   0.006502   0.001553  -0.009672   0.434607
    25  H   -0.000009   0.000095  -0.000446   0.000007   0.000071  -0.000156
    26  H    0.000039   0.000181   0.000016  -0.000022  -0.000017  -0.000504
    27  H    0.000020   0.000031  -0.001064  -0.000027   0.000005  -0.000030
    28  H   -0.000007  -0.000025   0.000070   0.000005   0.000003  -0.000176
    29  H   -0.000041   0.000012  -0.000182   0.000001   0.000001  -0.000113
    30  H    0.000002  -0.000150   0.000016   0.000002   0.000000  -0.000003
              25         26         27         28         29         30
     1  O    0.004866   0.001969  -0.001248  -0.000736   0.000194  -0.000399
     2  C   -0.089162  -0.147186  -0.008648  -0.007209  -0.036038   0.019260
     3  N    0.005858   0.009401   0.009106   0.002295   0.006476  -0.001598
     4  C   -0.013077   0.009605   0.013366  -0.004708   0.009541   0.005454
     5  C   -0.005089  -0.004515   0.002073  -0.003058  -0.006275   0.000021
     6  O    0.000015  -0.000048  -0.000091   0.000014   0.000024   0.000017
     7  O   -0.000112   0.000972   0.000470  -0.000179  -0.000702  -0.000056
     8  C    0.005244  -0.002227  -0.009153   0.000918  -0.000159  -0.003366
     9  C   -0.000025  -0.003147  -0.001400   0.001808  -0.000374   0.001296
    10  C   -0.000798  -0.000462  -0.000395   0.000376  -0.000095   0.000189
    11  N   -0.000012   0.000044  -0.000002  -0.000003  -0.000001   0.000001
    12  C    0.000249   0.000039  -0.000083   0.000061   0.000004  -0.000012
    13  N    0.001070   0.000973  -0.000159  -0.000165   0.000029  -0.000061
    14  C    0.498953   0.446186  -0.049865  -0.033130   0.023765  -0.008141
    15  C   -0.013078  -0.020728   0.411032   0.415046  -0.033027  -0.050770
    16  N    0.004167  -0.022654  -0.056938  -0.040661   0.343567   0.368688
    17  H   -0.003902   0.003192   0.008170  -0.008805   0.007056   0.010568
    18  H    0.000240   0.000689   0.000538  -0.000345   0.000498   0.000113
    19  H   -0.000009   0.000039   0.000020  -0.000007  -0.000041   0.000002
    20  H    0.000095   0.000181   0.000031  -0.000025   0.000012  -0.000150
    21  H   -0.000446   0.000016  -0.001064   0.000070  -0.000182   0.000016
    22  H    0.000007  -0.000022  -0.000027   0.000005   0.000001   0.000002
    23  H    0.000071  -0.000017   0.000005   0.000003   0.000001   0.000000
    24  H   -0.000156  -0.000504  -0.000030  -0.000176  -0.000113  -0.000003
    25  H    0.607323  -0.035603  -0.001835  -0.004139   0.001293  -0.001886
    26  H   -0.035603   0.705497   0.010488  -0.010245   0.001445   0.001209
    27  H   -0.001835   0.010488   0.668543  -0.052979   0.012280  -0.005725
    28  H   -0.004139  -0.010245  -0.052979   0.698391  -0.011358   0.000292
    29  H    0.001293   0.001445   0.012280  -0.011358   0.619790  -0.039042
    30  H   -0.001886   0.001209  -0.005725   0.000292  -0.039042   0.590587
 Mulliken charges:
               1
     1  O   -0.451620
     2  C    0.063662
     3  N    0.057500
     4  C   -0.037796
     5  C    0.225218
     6  O   -0.178853
     7  O   -0.400540
     8  C   -0.361588
     9  C    0.545361
    10  C   -0.324160
    11  N   -0.293729
    12  C    0.109415
    13  N   -0.161912
    14  C   -0.045165
    15  C   -0.160846
    16  N   -0.181813
    17  H    0.263092
    18  H    0.101966
    19  H    0.239329
    20  H    0.060201
    21  H    0.051253
    22  H    0.060674
    23  H    0.096970
    24  H    0.301000
    25  H    0.039877
    26  H    0.055411
    27  H    0.053520
    28  H    0.058647
    29  H    0.101433
    30  H    0.113492
 Sum of Mulliken charges =   0.00000
 Mulliken charges with hydrogens summed into heavy atoms:
               1
     1  O   -0.451620
     2  C    0.063662
     3  N    0.320592
     4  C    0.064170
     5  C    0.225218
     6  O    0.060476
     7  O   -0.400540
     8  C   -0.250135
     9  C    0.545361
    10  C   -0.263487
    11  N   -0.293729
    12  C    0.206385
    13  N    0.139088
    14  C    0.050124
    15  C   -0.048679
    16  N    0.033112
 Electronic spatial extent (au):  <R**2>=           4372.9722
 Charge=              0.0000 electrons
 Dipole moment (field-independent basis, Debye):
    X=              6.8284    Y=             -2.2073    Z=             -2.6421  Tot=              7.6472
 Quadrupole moment (field-independent basis, Debye-Ang):
   XX=           -101.5913   YY=            -96.1399   ZZ=            -93.7516
   XY=             11.9084   XZ=              6.5931   YZ=             -1.6586
 Traceless Quadrupole moment (field-independent basis, Debye-Ang):
   XX=             -4.4304   YY=              1.0210   ZZ=              3.4094
   XY=             11.9084   XZ=              6.5931   YZ=             -1.6586
 Octapole moment (field-independent basis, Debye-Ang**2):
  XXX=            328.0687  YYY=            -22.5529  ZZZ=             -1.4107  XYY=             50.8635
  XXY=            -63.4656  XXZ=            -54.6513  XZZ=             28.8990  YZZ=              5.8126
  YYZ=             -4.6387  XYZ=             -9.2941
 Hexadecapole moment (field-independent basis, Debye-Ang**3):
 XXXX=          -4168.6671 YYYY=          -1064.8528 ZZZZ=           -947.2170 XXXY=            516.6934
 XXXZ=            341.1235 YYYX=            430.5452 YYYZ=           -325.6853 ZZZX=            142.2117
 ZZZY=           -326.3297 XXYY=           -857.7633 XXZZ=           -711.2456 YYZZ=           -319.8082
 XXYZ=           -132.3062 YYXZ=            124.5832 ZZXY=            122.7781
 N-N= 1.129631459643D+03 E-N=-4.120203241915D+03  KE= 7.929630931438D+02
 Calling FoFJK, ICntrl=      2127 FMM=F ISym2X=0 I1Cent= 0 IOpClX= 0 NMat=1 NMatS=1 NMatT=0.
 -------------------------------------------------------------------
 Center     Atomic                   Forces (Hartrees/Bohr)
 Number     Number              X              Y              Z
 -------------------------------------------------------------------
      1        8           0.004240914   -0.003401880   -0.007718568
      2        6          -0.000985298   -0.000196917    0.003189768
      3        7           0.000306649    0.001501270    0.003221119
      4        6           0.000351235   -0.000999094   -0.000636144
      5        6           0.005986187   -0.002573050   -0.004306331
      6        8           0.004411769   -0.002767460   -0.003595358
      7        8          -0.009973297    0.004810214    0.007103142
      8        6          -0.000936436    0.000336203   -0.000851619
      9        6          -0.002252356    0.001803534    0.001708883
     10        6           0.001250938   -0.000857734   -0.001501702
     11        7           0.008066238   -0.001709661    0.000706692
     12        6          -0.000945863    0.000275638    0.000009083
     13        7          -0.003213912    0.000131970   -0.001811966
     14        6          -0.000080016    0.001029546    0.000440854
     15        6          -0.000519216    0.002580559    0.001335101
     16        7           0.006266932   -0.000461959   -0.001354459
     17        1          -0.002793890    0.001394357    0.002950916
     18        1           0.001110699    0.000516642   -0.002727513
     19        1          -0.001380236    0.002135903    0.002508880
     20        1           0.001521967    0.000650273    0.002468314
     21        1          -0.002189214   -0.001806130    0.000942251
     22        1           0.001865235    0.000267426    0.002453653
     23        1           0.000030423   -0.000837130   -0.002839988
     24        1          -0.002853645    0.000749583   -0.000250163
     25        1          -0.000298590   -0.002014437   -0.001730947
     26        1          -0.001436591    0.002125956   -0.001192108
     27        1           0.001095338   -0.002100840    0.001287995
     28        1          -0.003162182   -0.001291875   -0.000818781
     29        1          -0.002034875    0.001882630   -0.001544007
     30        1          -0.001448906   -0.001173536    0.002553002
 -------------------------------------------------------------------
 Cartesian Forces:  Max     0.009973297 RMS     0.002749620

 GradGradGradGradGradGradGradGradGradGradGradGradGradGradGradGradGradGrad
 Berny optimization.
 FormGI is forming the generalized inverse of G from B-inverse, IUseBI=4.
 Internal  Forces:  Max     0.013146836 RMS     0.002111138
 Search for a local minimum.
 Step number   1 out of a maximum of  160
 All quantities printed in internal units (Hartrees-Bohrs-Radians)
 Mixed Optimization -- RFO/linear search
 Second derivative matrix not updated -- first step.
 ITU=  0
     Eigenvalues ---    0.00078   0.00165   0.00249   0.00347   0.00428
     Eigenvalues ---    0.00460   0.00617   0.00900   0.01275   0.01860
     Eigenvalues ---    0.02097   0.02133   0.02766   0.03113   0.03302
     Eigenvalues ---    0.03647   0.04087   0.04267   0.04372   0.04393
     Eigenvalues ---    0.04607   0.05005   0.05259   0.05455   0.05724
     Eigenvalues ---    0.05902   0.06177   0.06485   0.08000   0.08034
     Eigenvalues ---    0.08397   0.10864   0.11221   0.11317   0.11792
     Eigenvalues ---    0.12469   0.13001   0.13685   0.14835   0.14900
     Eigenvalues ---    0.16564   0.16935   0.17865   0.18364   0.19855
     Eigenvalues ---    0.21468   0.21940   0.22474   0.22939   0.24078
     Eigenvalues ---    0.24439   0.24800   0.25706   0.26884   0.28779
     Eigenvalues ---    0.31164   0.31493   0.32811   0.33051   0.33143
     Eigenvalues ---    0.33366   0.34253   0.34353   0.34574   0.35080
     Eigenvalues ---    0.35273   0.36824   0.37151   0.37350   0.39395
     Eigenvalues ---    0.40854   0.42554   0.42628   0.44701   0.45255
     Eigenvalues ---    0.45465   0.47280   0.48837   0.51334   0.53976
     Eigenvalues ---    0.57227   0.76886   0.80540   0.88488
 RFO step:  Lambda=-1.49872071D-03 EMin= 7.77203541D-04
 Linear search not attempted -- first point.
 Iteration  1 RMS(Cart)=  0.03321778 RMS(Int)=  0.00030431
 Iteration  2 RMS(Cart)=  0.00062253 RMS(Int)=  0.00002456
 Iteration  3 RMS(Cart)=  0.00000019 RMS(Int)=  0.00002456
 Variable       Old X    -DE/DX   Delta X   Delta X   Delta X     New X
                                 (Linear)    (Quad)   (Total)
    R1        2.33902  -0.00934   0.00000  -0.01133  -0.01133   2.32769
    R2        2.55413  -0.00530   0.00000  -0.00693  -0.00693   2.54720
    R3        2.89043  -0.00163   0.00000  -0.01034  -0.01034   2.88009
    R4        2.74044  -0.00077   0.00000  -0.00373  -0.00373   2.73671
    R5        1.94038  -0.00429   0.00000  -0.01334  -0.01334   1.92704
    R6        2.87229  -0.00223   0.00000  -0.00771  -0.00771   2.86458
    R7        2.98478  -0.00130   0.00000  -0.00533  -0.00533   2.97945
    R8        2.06864  -0.00297   0.00000  -0.00856  -0.00856   2.06007
    R9        2.54854  -0.00261   0.00000  -0.00495  -0.00495   2.54359
   R10        2.29041  -0.01315   0.00000  -0.01449  -0.01449   2.27592
   R11        1.83716  -0.00324   0.00000  -0.00744  -0.00744   1.82971
   R12        2.82246  -0.00238   0.00000  -0.00819  -0.00819   2.81427
   R13        2.06643  -0.00297   0.00000  -0.00829  -0.00829   2.05813
   R14        2.07254  -0.00296   0.00000  -0.00881  -0.00881   2.06372
   R15        2.60245  -0.00573   0.00000  -0.00962  -0.00962   2.59282
   R16        2.60907  -0.00274   0.00000  -0.00749  -0.00749   2.60158
   R17        2.60101  -0.00276   0.00000  -0.00528  -0.00528   2.59572
   R18        2.04495  -0.00309   0.00000  -0.00847  -0.00847   2.03648
   R19        2.49260  -0.00587   0.00000  -0.01047  -0.01047   2.48214
   R20        2.57492  -0.00450   0.00000  -0.00669  -0.00669   2.56824
   R21        2.04389  -0.00296   0.00000  -0.00787  -0.00787   2.03602
   R22        1.92998  -0.00280   0.00000  -0.00945  -0.00945   1.92053
   R23        2.90101  -0.00124   0.00000  -0.00795  -0.00795   2.89307
   R24        2.06487  -0.00267   0.00000  -0.00750  -0.00750   2.05737
   R25        2.07728  -0.00278   0.00000  -0.00778  -0.00778   2.06950
   R26        2.77831  -0.00024   0.00000  -0.00422  -0.00422   2.77409
   R27        2.07083  -0.00270   0.00000  -0.00788  -0.00788   2.06295
   R28        2.08091  -0.00347   0.00000  -0.00966  -0.00966   2.07125
   R29        1.92272  -0.00306   0.00000  -0.00804  -0.00804   1.91468
   R30        1.91989  -0.00309   0.00000  -0.00803  -0.00803   1.91186
    A1        2.15887  -0.00372   0.00000  -0.01184  -0.01185   2.14702
    A2        2.09535  -0.00058   0.00000   0.00369   0.00368   2.09903
    A3        2.02860   0.00430   0.00000   0.00835   0.00834   2.03695
    A4        2.13477   0.00115   0.00000   0.00067   0.00063   2.13540
    A5        2.05738  -0.00059   0.00000   0.00494   0.00490   2.06228
    A6        2.08858  -0.00056   0.00000  -0.00458  -0.00462   2.08397
    A7        1.88167   0.00046   0.00000   0.00514   0.00514   1.88680
    A8        1.98711   0.00019   0.00000  -0.00005  -0.00005   1.98706
    A9        1.90121  -0.00013   0.00000   0.00013   0.00013   1.90134
   A10        1.92777  -0.00055   0.00000  -0.00228  -0.00229   1.92548
   A11        1.87999  -0.00027   0.00000  -0.00267  -0.00267   1.87732
   A12        1.88330   0.00027   0.00000  -0.00046  -0.00046   1.88284
   A13        1.94126   0.00118   0.00000   0.00014   0.00014   1.94139
   A14        2.19076  -0.00008   0.00000  -0.00056  -0.00056   2.19020
   A15        2.15097  -0.00109   0.00000   0.00042   0.00042   2.15139
   A16        1.86085   0.00276   0.00000   0.01840   0.01840   1.87925
   A17        1.99669   0.00207   0.00000   0.00663   0.00662   2.00331
   A18        1.92326  -0.00075   0.00000  -0.00075  -0.00076   1.92250
   A19        1.85489  -0.00025   0.00000   0.00100   0.00101   1.85590
   A20        1.88081  -0.00067   0.00000   0.00002   0.00001   1.88081
   A21        1.94295  -0.00079   0.00000  -0.00592  -0.00592   1.93703
   A22        1.86101   0.00028   0.00000  -0.00154  -0.00154   1.85946
   A23        2.31237  -0.00165   0.00000  -0.00520  -0.00520   2.30716
   A24        2.14004   0.00171   0.00000   0.00399   0.00399   2.14403
   A25        1.83052  -0.00007   0.00000   0.00122   0.00122   1.83173
   A26        1.93791  -0.00132   0.00000  -0.00502  -0.00502   1.93289
   A27        2.22499   0.00054   0.00000   0.00211   0.00210   2.22709
   A28        2.12028   0.00077   0.00000   0.00292   0.00292   2.12320
   A29        1.82830   0.00208   0.00000   0.00691   0.00691   1.83521
   A30        1.95878  -0.00157   0.00000  -0.00603  -0.00603   1.95276
   A31        2.19130   0.00073   0.00000   0.00286   0.00286   2.19415
   A32        2.13310   0.00084   0.00000   0.00317   0.00317   2.13627
   A33        1.86924   0.00087   0.00000   0.00293   0.00292   1.87216
   A34        2.15217   0.00050   0.00000   0.00369   0.00369   2.15586
   A35        2.25986  -0.00137   0.00000  -0.00635  -0.00636   2.25350
   A36        2.03705   0.00428   0.00000   0.00935   0.00934   2.04639
   A37        1.85130  -0.00147   0.00000  -0.00104  -0.00104   1.85026
   A38        1.87895  -0.00150   0.00000  -0.00540  -0.00541   1.87354
   A39        1.91960  -0.00138   0.00000  -0.00292  -0.00293   1.91668
   A40        1.91150  -0.00076   0.00000   0.00018   0.00019   1.91169
   A41        1.85646   0.00055   0.00000  -0.00107  -0.00107   1.85538
   A42        1.94055   0.00301   0.00000   0.00712   0.00711   1.94766
   A43        1.90824  -0.00069   0.00000   0.00187   0.00185   1.91010
   A44        1.89244  -0.00091   0.00000  -0.00496  -0.00495   1.88749
   A45        1.87781  -0.00032   0.00000   0.00117   0.00115   1.87896
   A46        1.98055  -0.00168   0.00000  -0.00567  -0.00566   1.97490
   A47        1.86171   0.00049   0.00000   0.00051   0.00051   1.86222
   A48        1.93068   0.00121   0.00000   0.01182   0.01172   1.94239
   A49        1.93711   0.00092   0.00000   0.01024   0.01013   1.94724
   A50        1.86665  -0.00061   0.00000   0.00604   0.00584   1.87249
    D1       -0.04026  -0.00003   0.00000   0.00775   0.00780  -0.03245
    D2       -3.10624  -0.00007   0.00000  -0.00782  -0.00782  -3.11406
    D3        3.07235   0.00029   0.00000   0.01583   0.01583   3.08818
    D4        0.00637   0.00025   0.00000   0.00026   0.00021   0.00657
    D5       -2.54245   0.00051   0.00000   0.01081   0.01082  -2.53163
    D6       -0.39745   0.00042   0.00000   0.01243   0.01245  -0.38500
    D7        1.58427  -0.00033   0.00000   0.00828   0.00831   1.59257
    D8        0.62700   0.00026   0.00000   0.00333   0.00330   0.63031
    D9        2.77201   0.00017   0.00000   0.00495   0.00494   2.77694
   D10       -1.52946  -0.00057   0.00000   0.00080   0.00079  -1.52867
   D11       -2.74479  -0.00006   0.00000  -0.03439  -0.03437  -2.77916
   D12        1.39316   0.00018   0.00000  -0.03520  -0.03519   1.35797
   D13       -0.70937  -0.00019   0.00000  -0.03468  -0.03466  -0.74403
   D14        0.31989  -0.00002   0.00000  -0.01814  -0.01816   0.30173
   D15       -1.82535   0.00022   0.00000  -0.01896  -0.01897  -1.84432
   D16        2.35531  -0.00016   0.00000  -0.01843  -0.01845   2.33686
   D17        2.95796  -0.00029   0.00000  -0.02852  -0.02852   2.92944
   D18       -0.20400  -0.00018   0.00000  -0.02891  -0.02892  -0.23292
   D19       -1.14409  -0.00009   0.00000  -0.02658  -0.02658  -1.17067
   D20        1.97714   0.00002   0.00000  -0.02698  -0.02698   1.95016
   D21        0.90876  -0.00023   0.00000  -0.02997  -0.02996   0.87880
   D22       -2.25320  -0.00012   0.00000  -0.03037  -0.03036  -2.28356
   D23       -2.01106  -0.00014   0.00000  -0.02506  -0.02506  -2.03612
   D24        2.15002  -0.00017   0.00000  -0.02922  -0.02922   2.12080
   D25        0.14022   0.00000   0.00000  -0.02758  -0.02758   0.11264
   D26        2.15231  -0.00047   0.00000  -0.03001  -0.03001   2.12230
   D27        0.03020  -0.00050   0.00000  -0.03417  -0.03417  -0.00397
   D28       -1.97960  -0.00033   0.00000  -0.03253  -0.03253  -2.01212
   D29        0.10149   0.00000   0.00000  -0.02525  -0.02525   0.07624
   D30       -2.02061  -0.00003   0.00000  -0.02941  -0.02941  -2.05002
   D31        2.25278   0.00015   0.00000  -0.02777  -0.02777   2.22501
   D32        3.10929   0.00011   0.00000  -0.00301  -0.00301   3.10628
   D33       -0.01248  -0.00001   0.00000  -0.00261  -0.00261  -0.01509
   D34       -2.23427   0.00031   0.00000   0.03294   0.03293  -2.20134
   D35        0.93609   0.00033   0.00000   0.03244   0.03243   0.96852
   D36       -0.08902   0.00024   0.00000   0.03646   0.03645  -0.05257
   D37        3.08133   0.00026   0.00000   0.03596   0.03596   3.11729
   D38        1.94586  -0.00025   0.00000   0.03133   0.03134   1.97719
   D39       -1.16697  -0.00023   0.00000   0.03083   0.03084  -1.13613
   D40       -3.11691   0.00000   0.00000   0.00044   0.00044  -3.11647
   D41        0.02304   0.00001   0.00000   0.00028   0.00028   0.02333
   D42       -0.00038   0.00001   0.00000   0.00093   0.00093   0.00055
   D43        3.13957   0.00002   0.00000   0.00077   0.00077   3.14034
   D44        3.12394  -0.00007   0.00000  -0.00089  -0.00089   3.12305
   D45       -0.07847  -0.00007   0.00000   0.00305   0.00307  -0.07540
   D46        0.00429  -0.00002   0.00000  -0.00116  -0.00116   0.00313
   D47        3.08507  -0.00002   0.00000   0.00278   0.00280   3.08787
   D48       -0.00376   0.00000   0.00000  -0.00033  -0.00033  -0.00409
   D49        3.13935  -0.00001   0.00000  -0.00018  -0.00018   3.13917
   D50        0.00666  -0.00002   0.00000  -0.00047  -0.00046   0.00619
   D51       -3.13228  -0.00002   0.00000  -0.00075  -0.00075  -3.13302
   D52       -0.00711   0.00003   0.00000   0.00107   0.00107  -0.00604
   D53       -3.08285  -0.00007   0.00000  -0.00370  -0.00369  -3.08654
   D54        3.13193   0.00004   0.00000   0.00135   0.00134   3.13327
   D55        0.05618  -0.00006   0.00000  -0.00342  -0.00341   0.05277
   D56       -1.13815  -0.00105   0.00000  -0.01835  -0.01836  -1.15652
   D57        0.93270  -0.00004   0.00000  -0.01136  -0.01136   0.92135
   D58        2.95611  -0.00033   0.00000  -0.01248  -0.01249   2.94363
   D59        3.03579  -0.00108   0.00000  -0.02139  -0.02140   3.01439
   D60       -1.17654  -0.00007   0.00000  -0.01440  -0.01439  -1.19093
   D61        0.84687  -0.00036   0.00000  -0.01552  -0.01552   0.83135
   D62        1.00150  -0.00051   0.00000  -0.01852  -0.01852   0.98298
   D63        3.07236   0.00050   0.00000  -0.01153  -0.01152   3.06084
   D64       -1.18741   0.00020   0.00000  -0.01265  -0.01265  -1.20006
   D65       -1.23927   0.00060   0.00000   0.01095   0.01100  -1.22826
   D66        2.97476   0.00000   0.00000  -0.01068  -0.01072   2.96403
   D67        2.95486  -0.00012   0.00000   0.00375   0.00379   2.95865
   D68        0.88570  -0.00073   0.00000  -0.01788  -0.01794   0.86776
   D69        0.89957   0.00047   0.00000   0.00567   0.00572   0.90529
   D70       -1.16959  -0.00013   0.00000  -0.01595  -0.01601  -1.18560
         Item               Value     Threshold  Converged?
 Maximum Force            0.013147     0.000450     NO 
 RMS     Force            0.002111     0.000300     NO 
 Maximum Displacement     0.110473     0.001800     NO 
 RMS     Displacement     0.033072     0.001200     NO 
 Predicted change in Energy=-7.728880D-04
 GradGradGradGradGradGradGradGradGradGradGradGradGradGradGradGradGradGrad

                          Input orientation:                          
 ---------------------------------------------------------------------
 Center     Atomic      Atomic             Coordinates (Angstroms)
 Number     Number       Type             X           Y           Z
 ---------------------------------------------------------------------
      1          8           0        0.576199    0.505810    1.754430
      2          6           0        1.287493    0.054915    0.855550
      3          7           0        0.791115   -0.576991   -0.226668
      4          6           0       -0.626661   -0.813612   -0.403375
      5          6           0       -0.795013   -1.946879   -1.395960
      6          8           0       -2.063515   -2.396766   -1.411649
      7          8           0        0.071691   -2.389381   -2.105549
      8          6           0       -1.430300    0.456149   -0.880567
      9          6           0       -2.456334    0.943768    0.082418
     10          6           0       -3.797632    1.199878   -0.051321
     11          7           0       -4.322838    1.671375    1.127077
     12          6           0       -3.313451    1.696130    1.967185
     13          7           0       -2.160575    1.270964    1.386553
     14          6           0        2.804479    0.171542    0.944836
     15          6           0        3.569040    0.388754   -0.363620
     16          7           0        3.468604   -0.778493   -1.248166
     17          1           0        1.449259   -0.942785   -0.914363
     18          1           0       -1.051600   -1.141538    0.545470
     19          1           0       -2.120121   -3.093232   -2.081892
     20          1           0       -1.932378    0.249454   -1.824692
     21          1           0       -0.687845    1.230161   -1.086221
     22          1           0       -4.407215    1.071040   -0.930616
     23          1           0       -3.360206    2.007576    2.997544
     24          1           0       -1.241900    1.144586    1.802400
     25          1           0        3.002629    0.994799    1.629147
     26          1           0        3.173084   -0.733967    1.438293
     27          1           0        3.145637    1.243699   -0.894220
     28          1           0        4.603203    0.653220   -0.114817
     29          1           0        3.996199   -1.562890   -0.883543
     30          1           0        3.828887   -0.577242   -2.171884
 ---------------------------------------------------------------------
                    Distance matrix (angstroms):
                    1          2          3          4          5
     1  O    0.000000
     2  C    1.231760   0.000000
     3  N    2.267906   1.347921   0.000000
     4  C    2.800691   2.450145   1.448207   0.000000
     5  C    4.221477   3.662418   2.399925   1.515870   0.000000
     6  O    5.041538   4.730770   3.586736   2.363799   1.346010
     7  O    4.851402   4.027513   2.707863   2.422425   1.204367
     8  C    3.312358   3.249844   2.535674   1.576655   2.538456
     9  C    3.490514   3.924797   3.599190   2.583038   3.647113
    10  C    4.782558   5.290732   4.923881   3.772684   4.552565
    11  N    5.074710   5.844869   5.748069   4.709477   5.648277
    12  C    4.073267   5.009791   5.179530   4.374608   5.561006
    13  N    2.865437   3.694579   3.837954   3.146775   4.467847
    14  C    2.394245   1.524080   2.446703   3.815877   4.787836
    15  C    3.668370   2.608310   2.944195   4.364765   5.056270
    16  N    4.362456   3.142838   2.872805   4.181638   4.423279
    17  H    3.159608   2.038177   1.019746   2.141784   2.505373
    18  H    2.612484   2.645563   2.076177   1.090144   2.117442
    19  H    5.911059   5.491013   4.271840   3.200704   1.881632
    20  H    4.378218   4.193937   3.264062   2.203441   2.510236
    21  H    3.192458   3.008926   2.488363   2.155698   3.193901
    22  H    5.688882   6.054139   5.498562   4.257052   4.729945
    23  H    4.392712   5.477420   5.857388   5.195924   6.443664
    24  H    1.927646   2.912342   3.348745   3.013055   4.470612
    25  H    2.478380   2.103219   3.287152   4.535773   5.676868
    26  H    2.894961   2.125412   2.910414   4.223285   5.024932
    27  H    3.763221   2.815599   3.050296   4.324776   5.095120
    28  H    4.442136   3.506211   4.007237   5.439332   6.127200
    29  H    4.789031   3.602613   3.417023   4.707739   4.833811
    30  H    5.212382   4.002957   3.607204   4.799521   4.884507
                    6          7          8          9         10
     6  O    0.000000
     7  O    2.245142   0.000000
     8  C    2.970208   3.442905   0.000000
     9  C    3.680451   4.721017   1.489248   0.000000
    10  C    4.218235   5.663417   2.616303   1.372063   0.000000
    11  N    5.300891   6.800846   3.724807   2.259328   1.373598
    12  C    5.452582   6.688628   3.632286   2.202962   2.134259
    13  N    4.614282   5.529550   2.517352   1.376698   2.180020
    14  C    5.987203   4.830249   4.620222   5.386673   6.755565
    15  C    6.370492   4.794142   5.026448   6.067299   7.417770
    16  N    5.766271   3.856045   5.065444   6.312014   7.625259
    17  H    3.834180   2.325781   3.201564   4.450428   5.732862
    18  H    2.535722   3.137961   2.174764   2.556599   3.657742
    19  H    0.968242   2.302175   3.810136   4.592891   5.036670
    20  H    2.681471   3.325451   1.089117   2.096109   2.743597
    21  H    3.892683   3.836276   1.092075   2.138993   3.277607
    22  H    4.213075   5.780621   3.040168   2.201902   1.077660
    23  H    6.365581   7.559941   4.601219   3.232125   3.184226
    24  H    4.852457   5.430148   2.776285   2.115069   3.157706
    25  H    6.812854   5.830183   5.122467   5.674086   7.007822
    26  H    6.189430   4.991778   5.290050   6.028560   7.385768
    27  H    6.376205   4.910777   4.643233   5.694370   6.994381
    28  H    7.445087   5.809908   6.085094   7.068266   8.418841
    29  H    6.139575   4.192630   5.789941   6.989392   8.310793
    30  H    6.213616   4.171902   5.513115   6.848310   8.112874
                   11         12         13         14         15
    11  N    0.000000
    12  C    1.313491   0.000000
    13  N    2.214281   1.359052   0.000000
    14  C    7.285696   6.387380   5.104469   0.000000
    15  C    8.133206   7.383127   6.055567   1.530945   0.000000
    16  N    8.505892   7.903069   6.544438   2.480501   1.467983
    17  H    6.657208   6.160405   4.819315   2.556358   2.563159
    18  H    4.353360   3.897384   2.785213   4.093045   4.951622
    19  H    6.152310   6.384124   5.574760   6.638638   6.887905
    20  H    4.055749   4.287023   3.377522   5.487638   5.693833
    21  H    4.278613   4.053914   2.878404   4.176385   4.398998
    22  H    2.145139   3.159795   3.233672   7.505661   8.025437
    23  H    2.130338   1.077416   2.139393   6.751886   7.869718
    24  H    3.197773   2.150042   1.016300   4.249166   5.329922
    25  H    7.373758   6.363882   5.176272   1.088713   2.158526
    26  H    7.878539   6.946958   5.698275   1.095133   2.159670
    27  H    7.748978   7.078992   5.775686   2.155930   1.091667
[...]
 .00025239,-0.00016101,-0.00004985,0.00012359,0.00025921,0.00001427,-0.
 00012591,0.00000258,-0.00099089,-0.00037250,-0.00003396,0.00001072,-0.
 00004043,0.00003223,-0.00025703,0.00007460,-0.00023369,0.00005431,0.00
 026443,-0.00026718,0.00165044,-0.00038792,-0.00044291,-0.00122246,0.00
 017394,-0.03503619,0.02884367,-0.00325295,0.00162663,-0.00397045,0.001
 65614,-0.00043803,-0.00012201,0.00003782,-0.00010182,-0.00053021,0.000
 57296,-0.00046942,-0.00009768,-0.00012895,-0.00045577,-0.00036335,0.00
 014118,0.00019686,0.00006755,-0.00009319,0.00022509,0.00023808,0.00036
 698,0.00039506,0.00072987,-0.02721879,0.00706801,-0.00279436,-0.001607
 42,-0.00246931,-0.00690166,0.00725901,-0.00307385,0.00013632,0.0103048
 7,0.00430926,0.01654341,-0.13532297,-0.00207402,-0.13592763,-0.0000446
 5,-0.00035928,0.00027991,-0.00005458,-0.00002398,0.00001317,-0.0000762
 8,-0.00000473,-0.00001952,0.00003142,-0.00002342,-0.00009601,0.0000313
 8,-0.00036359,0.00004290,-0.00002104,-0.00003839,-0.00000024,-0.000029
 89,0.00027110,0.00029330,0.00036997,0.00007312,-0.00054241,-0.00117801
 ,-0.00017526,0.00051601,-0.00022521,0.00026099,-0.00060433,0.14846377,
 -0.00437138,0.13308706,0.00315482,0.00194139,0.00031524,-0.00904081,-0
 .02924283,-0.02334091,-0.00676596,0.00056228,0.00084504,0.00023049,-0.
 00009639,-0.00149610,-0.00036194,0.00040619,0.00029592,-0.00012568,-0.
 00024915,-0.00016676,0.00007096,-0.00013065,-0.00016014,-0.00014745,-0
 .00018326,-0.00006301,-0.00002985,0.00001061,-0.00016241,0.00005840,0.
 00000864,0.00001608,0.00003559,0.00001481,0.00009078,-0.00011993,0.000
 03739,0.00006206,0.00014616,-0.00003203,-0.00001139,-0.05517779,-0.037
 47927,-0.02719813,0.00258306,0.01394187,0.00830129,-0.00105972,-0.0011
 7736,0.00422825,-0.00040370,0.00006996,0.00075529,0.00003934,-0.000033
 48,0.00000833,-0.00002798,-0.00002642,0.00000850,-0.00005111,0.0000737
 1,-0.00000898,-0.00001276,0.00000695,0.00000414,0.00000882,-0.00000315
 ,0.00000380,-0.00000845,-0.00000004,0.00000609,-0.00022175,0.00003156,
 -0.00003789,0.06475064,0.00052095,0.00132269,0.00170837,0.00203988,-0.
 00300493,-0.00236851,-0.00076003,0.00058508,0.00012515,0.00045891,0.00
 039266,-0.00011325,0.00012218,0.00007546,0.00005627,-0.00008231,-0.000
 05229,-0.00002463,-0.00007177,-0.00001523,-0.00003094,-0.00011142,-0.0
 0004273,-0.00005143,-0.00000715,0.00000435,-0.00005222,0.00002041,0.00
 000404,0.00001286,-0.00001660,0.00000988,0.00003778,-0.00002157,0.0000
 0461,0.00000905,0.00000371,-0.00001530,-0.00001063,-0.04085680,-0.2057
 0830,-0.12593564,0.00138369,0.00470260,0.00415722,-0.00040020,0.000870
 51,0.00087394,0.00007275,-0.00010828,0.00037165,-0.00003407,-0.0000264
 1,0.00001208,0.00001264,0.00001117,0.00000896,-0.00003436,0.00002551,-
 0.00000688,-0.00001303,-0.00002836,0.00001559,0.00000386,-0.00000030,0
 .00000057,-0.00000354,0.00000377,0.00000189,-0.00001905,0.00002353,-0.
 00002467,0.04237935,0.22051813,0.00231761,0.00139158,0.00040466,-0.002
 58602,-0.00388278,-0.00477240,-0.00097265,-0.00007059,0.00128122,0.000
 11542,-0.00031170,-0.00003280,0.00000362,-0.00004136,-0.00006591,-0.00
 006393,-0.00002753,-0.00001324,-0.00007605,0.00002338,0.00006623,0.000
 02903,-0.00003441,0.00000917,-0.00000948,-0.00000542,-0.00004002,0.000
 00999,-0.00000190,-0.00000820,0.00003498,0.00000037,0.00001174,-0.0000
 4360,0.00001509,0.00003130,0.00006684,-0.00000486,0.00000745,-0.029699
 94,-0.12557437,-0.14671912,-0.00640458,-0.02171329,-0.01437381,0.00254
 465,0.00199767,-0.00542239,0.00067706,0.00029451,-0.00022664,-0.000042
 78,0.00001067,0.00003875,-0.00000053,-0.00000558,-0.00000190,0.0000086
 0,0.00000464,0.00000691,0.00000132,0.00000877,-0.00002320,0.00000187,-
 0.00000247,0.00000154,0.00000166,-0.00000323,0.00000040,-0.00009164,0.
 00003469,0.00002423,0.03069110,0.13723759,0.15919764,-0.00201833,-0.00
 390394,0.00269319,-0.01143399,0.03096261,-0.01566060,-0.00086995,-0.00
 189225,0.00051473,-0.00012297,-0.00131886,0.00041758,-0.00025845,0.000
 30192,0.00038349,-0.00009642,-0.00019142,-0.00016004,0.00008017,-0.000
 18802,-0.00013896,0.00025461,-0.00013013,0.00003092,0.00003368,0.00001
 777,0.00005052,0.00000458,0.00001035,0.00000829,-0.00007677,0.00000833
 ,0.00001115,0.00005678,-0.00000851,-0.00002032,-0.00010699,0.00003073,
 -0.00009898,-0.07557620,0.07336273,-0.04080281,0.00613784,-0.01510214,
 0.00923551,0.00054887,-0.00052112,-0.00152051,-0.00049288,0.00057876,-
 0.00038772,-0.00023144,-0.00004703,-0.00018999,-0.00002927,0.00000729,
 -0.00002157,-0.00002184,-0.00000260,-0.00000694,0.00004928,0.00000260,
 0.00003114,-0.00000170,-0.00000134,-0.00000176,-0.00000182,0.00000288,
 0.00000188,0.00019799,-0.00016165,0.00006428,0.00186497,-0.00510053,0.
 00325849,0.08232038,0.00086457,0.00068946,0.00007362,-0.00048151,0.002
 62463,-0.00242974,-0.00040945,-0.00025000,-0.00059927,0.00023952,-0.00
 024408,0.00022661,-0.00007220,-0.00000658,0.00005302,0.00001508,0.0000
 0022,-0.00002760,0.00002587,-0.00000398,-0.00001779,-0.00003520,-0.000
 03266,0.00000982,-0.00001822,-0.00000263,-0.00004895,0.00001093,0.0000
 0246,0.00000378,0.00002769,0.00000102,0.00000950,-0.00003527,0.0000139
 4,0.00002690,0.00007506,-0.00000758,-0.00000377,0.06923275,-0.21638256
 ,0.09453117,0.00140269,-0.00435410,0.00196721,-0.00055801,0.00178150,-
 0.00095508,-0.00022401,0.00004026,0.00001080,-0.00007329,-0.00003484,-
 0.00000430,-0.00001041,-0.00000962,-0.00000388,-0.00001181,0.00000437,
 -0.00000347,0.00001705,-0.00001404,-0.00000137,0.00000070,-0.00000176,
 0.00000113,0.00000033,-0.00000442,0.00000070,-0.00010173,0.00000630,0.
 00002460,0.00835738,-0.02081753,0.01186564,-0.07670805,0.23546958,0.00
 099022,0.00047455,-0.00044718,-0.00237316,0.00278959,-0.00286772,-0.00
 073468,-0.00074525,0.00033547,-0.00006066,-0.00034459,0.00000307,-0.00
 019333,0.00007362,0.00012347,0.00003958,-0.00002614,-0.00004525,0.0000
 9981,-0.00006948,-0.00002319,0.00006396,-0.00000890,0.00000454,-0.0000
 1374,-0.00002023,-0.00003057,0.00001402,-0.00000427,0.00000202,0.00002
 178,-0.00000052,0.00001602,-0.00003710,0.00001544,0.00002239,0.0000365
 2,-0.00000352,-0.00000023,-0.03880223,0.09412341,-0.09459854,-0.008610
 69,0.02557008,-0.01748022,-0.00092269,0.00035739,0.00304734,-0.0003862
 6,0.00040987,-0.00026277,-0.00005006,-0.00001918,-0.00002896,-0.000019
 97,-0.00000364,-0.00001090,0.00000241,0.00000551,0.00000025,0.00001517
 ,-0.00000697,-0.00001199,0.00000183,0.00000105,0.00000012,0.00000049,-
 0.00000071,-0.00000012,-0.00009362,0.00001549,0.00000422,0.00712767,-0
 .01592449,0.00985463,0.04021813,-0.10559579,0.10577838,0.00039838,0.00
 014207,-0.00022054,0.00104677,-0.00103058,0.00026636,0.00014424,0.0001
 8045,-0.00011713,-0.00016861,0.00007745,-0.00012329,-0.00006429,-0.000
 11170,-0.00007653,0.00007942,0.00006585,0.00003769,0.00003724,0.000072
 96,0.00004457,-0.00006501,-0.00004177,0.00002955,-0.00000838,0.0000061
 3,-0.00000828,-0.00001505,0.00000327,-0.00000588,0.00004290,-0.0000209
 7,-0.00002427,-0.00001003,0.00000371,0.00000661,0.00005905,-0.00001141
 ,0.00002185,0.00641026,-0.01426713,0.01003699,-0.09276357,0.07909040,-
 0.05473453,0.00177095,-0.00148547,0.00270488,0.00006486,-0.00038987,0.
 00008610,0.00007102,0.00001572,0.00001897,-0.00000721,-0.00001024,-0.0
 0000412,0.00001643,0.00000490,0.00000501,-0.00001484,0.00004086,-0.000
 01505,-0.00000020,0.00000240,0.00000078,0.00000233,0.00000018,-0.00000
 281,-0.00007444,0.00003270,0.00002047,0.00033772,0.00033658,-0.0007779
 8,-0.00122403,-0.00108396,0.00345177,0.09557560,-0.00026926,-0.0001080
 2,-0.00010266,0.00075100,0.00039220,0.00066452,-0.00055742,0.00038332,
 -0.00061078,-0.00013211,-0.00004300,0.00002293,0.00004248,-0.00012566,
 -0.00009833,-0.00001456,0.00003142,0.00002762,-0.00007391,0.00011724,0
 .00002770,-0.00006293,-0.00005668,0.00004162,-0.00000370,0.00003407,0.
 00000523,-0.00001609,0.00001048,-0.00000483,0.00001052,-0.00001310,-0.
 00002856,0.00001664,-0.00000658,-0.00001359,-0.00000045,0.00001175,0.0
 0001088,0.00030600,-0.00206216,0.00344869,0.07478993,-0.19350511,0.095
 61634,0.01110292,-0.02889079,0.01107169,0.00059432,-0.00067210,0.00001
 601,0.00002663,0.00000870,-0.00000514,0.00000667,-0.00001147,0.0000050
 1,-0.00000739,-0.00000579,-0.00000169,-0.00001574,0.00005752,0.0000062
 9,-0.00000304,-0.00000158,0.00000060,0.00000160,-0.00000211,-0.0000012
 5,0.00001662,-0.00001560,0.00001874,-0.00027277,0.00021756,0.00038802,
 -0.00009490,0.00111827,0.00032691,-0.08441466,0.21936436,0.00050538,-0
 .00029028,-0.00012630,-0.00221081,-0.00014418,0.00056417,0.00048056,-0
 .00011595,0.00069001,0.00003252,0.00014656,0.00004583,0.00001880,-0.00
 000275,-0.00000325,0.00000949,0.00000622,0.00001688,0.00000521,0.00001
 193,-0.00000798,0.00004102,0.00004623,-0.00004028,-0.00000028,-0.00001
 650,-0.00000426,0.00000924,-0.00000880,0.00000315,0.00000717,0.0000001
 7,0.00001402,-0.00001452,0.00000279,0.00000971,0.00002461,-0.00002933,
 0.00000378,-0.00933104,0.02199944,-0.01618102,-0.05472991,0.10342790,-
 0.11686693,0.00887362,-0.02166367,0.01018857,0.00013095,0.00012574,-0.
 00008792,-0.00001940,-0.00000194,0.00000844,0.00000261,0.00000452,-0.0
 0000254,-0.00000832,-0.00000981,0.00000256,0.00001095,-0.00001069,0.00
 002783,0.00000173,0.00000272,-0.00000029,0.00000003,0.00000513,-0.0000
 0128,-0.00006176,0.00006137,-0.00002601,-0.00036927,-0.00041032,0.0004
 1686,0.00339066,-0.00000872,-0.00437845,0.05579525,-0.10396564,0.12914
 404,-0.00196018,0.00063431,0.00041617,0.00254595,-0.00054929,0.0032651
 9,0.00007567,-0.00015820,-0.00011990,0.00034471,0.00018653,-0.00004913
 ,0.00022785,0.00020132,0.00008358,-0.00019869,-0.00013213,-0.00005761,
 -0.00013627,-0.00011218,-0.00005920,-0.00001808,-0.00007833,-0.0000342
 6,0.00003722,0.00003185,0.00003907,0.00000286,0.00000748,0.00000770,-0
 .00011462,0.00002868,0.00002176,0.00007121,-0.00002576,-0.00004642,-0.
 00018599,0.00005454,-0.00002333,-0.01777964,-0.00277194,-0.00196719,-0
 .26999056,-0.04651048,-0.04807679,0.00563360,-0.00430079,-0.00292684,0
 .00025766,0.00013411,-0.00009840,-0.00002842,0.00000668,0.00002633,0.0
 0002485,0.00002172,0.00001199,-0.00003713,0.00001906,-0.00001862,0.000
 00830,-0.00004262,0.00002968,-0.00000050,-0.00000442,-0.00000228,-0.00
 000405,-0.00000104,0.00000544,0.00026665,-0.00011478,-0.00004376,0.000
 21765,0.00057194,0.00030785,0.00076929,-0.00052511,-0.00022438,-0.0128
 3790,-0.00154571,-0.00292455,0.29094418,-0.00061615,0.00019045,0.00016
 485,0.00027812,0.00081142,0.00122539,0.00000303,0.00054310,0.00007962,
 -0.00012139,0.00002097,0.00015000,0.00042779,-0.00019428,-0.00033889,-
 0.00023657,-0.00001216,0.00007138,-0.00036596,0.00009979,0.00019033,-0
 .00002116,-0.00003154,0.00004458,0.00000596,0.00002324,-0.00000545,-0.
 00000060,0.00000679,-0.00000464,-0.00000795,0.00000067,0.00000209,0.00
 000501,-0.00000356,-0.00000561,-0.00001778,0.00001737,0.00000404,-0.00
 656202,-0.00045176,0.00023330,-0.04604497,-0.06120407,-0.00684372,-0.0
 2724884,-0.01664047,-0.01655356,0.00137815,-0.00071587,-0.00083446,-0.
 00000795,0.00001109,-0.00000359,0.00003988,0.00001849,0.00000896,0.000
 00999,-0.00001062,0.00000305,-0.00002601,0.00002245,-0.00000597,0.0000
 0077,-0.00000301,0.00000141,-0.00000113,-0.00000060,0.00000122,0.00002
 598,-0.00002716,-0.00000009,0.00047251,0.00049713,-0.00005877,-0.00008
 841,-0.00002336,-0.00068956,0.02318786,0.00641589,0.00496314,0.0561288
 2,0.06886570,0.00291678,-0.00095930,-0.00016396,-0.00210582,0.00106107
 ,-0.00633448,0.00019760,0.00061073,0.00169114,-0.00016541,0.00003381,0
 .00025553,0.00039039,-0.00028268,-0.00037595,-0.00017666,0.00003781,0.
 00009462,-0.00031697,0.00015875,0.00024180,0.00008891,0.00003718,0.000
 01780,-0.00002678,-0.00002714,-0.00007364,0.00004109,-0.00000994,-0.00
 000393,0.00007954,0.00000451,0.00004830,-0.00009896,0.00003883,0.00007
 403,0.00019945,-0.00006428,-0.00000927,0.03124402,0.00626583,0.0037788
 8,-0.04931311,-0.00730870,-0.05999598,-0.01939165,-0.01440452,-0.00837
 225,0.00160601,-0.00040877,-0.00086010,-0.00002561,-0.00002730,-0.0000
 2424,0.00003600,0.00001367,0.00000497,0.00003914,-0.00001539,0.0000213
 9,0.00000085,0.00001583,-0.00002998,0.00000753,-0.00000144,0.00000389,
 -0.00000036,-0.00000070,-0.00000019,-0.00030910,0.00010451,0.00001292,
 -0.00039764,-0.00041507,0.00113081,-0.00082431,0.00008717,0.00119467,-
 0.01698377,-0.00289490,-0.00291020,0.05310091,0.01728513,0.06983794,0.
 00006791,0.00002285,-0.00004311,-0.00030336,0.00032577,0.00001262,-0.0
 0110212,-0.00082911,0.00102653,-0.00008839,-0.00005099,0.00020532,-0.0
 0049805,0.00028310,0.00031913,0.00025281,0.00003413,-0.00007649,0.0004
 2473,-0.00040455,-0.00003938,0.00001928,0.00005405,-0.00001510,-0.0000
 0381,-0.00003327,0.00000750,-0.00000601,-0.00001011,-0.00000063,0.0000
 2449,-0.00000958,-0.00000612,-0.00001685,0.00000403,0.00000459,0.00002
 855,-0.00001411,0.00001241,-0.00035870,0.00069140,-0.00016471,-0.00090
 891,-0.00915570,-0.00097136,-0.13435682,0.18881069,-0.08663163,0.00041
 671,0.00236995,-0.00164011,-0.00012353,-0.00000909,-0.00000647,-0.0000
 5517,-0.00000602,-0.00003189,0.00001536,0.00000817,0.00000105,0.000016
 18,-0.00003089,-0.00001759,-0.00000080,0.00000609,-0.00000139,0.000000
 54,0.00000391,-0.00000170,-0.00003779,0.00003313,-0.00000087,0.0000819
 4,-0.00039902,0.00015233,0.00015968,0.00008412,0.00064302,0.00081486,-
 0.00069165,-0.00001942,0.00143469,-0.00066334,0.00106365,0.13001572,-0
 .00030823,0.00007352,0.00012501,0.00032947,0.00006875,0.00012189,-0.00
 063693,-0.00029157,0.00050561,0.00006746,0.00003428,0.00004059,-0.0001
 7096,0.00020658,0.00018375,0.00006309,-0.00002991,-0.00005269,0.000154
 66,-0.00026770,-0.00004536,-0.00002492,-0.00000005,-0.00000754,0.00000
 611,-0.00000260,0.00001177,-0.00000617,-0.00000158,0.00000202,-0.00001
 575,-0.00000247,-0.00000469,0.00001524,-0.00000481,-0.00000862,-0.0000
 3067,0.00000464,-0.00000350,-0.00030136,0.00113107,0.00003170,0.017694
 75,-0.02587239,0.01233118,0.14558677,-0.25112989,0.10190635,0.00078100
 ,0.00067777,-0.00086650,-0.00005417,-0.00000190,0.00000912,-0.00002561
 ,0.00000940,-0.00001428,-0.00000274,0.00001181,-0.00000561,0.00000446,
 -0.00002125,-0.00000201,-0.00000100,0.00000278,-0.00000184,0.00000066,
 0.00000193,-0.00000029,0.00005149,-0.00001243,0.00000076,-0.00024923,0
 .00011364,-0.00000592,0.00045253,0.00024482,-0.00067801,-0.00102437,-0
 .00341421,-0.00469270,-0.00076045,0.00164654,0.00123769,-0.16677921,0.
 28196480,-0.00022981,-0.00002117,0.00004077,0.00045669,0.00013459,0.00
 004169,0.00002130,0.00002347,-0.00026471,0.00012041,-0.00004970,-0.000
 00740,-0.00004677,0.00011760,0.00013820,0.00001136,-0.00002864,-0.0000
 5032,0.00006140,-0.00013728,-0.00007666,-0.00001355,-0.00001305,-0.000
 00626,0.00000956,0.00000572,0.00001236,-0.00000185,0.00000163,0.000002
 94,-0.00002697,0.00000505,-0.00000325,0.00002408,-0.00000609,-0.000007
 80,-0.00004133,0.00001242,-0.00001267,0.00012603,-0.00090828,0.0021060
 0,0.01270921,-0.01973405,0.00978036,-0.06751970,0.10700920,-0.11794441
 ,-0.00029128,-0.00004229,0.00012752,-0.00000828,-0.00000717,-0.0000118
 8,-0.00000738,0.00000513,0.00000778,-0.00000491,0.00001011,-0.00000635
 ,-0.00000299,-0.00001250,-0.00000124,-0.00000074,-0.00000069,-0.000001
 52,0.00000067,-0.00000164,0.00000027,0.00005937,-0.00003082,0.00000660
 ,-0.00027252,0.00038960,-0.00012900,-0.00028937,0.00088450,-0.00068575
 ,0.00029783,-0.00425336,-0.00187689,-0.00008246,-0.00000556,0.00053156
 ,0.07804409,-0.11220311,0.12153213,-0.00032201,0.00006151,-0.00005044,
 0.00098985,-0.00023001,-0.00006303,-0.00216064,0.00040213,-0.00026210,
 0.00025290,0.00022754,0.00021778,-0.00074524,0.00043647,0.00075979,0.0
 0041826,-0.00003432,-0.00015111,0.00058429,-0.00010736,-0.00071285,-0.
 00017002,-0.00006864,0.00000037,-0.00001076,0.00005096,0.00001197,-0.0
 0002527,0.00001462,0.00000797,-0.00001899,-0.00001669,-0.00004081,0.00
 004367,-0.00001995,-0.00003223,-0.00004319,0.00001228,-0.00001006,0.00
 016116,0.00117953,0.00084926,-0.00337443,-0.00370869,-0.00706534,-0.07
 085402,-0.01927196,0.15902067,0.00145684,-0.00061563,0.00203133,-0.000
 07708,-0.00002612,-0.00003302,-0.00007344,-0.00005483,0.00000137,-0.00
 008074,0.00001855,-0.00002741,0.00002227,0.00001246,0.00005087,-0.0000
 0900,0.00000238,-0.00000370,0.00000327,-0.00000095,-0.00000325,0.00010
 373,-0.00002580,0.00001620,-0.00002565,0.00000460,0.00054675,0.0000849
 2,-0.00000551,-0.00020382,0.00038154,0.00051096,0.00034948,0.00042971,
 0.00006638,-0.00087569,0.00408686,0.00518407,-0.02310209,0.06897120,0.
 00030836,0.00005673,0.00023958,-0.00067062,-0.00034450,-0.00050584,-0.
 00017337,0.00031104,0.00025892,0.00009084,0.00010224,0.00006851,-0.000
 17836,0.00015906,0.00023365,0.00013878,-0.00001176,-0.00004390,0.00018
 567,-0.00010984,-0.00023151,-0.00002326,0.00003749,-0.00001715,-0.0000
 0813,-0.00001780,-0.00001134,0.00000574,-0.00000592,0.00000491,0.00000
 605,-0.00000033,0.00000938,-0.00001326,0.00000531,0.00000816,0.0000210
 3,-0.00001407,-0.00000336,-0.00120635,-0.00547513,-0.00272975,0.011857
 65,0.00618258,-0.03187180,-0.01387891,-0.07343058,0.07667265,0.0004467
 1,-0.00025224,0.00042317,-0.00002068,-0.00001977,-0.00000919,-0.000023
 41,-0.00000307,0.00000213,-0.00000099,0.00001263,-0.00000277,-0.000004
 39,-0.00002417,-0.00001098,0.00000152,0.00000388,-0.00000096,-0.000000
 14,0.00000164,-0.00000051,-0.00003638,0.00001942,-0.00000323,0.0008614
 3,0.00043732,-0.00152846,-0.00027761,0.00019288,-0.00002168,0.00062865
 ,0.00077120,0.00056743,-0.00039383,0.00012736,-0.00017238,-0.01364476,
 -0.00513960,0.02885636,0.01600203,0.07642800,0.00005365,0.00017030,0.0
 0016457,-0.00011825,-0.00032679,-0.00026026,-0.00071155,0.00028131,0.0
 0029852,0.00008863,0.00011175,0.00009725,-0.00009222,0.00009285,0.0001
 5697,0.00006106,-0.00001576,-0.00003329,0.00006229,-0.00002838,-0.0001
 9442,-0.00003487,-0.00001242,-0.00000773,-0.00000374,0.00001171,-0.000
 00187,-0.00000009,0.00000362,0.00000407,-0.00000512,-0.00000173,-0.000
 00395,0.00000439,-0.00000299,-0.00000411,-0.00000593,-0.00000186,-0.00
 000747,-0.00163157,-0.00465032,-0.00095943,0.00923568,0.00567205,-0.01
 703807,0.11469521,0.06557199,-0.36224319,0.00105145,-0.00023671,-0.000
 00479,-0.00002841,-0.00001201,-0.00000002,-0.00001197,-0.00001132,0.00
 000998,-0.00002452,0.00000473,-0.00000708,0.00000877,-0.00000191,0.000
 01249,-0.00000236,0.00000004,-0.00000084,0.00000043,-0.00000009,-0.000
 00071,0.00001175,-0.00000022,0.00000031,0.00092556,0.00035013,-0.00065
 492,-0.00018608,-0.00007645,0.00048525,0.00026950,0.00028196,0.0013777
 4,-0.00056057,0.00092137,0.00021394,0.00817573,0.00208522,-0.01324208,
 -0.13122685,-0.07018006,0.39184314\\0.00000044,-0.00000014,0.00000008,
 -0.00000022,0.00000016,0.,0.00000007,0.00000006,-0.00000034,0.,0.00000
 001,-0.00000005,0.00000004,0.00000020,-0.00000001,-0.00000016,-0.00000
 002,-0.00000008,0.00000009,0.00000002,-0.00000030,-0.00000022,0.000000
 22,0.00000027,0.00000009,-0.00000017,0.00000003,-0.00000016,0.00000004
 ,0.00000017,-0.00000024,-0.00000006,0.00000002,0.00000004,-0.00000024,
 -0.00000010,-0.00000027,0.00000008,0.00000035,-0.00000004,-0.00000016,
 0.00000004,0.00000027,0.00000007,0.00000003,-0.00000011,0.00000051,-0.
 00000024,0.00000028,-0.00000076,0.00000027,0.,0.,-0.00000005,0.0000000
 2,0.00000012,-0.00000025,0.,0.00000016,0.00000001,0.00000014,0.0000001
 4,0.00000003,-0.00000002,0.00000003,0.00000003,0.,-0.00000019,0.000000
 18,0.00000011,-0.00000018,-0.00000014,0.00000004,-0.00000013,0.0000000
 8,0.00000002,-0.00000006,0.,-0.00000006,0.00000011,0.00000004,0.000000
 01,0.00000007,0.00000009,-0.00000028,-0.00000008,-0.00000007,0.0000001
 1,0.00000022,-0.00000007\\\@


 IT IS A QUALITY OF REVOLUTIONS NOT TO GO BY OLD LINES OR OLD LAWS,
 BUT TO BREAK UP BOTH, AND MAKE NEW ONES.
                                              -- A. LINCOLN (1848)
 Job cpu time:       1 days  1 hours 42 minutes 30.3 seconds.
 File lengths (MBytes):  RWF=   1142 Int=      0 D2E=      0 Chk=     44 Scr=      1
 Normal termination of Gaussian 09 at Thu Jul 29 11:15:11 2021.
